Converted from moscito
32400
    1SOL     ow    1   0.544   2.443   1.825 -0.0355  0.6475 -0.3916
    1SOL     hw    2   0.631   2.465   1.791  0.2346  1.7206  0.9009
    1SOL     hw    3   0.534   2.499   1.902 -0.4957 -1.8378  1.4742
    1SOL     vw    4   0.554   2.454   1.831 -0.0606  0.4611  0.0252
    2SOL     ow    5   4.006   1.300   2.529 -0.6685  0.9153 -0.0781
    2SOL     hw    6   4.098   1.299   2.502 -0.8926  0.6731 -0.8804
    2SOL     hw    7   4.007   1.266   2.618 -0.2140 -1.6370 -0.9463
    2SOL     vw    8   4.018   1.295   2.537 -0.6378  0.5466 -0.2985
    3SOL     ow    9   2.295   4.810   5.901 -0.1337 -0.3535  0.2826
    3SOL     hw   10   2.274   4.847   5.987  0.6199  1.6671 -0.3400
    3SOL     hw   11   2.387   4.785   5.908 -0.3253 -1.0554  0.3353
    3SOL     vw   12   2.304   4.812   5.914 -0.0596 -0.1793  0.2077
    4SOL     ow   13   5.817   3.895   5.642 -0.4985 -0.4931  0.2076
    4SOL     hw   14   5.742   3.876   5.697 -0.7665  0.4531  0.1954
    4SOL     hw   15   5.893   3.886   5.700 -0.7245 -0.1927  0.5497
    4SOL     vw   16   5.817   3.892   5.657 -0.5634 -0.3287  0.2511
    5SOL     ow   17   4.994   6.874   3.622  0.1168 -0.3122 -0.0764
    5SOL     hw   18   5.024   6.846   3.536  0.3867 -0.9083  0.2064
    5SOL     hw   19   4.941   6.801   3.654  0.2487 -0.2144  0.3752
    5SOL     vw   20   4.991   6.860   3.615  0.1700 -0.3781  0.0205
    6SOL     ow   21   7.173   2.964   5.392  0.0263  0.4078 -0.0440
    6SOL     hw   22   7.189   2.938   5.483  1.0212 -0.7153 -0.4997
    6SOL     hw   23   7.254   2.940   5.346 -0.2043  1.5740 -1.1048
    6SOL     vw   24   7.186   2.957   5.398  0.1273  0.4134 -0.2441
    7SOL     ow   25   4.610   7.075   0.209  0.2619 -0.0268  0.6583
    7SOL     hw   26   4.573   7.000   0.255 -0.8175  0.9835  1.4929
    7SOL     hw   27   4.537   7.111   0.159  1.1374 -0.4044 -0.9553
    7SOL     vw   28   4.596   7.070   0.209  0.2351  0.0565  0.5555
    8SOL     ow   29   7.340   5.893   6.328  0.3065  0.0396  0.3438
    8SOL     hw   30   7.381   5.915   6.412  0.6644 -2.4534  0.8836
    8SOL     hw   31   7.246   5.896   6.345  0.3410  0.8243  0.4514
    8SOL     vw   32   7.333   5.897   6.342  0.3583 -0.1857  0.4289
    9SOL     ow   33   4.851   0.623   1.043 -0.3587 -0.6066 -0.4451
    9SOL     hw   34   4.875   0.662   1.127 -0.7087 -1.3637  0.0148
    9SOL     hw   35   4.864   0.694   0.979 -1.2295  0.3542  0.4052
    9SOL     vw   36   4.856   0.638   1.046 -0.5200 -0.5797 -0.2722
   10SOL     ow   37   6.905   4.968   4.907 -0.0958  0.2888 -0.3109
   10SOL     hw   38   6.849   4.929   4.840 -0.3803  2.4940 -1.4521
   10SOL     hw   39   6.972   4.902   4.924 -1.3732 -1.2586 -1.0277
   10SOL     vw   40   6.906   4.954   4.900 -0.3021  0.3757 -0.5562
   11SOL     ow   41   4.517   0.597   4.882  0.3890 -0.5138  0.4762
   11SOL     hw   42   4.485   0.679   4.919 -1.4943 -1.1817  0.4383
   11SOL     hw   43   4.518   0.535   4.955  0.8690 -0.7199  0.3046
   11SOL     vw   44   4.513   0.600   4.896  0.2036 -0.6291  0.4485
   12SOL     ow   45   3.781   0.315   4.700  0.8079  0.1393  0.4309
   12SOL     hw   46   3.832   0.242   4.666  1.3469  0.8956 -0.4369
   12SOL     hw   47   3.710   0.274   4.750  0.2354 -1.0063 -1.2355
   12SOL     vw   48   3.778   0.300   4.702  0.8035  0.0879  0.0968
   13SOL     ow   49   4.597   7.304   3.751 -0.5887 -0.2506  0.7731
   13SOL     hw   50   4.611   7.373   3.686 -0.9074  0.1584  1.1297
   13SOL     hw   51   4.510   7.322   3.786 -0.4879 -0.5724  1.1909
   13SOL     vw   52   4.587   7.316   3.747 -0.6175 -0.2387  0.8754
   14SOL     ow   53   6.805   0.780   0.010  0.4115  0.2787 -0.2187
   14SOL     hw   54   6.741   0.753   0.076  1.1628  0.4783  0.6123
   14SOL     hw   55   6.821   0.873   0.029  1.7592 -0.0384  0.2935
   14SOL     vw   56   6.799   0.789   0.021  0.6883  0.2632 -0.0415
   15SOL     ow   57   0.987   5.740   0.474 -0.1713  0.2557  0.3115
   15SOL     hw   58   0.950   5.825   0.450 -1.3781 -0.7206 -1.5827
   15SOL     hw   59   1.066   5.732   0.421  1.6841  1.4228  2.7590
   15SOL     vw   60   0.992   5.750   0.464 -0.0858  0.2806  0.3845
   16SOL     ow   61   1.623   4.455   6.911 -0.3153 -0.4562  0.0157
   16SOL     hw   62   1.645   4.418   6.996  0.9827  0.3904  0.0833
   16SOL     hw   63   1.663   4.394   6.848 -2.7454 -2.0572 -0.1316
   16SOL     vw   64   1.631   4.442   6.914 -0.4647 -0.5558  0.0052
   17SOL     ow   65   5.758   4.788   2.990 -0.8498 -0.0142  0.1446
   17SOL     hw   66   5.832   4.831   2.948 -2.3735  0.4757 -2.1886
   17SOL     hw   67   5.782   4.696   2.994 -0.3743  0.0350 -1.2370
   17SOL     vw   68   5.771   4.782   2.985 -0.9880  0.0567 -0.3455
   18SOL     ow   69   1.711   7.419   5.392 -0.4540  0.0829 -0.0012
   18SOL     hw   70   1.705   7.465   5.476  2.7338  0.6424  0.0386
   18SOL     hw   71   1.657   7.471   5.332  1.0128  2.4975  0.6517
   18SOL     vw   72   1.703   7.432   5.395  0.1602  0.4754  0.0901
   19SOL     ow   73   0.296   3.921   2.135  0.2930 -1.2886  0.2759
   19SOL     hw   74   0.324   3.866   2.208 -1.9950 -2.3554  0.4351
   19SOL     hw   75   0.261   3.859   2.070 -1.2484 -0.1417 -0.0505
   19SOL     vw   76   0.295   3.906   2.136 -0.2123 -1.2779  0.2539
   20SOL     ow   77   6.614   4.049   6.492 -0.1710 -0.1637  0.5860
   20SOL     hw   78   6.670   4.008   6.557 -0.8749 -1.1353  0.5996
   20SOL     hw   79   6.672   4.072   6.420  0.2800 -0.9206  0.7085
   20SOL     vw   80   6.629   4.047   6.491 -0.2046 -0.3917  0.6042
   21SOL     ow   81   0.670   1.372   5.353  0.6171 -0.7977 -0.3468
   21SOL     hw   82   0.750   1.326   5.326  0.3094 -0.3549 -2.1168
   21SOL     hw   83   0.695   1.465   5.354  0.8529 -0.8389  1.8444
   21SOL     vw   84   0.684   1.378   5.350  0.6076 -0.7448 -0.2916
   22SOL     ow   85   6.716   0.345   2.505 -0.8007  0.1543 -0.6269
   22SOL     hw   86   6.744   0.363   2.416  1.6283  1.0389  0.2444
   22SOL     hw   87   6.706   0.432   2.545  1.4026 -0.1954  0.8503
   22SOL     vw   88   6.718   0.359   2.498 -0.1895  0.2248 -0.3171
   23SOL     ow   89   0.622   6.670   1.326  0.5716  0.1904 -0.2645
   23SOL     hw   90   0.666   6.692   1.409 -0.2227 -1.9550  0.7879
   23SOL     hw   91   0.657   6.584   1.302 -0.7047 -0.1239 -1.0940
   23SOL     vw   92   0.632   6.662   1.334  0.2984 -0.1340 -0.2351
   24SOL     ow   93   7.404   0.749   0.285  0.9793 -0.5156 -0.6305
   24SOL     hw   94   7.411   0.819   0.220 -1.4622 -1.6033 -2.2522
   24SOL     hw   95   7.427   0.791   0.368 -0.8022  2.3799 -1.4277
   24SOL     vw   96   7.408   0.764   0.287  0.4222 -0.2771 -0.9497
   25SOL     ow   97   6.997   3.953   7.322 -0.2637 -0.2997  0.2485
   25SOL     hw   98   7.046   3.898   7.261  0.6383 -0.1719  0.8336
   25SOL     hw   99   7.040   3.939   7.406  0.7017  2.1028  0.2350
   25SOL     vw  100   7.009   3.944   7.325 -0.0174  0.0342  0.3240
   26SOL     ow  101   0.026   0.836   5.920  0.7636  0.1287  0.1894
   26SOL     hw  102  -0.045   0.776   5.942 -0.0721  0.9736 -0.0881
   26SOL     hw  103  -0.010   0.890   5.849  1.8406  0.2977 -0.2471
   26SOL     vw  104   0.012   0.835   5.913  0.7954  0.2625  0.0954
   27SOL     ow  105   1.008   6.763   1.005  0.4298  0.1810  0.0289
   27SOL     hw  106   0.942   6.769   1.074  2.2883 -1.9554  2.1676
   27SOL     hw  107   0.959   6.774   0.924 -1.6901  4.3588  1.5485
   27SOL     vw  108   0.993   6.765   1.004  0.3953  0.4506  0.5116
   28SOL     ow  109   7.269   0.435   0.310 -0.1415  0.2908 -0.2644
   28SOL     hw  110   7.195   0.471   0.359  0.2371 -0.6342  1.0308
   28SOL     hw  111   7.296   0.359   0.360 -1.3716 -2.3457 -3.2811
   28SOL     vw  112   7.263   0.430   0.323 -0.2534 -0.1791 -0.4915
   29SOL     ow  113   1.548   7.439   0.616 -0.7969 -0.2651 -0.0169
   29SOL     hw  114   1.635   7.417   0.650 -1.1158 -0.8077  0.4492
   29SOL     hw  115   1.564   7.515   0.560  0.0504 -0.6276 -0.2939
   29SOL     vw  116   1.562   7.446   0.613 -0.7272 -0.3841  0.0080
   30SOL     ow  117   0.476   3.611   7.478 -0.0039  0.4498 -0.1104
   30SOL     hw  118   0.404   3.657   7.521 -0.8042 -0.0150 -0.9138
   30SOL     hw  119   0.433   3.542   7.426  1.1212 -0.8498  0.6237
   30SOL     vw  120   0.460   3.608   7.477  0.0389  0.2171 -0.1194
   31SOL     ow  121   4.575   4.758   0.493 -0.0864 -0.4881 -0.3164
   31SOL     hw  122   4.608   4.668   0.505 -1.4445 -1.1329 -1.1386
   31SOL     hw  123   4.569   4.768   0.398  0.1109  0.5054 -0.2272
   31SOL     vw  124   4.579   4.747   0.482 -0.2394 -0.4420 -0.4131
   32SOL     ow  125   0.624   0.168   6.076  0.3478 -0.3406 -0.0900
   32SOL     hw  126   0.645   0.085   6.033  0.5688 -1.2729  1.7140
   32SOL     hw  127   0.547   0.201   6.030 -0.6158 -2.2767  0.0588
   32SOL     vw  128   0.617   0.162   6.065  0.2498 -0.7191  0.1674
   33SOL     ow  129   3.419   4.483   2.981 -0.1754 -0.2152 -0.3623
   33SOL     hw  130   3.326   4.496   2.998  0.0589 -0.1953  0.9657
   33SOL     hw  131   3.460   4.566   3.006  0.3756 -0.7446  0.5594
   33SOL     vw  132   3.412   4.496   2.986 -0.0719 -0.2823 -0.0654
   34SOL     ow  133   6.133   5.930   2.212 -0.1015 -0.1900 -0.4481
   34SOL     hw  134   6.075   5.865   2.252 -1.0853  1.6099  1.2651
   34SOL     hw  135   6.130   6.005   2.272  0.9176  1.4816 -2.3402
   34SOL     vw  136   6.125   5.931   2.225 -0.0968  0.2680 -0.4717
   35SOL     ow  137   4.822   7.507   4.696  0.1639  0.4886  0.0236
   35SOL     hw  138   4.870   7.451   4.757 -1.8561  0.1809  1.4506
   35SOL     hw  139   4.731   7.503   4.727 -0.3394  3.2602 -0.7974
   35SOL     vw  140   4.817   7.499   4.708 -0.1690  0.8137  0.1035
   36SOL     ow  141   1.555   3.640   6.783 -0.2107 -0.2767  0.1721
   36SOL     hw  142   1.644   3.616   6.757  0.2328  0.7563  0.7240
   36SOL     hw  143   1.540   3.591   6.864 -0.0042 -0.1540  0.2845
   36SOL     vw  144   1.565   3.630   6.790 -0.1250 -0.1241  0.2599
   37SOL     ow  145   4.903   4.483   2.625  0.1227 -0.5435 -0.2427
   37SOL     hw  146   4.908   4.389   2.613 -1.0564 -0.7432  0.7203
   37SOL     hw  147   4.935   4.498   2.714 -2.1650 -0.3444  0.6068
   37SOL     vw  148   4.908   4.473   2.635 -0.3347 -0.5438 -0.0037
   38SOL     ow  149   0.279   3.754   6.040 -0.1332  0.4878 -0.3412
   38SOL     hw  150   0.254   3.689   6.106  0.8710 -1.0695 -1.4046
   38SOL     hw  151   0.329   3.819   6.089  0.6634 -0.6712  0.4587
   38SOL     vw  152   0.282   3.754   6.055  0.1044  0.1295 -0.3762
   39SOL     ow  153   0.422   5.587   2.483  0.0995 -0.0576  0.0055
   39SOL     hw  154   0.400   5.643   2.408 -1.2491 -3.4477 -2.3897
   39SOL     hw  155   0.504   5.544   2.457  0.3254 -0.3189  1.1125
   39SOL     vw  156   0.430   5.589   2.470 -0.0486 -0.5391 -0.1644
   40SOL     ow  157   0.688   5.085   3.609 -0.2479  0.3980  0.0384
   40SOL     hw  158   0.782   5.067   3.611 -0.4244 -0.5582  0.3537
   40SOL     hw  159   0.676   5.157   3.672 -0.0006 -0.9590  1.7186
   40SOL     vw  160   0.699   5.092   3.618 -0.2386  0.0927  0.3017
   41SOL     ow  161   6.447   2.636   0.517  0.1090  0.1714 -0.7566
   41SOL     hw  162   6.499   2.558   0.537 -1.6940 -1.0407 -0.6028
   41SOL     hw  163   6.452   2.645   0.422  0.1850 -0.2183 -0.7908
   41SOL     vw  164   6.455   2.627   0.507 -0.1190 -0.0401 -0.7409
   42SOL     ow  165   7.382   0.955   4.113 -0.5130 -0.3377 -0.1957
   42SOL     hw  166   7.339   1.007   4.045  0.6128 -0.5267 -1.0911
   42SOL     hw  167   7.313   0.899   4.148 -1.3182  0.4214 -0.5279
   42SOL     vw  168   7.368   0.954   4.109 -0.4709 -0.2625 -0.3576
   43SOL     ow  169   0.952   6.348   2.655  0.7463 -0.3857 -0.2635
   43SOL     hw  170   0.893   6.413   2.693  2.2612  0.5770  0.5553
   43SOL     hw  171   1.020   6.400   2.613  1.6805 -1.4455 -0.1004
   43SOL     vw  172   0.953   6.364   2.655  1.0695 -0.3989 -0.1339
   44SOL     ow  173   3.005   6.339   7.185 -0.1478  0.2328 -0.2198
   44SOL     hw  174   2.962   6.254   7.184  2.4524 -1.1882  0.3452
   44SOL     hw  175   3.033   6.351   7.276 -1.6180  2.3866  0.0364
   44SOL     vw  176   3.003   6.329   7.197  0.0012  0.3297 -0.1113
   45SOL     ow  177   2.123   0.025   2.692  0.5630 -0.0359  0.1287
   45SOL     hw  178   2.051   0.069   2.736  0.0311 -1.3138  0.5854
   45SOL     hw  179   2.095   0.019   2.600  1.1721  1.6122 -0.1926
   45SOL     vw  180   2.110   0.030   2.686  0.5733  0.0130  0.1464
   46SOL     ow  181   7.010   5.405   1.216 -0.0360  0.2668 -0.2678
   46SOL     hw  182   6.966   5.320   1.219 -0.1978  0.2832 -1.5749
   46SOL     hw  183   7.012   5.434   1.308  1.2774 -1.7559  0.4194
   46SOL     vw  184   7.004   5.397   1.229  0.1156  0.0021 -0.3496
   47SOL     ow  185   2.180   5.429   3.776  0.0885 -0.2337 -0.3047
   47SOL     hw  186   2.130   5.495   3.728 -0.1179  0.5161  0.9028
   47SOL     hw  187   2.160   5.347   3.731 -2.5734 -0.0309  0.3322
   47SOL     vw  188   2.171   5.427   3.764 -0.2899 -0.1082 -0.0613
   48SOL     ow  189   1.051   7.322   6.052 -0.2121  0.1773 -0.1767
   48SOL     hw  190   1.066   7.413   6.077  0.4000 -0.2076  0.9068
   48SOL     hw  191   1.109   7.308   5.977 -0.0125  0.5683 -0.0964
   48SOL     vw  192   1.060   7.332   6.045 -0.1050  0.1779 -0.0229
   49SOL     ow  193   3.920   3.252   7.504  0.0491  0.2400 -0.0242
   49SOL     hw  194   3.962   3.337   7.491 -0.6410  0.8285  1.3661
   49SOL     hw  195   3.972   3.209   7.572 -1.4656  0.9384  1.6524
   49SOL     vw  196   3.932   3.257   7.511 -0.2419  0.4100  0.3805
   50SOL     ow  197   0.659   3.194   0.153  0.0342  0.3705  0.3936
   50SOL     hw  198   0.631   3.104   0.132 -4.1542  1.5933 -0.1334
   50SOL     hw  199   0.658   3.198   0.249 -2.6302  0.5146  0.4198
   50SOL     vw  200   0.655   3.182   0.163 -0.8699  0.5510  0.3276
   51SOL     ow  201   0.821   0.338   0.718  0.5630 -0.5289  0.3869
   51SOL     hw  202   0.889   0.398   0.686  0.7117 -0.8819  0.0217
   51SOL     hw  203   0.742   0.365   0.672  0.9820 -1.6674 -1.1075
   51SOL     vw  204   0.820   0.349   0.707  0.6379 -0.7257  0.1416
   52SOL     ow  205   0.228   7.070   3.335  0.2107 -0.1175 -0.0863
   52SOL     hw  206   0.268   7.036   3.255  0.1084  0.5887 -0.4503
   52SOL     hw  207   0.274   7.153   3.351  0.7133 -0.5899  0.9849
   52SOL     vw  208   0.239   7.076   3.326  0.2635 -0.0868  0.0072
   53SOL     ow  209   2.093   4.852   5.688  0.3169 -0.0446 -0.0263
   53SOL     hw  210   2.153   4.916   5.648 -0.5759 -0.3474 -1.9983
   53SOL     hw  211   2.129   4.836   5.775  2.1339  1.0512 -0.5186
   53SOL     vw  212   2.106   4.858   5.694  0.4389  0.0601 -0.3514
   54SOL     ow  213   0.105   2.750   6.450 -0.0348 -0.5363 -0.1518
   54SOL     hw  214   0.020   2.714   6.425 -0.3316 -0.5621  0.8420
   54SOL     hw  215   0.164   2.724   6.379 -1.1426  0.7537 -1.6164
   54SOL     vw  216   0.102   2.742   6.437 -0.2201 -0.3694 -0.2139
   55SOL     ow  217   0.732   6.039   7.364  0.1799 -0.4186 -0.1989
   55SOL     hw  218   0.816   5.994   7.369  0.2639 -0.4406 -1.3909
   55SOL     hw  219   0.751   6.129   7.391  0.1020 -0.9581  1.7455
   55SOL     vw  220   0.745   6.045   7.368  0.1807 -0.4928 -0.0999
   56SOL     ow  221   6.379   0.283   5.985  0.2546  0.2852 -1.1102
   56SOL     hw  222   6.322   0.249   5.916 -0.1003  1.3259 -1.3483
   56SOL     hw  223   6.340   0.252   6.066 -0.7706  1.1415 -1.2606
   56SOL     vw  224   6.366   0.275   5.986  0.0727  0.5355 -1.1613
   57SOL     ow  225   5.708   5.281   0.826 -0.0633  0.2158 -0.1854
   57SOL     hw  226   5.736   5.190   0.833  1.8281  0.6878 -0.9903
   57SOL     hw  227   5.753   5.314   0.748 -0.8703  1.7928 -0.0282
   57SOL     vw  228   5.717   5.273   0.816  0.0799  0.4861 -0.2709
   58SOL     ow  229   1.996   1.674   5.897 -0.9268  0.5400  0.0780
   58SOL     hw  230   1.949   1.593   5.881  1.7937 -0.8726 -1.5357
   58SOL     hw  231   2.060   1.653   5.965  1.8498  0.2696 -2.4063
   58SOL     vw  232   1.998   1.661   5.904 -0.2016  0.3179 -0.4625
   59SOL     ow  233   4.063   6.602   0.702 -0.2617 -0.3496  0.0861
   59SOL     hw  234   4.042   6.520   0.657 -0.1925 -0.8673  0.9702
   59SOL     hw  235   3.978   6.639   0.726 -0.5076  1.4365 -2.9566
   59SOL     vw  236   4.049   6.596   0.699 -0.2849 -0.1824 -0.1987
   60SOL     ow  237   6.580   1.429   3.977 -0.3868  0.6205  0.7703
   60SOL     hw  238   6.625   1.369   3.917  0.3996  3.3015 -1.5255
   60SOL     hw  239   6.487   1.419   3.957 -0.1287  1.5940 -1.1409
   60SOL     vw  240   6.574   1.420   3.967 -0.2491  1.1026  0.2152
   61SOL     ow  241   5.215   1.778   4.719 -0.0286 -0.5244 -0.4928
   61SOL     hw  242   5.172   1.841   4.660 -0.4275 -0.7324 -0.4298
   61SOL     hw  243   5.262   1.718   4.660  1.6721  0.7431 -0.5055
   61SOL     vw  244   5.215   1.778   4.703  0.1431 -0.3846 -0.4861
   62SOL     ow  245   3.176   2.657   6.644 -0.7614 -0.2729  0.2020
   62SOL     hw  246   3.142   2.698   6.565 -1.5787 -1.6816 -0.2301
   62SOL     hw  247   3.228   2.583   6.612 -1.1185 -0.8662  0.9519
   62SOL     vw  248   3.178   2.653   6.629 -0.9165 -0.5370  0.2439
   63SOL     ow  249   6.444   2.142   6.570  0.2882 -1.0759  0.1219
   63SOL     hw  250   6.378   2.099   6.626 -1.0238 -1.9429 -1.9851
   63SOL     hw  251   6.528   2.119   6.611 -0.5694 -2.4537  1.2187
   63SOL     vw  252   6.446   2.133   6.583  0.0019 -1.3720 -0.0114
   64SOL     ow  253   3.013   7.027   1.598 -0.2588 -0.2707  0.2429
   64SOL     hw  254   2.970   7.044   1.682 -0.2407 -1.4312  0.5025
   64SOL     hw  255   3.046   6.937   1.606 -0.6232 -0.5502 -1.1665
   64SOL     vw  256   3.012   7.017   1.611 -0.3045 -0.4604  0.0912
   65SOL     ow  257   7.223   7.036   6.654 -0.3740 -0.2178 -0.5882
   65SOL     hw  258   7.204   7.005   6.565 -0.0803  0.4040 -0.8742
   65SOL     hw  259   7.174   7.119   6.661 -0.1615 -0.1180 -0.2755
   65SOL     vw  260   7.214   7.043   6.643 -0.3076 -0.1223 -0.5848
   66SOL     ow  261   4.710   6.455   6.711  0.7644 -0.0370  0.2310
   66SOL     hw  262   4.652   6.437   6.785  1.3501 -2.1423  0.2425
   66SOL     hw  263   4.651   6.486   6.642 -0.4654 -2.2644  0.1919
   66SOL     vw  264   4.695   6.457   6.711  0.6793 -0.6084  0.2272
   67SOL     ow  265   6.250   4.415   3.605 -0.0343 -0.1186 -0.0994
   67SOL     hw  266   6.235   4.427   3.511  0.2213 -1.1566 -0.2838
   67SOL     hw  267   6.333   4.369   3.611  0.5880  1.0753  0.7082
   67SOL     vw  268   6.259   4.410   3.594  0.0815 -0.0980 -0.0173
   68SOL     ow  269   4.027   1.059   2.398  0.2830  1.2499 -0.9885
   68SOL     hw  270   4.021   1.123   2.469 -3.2137  0.8532 -0.7773
   68SOL     hw  271   3.991   1.105   2.322 -2.4725 -0.3715 -0.7922
   68SOL     vw  272   4.022   1.074   2.397 -0.5417  0.9837 -0.9348
   69SOL     ow  273   6.277   1.597   1.763  0.1979 -0.4936 -0.0383
   69SOL     hw  274   6.288   1.536   1.690 -0.3195  0.1612 -0.6802
   69SOL     hw  275   6.346   1.662   1.749 -0.1266 -0.1721 -0.1526
   69SOL     vw  276   6.288   1.598   1.751  0.0868 -0.3648 -0.1380
   70SOL     ow  277   4.271   7.150   6.735 -0.2527  0.0860  0.0046
   70SOL     hw  278   4.206   7.106   6.789 -0.2435  1.6441  1.3567
   70SOL     hw  279   4.343   7.169   6.795  1.3922 -1.3639 -1.3960
   70SOL     vw  280   4.272   7.147   6.750 -0.0346  0.1001 -0.0017
   71SOL     ow  281   7.193   1.442   5.416 -0.4523 -0.3775 -0.0904
   71SOL     hw  282   7.128   1.400   5.471 -0.5268 -1.0774 -0.7055
   71SOL     hw  283   7.178   1.536   5.429 -1.5460 -0.5257 -0.1726
   71SOL     vw  284   7.182   1.449   5.425 -0.6065 -0.4895 -0.1822
   72SOL     ow  285   0.721   0.518   5.370  0.3993  0.1176 -0.2396
   72SOL     hw  286   0.672   0.573   5.431 -0.7140 -0.2159 -0.7932
   72SOL     hw  287   0.813   0.531   5.393  0.0298  0.3842  1.1633
   72SOL     vw  288   0.727   0.527   5.381  0.2037  0.1087 -0.1273
   73SOL     ow  289   3.692   4.523   5.733 -0.0054  0.1782 -0.0384
   73SOL     hw  290   3.774   4.527   5.684 -0.5954 -1.7660 -1.3016
   73SOL     hw  291   3.625   4.556   5.673 -0.4580 -0.4320  0.1105
   73SOL     vw  292   3.694   4.528   5.719 -0.1431 -0.1588 -0.1853
   74SOL     ow  293   6.253   1.991   6.675 -0.7426  0.4093 -0.0355
   74SOL     hw  294   6.177   2.007   6.730 -1.5444 -0.4100 -0.8690
   74SOL     hw  295   6.299   1.918   6.717 -1.5974 -0.5168 -0.6536
   74SOL     vw  296   6.249   1.984   6.688 -0.9611  0.1790 -0.2272
   75SOL     ow  297   4.116   5.374   0.639  0.1918 -0.3129  0.6216
   75SOL     hw  298   4.099   5.293   0.687  1.4687 -0.8457  0.2270
   75SOL     hw  299   4.055   5.372   0.565 -1.8987  0.5848  2.2063
   75SOL     vw  300   4.106   5.363   0.636  0.0846 -0.2649  0.7786
   76SOL     ow  301   0.298   0.752   5.535  0.0272  0.6090 -0.1653
   76SOL     hw  302   0.297   0.775   5.628 -1.3497  0.4571 -0.1095
   76SOL     hw  303   0.346   0.823   5.493 -0.9803  1.7057  0.4580
   76SOL     vw  304   0.304   0.765   5.542 -0.2874  0.7337 -0.0758
   77SOL     ow  305   2.410   5.290   7.360 -0.2302 -0.4912  0.4647
   77SOL     hw  306   2.375   5.203   7.380 -1.8373 -0.7717 -2.8642
   77SOL     hw  307   2.353   5.351   7.407 -0.3715 -1.1731  1.1909
   77SOL     vw  308   2.398   5.287   7.368 -0.4611 -0.6182  0.1209
   78SOL     ow  309   4.808   5.021   0.775  0.0613 -0.3264 -0.5106
   78SOL     hw  310   4.730   5.057   0.818  1.3755  2.2549 -0.0664
   78SOL     hw  311   4.778   4.992   0.690 -1.3517  0.9964 -0.5102
   78SOL     vw  312   4.794   5.022   0.770  0.0482  0.1886 -0.4519
   79SOL     ow  313   6.073   7.027   1.107  0.1082 -0.8811 -0.0020
   79SOL     hw  314   6.059   7.075   1.189  0.7638 -2.4176  1.0449
   79SOL     hw  315   6.012   7.068   1.045 -0.1902  0.5132  1.1538
   79SOL     vw  316   6.063   7.039   1.109  0.1552 -0.8998  0.2885
   80SOL     ow  317   3.215   4.815   1.778  0.2928  1.0089  0.1048
   80SOL     hw  318   3.263   4.817   1.861  1.0147  2.3359 -0.3265
   80SOL     hw  319   3.124   4.799   1.804  0.7576 -0.4372  1.0070
   80SOL     vw  320   3.210   4.813   1.793  0.4493  0.9933  0.1670
   81SOL     ow  321   5.523   4.645   2.381  0.5413  0.3080  0.1387
   81SOL     hw  322   5.595   4.617   2.324 -0.8897  0.7745 -2.0269
   81SOL     hw  323   5.452   4.585   2.361 -0.0343  0.5056  1.4802
   81SOL     vw  324   5.523   4.633   2.371  0.2763  0.3958  0.0300
   82SOL     ow  325   3.432   4.161   7.186 -0.1312 -0.1423 -0.0820
   82SOL     hw  326   3.475   4.246   7.182 -0.5685  0.0630 -0.6151
   82SOL     hw  327   3.413   4.139   7.095  1.2418 -1.4847 -0.0819
   82SOL     vw  328   3.435   4.169   7.174 -0.0077 -0.2921 -0.1523
   83SOL     ow  329   4.981   6.833   1.200 -0.2179 -0.5411  0.2833
   83SOL     hw  330   4.934   6.906   1.160  0.0328 -0.0583  0.8497
   83SOL     hw  331   5.014   6.869   1.282  1.8937 -0.5785 -0.4931
   83SOL     vw  332   4.979   6.847   1.205  0.0937 -0.4821  0.2555
   84SOL     ow  333   3.472   4.906   0.846 -0.3175  0.1007 -0.2717
   84SOL     hw  334   3.381   4.881   0.829 -0.2187  0.4579 -1.3867
   84SOL     hw  335   3.521   4.825   0.836 -0.2783  0.2648 -1.7046
   84SOL     vw  336   3.466   4.892   0.842 -0.2992  0.1693 -0.6079
   85SOL     ow  337   2.417   4.428   7.210  0.5371  0.2645  0.1816
   85SOL     hw  338   2.323   4.434   7.191  0.8027  0.7225 -1.1372
   85SOL     hw  339   2.456   4.501   7.162  1.5338  0.2733  0.9770
   85SOL     vw  340   2.410   4.438   7.201  0.7037  0.3262  0.1125
   86SOL     ow  341   2.084   4.685   4.192 -0.2479 -0.2733 -0.3513
   86SOL     hw  342   2.106   4.636   4.271 -0.8693  2.4943  1.6778
   86SOL     hw  343   2.163   4.735   4.171 -0.9599  1.1980  0.3139
   86SOL     vw  344   2.097   4.685   4.200 -0.4237  0.2861  0.0043
   87SOL     ow  345   1.439   6.698   4.935  0.2438 -0.5361 -0.0777
   87SOL     hw  346   1.384   6.665   4.863  0.7219 -0.0048 -0.7021
   87SOL     hw  347   1.380   6.751   4.988  0.0546 -0.3049 -0.5153
   87SOL     vw  348   1.424   6.701   4.932  0.2818 -0.4354 -0.2182
   88SOL     ow  349   7.544   5.092   4.575 -0.5398 -0.8250 -0.0637
   88SOL     hw  350   7.564   5.146   4.498 -1.3209 -1.5189 -0.7702
   88SOL     hw  351   7.495   5.018   4.540  0.0453 -1.7193  0.9713
   88SOL     vw  352   7.540   5.089   4.560 -0.5657 -1.0343 -0.0200
   89SOL     ow  353   4.981   2.590   4.574 -0.0842 -0.2296 -0.2568
   89SOL     hw  354   5.055   2.605   4.633  1.0019  0.0529 -1.6409
   89SOL     hw  355   4.992   2.499   4.544 -0.2288 -0.1496 -0.5554
   89SOL     vw  356   4.992   2.580   4.578  0.0401 -0.1818 -0.4787
   90SOL     ow  357   6.357   7.096   0.682  0.4676 -0.0037  0.9188
   90SOL     hw  358   6.294   7.037   0.725 -1.6172 -0.0373 -1.8727
   90SOL     hw  359   6.346   7.179   0.728 -0.7137 -0.3396  1.3023
   90SOL     vw  360   6.347   7.099   0.694  0.0367 -0.0522  0.6011
   91SOL     ow  361   7.303   0.705   1.259  0.5981  1.0113  0.0734
   91SOL     hw  362   7.345   0.789   1.278 -0.9774  1.8188  0.1641
   91SOL     hw  363   7.330   0.684   1.170  3.6256 -0.0643  1.1294
   91SOL     vw  364   7.312   0.714   1.250  0.7896  0.9759  0.2246
   92SOL     ow  365   4.323   6.760   7.175 -0.6977  1.1979  0.3411
   92SOL     hw  366   4.292   6.685   7.125  0.2830  1.0430 -0.0665
   92SOL     hw  367   4.346   6.724   7.261 -0.0295  0.9809  0.0778
   92SOL     vw  368   4.322   6.746   7.180 -0.4804  1.1487  0.2522
   93SOL     ow  369   3.332   1.813   6.942 -0.3338 -0.5659 -0.3950
   93SOL     hw  370   3.262   1.876   6.958  0.5939  0.1527  0.9865
   93SOL     hw  371   3.303   1.732   6.985 -0.4996 -0.3978 -0.1937
   93SOL     vw  372   3.319   1.810   6.950 -0.2333 -0.4488 -0.1862
   94SOL     ow  373   7.058   3.964   0.032  0.0182 -0.6574  0.7614
   94SOL     hw  374   7.047   4.059   0.041  0.2650 -0.7315  2.2359
   94SOL     hw  375   6.974   3.927   0.058  0.7270 -0.8934  3.0277
   94SOL     vw  376   7.046   3.972   0.037  0.1442 -0.6982  1.2548
   95SOL     ow  377   1.566   0.882   1.857 -0.2772  0.0831 -0.0095
   95SOL     hw  378   1.493   0.927   1.900 -0.6043  1.5423 -1.9417
   95SOL     hw  379   1.551   0.790   1.876  0.2869  0.6503  3.9045
   95SOL     vw  380   1.554   0.876   1.865 -0.2459  0.3504  0.2520
   96SOL     ow  381   7.552   0.561   3.797 -0.2767  0.4378  0.7177
   96SOL     hw  382   7.611   0.637   3.790  0.3470 -0.0442  0.6743
   96SOL     hw  383   7.525   0.544   3.707 -1.1673  1.1790  0.8269
   96SOL     vw  384   7.556   0.569   3.784 -0.3119  0.4720  0.7263
   97SOL     ow  385   0.394   4.705   6.133  0.2070 -1.0205  0.2235
   97SOL     hw  386   0.448   4.715   6.211 -0.7792  0.4746  0.7576
   97SOL     hw  387   0.383   4.794   6.100  2.8575 -1.7439 -3.2798
   97SOL     vw  388   0.400   4.718   6.139  0.4266 -0.9186 -0.1683
   98SOL     ow  389   4.153   6.811   2.830  0.6994 -0.0311  0.3720
   98SOL     hw  390   4.223   6.875   2.820 -0.0356  0.5741 -1.1469
   98SOL     hw  391   4.083   6.859   2.874  0.1218  0.2540 -0.8277
   98SOL     vw  392   4.153   6.825   2.835  0.5262  0.0863  0.0134
   99SOL     ow  393   6.072   1.038   2.065 -0.1069 -0.2939 -0.6828
   99SOL     hw  394   5.984   1.010   2.037 -0.2704  0.7294 -1.2606
   99SOL     hw  395   6.074   1.132   2.045  0.7726 -0.1009  0.2524
   99SOL     vw  396   6.060   1.047   2.058 -0.0124 -0.1334 -0.6356
  100SOL     ow  397   6.665   4.624   1.146  0.3263 -0.4064  0.2232
  100SOL     hw  398   6.717   4.589   1.074 -0.0728 -1.3749  0.3922
  100SOL     hw  399   6.649   4.549   1.203 -0.5041  0.0674  0.6333
  100SOL     vw  400   6.670   4.610   1.144  0.1643 -0.4716  0.2996
  101SOL     ow  401   6.965   2.896   7.022 -0.7189  0.4881  0.0743
  101SOL     hw  402   6.882   2.941   7.007 -0.2851  1.0506 -0.7307
  101SOL     hw  403   6.942   2.819   7.074 -1.5781  1.2446  0.8466
  101SOL     vw  404   6.951   2.892   7.027 -0.7749  0.6622  0.0703
  102SOL     ow  405   0.401   0.099   4.223  0.1977 -0.2237 -0.1029
  102SOL     hw  406   0.440   0.169   4.275  0.7815 -1.5678  1.3272
  102SOL     hw  407   0.327   0.068   4.275 -1.0242  0.3148 -1.4346
  102SOL     vw  408   0.397   0.104   4.236  0.1135 -0.3300 -0.0899
  103SOL     ow  409   2.622   4.690   1.496 -0.6325  0.4382 -0.4523
  103SOL     hw  410   2.611   4.605   1.454 -1.3921  0.6178 -0.6217
  103SOL     hw  411   2.663   4.670   1.580 -0.5449 -0.0656 -0.6115
  103SOL     vw  412   2.626   4.676   1.501 -0.7212  0.3958 -0.4957
  104SOL     ow  413   5.823   5.387   7.371 -0.6003  0.2477 -0.1309
  104SOL     hw  414   5.903   5.390   7.423 -0.3078 -1.6891 -0.3985
  104SOL     hw  415   5.775   5.466   7.395  0.7739  0.7551  1.0299
  104SOL     vw  416   5.827   5.398   7.381 -0.3803  0.0591 -0.0131
  105SOL     ow  417   0.543   4.382   3.359 -0.0035  0.0797 -0.2161
  105SOL     hw  418   0.522   4.476   3.359  1.5611  0.4622 -0.1922
  105SOL     hw  419   0.485   4.344   3.424 -1.5927  0.7924 -1.1627
  105SOL     vw  420   0.533   4.390   3.367 -0.0067  0.2244 -0.3378
  106SOL     ow  421   3.553   4.893   1.723 -0.0370 -0.1430 -0.3748
  106SOL     hw  422   3.511   4.967   1.679 -1.2412 -0.7264 -0.2492
  106SOL     hw  423   3.519   4.816   1.678  0.3304 -0.6593  0.2226
  106SOL     vw  424   3.543   4.893   1.711 -0.1476 -0.2880 -0.2794
  107SOL     ow  425   5.512   4.966   4.670  0.3879  0.2847  0.4841
  107SOL     hw  426   5.471   4.942   4.753 -0.4118 -0.2175 -0.0453
  107SOL     hw  427   5.580   4.899   4.657  0.5839  0.4231  0.7749
  107SOL     vw  428   5.516   4.954   4.679  0.3085  0.2367  0.4528
  108SOL     ow  429   4.345   3.928   1.714 -0.9036 -0.3661 -0.1211
  108SOL     hw  430   4.265   3.876   1.706  0.1354 -1.7408 -2.7090
  108SOL     hw  431   4.411   3.866   1.744  0.1479 -0.4403 -2.3601
  108SOL     vw  432   4.343   3.913   1.717 -0.6278 -0.5573 -0.7579
  109SOL     ow  433   7.479   0.142   6.799  0.4951 -0.4474 -0.9866
  109SOL     hw  434   7.474   0.182   6.886  1.7914 -1.9728 -0.1684
  109SOL     hw  435   7.394   0.161   6.760  0.5702  1.9798 -0.1813
  109SOL     vw  436   7.467   0.150   6.806  0.6762 -0.3284 -0.7722
  110SOL     ow  437   0.195   6.839   3.763 -0.6608 -0.0287 -0.0224
  110SOL     hw  438   0.154   6.884   3.689 -1.1108  0.7718  0.6913
  110SOL     hw  439   0.179   6.897   3.838  4.2128  1.8396 -0.0995
  110SOL     vw  440   0.187   6.853   3.763 -0.0772  0.3233  0.0616
  111SOL     ow  441   3.615   1.344   0.675  0.2822  0.4996  0.0741
  111SOL     hw  442   3.702   1.382   0.667  0.5753 -0.2013 -0.2505
  111SOL     hw  443   3.556   1.419   0.680  0.9646  0.9902  1.1812
  111SOL     vw  444   3.619   1.359   0.674  0.4108  0.4719  0.1774
  112SOL     ow  445   2.009   7.458   4.235  0.4513  0.1288  0.7283
  112SOL     hw  446   1.926   7.506   4.236  0.5601  0.3102  1.2008
  112SOL     hw  447   2.075   7.526   4.248  0.6095 -0.1420  1.3422
  112SOL     vw  448   2.007   7.474   4.237  0.4866  0.1168  0.8714
  113SOL     ow  449   6.898   7.453   5.398 -0.0773 -0.1672 -0.4421
  113SOL     hw  450   6.819   7.486   5.355 -0.5394 -1.8251 -0.9423
  113SOL     hw  451   6.915   7.516   5.468 -1.6290  0.4134 -0.5468
  113SOL     vw  452   6.890   7.466   5.401 -0.3428 -0.3095 -0.5219
  114SOL     ow  453   1.483   4.484   5.511  0.0022 -0.1788 -0.9280
  114SOL     hw  454   1.504   4.485   5.418 -0.3890 -0.4480 -1.0235
  114SOL     hw  455   1.540   4.417   5.549  0.3973  0.1658 -0.9166
  114SOL     vw  456   1.493   4.475   5.504  0.0027 -0.1688 -0.9389
  115SOL     ow  457   4.565   6.488   0.893 -0.1176  0.3191 -0.6262
  115SOL     hw  458   4.603   6.559   0.944 -0.2883 -0.3526  0.4762
  115SOL     hw  459   4.621   6.481   0.816  1.7916 -0.3626  0.7464
  115SOL     vw  460   4.577   6.496   0.890  0.1118  0.1407 -0.2997
  116SOL     ow  461   0.084   4.303   1.990 -0.1880 -0.3024 -0.0647
  116SOL     hw  462   0.067   4.357   2.068 -2.5161  0.7276 -1.1948
  116SOL     hw  463   0.031   4.225   2.003 -0.9351  0.0726 -0.7822
  116SOL     vw  464   0.075   4.300   2.002 -0.5937 -0.1173 -0.3086
  117SOL     ow  465   2.995   0.388   3.637 -0.2967  0.2300  0.2231
  117SOL     hw  466   3.087   0.399   3.660 -0.2572 -1.0163  0.7379
  117SOL     hw  467   2.990   0.299   3.601 -1.1334  0.6209 -0.6925
  117SOL     vw  468   3.006   0.377   3.635 -0.4019  0.1172  0.1701
  118SOL     ow  469   0.817   3.461   0.833 -0.0781 -0.8556  0.0394
  118SOL     hw  470   0.761   3.475   0.757 -0.3801  0.1475  0.4270
  118SOL     hw  471   0.758   3.433   0.902  0.0292 -0.6766  0.2043
  118SOL     vw  472   0.802   3.459   0.832 -0.1037 -0.6996  0.1123
  119SOL     ow  473   0.158   4.511   6.379  0.1955  0.0020 -0.6359
  119SOL     hw  474   0.135   4.594   6.337 -0.2765  0.5647  0.6858
  119SOL     hw  475   0.136   4.444   6.314 -2.8848  0.6463 -0.4118
  119SOL     vw  476   0.152   4.513   6.365 -0.2732  0.1612 -0.4320
  120SOL     ow  477   0.538   5.976   0.756 -0.0654  0.1185  0.1345
  120SOL     hw  478   0.483   5.899   0.739 -0.3924  0.8216 -2.4688
  120SOL     hw  479   0.628   5.944   0.751 -0.2020 -0.1226 -0.9462
  120SOL     vw  480   0.542   5.962   0.753 -0.1265  0.1795 -0.3515
  121SOL     ow  481   4.315   3.015   0.010  0.0864 -0.0256  0.0394
  121SOL     hw  482   4.228   3.038   0.042  0.6208 -0.1052  1.6054
  121SOL     hw  483   4.374   3.044   0.079  1.1847 -1.3937 -0.2900
  121SOL     vw  484   4.311   3.022   0.023  0.3018 -0.2166  0.2026
  122SOL     ow  485   5.923   3.812   3.887 -0.2545 -0.1806 -0.9300
  122SOL     hw  486   6.012   3.796   3.919 -0.9354 -0.3759  1.0365
  122SOL     hw  487   5.892   3.885   3.940 -2.4212 -2.2777  0.9502
  122SOL     vw  488   5.931   3.819   3.899 -0.6301 -0.4832 -0.4225
  123SOL     ow  489   3.941   4.394   0.040  0.6479  0.2032  0.4241
  123SOL     hw  490   3.900   4.459  -0.017  1.3564  2.1404  1.9875
  123SOL     hw  491   3.887   4.395   0.120 -0.0223 -2.0559  0.0642
  123SOL     vw  492   3.928   4.403   0.043  0.6529  0.1609  0.5827
  124SOL     ow  493   6.423   5.736   1.125 -0.7372  0.0725  0.0309
  124SOL     hw  494   6.489   5.804   1.110  0.3902 -1.1338 -0.7630
  124SOL     hw  495   6.353   5.780   1.172 -1.2542  2.4735 -2.7018
  124SOL     vw  496   6.422   5.751   1.129 -0.6566  0.2301 -0.4344
  125SOL     ow  497   4.229   5.027   1.434  0.8809 -0.0248  0.6470
  125SOL     hw  498   4.322   5.037   1.457  1.3160 -2.0290 -0.0265
  125SOL     hw  499   4.218   4.933   1.421 -0.8867  0.3332 -0.7761
  125SOL     vw  500   4.240   5.016   1.435  0.7050 -0.2420  0.3704
  126SOL     ow  501   3.178   4.431   1.536 -0.2524  0.1815 -0.7772
  126SOL     hw  502   3.261   4.448   1.581 -0.8403  0.9290  0.0668
  126SOL     hw  503   3.119   4.399   1.605  0.0644 -3.0571 -1.8537
  126SOL     vw  504   3.181   4.429   1.551 -0.2884 -0.1471 -0.8078
  127SOL     ow  505   2.008   5.853   3.955  0.0659  0.1678 -0.2502
  127SOL     hw  506   1.926   5.829   3.910 -0.4232 -2.2307  1.7038
  127SOL     hw  507   2.025   5.943   3.926 -2.1471  0.0468 -2.3044
  127SOL     vw  508   1.999   5.862   3.945 -0.2906 -0.1650 -0.2635
  128SOL     ow  509   5.489   4.302   2.285 -0.2894 -0.6590 -0.4192
  128SOL     hw  510   5.478   4.280   2.377  1.9640  0.2630  0.1229
  128SOL     hw  511   5.400   4.310   2.252 -1.1579 -0.4784  1.7971
  128SOL     vw  512   5.476   4.300   2.293 -0.1066 -0.5136 -0.0553
  129SOL     ow  513   1.011   0.727   6.754  0.2481  0.1713  0.4410
  129SOL     hw  514   1.088   0.782   6.743 -1.7559  3.1019 -0.0246
  129SOL     hw  515   0.967   0.729   6.669 -0.6133 -1.0220  0.8278
  129SOL     vw  516   1.016   0.734   6.741 -0.1299  0.4005  0.4308
  130SOL     ow  517   5.659   4.323   1.999  0.3439  0.4824  0.4649
  130SOL     hw  518   5.568   4.354   1.996  0.4908  0.9559  0.6752
  130SOL     hw  519   5.654   4.239   2.045  0.0141  0.5254  0.5160
  130SOL     vw  520   5.646   4.316   2.005  0.3197  0.5507  0.4995
  131SOL     ow  521   1.751   4.487   5.836 -0.5150 -0.3531  0.5371
  131SOL     hw  522   1.781   4.481   5.927 -0.9174 -0.6009  0.6503
  131SOL     hw  523   1.817   4.543   5.794 -0.1049 -0.5685  0.8828
  131SOL     vw  524   1.764   4.494   5.843 -0.5140 -0.4141  0.5977
  132SOL     ow  525   4.350   4.724   0.647 -0.1581 -0.5936  0.0234
  132SOL     hw  526   4.427   4.777   0.626  0.8675 -2.4318 -1.1205
  132SOL     hw  527   4.363   4.698   0.738 -0.5118  0.8101  0.4946
  132SOL     vw  528   4.362   4.728   0.656 -0.0691 -0.6509 -0.0654
  133SOL     ow  529   7.129   5.254   0.353  0.2880 -0.0428 -0.2811
  133SOL     hw  530   7.205   5.306   0.380  0.0276  1.1024 -1.6196
  133SOL     hw  531   7.113   5.281   0.262 -2.0376  0.1639  0.1324
  133SOL     vw  532   7.137   5.265   0.344 -0.0534  0.1357 -0.4031
  134SOL     ow  533   5.433   0.738   2.565 -0.5031 -0.1824  0.7055
  134SOL     hw  534   5.359   0.677   2.561 -0.6103  0.0012 -0.2755
  134SOL     hw  535   5.493   0.709   2.497 -1.2574  1.6747 -0.8385
  134SOL     vw  536   5.431   0.726   2.556 -0.6168  0.0869  0.3723
  135SOL     ow  537   2.488   3.510   1.253  0.2121  0.3067  0.5749
  135SOL     hw  538   2.512   3.418   1.257  1.8214  0.6531 -0.2849
  135SOL     hw  539   2.523   3.541   1.170 -1.8260  1.3132  0.0148
  135SOL     vw  540   2.496   3.502   1.243  0.1556  0.4852  0.3875
  136SOL     ow  541   4.145   1.113   5.172  0.5538 -0.2637  0.7575
  136SOL     hw  542   4.127   1.047   5.105 -1.4508  1.0832 -0.1190
  136SOL     hw  543   4.233   1.145   5.152  0.7724 -1.2898  0.0036
  136SOL     vw  544   4.154   1.108   5.161  0.3181 -0.2214  0.5424
  137SOL     ow  545   5.848   1.895   3.728  0.0623 -0.8206  0.0217
  137SOL     hw  546   5.755   1.902   3.748  0.2548 -0.4491  0.8129
  137SOL     hw  547   5.886   1.975   3.764  1.0414 -2.0065  1.7846
  137SOL     vw  548   5.841   1.906   3.735  0.2170 -0.9280  0.3587
  138SOL     ow  549   2.377   5.115   1.707 -0.3770 -0.4209  0.0079
  138SOL     hw  550   2.383   5.044   1.771  0.4426  1.2677  1.9178
  138SOL     hw  551   2.285   5.118   1.682 -1.0204 -0.2432  2.2486
  138SOL     vw  552   2.366   5.106   1.712 -0.3537 -0.1743  0.5555
  139SOL     ow  553   6.676   2.573   5.814  0.3229  0.0061 -0.0376
  139SOL     hw  554   6.713   2.653   5.851 -1.2044  0.4624  0.5529
  139SOL     hw  555   6.589   2.566   5.853 -0.8082 -0.2588 -2.4472
  139SOL     vw  556   6.670   2.583   5.824 -0.0279  0.0315 -0.2775
  140SOL     ow  557   7.385   5.980   4.978  0.2458  0.2180 -0.1637
  140SOL     hw  558   7.303   5.981   5.028  1.0933 -2.2047  1.4293
  140SOL     hw  559   7.383   6.063   4.929 -2.8812  0.5030  0.1827
  140SOL     vw  560   7.374   5.991   4.978 -0.0551 -0.0641  0.0923
  141SOL     ow  561   4.537   6.941   6.984 -0.0463 -0.1023 -0.4955
  141SOL     hw  562   4.593   7.018   6.971  0.5259 -0.5689 -0.8583
  141SOL     hw  563   4.554   6.886   6.908 -0.9661 -0.2852 -0.5819
  141SOL     vw  564   4.547   6.944   6.972 -0.0923 -0.1879 -0.5548
  142SOL     ow  565   4.513   7.167   0.940  0.3349  0.0506 -0.1971
  142SOL     hw  566   4.433   7.211   0.912  0.7018  0.8845  0.0002
  142SOL     hw  567   4.573   7.239   0.962  0.6959 -0.5532  0.9052
  142SOL     vw  568   4.510   7.183   0.940  0.4311  0.0811 -0.0257
  143SOL     ow  569   5.659   6.185   3.469 -0.3061  0.0541 -0.3236
  143SOL     hw  570   5.654   6.151   3.558  0.5098 -0.0490 -0.3050
  143SOL     hw  571   5.737   6.143   3.432  0.8130  1.9987 -0.2575
  143SOL     vw  572   5.669   6.175   3.476 -0.0510  0.2973 -0.3123
  144SOL     ow  573   1.482   3.846   1.842  0.2367  0.3330 -0.8179
  144SOL     hw  574   1.564   3.797   1.833 -0.1908 -0.3747 -1.0066
  144SOL     hw  575   1.479   3.872   1.934  1.0749  1.1084 -0.9994
  144SOL     vw  576   1.492   3.843   1.853  0.2909  0.3419 -0.8667
  145SOL     ow  577   5.758   4.535   5.369  0.2044  0.4237  0.2563
  145SOL     hw  578   5.691   4.467   5.367 -0.6345  1.1686  1.6382
  145SOL     hw  579   5.826   4.503   5.310  1.1631 -2.9767  2.8846
  145SOL     vw  580   5.758   4.522   5.361  0.2203  0.0734  0.7854
  146SOL     ow  581   5.282   4.550   3.247  0.2956 -0.8042 -0.3548
  146SOL     hw  582   5.293   4.517   3.158 -0.0901 -0.0967 -0.6658
  146SOL     hw  583   5.290   4.471   3.302  1.5860 -1.0930 -0.9190
  146SOL     vw  584   5.284   4.535   3.242  0.4151 -0.7491 -0.4702
  147SOL     ow  585   5.324   0.766   2.268 -0.0920  0.0202 -0.2277
  147SOL     hw  586   5.237   0.729   2.284 -0.9414  1.6587 -0.8475
  147SOL     hw  587   5.335   0.764   2.173  0.2731  0.4276 -0.1981
  147SOL     vw  588   5.314   0.761   2.258 -0.1559  0.2902 -0.3055
  148SOL     ow  589   2.146   6.131   1.508 -0.7344  0.0227 -0.2775
  148SOL     hw  590   2.210   6.145   1.439 -0.2326  0.3797  0.2516
  148SOL     hw  591   2.109   6.045   1.490  1.1235 -0.9537  0.3970
  148SOL     vw  592   2.149   6.122   1.497 -0.4231 -0.0589 -0.1187
  149SOL     ow  593   4.853   7.025   6.930  0.5723  0.3438 -0.4431
  149SOL     hw  594   4.945   7.021   6.957  0.6211  0.8597 -0.5216
  149SOL     hw  595   4.813   7.088   6.990  0.1682 -0.2050 -0.1331
  149SOL     vw  596   4.860   7.033   6.941  0.5255  0.3393 -0.4127
  150SOL     ow  597   3.465   0.811   6.277 -0.3683 -0.5351 -0.6777
  150SOL     hw  598   3.431   0.722   6.261  1.4372 -0.9788 -2.4488
  150SOL     hw  599   3.557   0.797   6.300 -1.0724  0.6343  3.7929
  150SOL     vw  600   3.472   0.797   6.278 -0.2228 -0.4394 -0.3216
  151SOL     ow  601   0.769   4.857   0.418 -0.5016  0.0912 -0.0440
  151SOL     hw  602   0.732   4.770   0.404  0.1919 -0.3527  0.7451
  151SOL     hw  603   0.814   4.878   0.336 -0.7914 -0.2292 -0.2872
  151SOL     vw  604   0.770   4.849   0.406 -0.4483 -0.0098  0.0280
  152SOL     ow  605   2.918   4.717   1.427 -0.1245 -0.5174 -0.4788
  152SOL     hw  606   2.960   4.640   1.388  0.2258 -1.0401  0.8894
  152SOL     hw  607   2.837   4.684   1.465  0.6255 -0.4852  1.2166
  152SOL     vw  608   2.913   4.703   1.427  0.0206 -0.5817 -0.0747
  153SOL     ow  609   3.218   0.797   2.182  0.4410  1.1178 -0.6539
  153SOL     hw  610   3.302   0.808   2.138  1.2189  0.8367  0.7180
  153SOL     hw  611   3.203   0.703   2.182  0.9015  1.0344  0.4800
  153SOL     vw  612   3.227   0.786   2.176  0.6044  1.0697 -0.3234
  154SOL     ow  613   1.056   7.168   4.304  0.2039 -0.4857 -0.0498
  154SOL     hw  614   1.107   7.209   4.234  2.3989  0.0494  1.7355
  154SOL     hw  615   1.072   7.074   4.294 -0.8151 -0.5564 -1.1934
  154SOL     vw  616   1.065   7.161   4.293  0.3591 -0.4244  0.0348
  155SOL     ow  617   7.059   6.807   6.536  0.3821 -0.4914  0.6889
  155SOL     hw  618   7.104   6.751   6.599  0.3287 -0.9801  0.2992
  155SOL     hw  619   7.118   6.810   6.460 -0.3669 -1.4052  0.0430
  155SOL     vw  620   7.073   6.800   6.534  0.2761 -0.6762  0.5524
  156SOL     ow  621   6.695   0.754   7.288 -0.6340  0.2636 -0.1639
  156SOL     hw  622   6.640   0.714   7.221  0.1564  1.1828 -1.4018
  156SOL     hw  623   6.633   0.792   7.351 -1.4351  1.2716 -1.5204
  156SOL     vw  624   6.680   0.754   7.288 -0.6351  0.5179 -0.5062
  157SOL     ow  625   7.500   5.852   7.283 -0.1463 -0.0268 -0.7504
  157SOL     hw  626   7.474   5.940   7.313 -2.5294 -0.9756  0.2159
  157SOL     hw  627   7.453   5.792   7.341  4.2621 -2.1205  1.1559
  157SOL     vw  628   7.490   5.856   7.294  0.1211 -0.4277 -0.3712
  158SOL     ow  629   3.222   1.063   2.053  0.3305 -0.2109 -0.3124
  158SOL     hw  630   3.254   1.023   1.973  0.5258 -1.6484  0.4483
  158SOL     hw  631   3.289   1.127   2.076 -0.0851  0.7518 -1.6623
  158SOL     vw  632   3.235   1.066   2.046  0.3014 -0.2735 -0.3902
  159SOL     ow  633   5.587   6.436   3.376  0.0034 -0.1782  0.1402
  159SOL     hw  634   5.655   6.465   3.438 -0.8818 -1.0362  1.5486
  159SOL     hw  635   5.615   6.348   3.349  1.2043  0.7546 -1.9669
  159SOL     vw  636   5.600   6.428   3.381  0.0451 -0.1681  0.0480
  160SOL     ow  637   2.169   1.599   3.619  0.4533 -0.2192 -0.1896
  160SOL     hw  638   2.094   1.541   3.634  1.2439 -1.0932  0.5649
  160SOL     hw  639   2.241   1.557   3.667  1.4250  0.5890 -0.9076
  160SOL     vw  640   2.169   1.585   3.628  0.6858 -0.2279 -0.1848
  161SOL     ow  641   6.064   1.890   0.430  0.0583  0.7136 -0.4099
  161SOL     hw  642   6.060   1.950   0.355 -0.8717 -2.5319 -3.2658
  161SOL     hw  643   6.157   1.884   0.451  0.6035  0.3751 -2.6164
  161SOL     vw  644   6.076   1.897   0.423  0.0079  0.2407 -1.0778
  162SOL     ow  645   2.833   3.565   4.602 -0.1688  0.9341 -0.1936
  162SOL     hw  646   2.840   3.621   4.525  0.3036  2.2975  0.8072
  162SOL     hw  647   2.910   3.586   4.654 -1.9146  2.2343  2.0319
  162SOL     vw  648   2.844   3.575   4.599 -0.3369  1.2856  0.2322
  163SOL     ow  649   6.750   4.217   0.745 -0.2503  0.1334 -0.3228
  163SOL     hw  650   6.662   4.203   0.780 -0.4158 -0.3328 -0.9041
  163SOL     hw  651   6.782   4.294   0.792 -1.4839  1.1333 -1.0287
  163SOL     vw  652   6.742   4.225   0.756 -0.4351  0.2041 -0.4926
  164SOL     ow  653   6.263   2.962   4.899 -0.0584 -0.3958 -0.4091
  164SOL     hw  654   6.282   2.868   4.905  0.4023 -0.2433  0.8941
  164SOL     hw  655   6.180   2.972   4.946  1.3824  0.2301  2.1850
  164SOL     vw  656   6.255   2.951   4.906  0.1924 -0.2931  0.1051
  165SOL     ow  657   5.323   5.888   3.588 -0.3873  0.0267  0.1966
  165SOL     hw  658   5.243   5.938   3.604  0.0735  0.3270  1.7589
  165SOL     hw  659   5.321   5.818   3.654  1.2571  0.8289  1.1836
  165SOL     vw  660   5.312   5.885   3.599 -0.1094  0.1724  0.5331
  166SOL     ow  661   0.712   2.514   5.532  0.5784 -0.1393  0.0231
  166SOL     hw  662   0.622   2.481   5.531  0.3791  0.3084  1.4498
  166SOL     hw  663   0.705   2.602   5.569  1.2450  1.1482 -2.6315
  166SOL     vw  664   0.699   2.521   5.537  0.6400  0.0896 -0.1388
  167SOL     ow  665   3.499   4.889   0.192  0.2585  0.4952  0.3245
  167SOL     hw  666   3.502   4.862   0.284  0.6535  0.5445  0.3282
  167SOL     hw  667   3.519   4.809   0.143 -3.2320 -0.3857  0.1084
  167SOL     vw  668   3.502   4.875   0.198 -0.1500  0.3858  0.2965
  168SOL     ow  669   4.547   2.189   5.748  0.0926 -0.6283  0.3434
  168SOL     hw  670   4.452   2.173   5.746 -0.4213  1.9756 -1.7926
  168SOL     hw  671   4.586   2.105   5.722 -1.6788 -1.4512  0.1929
  168SOL     vw  672   4.540   2.176   5.744 -0.2091 -0.3933  0.0417
  169SOL     ow  673   7.032   4.018   1.958  0.3176  0.3284 -0.0203
  169SOL     hw  674   7.082   3.939   1.936  1.7429  0.9783  0.7043
  169SOL     hw  675   7.071   4.049   2.039 -2.3929 -0.0011  1.5119
  169SOL     vw  676   7.044   4.012   1.966  0.1481  0.3707  0.2775
  170SOL     ow  677   6.544   2.543   5.541  0.1339  0.0251  0.3150
  170SOL     hw  678   6.463   2.496   5.558 -0.0180  0.4473  0.7879
  170SOL     hw  679   6.518   2.614   5.481  0.4019 -0.6098 -0.5736
  170SOL     vw  680   6.530   2.546   5.535  0.1490 -0.0030  0.2601
  171SOL     ow  681   2.254   0.888   4.131 -0.0086  0.1871 -0.0192
  171SOL     hw  682   2.340   0.865   4.167 -0.9902  0.3864  2.6180
  171SOL     hw  683   2.273   0.909   4.039  2.2940 -2.4486 -0.2979
  171SOL     vw  684   2.268   0.888   4.124  0.1656 -0.1344  0.2921
  172SOL     ow  685   5.977   6.996   6.049  0.1246  0.3281  1.1166
  172SOL     hw  686   5.976   7.044   6.131 -0.1078 -0.0760  1.3542
  172SOL     hw  687   5.886   6.972   6.033 -0.1560  2.0394 -0.2535
  172SOL     vw  688   5.965   6.999   6.057  0.0570  0.5007  0.9673
  173SOL     ow  689   0.384   4.395   5.097  0.0802  0.0671 -0.2205
  173SOL     hw  690   0.449   4.340   5.052 -0.3824  1.1663 -2.3677
  173SOL     hw  691   0.413   4.397   5.188  1.3531 -1.8883 -0.5079
  173SOL     vw  692   0.396   4.388   5.103  0.1871 -0.0460 -0.5419
  174SOL     ow  693   7.392   1.834   7.500 -0.2670 -1.0504  0.1661
  174SOL     hw  694   7.409   1.744   7.475 -0.5958 -1.4579  1.3483
  174SOL     hw  695   7.406   1.836   7.594  0.9486  0.4294 -0.0130
  174SOL     vw  696   7.396   1.823   7.509 -0.1500 -0.9090  0.2980
  175SOL     ow  697   2.881   3.197   1.053 -0.3046 -0.2119 -0.4811
  175SOL     hw  698   2.857   3.289   1.066  1.3864  0.3717 -1.1324
  175SOL     hw  699   2.809   3.160   1.002 -0.9305  0.8020 -0.3549
  175SOL     vw  700   2.868   3.204   1.048 -0.1642 -0.0012 -0.5504
  176SOL     ow  701   4.840   2.973   4.658 -0.4813  0.6327  0.2095
  176SOL     hw  702   4.916   2.976   4.599 -0.2053  0.2493  0.5409
  176SOL     hw  703   4.820   3.065   4.675 -1.4810  0.8027 -1.6365
  176SOL     vw  704   4.848   2.986   4.652 -0.5770  0.6045  0.0095
  177SOL     ow  705   7.456   6.962   4.128  0.0966  0.4167 -0.3350
  177SOL     hw  706   7.519   6.987   4.060  1.1923 -0.9614  0.1222
  177SOL     hw  707   7.509   6.924   4.197 -1.2544 -0.9871 -0.0077
  177SOL     vw  708   7.471   6.960   4.128  0.0629  0.0496 -0.2315
  178SOL     ow  709   2.923   2.918   1.516 -0.2388  0.4092  0.3063
  178SOL     hw  710   2.978   2.971   1.574 -1.6401  0.2056  1.9228
  178SOL     hw  711   2.833   2.948   1.535 -0.7001  1.5472 -3.0602
  178SOL     vw  712   2.918   2.929   1.526 -0.4843  0.5326  0.0755
  179SOL     ow  713   4.264   2.357   0.593 -0.2006 -0.5178 -0.1791
  179SOL     hw  714   4.204   2.431   0.599  1.7998  1.3625 -1.7214
  179SOL     hw  715   4.309   2.355   0.678 -1.8139 -1.4751  0.7067
  179SOL     vw  716   4.262   2.366   0.605 -0.1495 -0.3961 -0.2657
  180SOL     ow  717   0.008   0.039   1.859  0.1122 -0.8840 -0.3663
  180SOL     hw  718  -0.009   0.121   1.811  3.6244  0.5275  0.4857
  180SOL     hw  719  -0.070   0.026   1.912 -0.9294  1.4535 -1.1726
  180SOL     vw  720  -0.005   0.048   1.860  0.4382 -0.3894 -0.3603
  181SOL     ow  721   3.531   5.996   6.496  0.8274 -0.0237  0.2465
  181SOL     hw  722   3.463   6.015   6.561 -0.0414  0.0387 -0.6606
  181SOL     hw  723   3.580   6.077   6.487 -0.2462  0.5569 -0.5548
  181SOL     vw  724   3.529   6.009   6.503  0.5709  0.0610  0.0212
  182SOL     ow  725   6.178   7.178   0.473 -0.3546  0.2190 -0.8700
  182SOL     hw  726   6.142   7.259   0.508  0.8878  0.8705 -1.0484
  182SOL     hw  727   6.234   7.144   0.543  0.3306  0.3265 -1.3547
  182SOL     vw  728   6.181   7.184   0.486 -0.1001  0.3190 -0.9575
  183SOL     ow  729   5.195   2.659   6.927 -0.3578 -0.0094  0.5399
  183SOL     hw  730   5.220   2.569   6.906 -2.1391 -0.7566  1.4489
  183SOL     hw  731   5.099   2.658   6.927 -0.4211  1.9765  0.2678
  183SOL     vw  732   5.186   2.647   6.924 -0.6013  0.1540  0.6239
  184SOL     ow  733   2.640   2.233   5.560 -0.5588  0.0221  0.6591
  184SOL     hw  734   2.686   2.170   5.505 -0.0025  1.2480 -0.3316
  184SOL     hw  735   2.706   2.261   5.624 -0.5874  0.1499  0.6321
  184SOL     vw  736   2.655   2.228   5.561 -0.4892  0.2007  0.5250
  185SOL     ow  737   2.818   6.543   1.059 -0.2193  0.3005  0.2524
  185SOL     hw  738   2.902   6.520   1.100  0.4091  0.0035 -1.1269
  185SOL     hw  739   2.817   6.638   1.057  0.4102  0.3014 -0.3333
  185SOL     vw  740   2.829   6.552   1.064 -0.0534  0.2615 -0.0069
  186SOL     ow  741   0.426   0.184   4.996 -0.3044 -0.4160 -0.3764
  186SOL     hw  742   0.491   0.130   5.040 -0.6733  0.7041  1.6918
  186SOL     hw  743   0.467   0.209   4.913  1.0432 -1.4167 -0.0381
  186SOL     vw  744   0.440   0.180   4.991 -0.1753 -0.4002 -0.0589
  187SOL     ow  745   4.276   3.053   6.923 -0.4344 -0.0650  0.2709
  187SOL     hw  746   4.357   3.031   6.967  0.3040 -0.9001 -1.4296
  187SOL     hw  747   4.225   3.102   6.988  2.3867  2.6453  0.6717
  187SOL     vw  748   4.280   3.057   6.937  0.0350  0.1825  0.0997
  188SOL     ow  749   3.295   1.385   5.631  0.2464  0.3641 -0.1182
  188SOL     hw  750   3.362   1.410   5.567 -0.6778 -2.0479 -2.1649
  188SOL     hw  751   3.326   1.302   5.667 -0.0713  0.8797  1.4264
  188SOL     vw  752   3.308   1.377   5.627  0.0826  0.1139 -0.1845
  189SOL     ow  753   2.210   5.482   4.095  0.1627  0.0810  0.0035
  189SOL     hw  754   2.177   5.568   4.119 -1.4903 -0.4235 -0.3487
  189SOL     hw  755   2.175   5.423   4.161  1.5538 -0.3028  0.4356
  189SOL     vw  756   2.201   5.485   4.107  0.1283 -0.0362  0.0143
  190SOL     ow  757   1.979   4.518   0.198 -0.1471 -0.2059  0.1058
  190SOL     hw  758   1.909   4.484   0.253  1.0672  0.0220  1.8620
  190SOL     hw  759   1.945   4.602   0.165 -0.7441 -0.1461  0.8505
  190SOL     vw  760   1.965   4.525   0.201 -0.0657 -0.1678  0.4357
  191SOL     ow  761   6.261   2.050   1.003 -0.1289 -0.2581 -0.6006
  191SOL     hw  762   6.239   2.045   0.910  0.0022 -1.6882 -0.5791
  191SOL     hw  763   6.341   1.998   1.011  0.2313  0.3948  0.2211
  191SOL     vw  764   6.269   2.043   0.992 -0.0639 -0.3605 -0.4894
  192SOL     ow  765   2.000   4.949   4.056  0.2153 -0.3977  0.0800
  192SOL     hw  766   1.937   5.020   4.069  0.5006  0.2211 -1.7199
  192SOL     hw  767   2.051   4.975   3.980  0.5835 -2.3648 -0.4030
  192SOL     vw  768   1.999   4.962   4.048  0.3016 -0.5758 -0.2210
  193SOL     ow  769   7.028   4.050   4.178 -0.2364 -0.6779  0.1953
  193SOL     hw  770   7.115   4.085   4.161 -0.3388 -0.7359 -0.4699
  193SOL     hw  771   7.014   4.064   4.272  0.4361 -0.5570  0.2784
  193SOL     vw  772   7.038   4.057   4.188 -0.1614 -0.6697  0.1185
  194SOL     ow  773   6.557   5.497   1.740 -0.3542  0.4539  0.3420
  194SOL     hw  774   6.638   5.475   1.693 -0.0586 -1.2494  1.5491
  194SOL     hw  775   6.569   5.589   1.765  0.9081  0.4377 -0.0910
  194SOL     vw  776   6.570   5.506   1.737 -0.1488  0.2272  0.4441
  195SOL     ow  777   1.043   6.766   4.815  0.5732 -0.9502  0.0575
  195SOL     hw  778   1.070   6.686   4.771  1.0743 -1.5240  1.3684
  195SOL     hw  779   1.102   6.773   4.891 -1.5268 -1.0725  1.7932
  195SOL     vw  780   1.054   6.757   4.819  0.3622 -1.0419  0.4597
  196SOL     ow  781   3.265   3.097   4.092  0.1515  0.1182 -0.0490
  196SOL     hw  782   3.301   3.059   4.012  0.2699  2.4479 -1.1744
  196SOL     hw  783   3.320   3.062   4.162  0.7068 -1.1557 -1.0776
  196SOL     vw  784   3.277   3.087   4.091  0.2403  0.2575 -0.3331
  197SOL     ow  785   5.648   2.830   4.915  0.0264 -0.2546 -0.0934
  197SOL     hw  786   5.705   2.803   4.987  0.5359  1.3687  0.1434
  197SOL     hw  787   5.663   2.924   4.906 -1.7847  0.0055 -0.7812
  197SOL     vw  788   5.657   2.839   4.923 -0.1452 -0.0060 -0.1528
  198SOL     ow  789   1.214   3.460   2.026 -0.0465 -0.5308  0.1289
  198SOL     hw  790   1.225   3.481   2.119  1.9874 -1.2082  0.0890
  198SOL     hw  791   1.231   3.543   1.981 -1.9840  0.0404  0.3447
  198SOL     vw  792   1.218   3.474   2.033 -0.0337 -0.5447  0.1522
  199SOL     ow  793   0.276   0.533   1.804 -0.0456 -0.0666 -0.2100
  199SOL     hw  794   0.253   0.502   1.717 -0.4061  3.1427 -1.4080
  199SOL     hw  795   0.301   0.625   1.791  0.7080  0.3011  2.9604
  199SOL     vw  796   0.276   0.541   1.791  0.0062  0.4054  0.0502
  200SOL     ow  797   0.552   3.104   0.918 -0.1579 -1.0201  0.2077
  200SOL     hw  798   0.509   3.115   1.003 -0.3995  0.7722 -0.1176
  200SOL     hw  799   0.480   3.095   0.856 -0.3417  3.4767 -0.5527
  200SOL     vw  800   0.537   3.104   0.921 -0.2140 -0.1904  0.0644
  201SOL     ow  801   6.201   0.971   6.388  0.3160  0.5160  0.0537
  201SOL     hw  802   6.175   0.995   6.299 -1.7307 -1.2651  0.0750
  201SOL     hw  803   6.139   1.017   6.444 -0.8242 -1.2323  0.3046
  201SOL     vw  804   6.189   0.980   6.384 -0.1044  0.0503  0.0894
  202SOL     ow  805   4.236   4.043   4.523  0.6268 -1.2789 -0.1244
  202SOL     hw  806   4.273   3.956   4.506  1.4585 -0.8511 -0.5762
  202SOL     hw  807   4.207   4.073   4.437 -0.5377 -1.4835  0.1791
  202SOL     vw  808   4.237   4.035   4.510  0.5832 -1.2496 -0.1440
  203SOL     ow  809   5.916   0.976   6.403  0.2023 -0.0274 -0.3833
  203SOL     hw  810   5.896   0.993   6.311  0.8627 -1.1018 -0.7445
  203SOL     hw  811   5.980   0.905   6.401 -1.8859 -2.1370  0.9418
  203SOL     vw  812   5.922   0.969   6.391  0.0141 -0.4475 -0.2563
  204SOL     ow  813   0.760   1.710   0.719 -0.3408  0.0090 -0.0124
  204SOL     hw  814   0.773   1.740   0.629 -0.0590  2.0695  0.6496
  204SOL     hw  815   0.847   1.688   0.751 -0.6390 -2.6643 -0.7876
  204SOL     vw  816   0.773   1.711   0.711 -0.3430 -0.0719 -0.0274
  205SOL     ow  817   7.405   6.471   2.652 -0.0031 -0.2297 -0.7888
  205SOL     hw  818   7.492   6.505   2.631  0.4842 -0.4142  0.8374
  205SOL     hw  819   7.420   6.380   2.678 -0.5969 -0.0993  0.0543
  205SOL     vw  820   7.418   6.463   2.653 -0.0172 -0.2367 -0.4630
  206SOL     ow  821   2.928   5.587   2.287  0.4610  0.3718  0.2740
  206SOL     hw  822   2.962   5.553   2.370 -1.2126 -0.5802  0.6250
  206SOL     hw  823   2.959   5.525   2.221  1.9404  1.2255  0.1349
  206SOL     vw  824   2.937   5.574   2.289  0.4355  0.3591  0.3018
  207SOL     ow  825   3.556   5.654   0.094 -0.5128  0.2237 -0.2356
  207SOL     hw  826   3.473   5.691   0.066  0.1388  0.4293 -2.0105
  207SOL     hw  827   3.596   5.721   0.149 -1.8398 -0.2034  1.3218
  207SOL     vw  828   3.550   5.667   0.098 -0.6019  0.1945 -0.2643
  208SOL     ow  829   6.351   1.168   1.825  0.1664  0.1417  0.0852
  208SOL     hw  830   6.426   1.144   1.770  0.3594  0.6331  0.1206
  208SOL     hw  831   6.320   1.086   1.862  1.1316 -0.0034  0.6228
  208SOL     vw  832   6.357   1.154   1.823  0.3192  0.1874  0.1608
  209SOL     ow  833   0.206   1.173   0.665 -0.3008  0.0185 -0.3377
  209SOL     hw  834   0.143   1.157   0.595 -0.1176  1.0387 -0.7490
  209SOL     hw  835   0.264   1.097   0.662 -1.3293 -0.8024 -0.1269
  209SOL     vw  836   0.205   1.161   0.655 -0.4123  0.0447 -0.3642
  210SOL     ow  837   1.169   7.372   4.133 -0.4326  0.1543 -0.1236
  210SOL     hw  838   1.200   7.398   4.220  2.9802  1.9659 -1.6803
  210SOL     hw  839   1.126   7.450   4.098  2.2097  1.0783 -1.6002
  210SOL     vw  840   1.168   7.386   4.140  0.3664  0.5155 -0.5236
  211SOL     ow  841   1.119   7.346   0.400 -0.3231  0.5595  0.0136
  211SOL     hw  842   1.085   7.419   0.348 -0.4248  0.8686  0.5065
  211SOL     hw  843   1.188   7.308   0.346 -2.4176 -1.0398 -1.6866
  211SOL     vw  844   1.124   7.351   0.386 -0.6129  0.3893 -0.1457
  212SOL     ow  845   7.166   5.495   1.431  0.1993 -0.1500 -0.0993
  212SOL     hw  846   7.199   5.420   1.481 -0.8191 -0.5313  0.0280
  212SOL     hw  847   7.151   5.563   1.496 -1.4451 -0.7575  0.2051
  212SOL     vw  848   7.168   5.494   1.446 -0.1521 -0.2804 -0.0424
  213SOL     ow  849   4.282   1.992   3.148 -0.9020 -0.3536 -0.2553
  213SOL     hw  850   4.311   2.014   3.059 -0.1165 -0.1498  0.0455
  213SOL     hw  851   4.213   2.056   3.166 -1.5168 -0.8046 -0.9543
  213SOL     vw  852   4.277   2.004   3.138 -0.8795 -0.3862 -0.3079
  214SOL     ow  853   2.967   0.671   5.364  0.5938 -0.2891  0.5058
  214SOL     hw  854   3.011   0.633   5.440  3.1277  0.1620 -0.6485
  214SOL     hw  855   2.996   0.618   5.290 -1.2121 -0.2447 -0.2939
  214SOL     vw  856   2.976   0.659   5.364  0.6899 -0.2237  0.2480
  215SOL     ow  857   7.147   4.119   2.178  0.6469 -0.8930  0.1963
  215SOL     hw  858   7.119   4.210   2.167  1.0242 -0.9745 -2.0235
  215SOL     hw  859   7.239   4.125   2.203  0.9623 -0.6319 -0.9531
  215SOL     vw  860   7.155   4.132   2.180  0.7381 -0.8693 -0.2482
  216SOL     ow  861   7.302   6.041   1.870 -0.3593 -0.8477  0.1019
  216SOL     hw  862   7.311   5.956   1.913  0.2989  0.7137  3.3514
  216SOL     hw  863   7.387   6.056   1.829 -0.4519 -1.7082 -0.4200
  216SOL     vw  864   7.315   6.032   1.870 -0.2847 -0.7553  0.4618
  217SOL     ow  865   1.914   4.739   0.766 -0.3422 -0.0458 -0.0727
  217SOL     hw  866   1.937   4.827   0.736  0.5013  0.1035  0.9397
  217SOL     hw  867   1.995   4.706   0.804 -0.9336 -0.8641  0.4939
  217SOL     vw  868   1.928   4.746   0.767 -0.3089 -0.1338  0.1356
  218SOL     ow  869   3.138   4.104   4.468 -0.3216  0.8273  0.2571
  218SOL     hw  870   3.160   4.066   4.553 -1.3368  2.4472  1.2945
  218SOL     hw  871   3.169   4.194   4.473  1.0330  0.5492 -1.7271
  218SOL     vw  872   3.145   4.111   4.480 -0.2768  1.0045  0.1321
  219SOL     ow  873   7.254   4.884   5.458  0.6875  0.3104 -0.0365
  219SOL     hw  874   7.199   4.961   5.447 -1.7457 -1.1131  1.3281
  219SOL     hw  875   7.226   4.824   5.388  1.0743 -0.1506  0.1975
  219SOL     vw  876   7.243   4.886   5.447  0.4177  0.0615  0.1745
  220SOL     ow  877   2.220   4.111   5.935  0.0477 -0.0779  0.4005
  220SOL     hw  878   2.144   4.068   5.895  0.3024  0.8660 -1.1960
  220SOL     hw  879   2.261   4.042   5.987 -1.1342 -0.9781  0.2008
  220SOL     vw  880   2.215   4.096   5.937 -0.0747 -0.0720  0.1636
  221SOL     ow  881   3.920   1.765   2.146 -0.7431  0.3539 -0.1062
  221SOL     hw  882   3.911   1.826   2.219 -1.3259 -0.5870  0.6235
  221SOL     hw  883   3.831   1.753   2.114 -0.6293 -0.0957 -0.2593
  221SOL     vw  884   3.907   1.771   2.151 -0.8050  0.1704 -0.0302
  222SOL     ow  885   0.667   6.196   1.358  0.8156 -0.1781 -0.2588
  222SOL     hw  886   0.639   6.205   1.267  0.4024 -0.3296 -0.1493
  222SOL     hw  887   0.760   6.173   1.352  0.9887  0.5874 -0.6220
  222SOL     vw  888   0.675   6.194   1.345  0.7839 -0.0970 -0.2923
  223SOL     ow  889   7.490   2.548   2.877  0.7135  0.1251 -0.0844
  223SOL     hw  890   7.473   2.642   2.880 -0.6282 -0.1212  0.6544
  223SOL     hw  891   7.487   2.519   2.968  1.0396 -0.6571 -0.3082
  223SOL     vw  892   7.488   2.556   2.889  0.5794 -0.0106 -0.0165
  224SOL     ow  893   4.000   1.540   2.318 -0.2507 -0.2744 -0.2972
  224SOL     hw  894   3.965   1.604   2.255 -0.5742 -1.0003 -0.8715
  224SOL     hw  895   4.070   1.495   2.270  1.6728  1.2672  0.8809
  224SOL     vw  896   4.005   1.543   2.303 -0.0396 -0.1667 -0.2176
  225SOL     ow  897   3.660   2.350   3.215  0.1823 -0.0836  0.3480
  225SOL     hw  898   3.640   2.355   3.309  1.2919  0.4374  0.5705
  225SOL     hw  899   3.745   2.392   3.207 -0.5318  1.1827 -1.0964
  225SOL     vw  900   3.668   2.356   3.226  0.2344  0.1523  0.1869
  226SOL     ow  901   5.453   6.945   4.189 -0.2252 -0.1914  0.2075
  226SOL     hw  902   5.522   6.882   4.170 -2.9997 -3.8801  1.0299
  226SOL     hw  903   5.415   6.967   4.104 -0.6714 -1.5306  0.0455
  226SOL     vw  904   5.457   6.940   4.175 -0.6502 -0.8547  0.2944
  227SOL     ow  905   5.410   6.972   3.899  0.0782  0.0444 -0.0189
  227SOL     hw  906   5.327   6.964   3.853 -0.1995  0.1075  0.4661
  227SOL     hw  907   5.472   6.922   3.846 -0.2760 -0.0338 -0.3618
  227SOL     vw  908   5.408   6.964   3.886 -0.0050  0.0422 -0.0002
  228SOL     ow  909   3.247   6.683   1.096  0.4029 -0.6914  0.2264
  228SOL     hw  910   3.296   6.661   1.017 -0.3396 -0.7566 -0.2230
  228SOL     hw  911   3.188   6.609   1.109 -0.9644  0.2551 -0.3669
  228SOL     vw  912   3.246   6.670   1.087  0.1246 -0.5751  0.0888
  229SOL     ow  913   0.188   2.745   1.693 -0.8216 -0.2212  0.0394
  229SOL     hw  914   0.188   2.718   1.601 -0.4208 -3.3895  0.8378
  229SOL     hw  915   0.177   2.663   1.742  0.7660  1.1032  2.8626
  229SOL     vw  916   0.187   2.730   1.687 -0.5593 -0.4646  0.5172
  230SOL     ow  917   4.895   3.130   3.007 -0.0769 -0.5189 -0.0956
  230SOL     hw  918   4.894   3.099   3.098  1.3015 -1.5665 -0.4068
  230SOL     hw  919   4.821   3.190   3.002 -0.9540 -1.4023  1.3830
  230SOL     vw  920   4.885   3.134   3.019 -0.0107 -0.7737  0.0585
  231SOL     ow  921   6.701   4.989   2.024  0.9947  0.1767  0.5607
  231SOL     hw  922   6.635   5.015   2.089  2.2347  1.1974  1.4777
  231SOL     hw  923   6.713   5.067   1.970  1.9665  0.2555  0.8752
  231SOL     vw  924   6.694   5.003   2.026  1.2865  0.3216  0.7232
  232SOL     ow  925   5.420   3.804   3.746  0.0670  0.4066  0.3724
  232SOL     hw  926   5.333   3.821   3.710  0.2005 -0.7561 -0.5870
  232SOL     hw  927   5.421   3.709   3.762  1.7401  0.0716 -1.3561
  232SOL     vw  928   5.409   3.794   3.743  0.3052  0.2091  0.0178
  233SOL     ow  929   1.819   5.097   1.782 -0.2149  0.2139 -0.4485
  233SOL     hw  930   1.900   5.142   1.759 -0.3228  0.7071  0.1159
  233SOL     hw  931   1.767   5.099   1.702 -0.2650  1.2090 -0.3989
  233SOL     vw  932   1.823   5.103   1.769 -0.2357  0.4106 -0.3675
  234SOL     ow  933   1.960   2.623   3.407  0.1557 -0.2117 -0.1630
  234SOL     hw  934   1.865   2.624   3.404  0.1199  2.9434 -2.3328
  234SOL     hw  935   1.982   2.665   3.490 -0.3120 -0.6681  0.1995
  234SOL     vw  936   1.950   2.629   3.417  0.0893  0.1442 -0.4014
  235SOL     ow  937   3.250   7.373   3.009 -0.0681  0.4581  0.1078
  235SOL     hw  938   3.187   7.407   2.945  0.8943  1.5188 -0.3233
  235SOL     hw  939   3.281   7.451   3.055  1.8143  0.1575 -0.5284
  235SOL     vw  940   3.246   7.388   3.006  0.3073  0.5586 -0.0330
  236SOL     ow  941   7.079   4.978   6.260 -0.4498 -0.4883 -0.5117
  236SOL     hw  942   7.050   5.068   6.255  1.3197  0.0528 -2.1157
  236SOL     hw  943   7.025   4.931   6.196 -1.8982 -0.7862  0.8605
  236SOL     vw  944   7.068   4.983   6.251 -0.4077 -0.4561 -0.5422
  237SOL     ow  945   3.784   5.074   1.727  0.1219  0.3859 -0.2293
  237SOL     hw  946   3.770   5.015   1.802  0.3647  0.0522 -0.4434
  237SOL     hw  947   3.719   5.143   1.738  1.6731  1.6789  1.6374
  237SOL     vw  948   3.774   5.076   1.739  0.3587  0.5124 -0.0113
  238SOL     ow  949   1.891   7.212   1.728 -0.0297  0.4334 -0.5470
  238SOL     hw  950   1.975   7.186   1.764 -0.6890  1.8394  2.2280
  238SOL     hw  951   1.882   7.304   1.750 -3.1256 -0.1360  1.0835
  238SOL     vw  952   1.901   7.221   1.735 -0.5251  0.5438  0.0343
  239SOL     ow  953   0.756   6.184   2.548  0.0083  0.1125  0.3683
  239SOL     hw  954   0.727   6.213   2.461 -0.5843  0.3586  0.6375
  239SOL     hw  955   0.846   6.214   2.554 -0.0343  0.3410 -0.0589
  239SOL     vw  956   0.764   6.192   2.537 -0.0755  0.1750  0.3474
  240SOL     ow  957   3.619   6.787   5.268  0.0257  0.0473  0.2243
  240SOL     hw  958   3.631   6.877   5.238 -2.1275  0.3452  0.0769
  240SOL     hw  959   3.565   6.795   5.346 -2.8050 -1.1828 -1.4479
  240SOL     vw  960   3.613   6.800   5.274 -0.6318 -0.0756 -0.0157
  241SOL     ow  961   0.319   2.855   1.026 -0.2681 -0.4658  0.1381
  241SOL     hw  962   0.262   2.816   0.961  0.2614 -1.0759  0.0298
  241SOL     hw  963   0.399   2.803   1.022 -0.2210 -0.4980  1.2578
  241SOL     vw  964   0.322   2.843   1.017 -0.1920 -0.5504  0.2714
  242SOL     ow  965   5.808   2.384   2.952  0.3834  0.1923 -0.4387
  242SOL     hw  966   5.795   2.348   3.040  1.2545 -1.3151 -0.8918
  242SOL     hw  967   5.901   2.408   2.949 -0.4801  4.5596  0.5203
  242SOL     vw  968   5.819   2.382   2.963  0.3843  0.5697 -0.3722
  243SOL     ow  969   1.739   3.153   5.866 -0.0638  0.4635 -0.6682
  243SOL     hw  970   1.750   3.194   5.951 -0.6870  0.5380 -0.6177
  243SOL     hw  971   1.701   3.068   5.885  0.9323 -0.0218 -0.7956
  243SOL     vw  972   1.735   3.147   5.879 -0.0145  0.4095 -0.6781
  244SOL     ow  973   7.268   4.514   6.675 -0.3215 -0.7872  0.0612
  244SOL     hw  974   7.218   4.441   6.638 -1.5874 -0.7825  1.6539
  244SOL     hw  975   7.231   4.527   6.762  0.3738  1.2812  0.1057
  244SOL     vw  976   7.256   4.506   6.681 -0.3965 -0.5138  0.2770
  245SOL     ow  977   3.098   6.115   0.932 -0.4045 -0.1450  0.1591
  245SOL     hw  978   3.187   6.080   0.936 -0.0941  0.7005  1.7533
  245SOL     hw  979   3.052   6.058   0.871  1.4946  0.0382 -1.5391
  245SOL     vw  980   3.104   6.103   0.925 -0.1130 -0.0091  0.1454
  246SOL     ow  981   5.855   1.379   0.587  0.1017  0.0333 -0.5928
  246SOL     hw  982   5.841   1.284   0.586 -1.0074  0.1354  1.1742
  246SOL     hw  983   5.904   1.395   0.668  0.2930  0.9786 -0.8856
  246SOL     vw  984   5.859   1.368   0.597 -0.0193  0.1715 -0.3983
  247SOL     ow  985   3.371   7.079   1.691 -0.3076 -0.1501 -0.0902
  247SOL     hw  986   3.319   7.134   1.750  1.2749  1.2356  0.0695
  247SOL     hw  987   3.449   7.057   1.742  0.1900 -0.5326 -1.0103
  247SOL     vw  988   3.374   7.083   1.706 -0.0333 -0.0174 -0.1904
  248SOL     ow  989   7.043   1.362   5.196 -0.0730 -0.0277 -0.1278
  248SOL     hw  990   7.085   1.379   5.112  1.7157 -1.0989  0.4941
  248SOL     hw  991   7.110   1.384   5.261 -1.1061 -0.0770  0.9772
  248SOL     vw  992   7.057   1.367   5.193  0.0267 -0.1755  0.0999
  249SOL     ow  993   3.295   2.970   3.874 -0.2069  0.2623 -0.1303
  249SOL     hw  994   3.263   2.880   3.882 -2.6489  0.9931 -0.7143
  249SOL     hw  995   3.327   2.976   3.784 -0.3023  0.0477 -0.1797
  249SOL     vw  996   3.295   2.959   3.863 -0.5416  0.3303 -0.2140
  250SOL     ow  997   1.600   2.054   0.576 -0.1907 -0.0821  0.0256
  250SOL     hw  998   1.682   2.073   0.530 -0.7791 -1.1279 -1.5263
  250SOL     hw  999   1.592   1.958   0.571 -1.2155 -0.0389  0.6871
  250SOL     vw 1000   1.610   2.044   0.570 -0.4035 -0.2143 -0.0919
  251SOL     ow 1001   1.754   4.882   2.003  0.7618 -0.4396  0.3434
  251SOL     hw 1002   1.832   4.877   2.058 -0.0466 -1.3017  1.4693
  251SOL     hw 1003   1.768   4.816   1.935  0.9366 -0.7257  0.6542
  251SOL     vw 1004   1.766   4.873   2.001  0.6782 -0.5910  0.5330
  252SOL     ow 1005   5.515   7.209   3.966 -0.6957 -0.4462  0.2563
  252SOL     hw 1006   5.470   7.125   3.952  0.3101 -1.2819  1.7046
  252SOL     hw 1007   5.578   7.215   3.894 -0.5578 -1.1030  0.3161
  252SOL     vw 1008   5.518   7.198   3.955 -0.5445 -0.6433  0.4553
  253SOL     ow 1009   2.342   6.462   0.000  0.0305 -0.0031 -0.0409
  253SOL     hw 1010   2.355   6.460   0.095 -0.9865 -1.1796  0.1056
  253SOL     hw 1011   2.252   6.432  -0.012  0.5629 -1.1704 -1.4332
  253SOL     vw 1012   2.332   6.458   0.011 -0.0335 -0.3123 -0.2053
  254SOL     ow 1013   4.348   5.106   0.698 -0.3517  0.1606 -0.0985
  254SOL     hw 1014   4.393   5.056   0.766  0.6791 -1.0577 -1.5968
  254SOL     hw 1015   4.256   5.106   0.725  0.1609  0.5826  1.7663
  254SOL     vw 1016   4.342   5.099   0.711 -0.1478  0.0558 -0.0502
  255SOL     ow 1017   1.279   2.430   1.467 -0.2650 -0.0505  0.5551
  255SOL     hw 1018   1.312   2.500   1.411 -0.9685  0.2218  0.4710
  255SOL     hw 1019   1.185   2.442   1.468 -0.3831 -0.8887  0.6928
  255SOL     vw 1020   1.271   2.441   1.460 -0.3734 -0.1252  0.5622
  256SOL     ow 1021   4.476   4.709   4.572  0.8469 -0.3775 -0.1020
  256SOL     hw 1022   4.419   4.632   4.573 -0.0992  0.2989 -0.3811
  256SOL     hw 1023   4.564   4.674   4.583  0.3836 -1.4533  0.2956
  256SOL     vw 1024   4.480   4.694   4.574  0.6611 -0.4301 -0.0863
  257SOL     ow 1025   6.534   3.630   2.746  0.0528  0.3384 -0.6324
  257SOL     hw 1026   6.610   3.621   2.689 -0.3709 -1.0178 -1.0109
  257SOL     hw 1027   6.567   3.678   2.822  0.6189  2.2396 -1.9843
  257SOL     vw 1028   6.548   3.635   2.748  0.0715  0.4102 -0.8607
  258SOL     ow 1029   6.267   5.529   5.937  0.0520 -0.1829 -0.1997
  258SOL     hw 1030   6.324   5.456   5.958  1.3255  0.5496 -0.9731
  258SOL     hw 1031   6.285   5.595   6.004 -1.2799 -0.6542  0.6482
  258SOL     vw 1032   6.277   5.528   5.948  0.0443 -0.1483 -0.1900
  259SOL     ow 1033   2.903   6.789   7.207  0.1948 -0.0798 -0.2646
  259SOL     hw 1034   2.817   6.806   7.247 -0.2744 -2.1515 -0.2573
  259SOL     hw 1035   2.963   6.786   7.282 -0.0611 -0.4011 -0.0640
  259SOL     vw 1036   2.900   6.791   7.222  0.0991 -0.3953 -0.2370
  260SOL     ow 1037   4.329   4.840   4.168 -0.3100  0.0912  0.0680
  260SOL     hw 1038   4.355   4.885   4.087 -1.6020 -2.7805 -2.0851
  260SOL     hw 1039   4.399   4.862   4.230  1.5565  1.2089 -2.2637
  260SOL     vw 1040   4.342   4.849   4.165 -0.2344 -0.1400 -0.5236
  261SOL     ow 1041   2.884   1.939   6.194 -0.1143  0.3126  0.9956
  261SOL     hw 1042   2.919   1.880   6.128  0.9256  0.5954  1.2791
  261SOL     hw 1043   2.819   1.887   6.241 -0.4755 -0.0536  0.1090
  261SOL     vw 1044   2.880   1.924   6.192 -0.0249  0.3015  0.9160
  262SOL     ow 1045   6.780   5.415   1.971  0.6267 -0.1642 -0.1916
  262SOL     hw 1046   6.857   5.455   1.930 -0.3346 -0.8602 -2.9468
  262SOL     hw 1047   6.708   5.475   1.949 -0.0337 -0.9151 -0.1291
  262SOL     vw 1048   6.781   5.428   1.962  0.4125 -0.3550 -0.5469
  263SOL     ow 1049   0.135   4.298   6.210 -0.0162  0.0510 -0.4491
  263SOL     hw 1050   0.117   4.205   6.224  0.0540  0.0158 -0.5905
  263SOL     hw 1051   0.229   4.301   6.188 -0.0317  0.1485 -0.5033
  263SOL     vw 1052   0.145   4.286   6.209 -0.0090  0.0591 -0.4747
  264SOL     ow 1053   0.863   3.748   0.859  0.5768 -0.7325 -0.1415
  264SOL     hw 1054   0.789   3.780   0.807 -0.5513 -1.9044  0.6568
  264SOL     hw 1055   0.924   3.821   0.863 -0.9532  0.6028 -0.0878
  264SOL     vw 1056   0.861   3.762   0.853  0.2261 -0.7110 -0.0291
  265SOL     ow 1057   1.789   2.949   6.894  0.3944  0.0336 -0.1237
  265SOL     hw 1058   1.783   2.983   6.805 -0.8164 -0.9118 -0.4251
  265SOL     hw 1059   1.816   3.025   6.947  1.9511  0.4036 -1.3856
  265SOL     vw 1060   1.792   2.964   6.889  0.4401 -0.0424 -0.3300
  266SOL     ow 1061   2.923   1.795   4.266  0.1279 -0.4611 -0.5695
  266SOL     hw 1062   2.829   1.817   4.266 -0.5392 -3.0525 -1.1112
  266SOL     hw 1063   2.947   1.790   4.174  1.0611  1.0091 -0.4394
  266SOL     vw 1064   2.913   1.798   4.254  0.1632 -0.6090 -0.6237
  267SOL     ow 1065   3.443   0.494   4.470  0.1965  0.0621 -0.2259
  267SOL     hw 1066   3.412   0.495   4.380 -0.8902  1.8512  0.1213
  267SOL     hw 1067   3.401   0.417   4.509 -3.3561  1.9076 -0.0047
  267SOL     vw 1068   3.434   0.484   4.464 -0.4157  0.5416 -0.1509
  268SOL     ow 1069   7.239   6.040   0.247 -0.4463  0.6831  0.1563
  268SOL     hw 1070   7.324   6.084   0.244 -1.2424  2.2526 -0.3314
  268SOL     hw 1071   7.212   6.033   0.155 -0.3013 -0.9729  0.2042
  268SOL     vw 1072   7.246   6.045   0.234 -0.5324  0.6719  0.0983
  269SOL     ow 1073   2.437   7.341   2.967 -0.2058  0.6296  0.2413
  269SOL     hw 1074   2.414   7.319   3.057  0.4705 -1.3989 -0.0214
  269SOL     hw 1075   2.525   7.379   2.974  0.2424 -0.3760  0.4059
  269SOL     vw 1076   2.446   7.343   2.980 -0.0575  0.2294  0.2284
  270SOL     ow 1077   3.466   2.598   5.556  0.2194 -0.1818  0.2344
  270SOL     hw 1078   3.399   2.569   5.617  1.4840 -3.5607  0.2297
  270SOL     hw 1079   3.544   2.612   5.611  0.8466 -1.3963 -0.2890
  270SOL     vw 1080   3.468   2.596   5.571  0.4689 -0.7879  0.1647
  271SOL     ow 1081   5.986   2.564   0.391 -0.4624  0.6344  0.2320
  271SOL     hw 1082   5.928   2.492   0.418 -0.3394  0.9797  1.4672
  271SOL     hw 1083   5.963   2.580   0.299 -0.6502 -0.8250 -0.0008
  271SOL     vw 1084   5.975   2.557   0.382 -0.4709  0.4874  0.3643
  272SOL     ow 1085   1.527   2.717   1.460 -0.0191  0.3890  0.0715
  272SOL     hw 1086   1.599   2.660   1.433 -0.2404  0.5925 -0.9990
  272SOL     hw 1087   1.496   2.679   1.542  1.5266  0.4998  0.7537
  272SOL     vw 1088   1.533   2.704   1.467  0.1556  0.4306  0.0203
  273SOL     ow 1089   6.640   5.129   5.621  0.4791  0.3376  0.3617
  273SOL     hw 1090   6.619   5.036   5.613  1.3834  0.0556  1.0865
  273SOL     hw 1091   6.565   5.166   5.668  1.0569 -0.4401  1.9590
  273SOL     vw 1092   6.627   5.121   5.626  0.6750  0.1979  0.6680
  274SOL     ow 1093   3.218   3.598   4.205  0.0199  0.1126 -0.1970
  274SOL     hw 1094   3.220   3.693   4.222 -1.6469  0.1032  0.2264
  274SOL     hw 1095   3.134   3.583   4.162 -0.1839 -1.3112  0.6293
  274SOL     vw 1096   3.207   3.609   4.202 -0.2270 -0.0764 -0.0322
  275SOL     ow 1097   7.011   5.122   0.082 -1.3639  0.5589 -0.5342
  275SOL     hw 1098   7.103   5.097   0.083 -1.1419  1.3596 -0.9151
  275SOL     hw 1099   6.967   5.048   0.039 -0.7804  0.5684 -1.1625
  275SOL     vw 1100   7.017   5.109   0.076 -1.2574  0.6657 -0.6676
  276SOL     ow 1101   0.568   4.720   4.544 -0.1696  0.7457  0.4833
  276SOL     hw 1102   0.539   4.804   4.508 -1.4545 -0.8795 -2.7169
  276SOL     hw 1103   0.534   4.655   4.482  2.7667 -1.9980  1.4788
  276SOL     vw 1104   0.559   4.722   4.531  0.0482  0.1695  0.1924
  277SOL     ow 1105   0.106   0.831   2.204  0.2503  0.2737  0.5475
  277SOL     hw 1106   0.098   0.921   2.172  0.5539  0.3481  0.6782
  277SOL     hw 1107   0.017   0.806   2.228  0.0244  0.2338 -0.3071
  277SOL     vw 1108   0.093   0.839   2.203  0.2606  0.2782  0.4520
  278SOL     ow 1109   0.725   5.217   4.220  0.2734 -0.1463 -0.3816
  278SOL     hw 1110   0.699   5.198   4.130  0.8475  0.6641 -0.7306
  278SOL     hw 1111   0.746   5.310   4.219 -0.3939  0.0241  0.7629
  278SOL     vw 1112   0.724   5.227   4.208  0.2611 -0.0169 -0.2766
  279SOL     ow 1113   4.380   6.135   0.921 -0.3912 -0.2205  0.2034
  279SOL     hw 1114   4.316   6.145   0.851 -0.0429  0.5777 -0.0105
  279SOL     hw 1115   4.464   6.147   0.878  0.0236 -2.5554  0.2244
  279SOL     vw 1116   4.382   6.138   0.906 -0.2904 -0.4232  0.1779
  280SOL     ow 1117   0.362   1.302   6.879 -0.6787  0.0105 -0.0472
  280SOL     hw 1118   0.311   1.289   6.959  1.3398 -0.5186  1.2191
  280SOL     hw 1119   0.319   1.374   6.834 -4.1449 -2.0579 -0.4446
  280SOL     vw 1120   0.350   1.310   6.884 -0.8697 -0.3322  0.0672
  281SOL     ow 1121   2.026   6.358   5.167 -0.0192 -0.0264 -1.0046
  281SOL     hw 1122   2.051   6.444   5.200  0.6655 -0.4771 -0.3169
  281SOL     hw 1123   1.935   6.346   5.194  1.1702 -1.4289  3.1174
  281SOL     vw 1124   2.018   6.367   5.175  0.2282 -0.2706 -0.3703
  282SOL     ow 1125   6.968   1.871   4.039 -1.0724  0.3453 -0.3942
  282SOL     hw 1126   6.921   1.955   4.042  0.3257  1.1569 -0.1863
  282SOL     hw 1127   7.045   1.889   3.984 -0.4639 -0.6366  0.1152
  282SOL     vw 1128   6.972   1.885   4.032 -0.8078  0.3228 -0.2997
  283SOL     ow 1129   1.162   5.726   2.850 -0.4190  0.2149 -0.5228
  283SOL     hw 1130   1.146   5.641   2.892 -2.8259  0.3688 -1.0016
  283SOL     hw 1131   1.161   5.788   2.923 -2.3538  0.2185 -0.5000
  283SOL     vw 1132   1.160   5.723   2.865 -0.9918  0.2358 -0.5829
  284SOL     ow 1133   1.020   0.653   7.070 -0.2173  0.3524  0.4132
  284SOL     hw 1134   0.985   0.603   7.143  0.5846  2.1998  2.1765
  284SOL     hw 1135   1.040   0.739   7.108 -0.2056  1.5415 -2.1143
  284SOL     vw 1136   1.018   0.658   7.085 -0.1099  0.7530  0.3123
  285SOL     ow 1137   1.579   3.612   1.032  0.6939  0.3250  0.0457
  285SOL     hw 1138   1.560   3.654   0.949 -1.3476 -0.2884  0.1503
  285SOL     hw 1139   1.605   3.683   1.090 -0.8157  1.1905 -0.2988
  285SOL     vw 1140   1.580   3.627   1.029  0.2254  0.3583  0.0141
  286SOL     ow 1141   4.814   6.837   4.212 -0.6200  0.2838 -0.6935
  286SOL     hw 1142   4.905   6.808   4.211 -0.4457  0.8114 -0.2931
  286SOL     hw 1143   4.812   6.911   4.273 -1.1648  0.7775 -1.2893
  286SOL     vw 1144   4.825   6.843   4.220 -0.6690  0.4184 -0.7195
  287SOL     ow 1145   1.931   5.002   1.444 -0.2957 -0.5929  0.0095
  287SOL     hw 1146   1.842   5.035   1.455  0.1050  0.6829 -0.4077
  287SOL     hw 1147   1.927   4.948   1.366 -0.2510  1.3344 -1.3959
  287SOL     vw 1148   1.919   4.999   1.435 -0.2369 -0.1702 -0.2310
  288SOL     ow 1149   5.928   2.753   5.012 -0.5318  0.0477  0.3207
  288SOL     hw 1150   5.926   2.771   4.918 -0.6256  0.2739  0.3634
  288SOL     hw 1151   5.965   2.833   5.050 -2.4901  0.8670  0.6652
  288SOL     vw 1152   5.932   2.766   5.005 -0.8023  0.1855  0.3719
  289SOL     ow 1153   1.049   1.920   3.165  0.3133 -0.1234  0.0930
  289SOL     hw 1154   1.079   1.952   3.250  1.6755  1.2567 -0.8533
  289SOL     hw 1155   1.127   1.881   3.125  0.5736  1.9924 -1.7148
  289SOL     vw 1156   1.064   1.919   3.171  0.5273  0.3378 -0.2702
  290SOL     ow 1157   6.729   3.270   7.371 -0.3923  0.9472  0.4237
  290SOL     hw 1158   6.810   3.220   7.381 -2.0678 -2.1180 -0.0424
  290SOL     hw 1159   6.710   3.303   7.459  0.4843  0.2218  0.9054
  290SOL     vw 1160   6.737   3.267   7.384 -0.4976  0.4470  0.4256
  291SOL     ow 1161   5.337   4.455   2.988  0.0222  0.1978 -0.3856
  291SOL     hw 1162   5.252   4.430   2.950 -0.4896 -0.4117  1.1041
  291SOL     hw 1163   5.397   4.454   2.913 -1.6925  3.0341 -1.9987
  291SOL     vw 1164   5.333   4.452   2.973 -0.2716  0.4916 -0.4019
  292SOL     ow 1165   0.346   5.859   1.351  0.7885  0.3135  0.8074
  292SOL     hw 1166   0.392   5.867   1.267  2.0899  2.3313  1.6723
  292SOL     hw 1167   0.272   5.801   1.331  1.4562  0.1705 -1.5631
  292SOL     vw 1168   0.342   5.852   1.337  1.0483  0.5610  0.6087
  293SOL     ow 1169   2.827   0.887   5.361 -0.2637  0.4377  0.0193
  293SOL     hw 1170   2.884   0.811   5.356 -0.9186 -0.0313 -0.4688
  293SOL     hw 1171   2.743   0.858   5.324 -0.6920  1.2326  0.3220
  293SOL     vw 1172   2.823   0.873   5.355 -0.4066  0.4807 -0.0052
  294SOL     ow 1173   2.914   2.040   5.442 -0.1124  0.2864 -0.1594
  294SOL     hw 1174   2.886   2.067   5.354 -1.6135  1.5544  0.6674
  294SOL     hw 1175   2.840   1.991   5.477  0.1198  0.5438  0.7185
  294SOL     vw 1176   2.901   2.037   5.435 -0.2799  0.4877  0.0656
  295SOL     ow 1177   5.560   0.851   0.666 -0.2710 -0.4522 -0.2265
  295SOL     hw 1178   5.645   0.873   0.703 -0.4448 -0.2798  0.0667
  295SOL     hw 1179   5.499   0.858   0.739 -0.4969 -0.8308 -0.3763
  295SOL     vw 1180   5.564   0.855   0.680 -0.3235 -0.4794 -0.2076
  296SOL     ow 1181   6.261   2.682   5.351 -0.4375  0.1988 -0.0283
  296SOL     hw 1182   6.257   2.607   5.292  0.6526  0.3466 -0.3127
  296SOL     hw 1183   6.354   2.697   5.365 -0.6304 -0.3471  2.4032
  296SOL     vw 1184   6.273   2.674   5.345 -0.3195  0.1463  0.2551
  297SOL     ow 1185   4.038   1.646   1.843  0.2627 -0.0055 -0.2139
  297SOL     hw 1186   3.944   1.661   1.836 -0.5243 -2.5010  2.6211
  297SOL     hw 1187   4.047   1.587   1.918  4.1423  0.3787 -0.1645
  297SOL     vw 1188   4.027   1.641   1.852  0.6709 -0.2841  0.1667
  298SOL     ow 1189   0.433   7.525   6.545  0.4358  0.4644 -0.0601
  298SOL     hw 1190   0.385   7.582   6.605 -1.0207 -0.6686 -0.1020
  298SOL     hw 1191   0.434   7.572   6.462 -1.5554  0.1037 -0.3445
  298SOL     vw 1192   0.427   7.538   6.542 -0.0191  0.2675 -0.1030
  299SOL     ow 1193   7.267   6.728   2.818 -0.3477  0.1872 -0.8415
  299SOL     hw 1194   7.211   6.737   2.895  0.9983  0.9390  0.0872
  299SOL     hw 1195   7.321   6.807   2.819  0.8413 -0.5947 -1.6076
  299SOL     vw 1196   7.267   6.740   2.828 -0.0134  0.1833 -0.8200
  300SOL     ow 1197   1.986   6.435   0.736  0.3553  0.0394 -0.1105
  300SOL     hw 1198   2.045   6.389   0.676 -0.9424  0.1230 -1.5318
  300SOL     hw 1199   2.029   6.519   0.752  0.4572  0.2585 -1.4360
  300SOL     vw 1200   1.999   6.440   0.730  0.1975  0.0792 -0.4729
  301SOL     ow 1201   6.493   3.623   5.920  0.2505 -0.4127 -0.1382
  301SOL     hw 1202   6.493   3.574   5.838  0.2462 -0.5975 -0.0303
  301SOL     hw 1203   6.402   3.618   5.951  0.4575 -1.2191  0.3840
  301SOL     vw 1204   6.481   3.616   5.913  0.2773 -0.5435 -0.0551
  302SOL     ow 1205   0.626   2.939   6.073 -0.1429 -0.1413 -0.6667
  302SOL     hw 1206   0.560   2.924   6.140 -1.0127 -1.2492 -1.7238
  302SOL     hw 1207   0.577   2.969   5.997  0.1289 -3.5059 -2.3449
  302SOL     vw 1208   0.611   2.941   6.072 -0.2218 -0.7313 -1.0276
  303SOL     ow 1209   3.548   3.138   5.684  0.7425 -0.9039 -0.2179
  303SOL     hw 1210   3.528   3.108   5.773  2.4848 -2.0078 -0.1383
  303SOL     hw 1211   3.639   3.111   5.670  1.1555  0.9959 -1.6240
  303SOL     vw 1212   3.557   3.131   5.694  1.0269 -0.7988 -0.3929
  304SOL     ow 1213   4.391   6.030   6.784  0.4567 -0.0043 -0.1979
  304SOL     hw 1214   4.330   6.103   6.778  1.0398  0.4173 -1.3438
  304SOL     hw 1215   4.337   5.952   6.767  0.2427  0.3734 -1.3128
  304SOL     vw 1216   4.376   6.029   6.781  0.5057  0.1011 -0.4961
  305SOL     ow 1217   6.236   4.548   4.305  0.1427  0.4412 -0.3637
  305SOL     hw 1218   6.286   4.561   4.225  2.4086 -2.3022  0.4498
  305SOL     hw 1219   6.169   4.484   4.282 -1.0378  1.7270 -0.6612
  305SOL     vw 1220   6.234   4.542   4.292  0.2856  0.2489 -0.2954
  306SOL     ow 1221   3.228   5.660   0.922 -0.0013 -0.4437 -0.6181
  306SOL     hw 1222   3.231   5.595   0.852 -0.6287 -2.2909  0.9644
  306SOL     hw 1223   3.282   5.622   0.992  1.6614  1.9111 -0.4796
  306SOL     vw 1224   3.236   5.647   0.922  0.1352 -0.3765 -0.3910
  307SOL     ow 1225   6.833   2.418   5.575  0.1271  0.0613 -0.4285
  307SOL     hw 1226   6.839   2.359   5.500  1.5852  0.3225 -0.5484
  307SOL     hw 1227   6.899   2.385   5.636 -0.4686  0.3545  0.3945
  307SOL     vw 1228   6.843   2.406   5.574  0.2408  0.1345 -0.3359
  308SOL     ow 1229   3.377   0.570   4.848  0.6320 -0.0112 -0.2083
  308SOL     hw 1230   3.426   0.508   4.901  1.2042 -0.0779 -0.7956
  308SOL     hw 1231   3.304   0.520   4.813  0.4074 -0.0364  0.2903
  308SOL     vw 1232   3.374   0.555   4.850  0.6778 -0.0233 -0.2198
  309SOL     ow 1233   3.545   3.933   7.326  0.6517  0.4042  0.2093
  309SOL     hw 1234   3.550   3.857   7.268  1.8728 -0.6466  1.6362
  309SOL     hw 1235   3.486   3.993   7.281  2.2265  0.0339 -2.5736
  309SOL     vw 1236   3.538   3.931   7.312  1.0206  0.2167  0.0305
  310SOL     ow 1237   6.694   2.878   3.027  0.3710  0.1779 -0.5032
  310SOL     hw 1238   6.625   2.852   3.088  0.5113 -1.8204 -1.1271
  310SOL     hw 1239   6.652   2.876   2.941  0.3261  2.4268 -0.6120
  310SOL     vw 1240   6.679   2.875   3.023  0.3839  0.2110 -0.5997
  311SOL     ow 1241   7.463   4.772   2.790  0.4514 -0.4782  0.6755
  311SOL     hw 1242   7.422   4.689   2.817 -0.4860  0.0948  1.0778
  311SOL     hw 1243   7.504   4.752   2.706 -1.3669 -0.9019 -0.1730
  311SOL     vw 1244   7.463   4.758   2.783  0.0880 -0.4582  0.6166
  312SOL     ow 1245   1.664   1.218   3.845 -0.2506  0.0010  0.3028
  312SOL     hw 1246   1.748   1.225   3.799 -0.7614  0.8933 -0.5277
  312SOL     hw 1247   1.673   1.139   3.898  1.4594  0.5754  0.9471
  312SOL     vw 1248   1.676   1.208   3.846 -0.0924  0.1945  0.2782
  313SOL     ow 1249   7.494   5.713   5.815  0.1642 -0.1556  0.6328
  313SOL     hw 1250   7.507   5.757   5.731  1.0324  1.6201  1.6249
  313SOL     hw 1251   7.570   5.655   5.824  0.7038  0.5462  0.7036
  313SOL     vw 1252   7.506   5.711   5.805  0.3498  0.1712  0.7732
  314SOL     ow 1253   5.564   5.652   3.182  0.9414  0.1576  0.4842
  314SOL     hw 1254   5.590   5.570   3.140  0.0196 -0.3028  0.7741
  314SOL     hw 1255   5.472   5.639   3.205 -0.1956  2.4119 -2.2241
  314SOL     vw 1256   5.555   5.639   3.180  0.6695  0.3941  0.1650
  315SOL     ow 1257   1.522   6.927   0.815 -0.6911  0.0314  0.5177
  315SOL     hw 1258   1.432   6.958   0.816 -0.2281  1.4900 -0.4468
  315SOL     hw 1259   1.558   6.960   0.733  0.7877 -0.3067  1.0047
  315SOL     vw 1260   1.515   6.936   0.804 -0.4349  0.1791  0.4547
  316SOL     ow 1261   6.737   6.477   5.504 -0.5139 -0.0479  0.0493
  316SOL     hw 1262   6.707   6.411   5.442 -2.1107  2.4350 -2.0175
  316SOL     hw 1263   6.794   6.534   5.453 -2.3399  2.4232  0.5792
  316SOL     vw 1264   6.741   6.476   5.489 -0.9654  0.6058 -0.1535
  317SOL     ow 1265   2.460   4.128   4.173  0.2193 -0.1593 -0.0200
  317SOL     hw 1266   2.471   4.200   4.111  1.0486  0.6447  1.0175
  317SOL     hw 1267   2.546   4.086   4.176 -0.5908 -2.0868 -1.6166
  317SOL     vw 1268   2.473   4.132   4.165  0.2217 -0.3073 -0.0939
  318SOL     ow 1269   7.062   4.119   1.511 -0.1958 -0.1875  0.1039
  318SOL     hw 1270   6.997   4.184   1.538 -0.0719 -0.6454  1.5884
  318SOL     hw 1271   7.121   4.111   1.586  3.4949  2.4405 -2.1841
  318SOL     vw 1272   7.061   4.127   1.524  0.3078  0.0987 -0.0021
  319SOL     ow 1273   3.828   4.634   3.618 -0.3009 -0.0062  0.2770
  319SOL     hw 1274   3.815   4.715   3.567 -1.4275  0.6386  1.5059
  319SOL     hw 1275   3.893   4.658   3.685  0.6968 -0.6619 -0.4336
  319SOL     vw 1276   3.835   4.648   3.620 -0.3179 -0.0076  0.3453
  320SOL     ow 1277   6.581   0.307   3.710 -0.5446 -0.0204 -0.2274
  320SOL     hw 1278   6.490   0.336   3.717 -0.0390  2.0883 -1.4766
  320SOL     hw 1279   6.623   0.342   3.789 -0.0065  2.7249 -1.5809
  320SOL     vw 1280   6.575   0.316   3.722 -0.4072  0.6200 -0.5708
  321SOL     ow 1281   5.022   0.906   3.005  0.3058  0.1447 -0.1039
  321SOL     hw 1282   4.977   0.984   3.039 -0.1009  0.6157 -1.6624
  321SOL     hw 1283   4.989   0.834   3.059  0.4227  0.9845  1.1375
  321SOL     vw 1284   5.012   0.907   3.017  0.2675  0.3176 -0.1457
  322SOL     ow 1285   1.472   2.266   5.034 -0.1086  0.2009 -0.3175
  322SOL     hw 1286   1.459   2.360   5.027 -1.8009  0.0823  0.8074
  322SOL     hw 1287   1.500   2.251   5.124 -0.1644 -0.4074 -0.3933
  322SOL     vw 1288   1.474   2.276   5.045 -0.3392  0.1051 -0.1793
  323SOL     ow 1289   1.169   6.328   6.137  0.0121  0.1702  0.9417
  323SOL     hw 1290   1.151   6.362   6.049  1.1114 -0.2688  0.5188
  323SOL     hw 1291   1.250   6.277   6.126 -0.4283 -0.7952  1.9907
  323SOL     vw 1292   1.178   6.326   6.124  0.0990 -0.0153  1.0242
  324SOL     ow 1293   1.685   2.052   4.874  0.8642  0.0569  0.2609
  324SOL     hw 1294   1.654   1.969   4.837  0.2205 -0.3529  1.6569
  324SOL     hw 1295   1.741   2.089   4.806  1.2167 -1.5559 -0.3613
  324SOL     vw 1296   1.688   2.046   4.860  0.8258 -0.2098  0.3631
  325SOL     ow 1297   6.851   4.943   7.502 -0.4525 -0.1995  0.1672
  325SOL     hw 1298   6.835   4.911   7.413  1.2522 -1.7699  0.3852
  325SOL     hw 1299   6.765   4.938   7.545 -1.0916 -0.3732 -1.0876
  325SOL     vw 1300   6.838   4.938   7.496 -0.3119 -0.4296  0.0305
  326SOL     ow 1301   4.692   2.242   4.051 -0.4299  0.5051  0.1574
  326SOL     hw 1302   4.612   2.293   4.041 -0.7360  0.2713  1.3215
  326SOL     hw 1303   4.750   2.275   3.982 -2.0731 -0.4354 -1.8105
  326SOL     vw 1304   4.689   2.253   4.040 -0.6871  0.3501  0.0513
  327SOL     ow 1305   2.609   3.789   4.300  0.0458  0.2830 -0.4581
  327SOL     hw 1306   2.630   3.799   4.207  0.0751  0.2868 -0.4512
  327SOL     hw 1307   2.525   3.743   4.302  0.3834 -0.3427 -0.4727
  327SOL     vw 1308   2.601   3.785   4.288  0.0942  0.2010 -0.4590
  328SOL     ow 1309   6.749   1.322   2.845 -0.0716  0.3660  0.1759
  328SOL     hw 1310   6.686   1.352   2.911 -0.7341  1.6999 -1.0043
  328SOL     hw 1311   6.794   1.249   2.886 -1.3760  0.3229  1.6111
  328SOL     vw 1312   6.746   1.317   2.859 -0.3312  0.5363  0.2095
  329SOL     ow 1313   2.021   4.477   5.567  0.1455  0.3270  0.0266
  329SOL     hw 1314   2.112   4.464   5.541  0.0961 -1.1899  0.5143
  329SOL     hw 1315   1.978   4.393   5.547 -1.0326  0.8473  0.2731
  329SOL     vw 1316   2.027   4.464   5.561 -0.0163  0.1955  0.1235
  330SOL     ow 1317   5.525   4.820   3.139  0.6468  0.2433  0.5597
  330SOL     hw 1318   5.596   4.786   3.084 -1.2966 -1.8478 -0.8640
  330SOL     hw 1319   5.547   4.791   3.227  2.1311  0.7278  0.3943
  330SOL     vw 1320   5.538   4.812   3.143  0.5863  0.0315  0.3501
  331SOL     ow 1321   0.536   7.431   1.061  0.0621 -0.2354 -0.1202
  331SOL     hw 1322   0.631   7.427   1.075  0.3218 -1.9478 -1.8584
  331SOL     hw 1323   0.499   7.376   1.130  0.8734 -4.0536 -2.3802
  331SOL     vw 1324   0.544   7.423   1.072  0.2034 -0.9654 -0.6477
  332SOL     ow 1325   4.054   6.571   1.014  0.0866 -0.2002  0.2041
  332SOL     hw 1326   3.959   6.585   1.021 -0.2014 -0.9007 -1.6818
  332SOL     hw 1327   4.079   6.533   1.098 -1.1887  0.5536  0.9529
  332SOL     vw 1328   4.045   6.567   1.026 -0.1199 -0.1931  0.0541
  333SOL     ow 1329   0.840   3.170   1.290  0.0714 -0.5895 -0.0261
  333SOL     hw 1330   0.797   3.115   1.224  0.8630  0.2042 -1.2519
  333SOL     hw 1331   0.805   3.258   1.273 -0.6619 -0.5659  1.4604
  333SOL     vw 1332   0.829   3.174   1.279  0.0791 -0.4816  0.0083
  334SOL     ow 1333   0.953   5.022   1.635 -0.2153  0.4340 -0.1590
  334SOL     hw 1334   0.977   4.933   1.661 -0.4685  0.4729  0.2129
  334SOL     hw 1335   0.947   5.071   1.717 -0.6161  0.6626 -0.3201
  334SOL     vw 1336   0.955   5.017   1.649 -0.3016  0.4692 -0.1312
  335SOL     ow 1337   6.573   0.776   1.733  0.0938 -0.6127  0.2211
  335SOL     hw 1338   6.504   0.710   1.733  0.5528 -1.1088 -0.2734
  335SOL     hw 1339   6.642   0.738   1.678  1.1329 -0.5173  1.4114
  335SOL     vw 1340   6.573   0.762   1.726  0.2916 -0.6656  0.3130
  336SOL     ow 1341   1.073   5.155   1.408 -0.2141 -0.2851  0.3066
  336SOL     hw 1342   1.135   5.083   1.395  0.6715  0.1918  1.6145
  336SOL     hw 1343   1.122   5.219   1.459 -1.0096  1.2312 -0.7690
  336SOL     vw 1344   1.088   5.154   1.413 -0.2022 -0.0219  0.3372
  337SOL     ow 1345   0.185   5.562   5.786 -0.3847 -0.3503  0.1251
  337SOL     hw 1346   0.211   5.521   5.704  0.2484  1.9890 -0.9174
  337SOL     hw 1347   0.251   5.629   5.802 -1.3327  0.2582  1.7637
  337SOL     vw 1348   0.197   5.565   5.777 -0.4262  0.0384  0.2038
  338SOL     ow 1349   6.156   0.927   2.303  0.0030  0.2912  0.0400
  338SOL     hw 1350   6.109   0.847   2.328  0.5788 -0.0042  0.1925
  338SOL     hw 1351   6.100   0.968   2.237 -0.4543 -0.0708  0.1967
  338SOL     vw 1352   6.143   0.922   2.297  0.0184  0.2045  0.0808
  339SOL     ow 1353   2.115   3.569   4.514 -0.3373  0.6771  0.5165
  339SOL     hw 1354   2.185   3.590   4.576 -1.3843  1.0459  1.6077
  339SOL     hw 1355   2.067   3.650   4.503 -0.0559  0.6757 -0.9866
  339SOL     vw 1356   2.118   3.582   4.521 -0.4382  0.7257  0.4621
  340SOL     ow 1357   6.940   3.865   5.241 -0.2681  0.2429 -0.1513
  340SOL     hw 1358   6.878   3.796   5.219 -1.7806  2.1168 -2.1938
  340SOL     hw 1359   7.017   3.848   5.186 -1.3698  1.1272 -2.0553
  340SOL     vw 1360   6.942   3.854   5.231 -0.6132  0.6068 -0.6721
  341SOL     ow 1361   6.621   4.449   6.948 -0.5343  0.8005  0.1129
  341SOL     hw 1362   6.593   4.513   6.882 -2.2497 -0.3185 -0.3370
  341SOL     hw 1363   6.599   4.490   7.032  0.6130  1.7622 -0.0288
  341SOL     vw 1364   6.614   4.463   6.950 -0.6092  0.7799  0.0348
  342SOL     ow 1365   2.623   6.595   6.603 -0.0484 -0.3932 -0.2012
  342SOL     hw 1366   2.648   6.670   6.549 -0.3825  0.1832  0.4313
  342SOL     hw 1367   2.686   6.595   6.674 -0.6621 -0.0885  0.3541
  342SOL     vw 1368   2.634   6.605   6.605 -0.1734 -0.2770 -0.0443
  343SOL     ow 1369   0.728   5.114   0.088  0.3438  0.1432 -0.4967
  343SOL     hw 1370   0.784   5.191   0.091 -1.6890  1.6916  1.2064
  343SOL     hw 1371   0.686   5.118   0.002  0.5527  0.6992 -0.5712
  343SOL     vw 1372   0.729   5.124   0.077  0.1032  0.4210 -0.2818
  344SOL     ow 1373   4.654   6.382   3.812  0.1787  0.3526  0.1792
  344SOL     hw 1374   4.635   6.403   3.721  0.1008  3.0998  0.7583
  344SOL     hw 1375   4.603   6.445   3.862  0.0994 -1.1873  2.1749
  344SOL     vw 1376   4.645   6.393   3.807  0.1581  0.5116  0.5189
  345SOL     ow 1377   3.775   7.054   6.131 -0.1483 -0.0671 -0.3659
  345SOL     hw 1378   3.818   6.984   6.179  0.5896  0.7688  0.2369
  345SOL     hw 1379   3.838   7.077   6.062 -0.4188 -0.0435 -0.6062
  345SOL     vw 1380   3.789   7.048   6.128 -0.0867  0.0465 -0.3181
  346SOL     ow 1381   1.588   1.255   2.025 -0.3346 -0.7008 -0.3009
  346SOL     hw 1382   1.659   1.193   2.042 -0.0487 -0.1452  0.6079
  346SOL     hw 1383   1.630   1.328   1.979 -0.2509 -0.2287  0.5186
  346SOL     vw 1384   1.603   1.256   2.021 -0.2858 -0.5652 -0.0728
  347SOL     ow 1385   1.402   2.175   1.610  0.1550 -0.7323  0.7290
  347SOL     hw 1386   1.390   2.178   1.705 -1.9229 -2.5046  0.6041
  347SOL     hw 1387   1.322   2.133   1.577  1.1936 -0.9520 -1.7324
  347SOL     vw 1388   1.390   2.170   1.618  0.0179 -0.9950  0.3878
  348SOL     ow 1389   5.651   0.207   0.089  0.0238 -0.2757 -0.3792
  348SOL     hw 1390   5.659   0.116   0.059  1.9372 -0.5689  0.8117
  348SOL     hw 1391   5.716   0.255   0.038  0.4942 -0.0166  0.4388
  348SOL     vw 1392   5.661   0.201   0.078  0.3383 -0.2802 -0.1141
  349SOL     ow 1393   5.473   1.776   4.892 -0.1373 -0.3553  0.5072
  349SOL     hw 1394   5.506   1.748   4.807  0.1940 -3.9857  1.6925
  349SOL     hw 1395   5.552   1.799   4.941 -0.2233  0.3692  0.3228
  349SOL     vw 1396   5.488   1.776   4.887 -0.1051 -0.7387  0.6392
  350SOL     ow 1397   4.050   5.179   6.689 -0.8850 -0.1857 -0.1081
  350SOL     hw 1398   4.111   5.124   6.738  2.0412  1.2866 -1.8236
  350SOL     hw 1399   4.035   5.255   6.745  0.6011  0.4246 -0.5039
  350SOL     vw 1400   4.056   5.182   6.703 -0.3030  0.0892 -0.3865
  351SOL     ow 1401   6.490   4.281   3.609  0.9290 -0.4720 -0.1059
  351SOL     hw 1402   6.450   4.222   3.673 -1.9860 -0.1992 -1.4704
  351SOL     hw 1403   6.495   4.229   3.528  0.3040  0.4683 -0.7726
  351SOL     vw 1404   6.485   4.266   3.606  0.4621 -0.3119 -0.3738
  352SOL     ow 1405   1.145   4.400   7.141  0.2573  0.3395 -0.0776
  352SOL     hw 1406   1.119   4.438   7.056 -3.0354 -1.5713 -0.0860
  352SOL     hw 1407   1.083   4.437   7.203  2.4884  1.5202  1.5785
  352SOL     vw 1408   1.133   4.410   7.138  0.1172  0.2434  0.1395
  353SOL     ow 1409   4.401   5.512   0.977  0.7234 -0.3415  0.3255
  353SOL     hw 1410   4.460   5.470   0.915  0.6422  0.3806 -0.2534
  353SOL     hw 1411   4.457   5.534   1.052  0.9612 -0.6041  0.2271
  353SOL     vw 1412   4.416   5.509   0.979  0.7441 -0.2811  0.2361
  354SOL     ow 1413   0.502   1.945   3.390  0.0187 -0.1867  0.0005
  354SOL     hw 1414   0.559   1.885   3.438  0.9539 -0.6913 -1.6620
  354SOL     hw 1415   0.414   1.911   3.404  0.3992 -1.0842  0.2832
  354SOL     vw 1416   0.498   1.932   3.398  0.1923 -0.3718 -0.1814
  355SOL     ow 1417   0.934   2.965   6.184 -0.4006  0.4071  0.0624
  355SOL     hw 1418   1.017   3.012   6.181 -0.6469  0.8256 -0.6625
  355SOL     hw 1419   0.934   2.921   6.269  1.2568 -0.9064 -0.5656
  355SOL     vw 1420   0.945   2.965   6.195 -0.2144  0.2890 -0.1161
  356SOL     ow 1421   2.410   2.359   5.610  0.4086  0.1953  0.4880
  356SOL     hw 1422   2.488   2.307   5.589 -0.2711 -1.0280  0.9047
  356SOL     hw 1423   2.346   2.334   5.544 -0.1745 -0.0750  1.1489
  356SOL     vw 1424   2.412   2.349   5.599  0.2419 -0.0017  0.6301
  357SOL     ow 1425   3.083   1.037   2.319 -0.2375  0.3798 -0.2940
  357SOL     hw 1426   3.003   1.089   2.320 -0.2843  0.3028  0.1762
  357SOL     hw 1427   3.129   1.060   2.400  0.7528  1.2450 -1.0735
  357SOL     vw 1428   3.079   1.047   2.330 -0.1130  0.4838 -0.3347
  358SOL     ow 1429   2.405   7.391   2.405  0.9197 -0.3141 -0.6154
  358SOL     hw 1430   2.494   7.418   2.427 -0.1008  2.7718  0.2718
  358SOL     hw 1431   2.398   7.403   2.310  0.6353  2.6248 -0.3222
  358SOL     vw 1432   2.416   7.397   2.395  0.7476  0.4809 -0.4596
  359SOL     ow 1433   4.493   4.665   7.203  0.2994 -0.8431  0.0579
  359SOL     hw 1434   4.505   4.570   7.198 -1.7694 -1.1695  0.3182
  359SOL     hw 1435   4.509   4.686   7.295 -1.0713 -1.2623  0.4096
  359SOL     vw 1436   4.497   4.655   7.215 -0.1547 -0.9413  0.1388
  360SOL     ow 1437   5.919   4.586   4.277  0.4272  0.1415 -0.7674
  360SOL     hw 1438   5.914   4.573   4.372 -1.5065 -0.0804 -0.8549
  360SOL     hw 1439   5.932   4.680   4.266  2.6656 -0.0812 -0.2812
  360SOL     vw 1440   5.920   4.597   4.288  0.4673  0.0827 -0.7150
  361SOL     ow 1441   5.468   5.880   3.344  0.6806 -0.8344 -0.5227
  361SOL     hw 1442   5.405   5.871   3.415 -1.3512 -2.1351 -2.3425
  361SOL     hw 1443   5.464   5.972   3.319 -0.1214 -0.7937 -0.2560
  361SOL     vw 1444   5.460   5.891   3.350  0.3066 -1.0004 -0.7277
  362SOL     ow 1445   5.131   2.593   3.741  0.1136  0.2143  0.0864
  362SOL     hw 1446   5.106   2.502   3.726 -0.2902  0.4273 -0.5380
  362SOL     hw 1447   5.117   2.637   3.657 -0.1356  0.9536  0.4987
  362SOL     vw 1448   5.126   2.587   3.728  0.0274  0.3400  0.0584
  363SOL     ow 1449   0.374   6.096   0.933 -0.7520  0.3263 -0.7435
  363SOL     hw 1450   0.435   6.128   0.999 -1.5259  0.6891 -0.1939
  363SOL     hw 1451   0.429   6.046   0.872 -0.3600 -2.2154  1.5163
  363SOL     vw 1452   0.389   6.094   0.933 -0.8024  0.0389 -0.3729
  364SOL     ow 1453   3.200   5.420   6.081 -0.6271 -0.2693 -0.2699
  364SOL     hw 1454   3.277   5.467   6.112 -0.0607  0.7152 -2.9324
  364SOL     hw 1455   3.126   5.474   6.109 -0.4521 -1.3002  2.4352
  364SOL     vw 1456   3.200   5.433   6.089 -0.5292 -0.2754 -0.2644
  365SOL     ow 1457   7.382   1.627   3.971  0.1142 -0.4056 -0.2855
  365SOL     hw 1458   7.379   1.618   4.067 -0.6550 -0.5822 -0.3209
  365SOL     hw 1459   7.425   1.712   3.957 -0.2815 -0.1120  0.2326
  365SOL     vw 1460   7.388   1.637   3.982 -0.0396 -0.3902 -0.2217
  366SOL     ow 1461   2.479   6.295   7.027 -0.4649 -0.4652  0.3627
  366SOL     hw 1462   2.460   6.256   7.113 -0.0468 -0.7959  0.3112
  366SOL     hw 1463   2.493   6.220   6.969 -0.5313 -0.2418  0.0536
  366SOL     vw 1464   2.478   6.280   7.031 -0.4185 -0.4792  0.3152
  367SOL     ow 1465   7.349   5.062   6.015  0.8303 -0.5152  0.3334
  367SOL     hw 1466   7.268   5.015   5.994 -0.2570  1.1247  0.7050
  367SOL     hw 1467   7.408   5.043   5.942 -0.4056 -0.5652 -0.6778
  367SOL     vw 1468   7.346   5.053   6.003  0.5236 -0.3052  0.2491
  368SOL     ow 1469   4.641   3.270   5.130  0.3788 -0.4025  0.2973
  368SOL     hw 1470   4.596   3.346   5.167  0.3384  0.2413 -1.0068
  368SOL     hw 1471   4.601   3.195   5.173 -0.1065  0.2863  1.0741
  368SOL     vw 1472   4.630   3.270   5.140  0.3092 -0.2266  0.2275
  369SOL     ow 1473   4.155   6.544   4.582 -0.3752  0.4364  0.2549
  369SOL     hw 1474   4.164   6.448   4.577  3.2496  0.5712  1.3801
  369SOL     hw 1475   4.061   6.559   4.574 -0.8936 -2.9549 -3.2068
  369SOL     vw 1476   4.144   6.533   4.580  0.0348  0.0069 -0.0532
  370SOL     ow 1477   1.500   5.860   7.549 -0.3998  0.1163 -0.0537
  370SOL     hw 1478   1.447   5.781   7.553 -0.6365  0.2891  0.2399
  370SOL     hw 1479   1.457   5.921   7.609  1.4521 -0.5396  2.0958
  370SOL     vw 1480   1.487   5.858   7.557 -0.1867  0.0525  0.2687
  371SOL     ow 1481   3.580   0.252   3.002 -0.3458  0.0180 -0.2780
  371SOL     hw 1482   3.611   0.222   2.917  0.1395  1.6079 -0.6872
  371SOL     hw 1483   3.514   0.319   2.982 -1.6062 -0.9000  0.6108
  371SOL     vw 1484   3.575   0.257   2.988 -0.4480  0.1066 -0.2147
  372SOL     ow 1485   7.319   3.929   1.892  0.5441  0.0354  0.2330
  372SOL     hw 1486   7.321   3.909   1.799 -1.7592  0.2203  0.0940
  372SOL     hw 1487   7.285   3.850   1.933 -1.2637  0.9256  0.5472
  372SOL     vw 1488   7.315   3.916   1.885  0.0017  0.1774  0.2561
  373SOL     ow 1489   2.839   3.748   1.235  0.7448  0.3494 -0.1707
  373SOL     hw 1490   2.830   3.843   1.233  1.8505  0.5038  0.9196
  373SOL     hw 1491   2.882   3.730   1.319  1.9090 -0.9933 -1.0128
  373SOL     vw 1492   2.844   3.758   1.246  1.0444  0.1926 -0.1380
  374SOL     ow 1493   7.254   0.459   5.374 -0.1212  0.4163  0.3935
  374SOL     hw 1494   7.196   0.489   5.445 -0.9858 -1.9538  0.7943
  374SOL     hw 1495   7.229   0.367   5.361  1.4017  0.2370 -1.6409
  374SOL     vw 1496   7.243   0.451   5.382 -0.0343  0.0800  0.1781
  375SOL     ow 1497   2.047   4.207   0.313  0.4936 -0.3025 -0.0324
  375SOL     hw 1498   2.031   4.116   0.287 -1.6843  0.2541 -0.8375
  375SOL     hw 1499   1.965   4.252   0.294  1.3573  1.7437  0.8384
  375SOL     vw 1500   2.034   4.201   0.307  0.3203  0.0408 -0.0237
  376SOL     ow 1501   3.046   5.987   3.773  0.0969  0.3475 -0.3624
  376SOL     hw 1502   3.103   6.009   3.847 -0.6716 -1.0050  0.6769
  376SOL     hw 1503   3.103   5.995   3.697  0.8613  2.0013  0.3122
  376SOL     vw 1504   3.061   5.991   3.773  0.0963  0.3874 -0.1363
  377SOL     ow 1505   6.796   7.268   5.008  0.6286 -0.3101  0.0275
  377SOL     hw 1506   6.716   7.273   4.956  1.0355  0.3638 -0.5659
  377SOL     hw 1507   6.862   7.236   4.947  1.4211  1.7659 -0.3073
  377SOL     vw 1508   6.794   7.264   4.993  0.7868  0.0527 -0.0949
  378SOL     ow 1509   6.703   0.407   3.938 -0.3589 -0.0032 -0.3389
  378SOL     hw 1510   6.748   0.483   3.901 -1.6672  0.4004 -1.1679
  378SOL     hw 1511   6.770   0.339   3.941  0.3968  0.6694 -1.2289
  378SOL     vw 1512   6.717   0.408   3.934 -0.4318  0.1388 -0.5658
  379SOL     ow 1513   0.212   4.205   2.816  0.2010  0.2264  0.2503
  379SOL     hw 1514   0.148   4.147   2.774  0.1238  1.2858 -1.1841
  379SOL     hw 1515   0.160   4.276   2.852  0.1063 -1.3017  3.5077
  379SOL     vw 1516   0.196   4.207   2.815  0.1783  0.1645  0.4908
  380SOL     ow 1517   4.719   0.950   5.526 -0.6130 -0.6824 -0.3497
  380SOL     hw 1518   4.742   0.867   5.568 -1.4842 -0.1517  1.2598
  380SOL     hw 1519   4.687   0.925   5.440  1.1516 -1.8177 -0.7269
  380SOL     vw 1520   4.718   0.936   5.520 -0.4952 -0.7622 -0.1874
  381SOL     ow 1521   7.203   3.103   0.720 -0.2021  0.4425  0.1085
  381SOL     hw 1522   7.250   3.047   0.782  2.6363 -0.0211 -2.2172
  381SOL     hw 1523   7.122   3.056   0.701 -0.5424 -0.0124  2.4106
  381SOL     vw 1524   7.199   3.089   0.726  0.1276  0.3213  0.1054
  382SOL     ow 1525   5.115   4.585   6.804 -0.4437  0.1179 -0.1089
  382SOL     hw 1526   5.158   4.562   6.721  0.5652  0.8980  0.1753
  382SOL     hw 1527   5.154   4.669   6.828 -1.6381  0.5067  0.5314
  382SOL     vw 1528   5.126   4.593   6.796 -0.4685  0.2720  0.0131
  383SOL     ow 1529   1.747   1.829   5.481  0.2228  0.6808  0.1262
  383SOL     hw 1530   1.715   1.750   5.525 -0.7104  1.0665  0.1632
  383SOL     hw 1531   1.704   1.827   5.395  0.1272  1.1877  0.1583
  383SOL     vw 1532   1.737   1.818   5.475  0.0871  0.7986  0.1354
  384SOL     ow 1533   2.671   6.014   2.833  0.2611 -0.2692 -0.0367
  384SOL     hw 1534   2.762   5.986   2.841  1.0264  1.4507 -1.6855
  384SOL     hw 1535   2.649   6.052   2.918  1.3586  0.0056  0.1355
  384SOL     vw 1536   2.680   6.016   2.845  0.5069 -0.0060 -0.2315
  385SOL     ow 1537   0.377   0.621   3.748  0.3897  0.2936 -0.7384
  385SOL     hw 1538   0.302   0.664   3.707  1.3105  1.5103 -1.2057
  385SOL     hw 1539   0.410   0.685   3.811 -0.8942 -1.4561  1.9351
  385SOL     vw 1540   0.372   0.635   3.751  0.3418  0.2233 -0.4475
  386SOL     ow 1541   5.506   4.847   2.082 -0.1197 -0.5796  0.3043
  386SOL     hw 1542   5.459   4.764   2.088  1.4732 -1.5870 -0.3461
  386SOL     hw 1543   5.583   4.836   2.138 -1.0430  1.3479  2.0541
  386SOL     vw 1544   5.510   4.835   2.090 -0.0315 -0.4582  0.4493
  387SOL     ow 1545   3.140   6.476   0.914  0.3660  0.5252  0.1516
  387SOL     hw 1546   3.126   6.398   0.968  0.3529 -0.0003 -0.6050
  387SOL     hw 1547   3.228   6.505   0.937  0.2064  0.5628  0.7611
  387SOL     vw 1548   3.150   6.470   0.924  0.3432  0.4609  0.1322
  388SOL     ow 1549   3.185   1.650   5.814 -0.3890  0.1598 -0.3543
  388SOL     hw 1550   3.105   1.670   5.863 -0.4644 -1.1442  0.0914
  388SOL     hw 1551   3.221   1.736   5.791 -0.3269  0.8355  2.0180
  388SOL     vw 1552   3.179   1.664   5.818 -0.3908  0.0769  0.0176
  389SOL     ow 1553   3.590   0.868   2.796  0.5299 -0.0708 -0.0092
  389SOL     hw 1554   3.501   0.895   2.773 -0.0104 -1.4858  0.3082
  389SOL     hw 1555   3.592   0.774   2.777  1.6672 -0.2389  0.8573
  389SOL     vw 1556   3.579   0.860   2.790  0.6087 -0.2797  0.1469
  390SOL     ow 1557   6.600   7.122   1.004 -1.4285  0.1305 -0.7019
  390SOL     hw 1558   6.673   7.161   0.956 -1.4377 -0.3366 -1.0977
  390SOL     hw 1559   6.642   7.065   1.069 -1.4120  0.8822 -0.0449
  390SOL     vw 1560   6.615   7.120   1.006 -1.4277  0.1683 -0.6675
  391SOL     ow 1561   0.382   3.511   5.845 -0.5096 -0.1189  0.0522
  391SOL     hw 1562   0.335   3.516   5.929  2.4383 -1.2300  1.9302
  391SOL     hw 1563   0.394   3.417   5.830  1.0516  0.1089 -0.3178
  391SOL     vw 1564   0.377   3.499   5.854  0.0853 -0.2354  0.2508
  392SOL     ow 1565   6.720   1.711   1.796 -0.0425  0.6630  0.6034
  392SOL     hw 1566   6.639   1.737   1.752  0.5672 -0.0465 -1.0273
  392SOL     hw 1567   6.700   1.627   1.836  0.4699 -0.6973 -1.7996
  392SOL     vw 1568   6.707   1.703   1.796  0.1051  0.3900  0.0712
  393SOL     ow 1569   4.522   6.209   3.994 -0.3525 -0.0847  0.0592
  393SOL     hw 1570   4.598   6.209   4.051  0.1207 -0.4660 -0.5535
  393SOL     hw 1571   4.558   6.227   3.907 -0.9293 -0.4967 -0.2711
  393SOL     vw 1572   4.537   6.212   3.990 -0.3660 -0.1893 -0.0653
  394SOL     ow 1573   4.649   7.002   6.532 -0.2685 -0.8619 -0.2659
  394SOL     hw 1574   4.685   6.915   6.550 -0.8155 -0.8568  0.9384
  394SOL     hw 1575   4.702   7.061   6.584 -0.4569 -0.5720 -0.4010
  394SOL     vw 1576   4.661   6.998   6.541 -0.3655 -0.8228 -0.1249
  395SOL     ow 1577   0.486   5.557   6.598  0.5311  0.5344 -0.8228
  395SOL     hw 1578   0.558   5.607   6.559  0.1453  1.9942  0.2499
  395SOL     hw 1579   0.530   5.489   6.650  1.2303  2.1545  0.8048
  395SOL     vw 1580   0.501   5.555   6.600  0.5724  0.9408 -0.4668
  396SOL     ow 1581   0.309   4.495   4.837 -0.2941 -0.2290 -0.5022
  396SOL     hw 1582   0.252   4.505   4.760 -0.2258 -1.5381 -0.7516
  396SOL     hw 1583   0.395   4.522   4.806  0.2082 -2.7071 -1.5978
  396SOL     vw 1584   0.313   4.500   4.822 -0.2188 -0.7288 -0.6795
  397SOL     ow 1585   1.628   0.680   6.638 -0.6244  0.3340 -0.0361
  397SOL     hw 1586   1.581   0.684   6.555  0.8561 -0.1331 -0.9242
  397SOL     hw 1587   1.680   0.761   6.640 -0.9177  0.5101  0.6048
  397SOL     vw 1588   1.629   0.692   6.627 -0.4678  0.2956 -0.0687
  398SOL     ow 1589   6.471   7.466   2.312  0.5257  0.1903 -0.4720
  398SOL     hw 1590   6.509   7.526   2.377 -0.2588  1.1823 -0.8908
  398SOL     hw 1591   6.481   7.379   2.350 -0.8244  0.8258  1.4807
  398SOL     vw 1592   6.477   7.463   2.325  0.2439  0.4051 -0.2697
  399SOL     ow 1593   3.804   1.800   4.350  0.3321 -0.1203  0.4231
  399SOL     hw 1594   3.835   1.784   4.439  1.1359  0.1290  0.1901
  399SOL     hw 1595   3.783   1.893   4.348  1.9059  0.2492 -0.1164
  399SOL     vw 1596   3.805   1.810   4.361  0.6456 -0.0386  0.3211
  400SOL     ow 1597   3.423   5.006   5.791 -0.0857 -0.0535  0.7999
  400SOL     hw 1598   3.462   5.015   5.704 -1.4294 -2.3282 -0.1459
  400SOL     hw 1599   3.495   5.018   5.852  1.4428 -0.9068 -0.7507
  400SOL     vw 1600   3.438   5.009   5.788 -0.0612 -0.4663  0.4706
  401SOL     ow 1601   1.444   3.006   1.548 -0.6517  0.3447  0.0497
  401SOL     hw 1602   1.382   2.984   1.617 -0.2530 -0.6658  0.0945
  401SOL     hw 1603   1.517   3.048   1.593 -0.5875  0.0842  0.1856
  401SOL     vw 1604   1.445   3.009   1.563 -0.5906  0.1770  0.0736
  402SOL     ow 1605   5.379   2.679   7.525 -0.5916 -0.2418 -0.0898
  402SOL     hw 1606   5.387   2.771   7.498  0.8082  0.0027  1.0725
  402SOL     hw 1607   5.327   2.639   7.455 -0.9856  1.3557 -0.7707
  402SOL     vw 1608   5.373   2.686   7.512 -0.4587  0.0012 -0.0265
  403SOL     ow 1609   5.707   4.059   1.305 -0.1196 -0.7750 -0.3484
  403SOL     hw 1610   5.638   4.105   1.352  0.3413 -1.5840  1.2322
  403SOL     hw 1611   5.770   4.034   1.374  1.0379 -1.2639 -1.5347
  403SOL     vw 1612   5.706   4.062   1.320  0.0939 -0.9460 -0.2964
  404SOL     ow 1613   4.171   0.181   5.312 -0.0570  0.2290  0.7478
  404SOL     hw 1614   4.183   0.122   5.237 -0.0141  0.7201  0.3588
  404SOL     hw 1615   4.219   0.140   5.383 -2.3532 -1.7274  1.3210
  404SOL     vw 1616   4.179   0.168   5.311 -0.3541  0.0356  0.7718
  405SOL     ow 1617   7.032   7.124   7.208  0.3999 -0.0016  1.0209
  405SOL     hw 1618   6.989   7.205   7.181 -1.7088 -0.8728  1.6034
  405SOL     hw 1619   7.123   7.150   7.222  0.7195  1.4360 -2.5837
  405SOL     vw 1620   7.038   7.138   7.206  0.1640  0.0730  0.6223
  406SOL     ow 1621   7.226   3.599   0.969 -0.4366  0.1162  0.3464
  406SOL     hw 1622   7.190   3.512   0.954 -1.1252  0.5273 -0.4338
  406SOL     hw 1623   7.254   3.629   0.882  0.9897  0.1654  0.7940
  406SOL     vw 1624   7.225   3.591   0.955 -0.3395  0.1769  0.3025
  407SOL     ow 1625   0.019   7.289   3.882 -0.4211  0.0514 -0.7874
  407SOL     hw 1626  -0.059   7.332   3.847  0.0128  3.0776  1.5590
  407SOL     hw 1627   0.063   7.357   3.933  1.9404 -2.4819  0.8268
  407SOL     vw 1628   0.015   7.304   3.884 -0.0523  0.1166 -0.2649
  408SOL     ow 1629   2.282   3.385   2.988  0.3495  0.3525 -0.3225
  408SOL     hw 1630   2.241   3.454   2.935  0.4269 -0.8204 -1.9661
  408SOL     hw 1631   2.319   3.324   2.924 -0.0795 -1.4535  1.0872
  408SOL     vw 1632   2.282   3.386   2.972  0.3033 -0.0405 -0.3535
  409SOL     ow 1633   6.942   5.114   7.227  0.9936 -0.2326 -0.1898
  409SOL     hw 1634   6.877   5.053   7.262  0.0395 -0.0125 -1.4915
  409SOL     hw 1635   7.020   5.060   7.212  0.1897 -1.1518 -1.2572
  409SOL     vw 1636   6.944   5.099   7.229  0.7615 -0.3247 -0.5023
  410SOL     ow 1637   6.905   1.332   0.989 -0.3886 -0.3563 -0.5222
  410SOL     hw 1638   6.938   1.341   0.900 -2.3862  1.9519 -1.1355
  410SOL     hw 1639   6.845   1.406   1.000 -1.6075 -1.6002  2.1121
  410SOL     vw 1640   6.901   1.343   0.979 -0.8130 -0.2158 -0.2555
  411SOL     ow 1641   1.798   2.310   1.631  0.2708 -0.1584 -0.0498
  411SOL     hw 1642   1.886   2.281   1.655 -0.1778 -1.9241 -0.3829
  411SOL     hw 1643   1.753   2.320   1.715  0.6060  0.1562  0.0968
  411SOL     vw 1644   1.804   2.308   1.645  0.2558 -0.3499 -0.0744
  412SOL     ow 1645   7.441   2.803   2.912  0.0411 -0.0537  0.3926
  412SOL     hw 1646   7.507   2.871   2.903  0.6008 -0.7547 -1.0617
  412SOL     hw 1647   7.382   2.836   2.980  0.1643  1.9856 -0.4149
  412SOL     vw 1648   7.442   2.817   2.920  0.1311  0.1228  0.0939
  413SOL     ow 1649   3.919   4.712   4.136  0.2437  0.5660  0.5233
  413SOL     hw 1650   3.870   4.634   4.162 -0.8819  0.9354 -0.4130
  413SOL     hw 1651   3.976   4.731   4.211 -0.4690 -0.3415  1.3132
  413SOL     vw 1652   3.920   4.704   4.149  0.0012  0.4947  0.5040
  414SOL     ow 1653   0.543   2.716   2.589  0.0828  0.2329  0.1340
  414SOL     hw 1654   0.616   2.778   2.581  0.2349  0.3243  1.9776
  414SOL     hw 1655   0.538   2.676   2.502  0.5045  2.2227 -0.8915
  414SOL     vw 1656   0.552   2.719   2.576  0.1585  0.5076  0.2418
  415SOL     ow 1657   7.230   7.165   3.827 -0.1475 -0.0222 -0.0359
  415SOL     hw 1658   7.154   7.147   3.773  0.0163  0.5914 -0.4854
  415SOL     hw 1659   7.303   7.121   3.783  0.3791  2.1498 -1.5010
  415SOL     vw 1660   7.230   7.157   3.814 -0.0567  0.3455 -0.2886
  416SOL     ow 1661   0.448   2.188   1.348  0.0955  0.4184 -0.0584
  416SOL     hw 1662   0.509   2.123   1.382  0.4682  0.5218 -0.5158
  416SOL     hw 1663   0.365   2.142   1.342 -0.5073  0.9477  2.9038
  416SOL     vw 1664   0.445   2.174   1.352  0.0651  0.5019  0.2721
  417SOL     ow 1665   0.356   2.186   1.798  0.1841  0.2004 -0.0672
  417SOL     hw 1666   0.339   2.107   1.747 -1.1565  0.7921 -0.6103
  417SOL     hw 1667   0.325   2.165   1.886  0.6462 -0.1711  0.0050
  417SOL     vw 1668   0.350   2.173   1.803  0.0682  0.2295 -0.1293
  418SOL     ow 1669   3.122   0.054   0.664  0.0385 -0.2499 -0.2903
  418SOL     hw 1670   3.139   0.030   0.573  1.6442 -0.8663  0.1297
  418SOL     hw 1671   3.161  -0.017   0.715  1.9375  1.5647  0.9235
  418SOL     vw 1672   3.129   0.041   0.659  0.5008 -0.0918 -0.0748
  419SOL     ow 1673   7.503   4.945   5.529  0.2260 -0.4601 -0.3400
  419SOL     hw 1674   7.544   4.977   5.448  1.8810 -1.8188 -0.0786
  419SOL     hw 1675   7.422   4.904   5.500  0.5302 -0.4362 -1.2537
  419SOL     vw 1676   7.498   4.944   5.514  0.4845 -0.6361 -0.4263
  420SOL     ow 1677   5.635   7.120   3.195 -0.1938 -0.1969 -0.5967
  420SOL     hw 1678   5.658   7.207   3.163  3.0143 -0.7935 -0.2496
  420SOL     hw 1679   5.621   7.132   3.288 -0.5758  0.0790 -0.6883
  420SOL     vw 1680   5.636   7.133   3.203  0.1788 -0.2391 -0.5631
  421SOL     ow 1681   5.085   5.281   0.803  0.3956 -0.2846  0.8060
  421SOL     hw 1682   5.108   5.188   0.801  1.0606 -0.1498  1.5391
  421SOL     hw 1683   5.154   5.321   0.857 -1.3001  0.2259  2.7141
  421SOL     vw 1684   5.097   5.274   0.810  0.2596 -0.1996  1.1545
  422SOL     ow 1685   6.748   5.224   4.954 -0.0353  0.0273  0.0692
  422SOL     hw 1686   6.707   5.310   4.964 -0.7942 -0.2329 -0.6465
  422SOL     hw 1687   6.682   5.172   4.908  1.0376 -0.4803 -0.9319
  422SOL     vw 1688   6.734   5.228   4.950  0.0062 -0.0739 -0.1574
  423SOL     ow 1689   4.416   3.937   4.908  0.0709 -0.8090 -0.5467
  423SOL     hw 1690   4.425   3.947   4.813 -0.1758 -0.9934 -0.5920
  423SOL     hw 1691   4.356   3.863   4.918  1.9106 -2.3360 -0.2099
  423SOL     vw 1692   4.409   3.929   4.897  0.2811 -1.0349 -0.5081
  424SOL     ow 1693   4.410   1.324   1.841 -0.1529 -0.2744  0.3177
  424SOL     hw 1694   4.420   1.354   1.932  2.1514 -0.5679  0.2071
  424SOL     hw 1695   4.329   1.366   1.812 -0.2623  0.8833  2.0952
  424SOL     vw 1696   4.400   1.334   1.849  0.1366 -0.1604  0.5376
  425SOL     ow 1697   1.980   0.166   0.535  0.1270  0.2899  0.4376
  425SOL     hw 1698   1.946   0.242   0.583 -0.9866 -0.7144  1.2998
  425SOL     hw 1699   1.979   0.095   0.599  0.3005 -0.6769 -0.5982
  425SOL     vw 1700   1.975   0.166   0.550  0.0030  0.0299  0.4147
  426SOL     ow 1701   0.098   4.727   5.472 -0.1889  0.1504  0.2659
  426SOL     hw 1702   0.061   4.807   5.510  0.6036  0.5213  0.2827
  426SOL     hw 1703   0.183   4.717   5.516 -1.1041 -1.8200  1.7592
  426SOL     vw 1704   0.104   4.737   5.483 -0.2051 -0.0606  0.4649
  427SOL     ow 1705   1.588   7.028   0.542 -0.3473  0.5755 -0.5358
  427SOL     hw 1706   1.660   7.088   0.522  1.3248 -1.3337 -0.6017
  427SOL     hw 1707   1.612   6.946   0.499 -2.4090 -0.2402 -0.2528
  427SOL     vw 1708   1.601   7.025   0.534 -0.3987  0.2160 -0.5071
  428SOL     ow 1709   3.673   5.027   6.542  0.3138  0.2776  0.4824
  428SOL     hw 1710   3.713   4.944   6.518 -0.1460  0.4663 -1.0630
  428SOL     hw 1711   3.709   5.047   6.628 -0.7126 -2.2351  1.5944
  428SOL     vw 1712   3.683   5.019   6.550  0.1177 -0.0291  0.4251
  429SOL     ow 1713   4.100   4.741   6.241 -0.2044  1.0694  0.2984
  429SOL     hw 1714   4.106   4.679   6.314 -2.7026  1.0661  0.5742
  429SOL     hw 1715   4.185   4.733   6.197  0.1659 -1.3597  1.2501
  429SOL     vw 1716   4.112   4.732   6.245 -0.4854  0.7486  0.4606
  430SOL     ow 1717   0.305   4.730   1.375 -0.2290 -0.1339  0.2806
  430SOL     hw 1718   0.342   4.805   1.327 -0.5730 -0.5561 -0.6784
  430SOL     hw 1719   0.368   4.660   1.360 -1.3836 -0.8786 -1.4209
  430SOL     vw 1720   0.318   4.731   1.367 -0.4268 -0.2880 -0.0704
  431SOL     ow 1721   2.193   4.055   4.735 -0.2849 -0.5533  0.2594
  431SOL     hw 1722   2.124   4.022   4.793 -2.7023  1.5773 -1.1622
  431SOL     hw 1723   2.180   4.006   4.653 -0.5245  0.2161 -0.1813
  431SOL     vw 1724   2.182   4.044   4.732 -0.6354 -0.1709  0.0136
  432SOL     ow 1725   1.467   0.192   0.734 -0.1908  0.4099  0.0710
  432SOL     hw 1726   1.412   0.250   0.682  2.0023  0.5091 -2.3588
  432SOL     hw 1727   1.519   0.144   0.670 -1.1720 -3.6414  1.9606
  432SOL     vw 1728   1.467   0.193   0.719 -0.0309 -0.1115 -0.0003
  433SOL     ow 1729   4.342   5.970   1.224  0.0477 -0.8371  0.4310
  433SOL     hw 1730   4.434   5.962   1.250  0.5755  0.8422 -0.7761
  433SOL     hw 1731   4.294   5.923   1.292  1.8073 -2.0482  0.9111
  433SOL     vw 1732   4.348   5.963   1.236  0.3495 -0.7753  0.3350
  434SOL     ow 1733   4.466   5.976   5.001 -0.0081 -0.4739  0.0798
  434SOL     hw 1734   4.555   6.012   5.003 -0.5165  0.8477  1.3046
  434SOL     hw 1735   4.478   5.882   4.987  1.6562 -0.4776  1.2215
  434SOL     vw 1736   4.480   5.968   5.000  0.1445 -0.2999  0.3920
  435SOL     ow 1737   1.922   4.128   2.320  0.1030 -0.4311 -0.2832
  435SOL     hw 1738   1.832   4.122   2.353  0.4283  0.9033  0.9895
  435SOL     hw 1739   1.967   4.053   2.360 -0.3072 -0.7659 -0.4439
  435SOL     vw 1740   1.916   4.117   2.330  0.0918 -0.2990 -0.1366
  436SOL     ow 1741   6.935   4.287   3.878 -0.4063  0.0623 -0.0435
  436SOL     hw 1742   6.916   4.196   3.898  1.3830 -0.6054 -1.1030
  436SOL     hw 1743   6.860   4.317   3.826 -0.1853 -1.3988 -1.2675
  436SOL     vw 1744   6.923   4.279   3.874 -0.1409 -0.2186 -0.3446
  437SOL     ow 1745   7.437   1.907   3.959 -0.3766  0.2092 -0.9412
  437SOL     hw 1746   7.508   1.930   3.899 -1.3046  0.6206 -1.9209
  437SOL     hw 1747   7.455   1.956   4.039  1.0028 -0.5140 -0.7723
  437SOL     vw 1748   7.449   1.917   3.961 -0.3171  0.1680 -1.0481
  438SOL     ow 1749   1.538   3.935   4.648  0.3221  0.5775  0.1252
  438SOL     hw 1750   1.486   3.854   4.649  0.8698  0.2090 -0.4934
  438SOL     hw 1751   1.499   3.989   4.716  0.5088 -0.5693  1.1738
  438SOL     vw 1752   1.526   3.931   4.657  0.4191  0.3775  0.1817
  439SOL     ow 1753   0.765   5.983   2.732  0.0462  0.1813 -0.0855
  439SOL     hw 1754   0.809   6.019   2.808  1.7860 -0.1962 -0.8523
  439SOL     hw 1755   0.757   6.056   2.671 -1.1707  0.4393  0.3590
  439SOL     vw 1756   0.770   5.997   2.734  0.1152  0.1657 -0.1279
  440SOL     ow 1757   2.042   2.783   1.481 -0.1351 -0.3541  0.0895
  440SOL     hw 1758   2.133   2.785   1.511  0.1047 -1.5516 -0.5210
  440SOL     hw 1759   1.990   2.791   1.561  0.4772  1.4932  0.3493
  440SOL     vw 1760   2.047   2.784   1.495 -0.0228 -0.2683  0.0432
  441SOL     ow 1761   1.929   1.258   3.782  0.2916  0.3756 -0.7095
  441SOL     hw 1762   1.964   1.226   3.699  1.2383 -2.7243  0.7191
  441SOL     hw 1763   2.006   1.274   3.836 -0.3145 -0.2928  0.4034
  441SOL     vw 1764   1.944   1.256   3.779  0.3365 -0.1216 -0.3741
  442SOL     ow 1765   6.216   4.927   5.326 -0.2745 -0.1493 -0.0531
  442SOL     hw 1766   6.149   4.990   5.300 -0.8073 -0.9431 -0.6326
  442SOL     hw 1767   6.181   4.842   5.301  0.3340 -0.7144  0.9145
  442SOL     vw 1768   6.203   4.924   5.320 -0.2646 -0.3285 -0.0017
  443SOL     ow 1769   3.000   6.137   0.240  0.2746 -0.0403  0.0070
  443SOL     hw 1770   3.070   6.074   0.256  0.8778  0.7644  0.6040
  443SOL     hw 1771   3.041   6.223   0.251 -0.5836  0.4646 -0.5670
  443SOL     vw 1772   3.014   6.140   0.244  0.2409  0.1326  0.0100
  444SOL     ow 1773   4.466   6.180   5.496  0.4553  0.3938 -0.2869
  444SOL     hw 1774   4.432   6.247   5.555 -0.6953  0.5859 -1.1360
  444SOL     hw 1775   4.558   6.204   5.483  0.2049  1.4894 -0.1446
  444SOL     vw 1776   4.474   6.192   5.502  0.2706  0.5636 -0.3800
  445SOL     ow 1777   4.341   4.243   4.947  0.2522 -0.5346 -0.1694
  445SOL     hw 1778   4.333   4.336   4.968  0.6843 -0.5251 -0.0392
  445SOL     hw 1779   4.256   4.205   4.970  0.5363 -0.4347  1.1420
  445SOL     vw 1780   4.329   4.250   4.953  0.3467 -0.5202  0.0207
  446SOL     ow 1781   3.335   4.848   2.341 -0.0744  0.6657  0.9315
  446SOL     hw 1782   3.306   4.864   2.251  2.4027  1.6650  0.2364
  446SOL     hw 1783   3.276   4.901   2.395 -1.1745  0.5836 -0.1465
  446SOL     vw 1784   3.323   4.857   2.336  0.1072  0.7865  0.6975
  447SOL     ow 1785   4.160   2.933   6.626 -0.5413 -0.0791  0.0173
  447SOL     hw 1786   4.078   2.884   6.625 -0.5643 -0.0275 -0.6161
  447SOL     hw 1787   4.180   2.950   6.534 -0.3618  0.8002  0.2055
  447SOL     vw 1788   4.152   2.929   6.614 -0.5207  0.0436 -0.0415
  448SOL     ow 1789   5.640   4.306   5.393 -0.6157  0.2488  0.1028
  448SOL     hw 1790   5.564   4.298   5.335 -1.6632 -0.8959  1.5553
  448SOL     hw 1791   5.603   4.339   5.475  0.4319 -0.5545  0.9064
  448SOL     vw 1792   5.625   4.310   5.396 -0.6158 -0.0083  0.4005
  449SOL     ow 1793   7.040   5.277   4.857 -0.5214  0.6884  0.1108
  449SOL     hw 1794   7.092   5.300   4.779 -0.6807  1.2520  0.1670
  449SOL     hw 1795   7.088   5.316   4.930 -0.8852  0.9875  0.1901
  449SOL     vw 1796   7.054   5.285   4.856 -0.5903  0.8025  0.1290
  450SOL     ow 1797   0.911   4.223   4.068  0.3311  0.1225 -0.1377
  450SOL     hw 1798   0.978   4.179   4.016  1.0593 -2.2131  2.5319
  450SOL     hw 1799   0.849   4.154   4.092 -0.3665  1.2313  1.4272
  450SOL     vw 1800   0.912   4.208   4.064  0.3351 -0.0396  0.4210
  451SOL     ow 1801   2.498   6.568   2.235 -0.1167 -0.7406  0.9293
  451SOL     hw 1802   2.420   6.616   2.206 -0.1228 -0.0069  2.0998
  451SOL     hw 1803   2.565   6.588   2.169 -0.6276 -0.5603  0.4585
  451SOL     vw 1804   2.496   6.577   2.222 -0.1850 -0.6201  1.0216
  452SOL     ow 1805   2.478   2.400   5.049 -0.2986 -0.5529 -0.0703
  452SOL     hw 1806   2.432   2.465   4.996  2.7866  1.0781 -0.9936
  452SOL     hw 1807   2.478   2.320   4.996  1.5778  0.6731 -2.0633
  452SOL     vw 1808   2.472   2.398   5.035  0.3561 -0.1758 -0.4549
  453SOL     ow 1809   1.047   0.052   6.143 -0.5546  0.0338  0.1737
  453SOL     hw 1810   1.018   0.048   6.234  0.8482  1.0526  0.6900
  453SOL     hw 1811   1.130   0.098   6.146 -1.1147  1.2865 -1.7876
  453SOL     vw 1812   1.054   0.057   6.155 -0.4434  0.3335 -0.0174
  454SOL     ow 1813   5.653   4.581   2.615 -0.6193 -0.3831 -0.0027
  454SOL     hw 1814   5.610   4.614   2.536 -2.8507 -0.9055  0.9203
  454SOL     hw 1815   5.738   4.624   2.616 -0.2180 -0.8873 -3.0390
  454SOL     vw 1816   5.659   4.591   2.604 -0.8607 -0.5186 -0.2816
  455SOL     ow 1817   3.425   6.650   5.070 -0.4845 -0.0510  0.8476
  455SOL     hw 1818   3.439   6.703   4.992 -0.7610 -2.7951 -1.2263
  455SOL     hw 1819   3.331   6.660   5.089 -0.2689  1.2068  1.3262
  455SOL     vw 1820   3.414   6.658   5.062 -0.4926 -0.2472  0.6375
  456SOL     ow 1821   0.424   1.035   6.161  0.5286  0.2055  0.2369
  456SOL     hw 1822   0.488   0.969   6.184 -1.5409 -2.0653 -0.1167
  456SOL     hw 1823   0.347   1.015   6.215 -0.5454  1.6587 -0.6542
  456SOL     vw 1824   0.422   1.024   6.171  0.1139  0.0976  0.0725
  457SOL     ow 1825   5.587   4.705   3.371  0.4079 -0.0287  0.5896
  457SOL     hw 1826   5.657   4.744   3.423  0.8771 -0.6812  0.4507
  457SOL     hw 1827   5.585   4.613   3.396 -1.9753  0.3995  2.3514
  457SOL     vw 1828   5.596   4.698   3.381  0.1554 -0.0582  0.8037
  458SOL     ow 1829   4.195   6.186   2.578 -0.3907  0.8560  0.1061
  458SOL     hw 1830   4.117   6.172   2.633 -0.8420  1.0445 -0.4712
  458SOL     hw 1831   4.267   6.148   2.627 -1.0339 -0.3786  0.1144
  458SOL     vw 1832   4.194   6.179   2.592 -0.5352  0.7179  0.0310
  459SOL     ow 1833   7.138   3.113   5.081  0.0276  0.2713  0.6877
  459SOL     hw 1834   7.213   3.172   5.066 -1.0101  1.0508 -1.9357
  459SOL     hw 1835   7.108   3.090   4.993 -1.2519 -2.1032  1.6749
  459SOL     vw 1836   7.144   3.118   5.067 -0.2780  0.0608  0.4716
  460SOL     ow 1837   6.493   3.949   2.056 -0.0697 -0.1811 -0.2273
  460SOL     hw 1838   6.507   3.922   1.965  0.9054  1.2840 -0.5579
  460SOL     hw 1839   6.580   3.946   2.095 -0.7650 -2.9502  1.3589
  460SOL     vw 1840   6.506   3.945   2.049 -0.0327 -0.3532 -0.0618
  461SOL     ow 1841   1.096   6.570   6.339 -0.3270  0.5398  0.1629
  461SOL     hw 1842   1.003   6.590   6.349 -0.1035  0.8851  1.7858
  461SOL     hw 1843   1.132   6.578   6.427  0.8674 -1.5443 -0.0605
  461SOL     vw 1844   1.088   6.573   6.352 -0.1400  0.3104  0.3474
  462SOL     ow 1845   5.625   0.019   6.712 -0.0138 -0.1420  0.3650
  462SOL     hw 1846   5.536  -0.009   6.732 -1.0960 -0.6683 -4.0178
  462SOL     hw 1847   5.661   0.047   6.796 -3.7579 -1.2846  2.6112
  462SOL     vw 1848   5.618   0.019   6.725 -0.6506 -0.3622  0.0830
  463SOL     ow 1849   7.430   0.960   1.281 -0.7657  0.1057 -0.1436
  463SOL     hw 1850   7.516   0.919   1.291 -1.2698 -0.5795  1.9221
  463SOL     hw 1851   7.445   1.052   1.302 -0.5839 -0.0825  0.5921
  463SOL     vw 1852   7.443   0.967   1.285 -0.8082 -0.0095  0.2260
  464SOL     ow 1853   4.698   4.519   0.972 -0.4252 -0.9180  0.0666
  464SOL     hw 1854   4.672   4.553   1.058  0.5034 -1.5016  0.6034
  464SOL     hw 1855   4.616   4.513   0.923 -0.9558 -0.4353  0.8613
  464SOL     vw 1856   4.684   4.523   0.977 -0.3724 -0.9310  0.2422
  465SOL     ow 1857   2.368   0.633   3.401  0.3729  0.3953  0.3988
  465SOL     hw 1858   2.319   0.609   3.479 -1.5587  1.4569 -0.4104
  465SOL     hw 1859   2.303   0.674   3.344  1.7650 -0.1750 -1.6908
  465SOL     vw 1860   2.353   0.635   3.404  0.3018  0.4601  0.0163
  466SOL     ow 1861   5.553   3.235   2.350  0.1147 -0.1333  0.5895
  466SOL     hw 1862   5.495   3.179   2.400 -0.4384 -0.7571 -0.7059
  466SOL     hw 1863   5.495   3.284   2.291  0.7320  0.6581  0.6111
  466SOL     vw 1864   5.538   3.234   2.349  0.1235 -0.1111  0.4213
  467SOL     ow 1865   6.899   0.524   7.437 -0.6237  0.0901 -0.3956
  467SOL     hw 1866   6.932   0.437   7.412  1.1653  0.7349 -0.3822
  467SOL     hw 1867   6.920   0.532   7.529 -2.3409 -0.0973  0.0560
  467SOL     vw 1868   6.906   0.513   7.446 -0.6144  0.1505 -0.3345
  468SOL     ow 1869   6.002   0.556   3.658  0.1219 -0.3155  0.1280
  468SOL     hw 1870   6.015   0.462   3.642  0.9579 -0.2516  0.3461
  468SOL     hw 1871   6.063   0.599   3.599 -1.2608  0.1621 -0.9879
  468SOL     vw 1872   6.012   0.549   3.648  0.0496 -0.2441  0.0097
  469SOL     ow 1873   0.224   4.700   4.434 -0.9110 -0.6779  0.6444
  469SOL     hw 1874   0.157   4.731   4.374 -1.2158 -2.1287  0.2037
  469SOL     hw 1875   0.271   4.779   4.461 -0.9894  0.0403 -1.2177
  469SOL     vw 1876   0.221   4.715   4.430 -0.9615 -0.7744  0.3405
  470SOL     ow 1877   6.647   0.033   3.827  0.6682 -0.2339  0.1066
  470SOL     hw 1878   6.729   0.080   3.843  1.1586 -1.3308  0.8957
  470SOL     hw 1879   6.628  -0.011   3.909 -0.2318 -0.7422 -0.3589
  470SOL     vw 1880   6.655   0.034   3.840  0.6142 -0.4457  0.1493
  471SOL     ow 1881   5.820   6.866   5.640  0.0977  0.2345  0.2906
  471SOL     hw 1882   5.766   6.788   5.653  1.8247 -1.2228 -0.6911
  471SOL     hw 1883   5.813   6.885   5.547 -0.4815  1.4323  0.5589
  471SOL     vw 1884   5.812   6.858   5.630  0.2491  0.2003  0.1962
  472SOL     ow 1885   4.752   6.740   6.567 -0.0014  0.2957 -0.1471
  472SOL     hw 1886   4.681   6.683   6.537 -0.5910  1.3423 -0.7970
  472SOL     hw 1887   4.831   6.692   6.545 -0.4815 -0.3591 -0.5067
  472SOL     vw 1888   4.753   6.726   6.560 -0.1423  0.3474 -0.2804
  473SOL     ow 1889   5.803   1.016   2.533 -0.0194 -0.2986 -0.5040
  473SOL     hw 1890   5.744   1.031   2.606 -0.6631 -1.3311 -0.7994
  473SOL     hw 1891   5.839   1.103   2.513  1.2045 -0.1636  1.8806
  473SOL     vw 1892   5.800   1.030   2.540  0.0575 -0.4170 -0.2284
  474SOL     ow 1893   5.355   4.729   4.649 -0.2382  0.0217 -0.3776
  474SOL     hw 1894   5.369   4.800   4.586 -0.9598  0.3611 -0.1638
  474SOL     hw 1895   5.353   4.773   4.734 -0.6290 -0.2647 -0.2398
  474SOL     vw 1896   5.357   4.744   4.652 -0.3850  0.0288 -0.3312
  475SOL     ow 1897   4.179   0.605   3.826  0.6885  0.0573 -0.1373
  475SOL     hw 1898   4.188   0.536   3.760  1.9285 -0.0604  0.1332
  475SOL     hw 1899   4.201   0.561   3.909 -1.1138  0.1303  0.4201
  475SOL     vw 1900   4.183   0.590   3.828  0.6144  0.0514 -0.0281
  476SOL     ow 1901   0.027   2.298   5.281 -0.1805 -0.2551  0.6177
  476SOL     hw 1902  -0.027   2.340   5.348  0.6732  1.7776  0.1054
  476SOL     hw 1903   0.114   2.338   5.291 -0.1028  0.3597 -1.8389
  476SOL     vw 1904   0.031   2.309   5.291 -0.0576  0.0942  0.2263
  477SOL     ow 1905   3.337   4.425   7.500 -0.5502 -0.2343 -0.4455
  477SOL     hw 1906   3.288   4.466   7.570  0.4858  0.5316 -0.1430
  477SOL     hw 1907   3.400   4.491   7.472  1.0257 -1.5010 -0.0954
  477SOL     vw 1908   3.339   4.439   7.505 -0.2055 -0.3006 -0.3595
  478SOL     ow 1909   6.009   0.022   4.164 -0.3391  0.0906  0.4037
  478SOL     hw 1910   5.953  -0.054   4.183  1.0068 -0.8707  0.7075
  478SOL     hw 1911   5.998   0.080   4.239 -1.2730  0.1365  0.2367
  478SOL     vw 1912   6.001   0.019   4.176 -0.2847 -0.0302  0.4215
  479SOL     ow 1913   1.411   3.316   7.143  0.8715  0.3479 -0.2522
  479SOL     hw 1914   1.459   3.396   7.121  0.1921  1.0715  0.8016
  479SOL     hw 1915   1.390   3.277   7.058  0.0596  1.9835 -0.8407
  479SOL     vw 1916   1.415   3.321   7.129  0.6747  0.6593 -0.1907
  480SOL     ow 1917   0.435   4.180   4.061  1.0137  0.1490  0.5060
  480SOL     hw 1918   0.528   4.159   4.067  0.7961 -0.8091  0.5782
  480SOL     hw 1919   0.397   4.140   4.139  0.2482 -1.1021 -0.4768
  480SOL     vw 1920   0.442   4.172   4.072  0.8840 -0.1426  0.3858
  481SOL     ow 1921   6.126   1.260   1.689 -0.5840 -0.2720  0.1959
  481SOL     hw 1922   6.091   1.283   1.775  0.3530  1.5968  0.1315
  481SOL     hw 1923   6.187   1.189   1.707 -0.2413  0.2301  1.1345
  481SOL     vw 1924   6.130   1.254   1.703 -0.4153  0.0408  0.3112
  482SOL     ow 1925   0.580   4.050   2.483 -0.1254  0.6592  0.5878
  482SOL     hw 1926   0.652   4.021   2.538  0.1718  0.8744  0.3123
  482SOL     hw 1927   0.536   3.969   2.457  0.1459  0.5129  0.5777
  482SOL     vw 1928   0.584   4.035   2.487 -0.0504  0.6680  0.5500
  483SOL     ow 1929   4.013   2.832   2.159 -0.1816 -0.4933 -0.0158
  483SOL     hw 1930   4.024   2.920   2.124  1.3129 -0.3262  0.7937
  483SOL     hw 1931   4.086   2.782   2.122 -0.0668 -0.9592  0.8019
  483SOL     vw 1932   4.024   2.837   2.149  0.0308 -0.5326  0.1990
  484SOL     ow 1933   1.482   6.461   2.298  0.4879 -0.2288  0.4424
  484SOL     hw 1934   1.407   6.476   2.240  0.7453  0.4438  0.2780
  484SOL     hw 1935   1.522   6.547   2.309  1.5697 -0.6719  0.0952
  484SOL     vw 1936   1.477   6.474   2.292  0.6646 -0.1986  0.3748
  485SOL     ow 1937   0.834   0.866   0.020  0.3701 -0.3674 -0.7431
  485SOL     hw 1938   0.855   0.905  -0.065 -1.6025 -1.1874 -1.6629
  485SOL     hw 1939   0.897   0.795   0.031  1.6115  0.6863 -0.7678
  485SOL     vw 1940   0.845   0.862   0.011  0.2736 -0.3366 -0.8677
  486SOL     ow 1941   0.890   2.087   2.770 -0.2374  0.4095 -0.3263
  486SOL     hw 1942   0.810   2.139   2.782  0.0106  0.2132  3.0149
  486SOL     hw 1943   0.862   1.997   2.784  0.7487  0.4798  2.9670
  486SOL     vw 1944   0.875   2.082   2.774 -0.0746  0.3928  0.5491
  487SOL     ow 1945   0.723   4.434   4.222  0.2044  0.2675 -0.3078
  487SOL     hw 1946   0.698   4.399   4.308 -0.2022  2.0923  0.3574
  487SOL     hw 1947   0.645   4.420   4.167  0.0856  0.0467 -0.0862
  487SOL     vw 1948   0.709   4.428   4.226  0.1351  0.4790 -0.1907
  488SOL     ow 1949   4.973   3.676   2.598 -0.1367 -0.5646 -0.3576
  488SOL     hw 1950   5.003   3.747   2.542 -0.6216 -0.4318 -0.4487
  488SOL     hw 1951   4.937   3.611   2.539  0.6419 -1.0643 -0.3040
  488SOL     vw 1952   4.972   3.677   2.583 -0.0978 -0.6131 -0.3625
  489SOL     ow 1953   5.230   4.969   3.973 -0.6290  0.4793 -0.3086
  489SOL     hw 1954   5.251   5.037   4.037 -1.8123  0.6249 -0.0471
  489SOL     hw 1955   5.196   4.897   4.026 -0.5575  0.1656 -0.6908
  489SOL     vw 1956   5.228   4.969   3.989 -0.7758  0.4570 -0.3245
  490SOL     ow 1957   7.523   1.122   0.755  0.2169  0.4485 -0.4416
  490SOL     hw 1958   7.472   1.139   0.676  0.0504 -1.7050 -0.8526
  490SOL     hw 1959   7.614   1.135   0.729  0.2621 -1.4156 -1.3883
  490SOL     vw 1960   7.528   1.126   0.741  0.2007 -0.0816 -0.6208
  491SOL     ow 1961   5.399   2.579   7.167 -0.2458  0.4724  0.5226
  491SOL     hw 1962   5.356   2.527   7.236 -0.8113 -2.0424 -1.5832
  491SOL     hw 1963   5.492   2.562   7.179  0.0340  2.8358  2.6810
  491SOL     vw 1964   5.405   2.570   7.178 -0.2835  0.4525  0.5295
  492SOL     ow 1965   1.817   3.864   5.386 -0.4873  0.0505  0.5532
  492SOL     hw 1966   1.904   3.902   5.378  0.3144 -1.9836 -1.5296
  492SOL     hw 1967   1.778   3.873   5.298 -1.2613 -1.5029  0.6922
  492SOL     vw 1968   1.823   3.870   5.373 -0.4836 -0.4228  0.2968
  493SOL     ow 1969   6.725   3.918   6.720  0.4991 -0.2804 -0.3213
  493SOL     hw 1970   6.793   3.970   6.677  0.2116  0.5362  0.1836
  493SOL     hw 1971   6.773   3.859   6.779  0.8671 -1.1004 -1.4054
  493SOL     vw 1972   6.740   3.917   6.722  0.5097 -0.2807 -0.3977
  494SOL     ow 1973   7.209   3.961   2.635  0.4909  0.1166  0.7483
  494SOL     hw 1974   7.233   3.964   2.727  1.3551  1.5419  0.5055
  494SOL     hw 1975   7.189   3.869   2.618  1.1799 -0.3072  2.1302
  494SOL     vw 1976   7.209   3.949   2.645  0.6957  0.2487  0.8984
  495SOL     ow 1977   2.515   2.028   1.697  0.3732 -0.0883 -0.0782
  495SOL     hw 1978   2.561   2.106   1.666 -1.4924  1.2528  0.3598
  495SOL     hw 1979   2.570   1.993   1.768  2.0919 -0.2245 -1.4098
  495SOL     vw 1980   2.528   2.033   1.702  0.3538  0.0708 -0.1962
  496SOL     ow 1981   0.213   1.523   6.257  0.5177  0.0166 -0.4610
  496SOL     hw 1982   0.179   1.597   6.207 -0.3304 -0.9114 -1.2905
  496SOL     hw 1983   0.139   1.496   6.312  0.4960 -0.8436 -0.9076
  496SOL     vw 1984   0.199   1.529   6.258  0.4029 -0.2193 -0.6292
  497SOL     ow 1985   6.716   6.943   1.508 -0.1713 -0.0321  0.0921
  497SOL     hw 1986   6.763   6.991   1.576 -1.4529 -0.4242  1.3125
  497SOL     hw 1987   6.635   6.914   1.550 -1.3231  0.2400 -1.7813
  497SOL     vw 1988   6.712   6.945   1.522 -0.4926 -0.0479  0.0059
  498SOL     ow 1989   1.748   1.034   2.389 -0.3131  0.2667 -0.0717
  498SOL     hw 1990   1.788   1.078   2.464  0.0914 -0.3222  0.0645
  498SOL     hw 1991   1.705   0.957   2.427 -2.8774  1.6392  0.0154
  498SOL     vw 1992   1.747   1.030   2.404 -0.5981  0.3700 -0.0422
  499SOL     ow 1993   2.776   1.249   7.225  0.2841  0.0122 -0.2095
  499SOL     hw 1994   2.703   1.192   7.249  0.8833  0.0608  1.9293
  499SOL     hw 1995   2.734   1.331   7.199 -0.4821 -0.4699 -0.5240
  499SOL     vw 1996   2.761   1.253   7.225  0.2620 -0.0450  0.0312
  500SOL     ow 1997   5.962   2.829   4.764  0.1791 -0.1678 -0.3393
  500SOL     hw 1998   5.948   2.823   4.670  2.4531  2.3056 -0.9448
  500SOL     hw 1999   5.979   2.922   4.780  1.6990 -0.8005  2.2228
  500SOL     vw 2000   5.962   2.841   4.754  0.6795  0.0750 -0.0813
  501SOL     ow 2001   1.774   6.038   4.138 -0.4581  0.4820 -0.0668
  501SOL     hw 2002   1.829   6.113   4.160  1.7914 -1.0556 -0.0306
  501SOL     hw 2003   1.772   6.037   4.043 -0.6717  0.7131 -0.0643
  501SOL     vw 2004   1.781   6.047   4.129 -0.1895  0.3097 -0.0618
  502SOL     ow 2005   4.766   1.901   4.033  0.4679 -0.2631  0.0689
  502SOL     hw 2006   4.855   1.872   4.014  0.1627 -1.2340  0.0730
  502SOL     hw 2007   4.731   1.834   4.091  0.3322  1.0339  1.5617
  502SOL     vw 2008   4.773   1.888   4.039  0.4096 -0.2201  0.2663
  503SOL     ow 2009   2.155   5.068   1.534  0.0682 -0.1096  1.2336
  503SOL     hw 2010   2.076   5.030   1.496 -0.5542  1.8585  0.4240
  503SOL     hw 2011   2.132   5.160   1.548  2.5493  0.7874 -0.0480
  503SOL     vw 2012   2.141   5.075   1.531  0.3134  0.2685  0.9577
  504SOL     ow 2013   6.341   4.545   4.612 -0.6046 -0.2729 -0.5650
  504SOL     hw 2014   6.352   4.634   4.644 -1.5735 -0.5634  0.6657
  504SOL     hw 2015   6.299   4.555   4.527 -3.8031  0.4372  0.9472
  504SOL     vw 2016   6.337   4.558   4.605 -1.1542 -0.2177 -0.2029
  505SOL     ow 2017   6.053   1.291   1.941  0.3320  0.1822 -0.5795
  505SOL     hw 2018   5.968   1.301   1.984 -0.0887 -0.4965 -1.2342
  505SOL     hw 2019   6.102   1.370   1.965 -0.7312  0.9136 -0.7769
  505SOL     vw 2020   6.049   1.302   1.950  0.1364  0.1891 -0.6919
  506SOL     ow 2021   0.285   5.578   6.961  0.1260 -0.3245  0.0273
  506SOL     hw 2022   0.298   5.495   7.007  1.5032 -1.0909 -1.6431
  506SOL     hw 2023   0.372   5.603   6.930 -0.6087  0.5679 -1.4267
  506SOL     vw 2024   0.298   5.571   6.963  0.2108 -0.3078 -0.3850
  507SOL     ow 2025   5.187   3.522   2.055 -0.0988 -0.1847 -0.0836
  507SOL     hw 2026   5.240   3.597   2.081 -1.1864  0.9627 -1.0527
  507SOL     hw 2027   5.208   3.508   1.963 -0.6361 -0.4281 -0.1756
  507SOL     vw 2028   5.196   3.530   2.046 -0.3133 -0.0656 -0.2236
  508SOL     ow 2029   4.514   4.854   0.257 -0.5405  0.1760 -0.1045
  508SOL     hw 2030   4.604   4.863   0.226 -0.4259  1.1141  0.4653
  508SOL     hw 2031   4.460   4.875   0.181 -0.2707  0.8740 -0.1039
  508SOL     vw 2032   4.519   4.858   0.243 -0.4900  0.3920 -0.0292
  509SOL     ow 2033   5.393   2.640   4.860  0.6545 -0.1763  0.2907
  509SOL     hw 2034   5.376   2.684   4.943  0.6646 -1.0061  0.7509
  509SOL     hw 2035   5.376   2.547   4.879 -1.4135 -0.1667 -1.1664
  509SOL     vw 2036   5.388   2.633   4.873  0.3827 -0.2846  0.1590
  510SOL     ow 2037   0.206   3.738   3.916 -0.3367 -0.5031 -0.2969
  510SOL     hw 2038   0.153   3.660   3.930  0.5104 -1.1562 -0.6053
  510SOL     hw 2039   0.243   3.758   4.001  0.8701 -1.5277 -0.5457
  510SOL     vw 2040   0.204   3.731   3.929 -0.0657 -0.7244 -0.3705
  511SOL     ow 2041   0.476   5.312   5.989  0.0238  0.4127  0.5733
  511SOL     hw 2042   0.453   5.268   6.071  0.2914 -1.2875 -0.2274
  511SOL     hw 2043   0.566   5.285   5.971 -0.0915  0.6186 -0.3747
  511SOL     vw 2044   0.485   5.303   5.997  0.0439  0.2155  0.3424
  512SOL     ow 2045   6.873   5.481   1.007  0.2052 -0.0721  0.2880
  512SOL     hw 2046   6.925   5.469   1.086 -1.5890 -0.4015  1.4861
  512SOL     hw 2047   6.921   5.433   0.939  0.9763 -1.1388  1.5361
  512SOL     vw 2048   6.886   5.473   1.009  0.0701 -0.2563  0.6107
  513SOL     ow 2049   1.462   4.238   1.783  0.5749  0.1801  0.8353
  513SOL     hw 2050   1.373   4.271   1.771  1.0364  0.8191 -1.1900
  513SOL     hw 2051   1.514   4.315   1.803  0.8329 -0.0612  1.1109
  513SOL     vw 2052   1.457   4.252   1.784  0.6698  0.2327  0.6045
  514SOL     ow 2053   4.813   6.251   3.629 -0.1024  0.8583 -0.3589
  514SOL     hw 2054   4.847   6.290   3.548  4.1127  0.1718  0.8432
  514SOL     hw 2055   4.811   6.324   3.691  0.3534  0.6821 -0.1299
  514SOL     vw 2056   4.818   6.266   3.626  0.5136  0.7443 -0.1700
  515SOL     ow 2057   0.400   5.194   5.752  0.5879 -0.4152  0.0773
  515SOL     hw 2058   0.434   5.241   5.829 -2.0724 -0.6124  1.4761
  515SOL     hw 2059   0.386   5.263   5.686 -0.7730  0.4213  1.1828
  515SOL     vw 2060   0.403   5.210   5.753  0.0574 -0.3307  0.4079
  516SOL     ow 2061   3.511   3.367   5.509  0.0842 -0.2341 -0.3702
  516SOL     hw 2062   3.603   3.363   5.481  1.2160  2.9334  2.3460
  516SOL     hw 2063   3.461   3.352   5.428  2.8813 -2.7697 -1.8278
  516SOL     vw 2064   3.517   3.364   5.495  0.6026 -0.1508 -0.2043
  517SOL     ow 2065   0.094   4.320   0.823  0.4924 -0.5991 -0.7668
  517SOL     hw 2066   0.000   4.306   0.808  0.0149 -1.1992  2.2660
  517SOL     hw 2067   0.100   4.409   0.856  0.3599 -1.7726  2.8051
  517SOL     vw 2068   0.082   4.330   0.825  0.4120 -0.8330  0.1046
  518SOL     ow 2069   3.805   1.994   7.395 -0.2897 -0.0858  0.0994
  518SOL     hw 2070   3.749   1.920   7.371 -0.8522 -0.4230  2.2824
  518SOL     hw 2071   3.882   1.954   7.434 -0.0732  0.4646  0.2387
  518SOL     vw 2072   3.808   1.979   7.397 -0.3353 -0.0576  0.4058
  519SOL     ow 2073   4.483   3.788   1.947  0.5829 -0.0103 -0.2663
  519SOL     hw 2074   4.439   3.705   1.966  1.8245 -0.4476  0.7871
  519SOL     hw 2075   4.451   3.848   2.015 -0.1616  0.3431 -0.9089
  519SOL     vw 2076   4.473   3.785   1.959  0.6485 -0.0213 -0.2121
  520SOL     ow 2077   5.371   4.329   4.124 -0.3130 -0.1930 -0.7341
  520SOL     hw 2078   5.446   4.272   4.104 -1.0376 -1.3038 -0.4105
  520SOL     hw 2079   5.337   4.354   4.038 -1.2673 -2.0419 -0.9550
  520SOL     vw 2080   5.376   4.325   4.110 -0.5345 -0.5832 -0.7205
  521SOL     ow 2081   1.169   3.760   6.950  0.5697 -0.1732  0.3519
  521SOL     hw 2082   1.177   3.676   6.904  1.9490  0.6356 -0.9873
  521SOL     hw 2083   1.188   3.739   7.042  1.8647 -1.1835 -0.1189
  521SOL     vw 2084   1.173   3.746   6.956  0.9226 -0.1997  0.1132
  522SOL     ow 2085   4.448   0.232   4.227 -0.9825  0.0103 -0.5258
  522SOL     hw 2086   4.471   0.143   4.200  1.5487 -0.5204  2.8387
  522SOL     hw 2087   4.514   0.288   4.186 -0.8908  0.0078 -0.3791
  522SOL     vw 2088   4.459   0.228   4.218 -0.6363 -0.0601 -0.0627
  523SOL     ow 2089   0.698   6.281   2.295 -0.1943  0.1778  0.0291
  523SOL     hw 2090   0.764   6.299   2.228 -0.2533 -0.3803 -0.1850
  523SOL     hw 2091   0.646   6.209   2.258  1.0963 -1.6431  1.5721
  523SOL     vw 2092   0.700   6.274   2.281 -0.0318 -0.1364  0.2044
  524SOL     ow 2093   4.666   0.783   5.732 -0.4157  0.4054 -0.3001
  524SOL     hw 2094   4.594   0.774   5.795 -1.7264  1.0688 -1.6305
  524SOL     hw 2095   4.737   0.732   5.770 -1.3444  0.2863  1.4140
  524SOL     vw 2096   4.666   0.775   5.746 -0.7112  0.4772 -0.2496
  525SOL     ow 2097   7.267   6.652   3.801  0.0208  0.0634 -0.3190
  525SOL     hw 2098   7.257   6.558   3.784  0.4780 -0.2359  0.9285
  525SOL     hw 2099   7.263   6.692   3.715 -1.1753 -0.9994 -0.7971
  525SOL     vw 2100   7.265   6.645   3.788 -0.0768 -0.1161 -0.2176
  526SOL     ow 2101   1.479   4.703   0.534  0.2285  0.1678 -0.4271
  526SOL     hw 2102   1.456   4.665   0.619 -2.0444  1.5442 -0.3433
  526SOL     hw 2103   1.468   4.630   0.473 -0.6855 -0.1976  0.1481
  526SOL     vw 2104   1.475   4.688   0.537 -0.1919  0.3011 -0.3401
  527SOL     ow 2105   6.380   5.186   1.078  0.1822  0.1942 -0.0720
  527SOL     hw 2106   6.419   5.265   1.116  0.7300  0.4450 -1.1071
  527SOL     hw 2107   6.350   5.214   0.992 -1.2430 -0.2998  0.2337
  527SOL     vw 2108   6.381   5.200   1.072  0.0665  0.1621 -0.1683
  528SOL     ow 2109   1.184   5.629   5.518 -0.2806 -0.3173 -0.3260
  528SOL     hw 2110   1.126   5.583   5.579  1.7675  0.3861  2.3292
  528SOL     hw 2111   1.270   5.591   5.532  0.4220  0.3760 -2.3525
  528SOL     vw 2112   1.188   5.618   5.528  0.0823 -0.1330 -0.2427
  529SOL     ow 2113   1.196   0.669   1.759 -0.3646  0.2907  0.3906
  529SOL     hw 2114   1.202   0.746   1.702 -1.0531  1.2910  1.6151
  529SOL     hw 2115   1.234   0.698   1.842  0.7954 -1.1993  0.4264
  529SOL     vw 2116   1.202   0.683   1.762 -0.3024  0.2261  0.5570
  530SOL     ow 2117   0.907   7.024   1.266 -0.1252 -0.2914  0.7881
  530SOL     hw 2118   0.936   6.990   1.351  0.9989 -1.0216  0.1325
  530SOL     hw 2119   0.864   6.950   1.224  0.9597 -0.4834 -0.0156
  530SOL     vw 2120   0.905   7.010   1.272  0.1663 -0.4132  0.5956
  531SOL     ow 2121   6.373   6.955   3.879  0.0140 -0.1547  0.4288
  531SOL     hw 2122   6.356   7.042   3.842 -1.0185 -0.4219  0.2381
  531SOL     hw 2123   6.346   6.962   3.970  0.3463 -0.1552  0.5281
  531SOL     vw 2124   6.367   6.967   3.886 -0.0787 -0.1900  0.4168
  532SOL     ow 2125   1.517   7.494   4.030  0.1307 -0.5359  0.0867
  532SOL     hw 2126   1.470   7.411   4.021 -0.1492 -0.6701  2.1593
  532SOL     hw 2127   1.450   7.561   4.023  0.2503 -0.4995 -0.8614
  532SOL     vw 2128   1.502   7.492   4.028  0.1095 -0.5488  0.2348
  533SOL     ow 2129   4.600   2.604   5.420  0.8070 -0.2895 -0.3775
  533SOL     hw 2130   4.686   2.574   5.391  1.7176  0.6866  1.1955
  533SOL     hw 2131   4.565   2.531   5.472  0.9731 -0.4347 -0.4706
  533SOL     vw 2132   4.607   2.591   5.423  0.9489 -0.1800 -0.1824
  534SOL     ow 2133   3.331   7.402   7.408 -0.1475 -0.3762  0.0189
  534SOL     hw 2134   3.406   7.342   7.402 -1.3665 -1.8971 -0.8367
  534SOL     hw 2135   3.257   7.351   7.375 -1.8591  0.6079  2.0896
  534SOL     vw 2136   3.331   7.387   7.403 -0.5341 -0.4473  0.1793
  535SOL     ow 2137   2.899   6.167   6.919 -0.0963 -0.1048 -0.1963
  535SOL     hw 2138   2.925   6.257   6.900  1.6511 -0.4843  0.2250
  535SOL     hw 2139   2.816   6.156   6.873  0.9320  0.8958 -2.4776
  535SOL     vw 2140   2.891   6.178   6.910  0.2698 -0.0229 -0.4420
  536SOL     ow 2141   2.295   0.308   1.121 -0.3115  0.1808 -0.0544
  536SOL     hw 2142   2.326   0.290   1.210  2.1274 -1.2897 -1.0890
  536SOL     hw 2143   2.302   0.403   1.113 -0.0809  0.2881  1.1453
  536SOL     vw 2144   2.300   0.319   1.132  0.0407  0.0009 -0.0326
  537SOL     ow 2145   4.956   7.404   6.709  0.5210  0.4624  0.1177
  537SOL     hw 2146   4.980   7.448   6.628 -0.9982  2.6279  0.7530
  537SOL     hw 2147   4.882   7.348   6.685  1.6795 -0.8875 -0.4449
  537SOL     vw 2148   4.950   7.402   6.695  0.4733  0.5698  0.1271
  538SOL     ow 2149   3.967   7.539   7.341  0.0228 -0.0365  0.4097
  538SOL     hw 2150   3.944   7.471   7.404 -0.3537  0.5084  0.8722
  538SOL     hw 2151   3.907   7.525   7.267  1.5324 -1.6799 -0.5703
  538SOL     vw 2152   3.956   7.528   7.340  0.1723 -0.1812  0.3414
  539SOL     ow 2153   5.638   5.975   4.806 -0.0843 -0.3340 -0.3314
  539SOL     hw 2154   5.550   5.945   4.827  0.5015 -2.8163 -1.0596
  539SOL     hw 2155   5.639   6.067   4.832 -3.3886  0.2731 -1.8101
  539SOL     vw 2156   5.627   5.983   4.812 -0.4432 -0.5815 -0.6225
  540SOL     ow 2157   1.118   0.203   1.811  0.1761  0.0216 -0.1938
  540SOL     hw 2158   1.079   0.126   1.851 -2.1502  1.1383 -0.1316
  540SOL     hw 2159   1.178   0.169   1.745 -1.0584 -1.8486 -0.4186
  540SOL     vw 2160   1.121   0.189   1.807 -0.2937 -0.0778 -0.2152
  541SOL     ow 2161   0.211   0.130   3.570  0.1836 -0.3263  0.1976
  541SOL     hw 2162   0.118   0.109   3.564 -0.4320  2.2648 -1.1929
  541SOL     hw 2163   0.219   0.177   3.654 -0.2044  1.0081 -0.4725
  541SOL     vw 2164   0.199   0.134   3.580  0.0512  0.1916 -0.0743
  542SOL     ow 2165   0.771   1.411   6.384  0.0247 -0.7178 -0.3077
  542SOL     hw 2166   0.822   1.331   6.395 -1.8619 -1.9991 -0.2879
  542SOL     hw 2167   0.828   1.470   6.334  1.8626 -1.6423  0.6166
  542SOL     vw 2168   0.785   1.408   6.378  0.0182 -1.0089 -0.1831
  543SOL     ow 2169   7.209   6.754   4.029 -0.4093 -0.6293 -0.2780
  543SOL     hw 2170   7.246   6.711   3.951  0.4777  0.1727 -0.3103
  543SOL     hw 2171   7.137   6.697   4.055 -0.7298 -0.9097 -1.6938
  543SOL     vw 2172   7.205   6.741   4.022 -0.3345 -0.5603 -0.4690
  544SOL     ow 2173   2.522   3.629   1.899  0.2164  0.3905  0.1734
  544SOL     hw 2174   2.468   3.564   1.943  0.9128 -0.0030  0.4623
  544SOL     hw 2175   2.534   3.699   1.964  0.5996  0.1688  0.3460
  544SOL     vw 2176   2.516   3.630   1.914  0.3588  0.3093  0.2343
  545SOL     ow 2177   4.078   6.287   5.274 -0.3255  0.6759  0.3382
  545SOL     hw 2178   4.012   6.236   5.228  0.3390  0.7103 -0.6949
  545SOL     hw 2179   4.061   6.271   5.367  0.2040 -1.9102  0.0566
  545SOL     vw 2180   4.067   6.278   5.280 -0.1678  0.3390  0.1647
  546SOL     ow 2181   0.862   3.812   1.829  0.2125  0.0942 -0.4431
  546SOL     hw 2182   0.877   3.718   1.842  2.2809  0.4429  0.1059
  546SOL     hw 2183   0.950   3.849   1.822 -0.5748  1.9500 -1.0635
  546SOL     vw 2184   0.875   3.805   1.830  0.3815  0.3850 -0.4526
  547SOL     ow 2185   1.043   7.402   0.660 -0.1935  0.0258  0.4724
  547SOL     hw 2186   0.978   7.387   0.591  0.3175 -0.3144  0.0560
  547SOL     hw 2187   1.019   7.339   0.728 -0.4154  0.0326  0.4039
  547SOL     vw 2188   1.031   7.392   0.660 -0.1553 -0.0184  0.4084
  548SOL     ow 2189   0.340   6.632   0.522  0.1230  0.2360 -0.3423
  548SOL     hw 2190   0.258   6.671   0.553 -0.1393 -1.3012  1.0059
  548SOL     hw 2191   0.332   6.631   0.426 -1.2370  0.5057 -0.2443
  548SOL     vw 2192   0.328   6.637   0.513 -0.0910  0.0687 -0.1515
  549SOL     ow 2193   3.944   4.821   0.940 -0.1857  0.5628 -0.1895
  549SOL     hw 2194   3.923   4.792   0.851 -0.8625 -0.3234  0.2387
  549SOL     hw 2195   3.957   4.740   0.989  3.1313  1.0088 -0.1043
  549SOL     vw 2196   3.943   4.807   0.935  0.1627  0.5045 -0.1217
  550SOL     ow 2197   0.878   2.389   1.043  0.1330  0.2801  0.0008
  550SOL     hw 2198   0.917   2.380   0.957  1.9112  0.7146  0.7289
  550SOL     hw 2199   0.859   2.482   1.052  0.2844  0.2921  0.2112
  550SOL     vw 2200   0.880   2.400   1.033  0.3876  0.3390  0.1246
  551SOL     ow 2201   0.706   7.138   7.456  0.3265 -0.0605 -0.1318
  551SOL     hw 2202   0.660   7.094   7.386  1.7550  0.9914 -1.8224
  551SOL     hw 2203   0.771   7.075   7.486 -1.5243 -1.2247  1.6640
  551SOL     vw 2204   0.709   7.124   7.451  0.2708 -0.0751 -0.1180
  552SOL     ow 2205   2.259   7.007   2.658 -0.3417  0.2686 -0.3896
  552SOL     hw 2206   2.259   7.038   2.568  2.5102 -0.1197 -0.5899
  552SOL     hw 2207   2.185   6.947   2.663 -0.1208 -0.2544 -2.6692
  552SOL     vw 2208   2.249   7.004   2.647  0.0637  0.1485 -0.7168
  553SOL     ow 2209   6.735   5.282   0.034  0.2301 -0.4571  0.3593
  553SOL     hw 2210   6.667   5.225  -0.002 -0.1243  0.5444 -0.5925
  553SOL     hw 2211   6.687   5.340   0.094 -0.2014  1.6808 -1.9010
  553SOL     vw 2212   6.719   5.282   0.037  0.1264 -0.0429 -0.0645
  554SOL     ow 2213   1.836   7.423   3.289  0.9141  0.5008 -0.2265
  554SOL     hw 2214   1.785   7.478   3.349 -1.0883 -0.0727 -1.3106
  554SOL     hw 2215   1.886   7.365   3.347  2.2148  2.6340  0.9136
  554SOL     vw 2216   1.835   7.422   3.305  0.8215  0.7067 -0.2191
  555SOL     ow 2217   3.365   5.258   0.561  0.5851 -0.7616  0.6918
  555SOL     hw 2218   3.361   5.164   0.542  1.4288 -0.1719 -3.1063
  555SOL     hw 2219   3.380   5.300   0.476 -0.9139  2.9614  2.0438
  555SOL     vw 2220   3.367   5.251   0.548  0.4988 -0.1929  0.3691
  556SOL     ow 2221   0.898   5.560   2.319 -0.1532 -0.1915  0.4406
  556SOL     hw 2222   0.906   5.654   2.335  1.7029 -0.5280  1.8462
  556SOL     hw 2223   0.954   5.543   2.243  0.3502 -0.3012  0.8316
  556SOL     vw 2224   0.906   5.570   2.311  0.1581 -0.2503  0.6777
  557SOL     ow 2225   2.454   6.254   7.303 -0.4525 -0.2068  1.1308
  557SOL     hw 2226   2.510   6.177   7.306  0.4339  0.4615  2.8972
  557SOL     hw 2227   2.397   6.246   7.380 -1.8632 -0.1603  0.1359
  557SOL     vw 2228   2.454   6.243   7.313 -0.5218 -0.1128  1.2324
  558SOL     ow 2229   5.809   5.786   4.902 -0.8978  0.0878 -0.1724
  558SOL     hw 2230   5.803   5.758   4.994  0.7869  2.0782  0.6225
  558SOL     hw 2231   5.746   5.858   4.894 -0.6954  0.2394 -0.4309
  558SOL     vw 2232   5.800   5.792   4.913 -0.6487  0.3703 -0.1016
  559SOL     ow 2233   1.740   7.050   1.853 -0.2037  0.0568 -0.0951
  559SOL     hw 2234   1.785   7.123   1.810  0.6523 -0.5793 -0.3087
  559SOL     hw 2235   1.657   7.087   1.882  0.6934  1.4214  0.8387
  559SOL     vw 2236   1.735   7.065   1.851  0.0277  0.1528  0.0000
  560SOL     ow 2237   2.891   4.048   6.087 -0.1398 -0.1940 -0.2347
  560SOL     hw 2238   2.799   4.058   6.062  0.0378 -0.4990 -1.0226
  560SOL     hw 2239   2.930   4.133   6.065 -0.0158 -0.4112 -0.8570
  560SOL     vw 2240   2.884   4.061   6.081 -0.0999 -0.2627 -0.4208
  561SOL     ow 2241   0.079   6.072   5.522  0.4829  0.1255  0.0027
  561SOL     hw 2242   0.095   6.087   5.615  1.2785 -0.8237  0.0320
  561SOL     hw 2243   0.084   5.977   5.511  2.8327  0.3177 -1.3892
  561SOL     vw 2244   0.082   6.062   5.533  0.8979  0.0255 -0.1771
  562SOL     ow 2245   0.953   7.059   6.158 -0.0574 -0.6878 -0.1851
  562SOL     hw 2246   1.042   7.052   6.124  0.3008 -0.7588  0.7363
  562SOL     hw 2247   0.905   6.990   6.113  1.1535 -2.8949  1.6754
  562SOL     vw 2248   0.958   7.049   6.148  0.1496 -0.9885  0.1819
  563SOL     ow 2249   6.056   7.287   5.970 -0.2409  0.2177 -0.0905
  563SOL     hw 2250   6.005   7.336   6.036 -1.5144 -0.7477 -0.3237
  563SOL     hw 2251   6.094   7.355   5.915  0.1608  1.0207  1.1336
  563SOL     vw 2252   6.054   7.303   5.972 -0.3562  0.1965  0.0401
  564SOL     ow 2253   1.522   3.948   2.123  0.4179 -0.2782 -0.2135
  564SOL     hw 2254   1.484   4.023   2.167 -0.8208 -1.5087  0.9214
  564SOL     hw 2255   1.606   3.933   2.168  0.8367  0.6048 -0.6806
  564SOL     vw 2256   1.528   3.956   2.135  0.3097 -0.3239 -0.1253
  565SOL     ow 2257   4.859   0.762   2.600  0.1250 -0.1966  0.5700
  565SOL     hw 2258   4.908   0.728   2.524 -1.7161 -0.3890 -0.5824
  565SOL     hw 2259   4.801   0.690   2.625 -0.7128  0.5769  0.8954
  565SOL     vw 2260   4.858   0.748   2.593 -0.2286 -0.1199  0.4609
  566SOL     ow 2261   6.837   1.137   2.602  0.1241  0.3233 -0.8913
  566SOL     hw 2262   6.913   1.187   2.632  1.7179 -1.9310 -0.9077
  566SOL     hw 2263   6.839   1.145   2.507 -0.1589  0.8885 -0.8588
  566SOL     vw 2264   6.847   1.145   2.593  0.2971  0.1005 -0.8892
  567SOL     ow 2265   0.371   4.313   6.107 -0.3514 -0.4764  0.1663
  567SOL     hw 2266   0.401   4.377   6.043 -0.6587 -2.6334 -2.2661
  567SOL     hw 2267   0.448   4.294   6.160 -0.1987  1.6671  0.8163
  567SOL     vw 2268   0.385   4.319   6.106 -0.3718 -0.4783 -0.0689
  568SOL     ow 2269   2.000   7.275   5.480  0.1815 -0.0091  0.1656
  568SOL     hw 2270   2.047   7.355   5.506  0.5845 -1.2270  3.7201
  568SOL     hw 2271   2.002   7.220   5.558 -1.5300 -2.8582 -1.6359
  568SOL     vw 2272   2.007   7.278   5.494  0.0088 -0.5457  0.3967
  569SOL     ow 2273   6.641   4.004   4.057 -0.5222  0.4341 -0.4650
  569SOL     hw 2274   6.615   3.931   4.114 -5.0699  1.6156 -0.7115
  569SOL     hw 2275   6.631   4.082   4.112  0.0209  1.2277 -1.4682
  569SOL     vw 2276   6.636   4.004   4.072 -1.0505  0.6948 -0.6299
  570SOL     ow 2277   6.766   2.329   6.430 -0.0088 -0.8351  0.0433
  570SOL     hw 2278   6.860   2.350   6.434 -0.1427 -0.4450  1.8359
  570SOL     hw 2279   6.759   2.245   6.473 -0.2809 -1.8137 -1.7978
  570SOL     vw 2280   6.778   2.321   6.436 -0.0625 -0.9128  0.0370
  571SOL     ow 2281   2.401   6.643   6.807  0.5676  0.2030 -0.4413
  571SOL     hw 2282   2.339   6.711   6.778  0.3869 -0.4524 -1.6860
  571SOL     hw 2283   2.482   6.664   6.760  0.8108  0.1363 -0.0515
  571SOL     vw 2284   2.404   6.655   6.797  0.5759  0.1075 -0.5541
  572SOL     ow 2285   1.959   0.235   4.805 -0.2219 -0.2470 -0.5523
  572SOL     hw 2286   2.021   0.172   4.842 -0.2072  0.0756 -0.0200
  572SOL     hw 2287   2.015   0.295   4.755 -0.3271 -1.1740 -1.8254
  572SOL     vw 2288   1.975   0.235   4.803 -0.2339 -0.3267 -0.6502
  573SOL     ow 2289   6.884   3.321   6.563 -0.5974  0.7399  0.1449
  573SOL     hw 2290   6.814   3.336   6.626  0.3511 -0.0763  1.4532
  573SOL     hw 2291   6.929   3.243   6.595  0.3081  0.6701 -1.2071
  573SOL     vw 2292   6.881   3.313   6.576 -0.3529  0.6230  0.1390
  574SOL     ow 2293   0.205   0.329   4.953  0.6347  0.0780  0.0808
  574SOL     hw 2294   0.273   0.263   4.968  1.7006  0.8047 -1.3896
  574SOL     hw 2295   0.188   0.365   5.041 -0.5142 -2.5786  1.0636
  574SOL     vw 2296   0.211   0.325   4.967  0.6237 -0.1766  0.0165
  575SOL     ow 2297   0.949   2.555   5.379 -0.2055 -0.7087  0.0786
  575SOL     hw 2298   0.996   2.635   5.354 -1.1866  0.2539  1.2395
  575SOL     hw 2299   1.003   2.517   5.449 -0.2024 -0.5807  0.1473
  575SOL     vw 2300   0.963   2.561   5.385 -0.3345 -0.5648  0.2408
  576SOL     ow 2301   0.429   1.336   1.178  0.3309  0.2220 -0.0525
  576SOL     hw 2302   0.459   1.272   1.114  0.3687  0.8975 -0.7328
  576SOL     hw 2303   0.397   1.284   1.252 -0.1638 -0.5941 -0.8155
  576SOL     vw 2304   0.429   1.321   1.180  0.2706  0.2034 -0.2429
  577SOL     ow 2305   0.294   4.730   5.651  0.3176  0.2164 -0.0012
  577SOL     hw 2306   0.260   4.811   5.690  0.1274  0.1779 -0.0883
  577SOL     hw 2307   0.320   4.676   5.726  2.3723  1.1734  0.0506
  577SOL     vw 2308   0.293   4.734   5.666  0.5636  0.3376 -0.0060
  578SOL     ow 2309   3.541   5.318   6.237  0.2639 -0.3870  0.0532
  578SOL     hw 2310   3.533   5.257   6.163 -1.0996 -0.8639  0.5714
  578SOL     hw 2311   3.485   5.392   6.214  1.7580  0.6239 -0.4798
  578SOL     vw 2312   3.533   5.319   6.224  0.2812 -0.3166  0.0510
  579SOL     ow 2313   3.515   6.805   1.204 -0.8411 -0.8328  0.1010
  579SOL     hw 2314   3.608   6.828   1.201 -1.2479  1.4387  2.1582
  579SOL     hw 2315   3.491   6.789   1.113  1.8010 -2.7351 -0.3677
  579SOL     vw 2316   3.524   6.806   1.192 -0.5461 -0.7842  0.3106
  580SOL     ow 2317   1.122   2.099   1.188 -0.3060  0.2001  0.0497
  580SOL     hw 2318   1.182   2.064   1.253  1.8984 -1.8410 -2.8301
  580SOL     hw 2319   1.153   2.188   1.172  1.4788 -0.5081 -0.7089
  580SOL     vw 2320   1.134   2.106   1.194  0.2202 -0.1625 -0.4303
  581SOL     ow 2321   5.442   4.362   1.604 -0.0517  0.4093  0.1708
  581SOL     hw 2322   5.351   4.363   1.634 -0.7846 -0.3390 -1.8109
  581SOL     hw 2323   5.487   4.304   1.665 -1.2875 -0.4632  0.2882
  581SOL     vw 2324   5.436   4.354   1.616 -0.3116  0.1957 -0.0752
  582SOL     ow 2325   7.078   4.988   1.877 -0.3011 -0.6294  0.7070
  582SOL     hw 2326   7.108   5.076   1.900 -2.8182  0.6480 -0.4624
  582SOL     hw 2327   7.148   4.930   1.907  2.5415  1.8994 -0.4436
  582SOL     vw 2328   7.091   4.992   1.884 -0.2582 -0.1273  0.4009
  583SOL     ow 2329   1.612   0.057   0.223  0.5125  0.3887  0.3683
  583SOL     hw 2330   1.577  -0.014   0.170  1.5349 -0.0994  0.3104
  583SOL     hw 2331   1.612   0.133   0.165 -0.2136  0.3390  0.3020
  583SOL     vw 2332   1.608   0.058   0.208  0.5516  0.3177  0.3519
  584SOL     ow 2333   1.194   4.824   7.429  0.0509 -0.1914  0.4584
  584SOL     hw 2334   1.213   4.819   7.522 -0.7233 -0.3339  0.6111
  584SOL     hw 2335   1.180   4.917   7.411 -0.1162 -0.2013  0.5435
  584SOL     vw 2336   1.195   4.835   7.439 -0.0733 -0.2112  0.4895
  585SOL     ow 2337   3.561   5.807   2.688 -0.0413  0.3684 -0.3591
  585SOL     hw 2338   3.597   5.894   2.703  0.6355 -0.0533  0.5303
  585SOL     hw 2339   3.615   5.749   2.742 -1.1721 -0.4636 -0.0952
  585SOL     vw 2340   3.573   5.811   2.697 -0.1013  0.2031 -0.2069
  586SOL     ow 2341   2.641   5.892   0.532 -0.5058  0.1568 -0.6325
  586SOL     hw 2342   2.621   5.833   0.460  0.8871  0.1186 -1.0190
  586SOL     hw 2343   2.716   5.944   0.501  1.2011 -0.9735  1.3431
  586SOL     vw 2344   2.648   5.891   0.518 -0.0967  0.0024 -0.4228
  587SOL     ow 2345   2.113   5.270   4.305 -0.2197 -0.6319  0.1542
  587SOL     hw 2346   2.173   5.306   4.370 -0.6047 -1.5166  1.0068
  587SOL     hw 2347   2.159   5.195   4.269 -0.6815 -1.1246  0.5859
  587SOL     vw 2348   2.127   5.265   4.309 -0.3314 -0.8137  0.3235
  588SOL     ow 2349   6.876   2.656   1.157 -0.3781  0.5757  0.0415
  588SOL     hw 2350   6.937   2.605   1.105  1.7707  2.1230  0.9028
  588SOL     hw 2351   6.924   2.676   1.238 -2.2221  1.4072  0.9948
  588SOL     vw 2352   6.890   2.652   1.161 -0.3378  0.8895  0.2809
  589SOL     ow 2353   5.726   1.776   3.487  0.0132  0.7650 -0.3203
  589SOL     hw 2354   5.649   1.754   3.436  1.6251 -3.2125 -1.3639
  589SOL     hw 2355   5.751   1.863   3.456 -2.5212  1.0711 -1.7703
  589SOL     vw 2356   5.719   1.785   3.476 -0.1082  0.2806 -0.6492
  590SOL     ow 2357   5.835   6.099   1.849  0.8288  0.0362  0.4292
  590SOL     hw 2358   5.762   6.050   1.812  0.9083 -0.6425  1.1541
  590SOL     hw 2359   5.822   6.095   1.943  1.5404  0.3149  0.5478
  590SOL     vw 2360   5.824   6.092   1.856  0.9332 -0.0167  0.5406
  591SOL     ow 2361   4.167   7.313   6.972 -0.0292 -0.0465  0.4109
  591SOL     hw 2362   4.254   7.336   6.939 -0.6191 -1.5483 -2.4916
  591SOL     hw 2363   4.106   7.354   6.910 -1.3338 -0.8619  1.1106
  591SOL     vw 2364   4.170   7.321   6.960 -0.2794 -0.3521  0.1204
  592SOL     ow 2365   4.876   2.360   3.883  0.0952 -0.1172 -0.6994
  592SOL     hw 2366   4.936   2.368   3.957 -0.2261  1.5969 -0.5869
  592SOL     hw 2367   4.932   2.343   3.808  0.5932  0.0833 -0.3742
  592SOL     vw 2368   4.891   2.358   3.883  0.1183  0.1354 -0.6417
  593SOL     ow 2369   0.057   5.454   3.496  0.0817  0.4723 -0.4654
  593SOL     hw 2370   0.087   5.530   3.447 -0.8277 -0.0951 -1.9925
  593SOL     hw 2371  -0.020   5.424   3.447 -0.3841 -0.6146  0.8824
  593SOL     vw 2372   0.051   5.460   3.483 -0.0997  0.2542 -0.4892
  594SOL     ow 2373   3.285   7.011   4.875 -0.2512  1.0036 -0.3196
  594SOL     hw 2374   3.219   6.951   4.841 -0.2039 -0.7750  2.4168
  594SOL     hw 2375   3.369   6.973   4.848 -0.2317  2.0198 -1.8368
  594SOL     vw 2376   3.288   6.998   4.867 -0.2422  0.9031 -0.1585
  595SOL     ow 2377   5.800   2.700   3.546  0.0386  0.1928  0.2941
  595SOL     hw 2378   5.877   2.739   3.504 -1.3139  2.0365 -0.6520
  595SOL     hw 2379   5.781   2.758   3.620 -1.3041  0.6975 -0.4048
  595SOL     vw 2380   5.808   2.713   3.550 -0.3169  0.5026  0.0771
  596SOL     ow 2381   6.787   2.916   1.222 -0.0672  0.3174 -0.5759
  596SOL     hw 2382   6.787   2.873   1.307  0.6475 -0.6397 -1.0385
  596SOL     hw 2383   6.790   3.010   1.242 -1.2816  0.1630  0.4512
  596SOL     vw 2384   6.788   2.923   1.236 -0.1333  0.1709 -0.5014
  597SOL     ow 2385   0.662   0.307   6.284 -0.1118 -0.0302  0.1279
  597SOL     hw 2386   0.656   0.282   6.191 -0.2452  0.5273 -0.0135
  597SOL     hw 2387   0.627   0.395   6.288 -2.4295 -0.9324  1.1029
  597SOL     vw 2388   0.657   0.315   6.272 -0.4352 -0.0757  0.2379
  598SOL     ow 2389   6.614   4.918   1.450 -0.3646 -0.3269  0.1207
  598SOL     hw 2390   6.535   4.864   1.444 -0.4759 -0.1862  0.2985
  598SOL     hw 2391   6.652   4.895   1.534  0.6571 -1.5714 -0.6569
  598SOL     vw 2392   6.608   4.908   1.460 -0.2441 -0.4723  0.0415
  599SOL     ow 2393   2.745   5.724   0.720  0.7828  0.4203  0.3408
  599SOL     hw 2394   2.703   5.786   0.660  1.9449  1.7415  0.8280
  599SOL     hw 2395   2.691   5.728   0.799 -0.4356 -0.9153 -0.3750
  599SOL     vw 2396   2.732   5.733   0.722  0.7755  0.4187  0.3106
  600SOL     ow 2397   5.131   4.608   1.369 -0.0636 -0.2664  0.2841
  600SOL     hw 2398   5.137   4.701   1.350  1.3517  0.1225  2.2995
  600SOL     hw 2399   5.066   4.602   1.440  0.1867 -0.7560  0.4766
  600SOL     vw 2400   5.123   4.619   1.376  0.1559 -0.2797  0.5754
  601SOL     ow 2401   2.932   2.792   7.480  0.0335 -0.9023  0.6174
  601SOL     hw 2402   2.954   2.714   7.531  0.7932 -1.3511 -0.3529
  601SOL     hw 2403   2.842   2.812   7.504 -0.7594 -3.0636 -0.3102
  601SOL     vw 2404   2.923   2.784   7.490  0.0292 -1.2467  0.3667
  602SOL     ow 2405   2.450   4.308   5.834  0.4383 -0.2807  0.1064
  602SOL     hw 2406   2.431   4.307   5.740 -2.2686  0.6488  0.5568
  602SOL     hw 2407   2.523   4.370   5.842  1.2124 -0.9230 -1.4203
  602SOL     vw 2408   2.457   4.316   5.822  0.1832 -0.2429 -0.0358
  603SOL     ow 2409   5.542   3.277   6.517  0.3426  0.0699 -0.2435
  603SOL     hw 2410   5.455   3.262   6.556  0.1847 -0.2676 -0.7111
  603SOL     hw 2411   5.575   3.354   6.561 -0.1200  0.0877  0.0798
  603SOL     vw 2412   5.535   3.285   6.528  0.2608  0.0278 -0.2625
  604SOL     ow 2413   0.045   1.212   5.701 -0.2863 -0.0314 -0.2570
  604SOL     hw 2414   0.075   1.298   5.672  1.7661 -0.8895 -0.8821
  604SOL     hw 2415   0.124   1.159   5.704 -1.4927 -1.9198  0.0911
  604SOL     vw 2416   0.059   1.217   5.698 -0.1747 -0.3938 -0.2935
  605SOL     ow 2417   2.446   3.814   2.107 -0.2602  0.3593  0.1290
  605SOL     hw 2418   2.496   3.767   2.175 -0.3415  1.1704  0.7737
  605SOL     hw 2419   2.424   3.898   2.148  1.2437  1.6455 -1.5096
  605SOL     vw 2420   2.450   3.819   2.122 -0.0725  0.6361 -0.0021
  606SOL     ow 2421   0.984   7.511   1.868  0.0794  0.1171 -0.0647
  606SOL     hw 2422   0.902   7.469   1.840 -0.5196  1.5732 -0.6016
  606SOL     hw 2423   1.006   7.468   1.950 -1.5013  0.0268  0.3405
  606SOL     vw 2424   0.976   7.499   1.875 -0.2082  0.2973 -0.0821
  607SOL     ow 2425   0.502   0.528   5.097 -0.5935  0.1148  0.1869
  607SOL     hw 2426   0.444   0.456   5.074 -1.2561 -0.1928  2.6131
  607SOL     hw 2427   0.447   0.606   5.090 -0.6846  0.0626  0.3059
  607SOL     vw 2428   0.487   0.529   5.093 -0.6929  0.0673  0.5229
  608SOL     ow 2429   3.534   6.212   4.521  0.6579  0.6326 -0.5436
  608SOL     hw 2430   3.492   6.224   4.436 -0.8849  0.1602  0.0936
  608SOL     hw 2431   3.481   6.144   4.564  0.6131  1.7275  1.2657
  608SOL     vw 2432   3.521   6.204   4.516  0.4483  0.7148 -0.2205
  609SOL     ow 2433   4.303   6.754   0.895 -0.4698 -0.0254 -0.3368
  609SOL     hw 2434   4.299   6.842   0.931 -0.3018  1.0974 -2.8742
  609SOL     hw 2435   4.396   6.730   0.899 -0.4487  0.0999 -0.0753
  609SOL     vw 2436   4.315   6.762   0.900 -0.4447  0.1392 -0.6370
  610SOL     ow 2437   3.661   4.616   6.005  0.0529 -0.0625  0.1260
  610SOL     hw 2438   3.662   4.616   5.910 -1.0058 -2.4368  0.0347
  610SOL     hw 2439   3.573   4.644   6.029 -0.5995 -2.0079  0.2393
  610SOL     vw 2440   3.650   4.620   5.996 -0.1730 -0.6323  0.1287
  611SOL     ow 2441   0.588   5.298   3.770 -0.4092 -0.0970 -0.4764
  611SOL     hw 2442   0.557   5.387   3.788  0.1152  0.3263 -1.5712
  611SOL     hw 2443   0.512   5.252   3.735 -0.9249 -0.3683  0.9406
  611SOL     vw 2444   0.574   5.304   3.768 -0.4080 -0.0770 -0.4339
  612SOL     ow 2445   1.340   3.263   3.373 -0.2133 -0.9755  0.4501
  612SOL     hw 2446   1.311   3.199   3.438 -1.9140 -0.8493 -0.1443
  612SOL     hw 2447   1.435   3.263   3.382 -0.3580 -1.2431  2.6472
  612SOL     vw 2448   1.349   3.254   3.383 -0.4568 -0.9942  0.6615
  613SOL     ow 2449   5.632   3.175   6.285  0.3101  0.5059  0.0782
  613SOL     hw 2450   5.563   3.115   6.258 -1.0158  2.6275 -1.5916
  613SOL     hw 2451   5.598   3.216   6.365  0.4187  0.3606  0.2016
  613SOL     vw 2452   5.618   3.173   6.292  0.1495  0.7668 -0.1259
  614SOL     ow 2453   2.189   2.010   2.341 -0.3498 -0.0558  0.3684
  614SOL     hw 2454   2.124   2.070   2.380 -0.2732 -0.3799  1.0027
  614SOL     hw 2455   2.243   1.983   2.415  1.0499  0.8614 -0.2806
  614SOL     vw 2456   2.187   2.014   2.356 -0.1551  0.0224  0.3664
  615SOL     ow 2457   5.321   3.822   2.724 -0.0718 -0.2495  0.0134
  615SOL     hw 2458   5.400   3.791   2.768 -0.5981 -0.2246  1.0205
  615SOL     hw 2459   5.254   3.757   2.746 -0.2642 -0.4684 -1.1336
  615SOL     vw 2460   5.323   3.809   2.733 -0.1667 -0.2750 -0.0050
  616SOL     ow 2461   0.554   4.781   6.431  0.2406 -0.7855  0.4358
  616SOL     hw 2462   0.620   4.785   6.499 -0.1570  1.8641  0.7958
  616SOL     hw 2463   0.507   4.699   6.447  3.0714 -2.5089  0.4327
  616SOL     vw 2464   0.556   4.771   6.442  0.5617 -0.6633  0.4828
  617SOL     ow 2465   4.977   4.978   5.611  0.3070  0.0293 -0.3346
  617SOL     hw 2466   5.034   4.930   5.551  1.3780  0.8744 -0.0353
  617SOL     hw 2467   4.948   4.913   5.675  1.5144 -0.3006 -0.0928
  617SOL     vw 2468   4.981   4.963   5.612  0.6077  0.0970 -0.2632
  618SOL     ow 2469   0.905   1.205   5.318  0.4136  0.0277  0.7955
  618SOL     hw 2470   0.935   1.193   5.228  1.3880  3.6124  0.5053
  618SOL     hw 2471   0.848   1.129   5.334  3.1842 -2.8100 -1.4228
  618SOL     vw 2472   0.901   1.193   5.308  0.9077  0.1263  0.4644
  619SOL     ow 2473   4.616   6.710   7.170 -0.1320 -0.1993  0.0422
  619SOL     hw 2474   4.612   6.615   7.161  0.5368 -0.1767 -0.6617
  619SOL     hw 2475   4.706   6.728   7.199 -0.1715  0.2272 -0.0876
  619SOL     vw 2476   4.628   6.700   7.173 -0.0491 -0.1400 -0.0675
  620SOL     ow 2477   4.383   4.928   0.012  0.7365  0.4530  0.0835
  620SOL     hw 2478   4.460   4.923  -0.044 -0.4837 -1.5858 -1.5924
  620SOL     hw 2479   4.339   5.009  -0.013  0.8243  0.1452 -1.1070
  620SOL     vw 2480   4.387   4.938   0.001  0.5872  0.1435 -0.2947
  621SOL     ow 2481   0.778   4.110   1.771 -0.1157  0.5398  0.7798
  621SOL     hw 2482   0.740   4.192   1.738  1.1509  0.7074 -0.3457
  621SOL     hw 2483   0.817   4.133   1.855 -2.5908  0.3161  2.0986
  621SOL     vw 2484   0.778   4.124   1.778 -0.2752  0.5322  0.8053
  622SOL     ow 2485   4.632   2.667   4.080  0.7197  0.4319 -0.0037
  622SOL     hw 2486   4.691   2.710   4.141 -0.3573  0.9850  0.6753
  622SOL     hw 2487   4.546   2.706   4.098  0.0076 -0.8693 -0.4625
  622SOL     vw 2488   4.629   2.678   4.090  0.4838  0.3332  0.0250
  623SOL     ow 2489   0.650   5.524   7.526  0.5882 -0.2290 -0.4892
  623SOL     hw 2490   0.630   5.449   7.469 -1.4626 -1.2174  1.3425
  623SOL     hw 2491   0.644   5.487   7.615  2.3114  1.5317  0.4098
  623SOL     vw 2492   0.646   5.509   7.530  0.5450 -0.1268 -0.1290
  624SOL     ow 2493   4.987   2.661   5.181 -0.0392  0.0906 -0.0344
  624SOL     hw 2494   5.069   2.676   5.229 -1.5823  2.4504  2.1543
  624SOL     hw 2495   4.940   2.597   5.234 -1.1906  1.7002  0.9706
  624SOL     vw 2496   4.992   2.655   5.195 -0.3948  0.6143  0.3870
  625SOL     ow 2497   7.198   5.607   0.063 -0.3545  0.3876 -0.3883
  625SOL     hw 2498   7.278   5.624   0.014 -1.4943 -0.5122 -2.7000
  625SOL     hw 2499   7.205   5.663   0.141  3.1334 -0.7161  0.2836
  625SOL     vw 2500   7.209   5.617   0.067 -0.0448  0.1233 -0.6046
  626SOL     ow 2501   2.206   1.440   1.376 -0.1951  0.2588 -0.2415
  626SOL     hw 2502   2.248   1.523   1.399  0.0781 -0.7967  4.0927
  626SOL     hw 2503   2.274   1.390   1.332  0.8885  1.0423  0.4866
  626SOL     vw 2504   2.220   1.444   1.373 -0.0161  0.2229  0.4264
  627SOL     ow 2505   1.587   2.299   4.764 -0.1670 -0.4244  0.4697
  627SOL     hw 2506   1.603   2.394   4.766  2.1266 -0.7433  0.7457
  627SOL     hw 2507   1.572   2.279   4.672  1.4511 -0.0327  0.0825
  627SOL     vw 2508   1.587   2.309   4.752  0.3490 -0.4147  0.4554
  628SOL     ow 2509   6.652   5.548   7.204 -0.3115 -0.7124  0.3235
  628SOL     hw 2510   6.681   5.577   7.291 -0.1532  0.0376  0.0308
  628SOL     hw 2511   6.569   5.503   7.220  0.3688 -1.7811  1.0259
  628SOL     vw 2512   6.645   5.546   7.218 -0.2010 -0.7544  0.3774
  629SOL     ow 2513   6.726   3.034   6.909 -0.5040  0.0825  0.3082
  629SOL     hw 2514   6.703   3.105   6.969 -0.9993  0.8939 -0.8154
  629SOL     hw 2515   6.648   2.977   6.909 -0.8213  0.5128 -0.1758
  629SOL     vw 2516   6.713   3.036   6.917 -0.6111  0.2465  0.0961
  630SOL     ow 2517   1.542   3.535   1.396 -0.4482 -0.5091  0.5711
  630SOL     hw 2518   1.450   3.562   1.393 -0.0314  0.9029 -1.6116
  630SOL     hw 2519   1.557   3.514   1.488 -2.7593 -0.1242  1.1142
  630SOL     vw 2520   1.532   3.535   1.408 -0.6980 -0.2720  0.3548
  631SOL     ow 2521   2.786   2.647   6.665  0.1602 -0.5435 -0.3328
  631SOL     hw 2522   2.844   2.679   6.596  0.9921 -0.8774  0.1962
  631SOL     hw 2523   2.788   2.715   6.732 -0.1021 -0.5334 -0.3340
  631SOL     vw 2524   2.794   2.660   6.664  0.2353 -0.5862 -0.2632
  632SOL     ow 2525   4.403   1.538   3.362 -0.3905  0.1373 -0.3619
  632SOL     hw 2526   4.469   1.606   3.348 -0.3066  0.2527  0.5309
  632SOL     hw 2527   4.439   1.484   3.432 -0.3291 -1.0060 -1.2527
  632SOL     vw 2528   4.417   1.540   3.369 -0.3715  0.0017 -0.3617
  633SOL     ow 2529   0.780   7.473   6.036 -0.2259 -0.4341  0.4203
  633SOL     hw 2530   0.823   7.526   6.103  0.6473 -1.0646  0.3658
  633SOL     hw 2531   0.812   7.508   5.953 -0.7740 -0.1035  0.3444
  633SOL     vw 2532   0.790   7.485   6.034 -0.1830 -0.4737  0.4032
  634SOL     ow 2533   2.278   7.117   2.414  0.0042 -0.0266  0.2793
  634SOL     hw 2534   2.339   7.047   2.388  1.6742  0.8275  1.6916
  634SOL     hw 2535   2.331   7.197   2.412 -1.4459  0.9780  0.2565
  634SOL     vw 2536   2.293   7.119   2.410  0.0333  0.2186  0.4627
  635SOL     ow 2537   6.455   6.682   5.370 -0.2937 -0.0345  0.0251
  635SOL     hw 2538   6.396   6.608   5.357  1.3159 -1.1533 -1.1825
  635SOL     hw 2539   6.432   6.715   5.457 -1.9603 -1.0732  0.0249
  635SOL     vw 2540   6.444   6.676   5.380 -0.3011 -0.3195 -0.1342
  636SOL     ow 2541   4.544   0.992   3.791 -0.1860 -0.1126  0.3484
  636SOL     hw 2542   4.555   0.967   3.883 -0.1871  1.4733  0.8156
  636SOL     hw 2543   4.608   1.061   3.777 -0.9770  0.4764 -0.5115
  636SOL     vw 2544   4.554   0.998   3.801 -0.2904  0.1744  0.2966
  637SOL     ow 2545   6.928   5.836   1.280  0.4863  0.0225 -0.0506
  637SOL     hw 2546   6.957   5.884   1.357  0.8491 -1.2765  0.6571
  637SOL     hw 2547   6.893   5.903   1.221 -1.0566  0.9160  1.7936
  637SOL     vw 2548   6.927   5.851   1.282  0.3307 -0.0308  0.2862
  638SOL     ow 2549   3.127   3.388   6.722 -0.6762 -0.2998  0.0409
  638SOL     hw 2550   3.043   3.382   6.767 -0.6592 -0.6513  0.0222
  638SOL     hw 2551   3.151   3.481   6.730 -1.1169 -0.1741 -0.0476
  638SOL     vw 2552   3.119   3.400   6.729 -0.7321 -0.3295  0.0267
  639SOL     ow 2553   0.093   3.629   4.645 -0.0889  0.2216 -0.2471
  639SOL     hw 2554   0.116   3.550   4.694  1.0970  0.6663 -0.0464
  639SOL     hw 2555   0.007   3.654   4.678  0.2676 -0.0295  0.9204
  639SOL     vw 2556   0.085   3.622   4.655  0.1146  0.2471 -0.0665
  640SOL     ow 2557   3.038   3.219   0.629 -0.4294 -0.1343  0.0707
  640SOL     hw 2558   3.070   3.264   0.707 -0.4512  0.5363 -0.3080
  640SOL     hw 2559   3.103   3.151   0.613  0.1165  0.3885  0.0651
  640SOL     vw 2560   3.051   3.216   0.637 -0.3603  0.0231  0.0200
  641SOL     ow 2561   5.966   3.533   0.101 -0.3160 -0.5370  0.5558
  641SOL     hw 2562   5.890   3.558   0.049  1.7207  2.8260 -1.2139
  641SOL     hw 2563   5.960   3.588   0.179  0.4084  0.0093  0.2419
  641SOL     vw 2564   5.955   3.544   0.104  0.0482 -0.0212  0.2809
  642SOL     ow 2565   3.382   4.684   6.009  0.2038  0.5728 -0.0437
  642SOL     hw 2566   3.370   4.614   5.944  0.6918 -0.4490  0.9225
  642SOL     hw 2567   3.323   4.753   5.981  3.6788  2.3008 -4.3818
  642SOL     vw 2568   3.373   4.684   5.997  0.7267  0.6659 -0.4888
  643SOL     ow 2569   6.794   4.843   1.262  0.2407 -0.5582  0.2846
  643SOL     hw 2570   6.720   4.853   1.322 -0.7174  0.5282 -1.0285
  643SOL     hw 2571   6.776   4.762   1.214  1.1363 -1.5647  1.5880
  643SOL     vw 2572   6.782   4.834   1.264  0.2327 -0.5476  0.2834
  644SOL     ow 2573   0.831   3.166   1.894 -0.4063 -0.2010  0.2846
  644SOL     hw 2574   0.844   3.235   1.959  1.0236 -1.5647  1.5285
  644SOL     hw 2575   0.736   3.161   1.882 -0.5572  1.5534  0.6055
  644SOL     vw 2576   0.820   3.174   1.901 -0.2375 -0.1495  0.4911
  645SOL     ow 2577   2.327   4.016   3.948 -0.5362  0.4097  0.3586
  645SOL     hw 2578   2.376   4.027   4.029 -0.1379 -2.2428  0.5785
  645SOL     hw 2579   2.394   4.021   3.879 -0.6246  0.9634  0.3049
  645SOL     vw 2580   2.343   4.018   3.949 -0.4952  0.1330  0.3805
  646SOL     ow 2581   2.940   5.730   6.990 -0.5796  0.6920  0.0691
  646SOL     hw 2582   2.858   5.762   6.954 -0.4387  0.7853 -0.1690
  646SOL     hw 2583   2.914   5.661   7.051 -0.8282  0.6772 -0.0529
  646SOL     vw 2584   2.926   5.725   6.994 -0.5938  0.7024  0.0217
  647SOL     ow 2585   3.196   6.762   4.023 -0.1874  0.1298 -0.3765
  647SOL     hw 2586   3.134   6.689   4.020  1.3320 -1.5726  3.5092
  647SOL     hw 2587   3.282   6.722   4.019  0.7066  1.8615  0.1644
  647SOL     vw 2588   3.199   6.747   4.022  0.1310  0.1335  0.2074
  648SOL     ow 2589   4.559   5.360   3.249 -0.2566 -0.0484 -0.1996
  648SOL     hw 2590   4.501   5.283   3.247 -2.3182  1.4185 -2.0156
  648SOL     hw 2591   4.515   5.420   3.309  0.2924  0.4613 -0.3050
  648SOL     vw 2592   4.545   5.358   3.257 -0.4561  0.2124 -0.4530
  649SOL     ow 2593   0.457   0.396   1.553  0.0457 -0.2782  0.0027
  649SOL     hw 2594   0.362   0.402   1.543  0.1043  3.0563  0.2810
  649SOL     hw 2595   0.477   0.303   1.541 -3.1212 -0.9499 -0.9213
  649SOL     vw 2596   0.447   0.385   1.550 -0.3644  0.0731 -0.0826
  650SOL     ow 2597   5.983   5.798   4.643 -0.3511 -0.1220  0.1945
  650SOL     hw 2598   5.934   5.832   4.568 -0.2397  0.4636  0.3832
  650SOL     hw 2599   6.024   5.875   4.683  2.4366 -0.7714 -1.1577
  650SOL     vw 2600   5.982   5.812   4.639  0.0317 -0.1304  0.0412
  651SOL     ow 2601   0.386   4.940   6.011  0.1661 -0.2683  0.1244
  651SOL     hw 2602   0.381   5.024   6.056  3.2600  0.6472 -0.9348
  651SOL     hw 2603   0.327   4.948   5.937 -0.9870  0.2140  1.0700
  651SOL     vw 2604   0.378   4.952   6.007  0.4222 -0.0839  0.1094
  652SOL     ow 2605   4.486   2.997   7.038  0.2941 -0.0911 -0.3723
  652SOL     hw 2606   4.568   3.022   7.081 -0.0989 -0.1259  0.4249
  652SOL     hw 2607   4.466   2.910   7.075 -1.2918  0.8986  1.2457
  652SOL     vw 2608   4.495   2.989   7.049  0.0331  0.0348 -0.0534
  653SOL     ow 2609   4.749   5.881   7.093  0.4476  0.2626 -0.1383
  653SOL     hw 2610   4.688   5.918   7.029  0.5912  0.7929  0.0195
  653SOL     hw 2611   4.835   5.905   7.059  0.5357  0.2199  0.0571
  653SOL     vw 2612   4.752   5.889   7.080  0.4780  0.3269 -0.0916
  654SOL     ow 2613   0.103   3.081   7.000  0.2357 -0.2045 -0.1911
  654SOL     hw 2614   0.034   3.105   6.938 -0.3783 -0.3541  0.4228
  654SOL     hw 2615   0.170   3.149   6.989 -0.5311  0.6004  0.0275
  654SOL     vw 2616   0.103   3.093   6.991  0.0536 -0.1179 -0.0813
  655SOL     ow 2617   4.401   5.597   3.395  0.1933  1.2231  0.0248
  655SOL     hw 2618   4.374   5.640   3.476  0.4649  1.1048  0.1786
  655SOL     hw 2619   4.328   5.539   3.373  0.7191  0.1678  0.9664
  655SOL     vw 2620   4.387   5.595   3.403  0.2983  1.0681  0.1694
  656SOL     ow 2621   3.429   5.660   1.104  0.7049  0.0271 -0.0243
  656SOL     hw 2622   3.448   5.638   1.195  1.0220 -0.9220 -0.3115
  656SOL     hw 2623   3.495   5.725   1.081 -0.4865  1.6437  0.9519
  656SOL     vw 2624   3.441   5.666   1.113  0.5896  0.1154  0.0667
  657SOL     ow 2625   4.388   5.344   0.521  0.1066 -0.0626 -0.0290
  657SOL     hw 2626   4.432   5.427   0.537  1.8816 -0.8763 -0.4947
  657SOL     hw 2627   4.305   5.352   0.569  0.6995  1.5517  0.8162
  657SOL     vw 2628   4.383   5.356   0.530  0.4191  0.0432  0.0211
  658SOL     ow 2629   4.674   6.433   3.265  0.4964 -0.2084  0.2155
  658SOL     hw 2630   4.683   6.529   3.268  1.7983 -0.3047  3.6455
  658SOL     hw 2631   4.642   6.410   3.352  0.4081 -2.9379 -0.4772
  658SOL     vw 2632   4.671   6.443   3.277  0.6564 -0.5810  0.5766
  659SOL     ow 2633   2.947   3.021   6.835 -0.0602  0.2522  0.0957
  659SOL     hw 2634   2.916   3.054   6.920 -0.0015  0.6320 -0.0257
  659SOL     hw 2635   2.898   3.073   6.771  1.8657  1.9376 -0.1232
  659SOL     vw 2636   2.936   3.033   6.838  0.2017  0.5249  0.0510
  660SOL     ow 2637   6.475   1.618   0.054  0.4743  0.1850  0.1349
  660SOL     hw 2638   6.551   1.638  -0.000  0.6283  1.0697  0.6649
  660SOL     hw 2639   6.486   1.526   0.079  2.2153  0.7477  1.5530
  660SOL     vw 2640   6.486   1.608   0.050  0.7243  0.3760  0.3919
  661SOL     ow 2641   6.610   0.498   6.885 -0.5271  0.0486  0.5497
  661SOL     hw 2642   6.534   0.508   6.827 -1.5163  1.0834  1.9509
  661SOL     hw 2643   6.612   0.405   6.906 -3.0297  0.3227  2.4852
  661SOL     vw 2644   6.600   0.487   6.880 -0.9878  0.2213  0.9897
  662SOL     ow 2645   1.286   2.143   2.069  0.2879 -0.6935  1.1220
  662SOL     hw 2646   1.349   2.082   2.108 -0.3129 -1.8733  0.3279
  662SOL     hw 2647   1.213   2.087   2.043  0.5803  0.0170 -1.5257
  662SOL     vw 2648   1.285   2.128   2.071  0.2472 -0.7553  0.6680
  663SOL     ow 2649   1.829   0.729   4.699 -0.2641 -0.1765 -0.6602
  663SOL     hw 2650   1.843   0.641   4.663 -0.5802 -0.8097  0.6691
  663SOL     hw 2651   1.915   0.771   4.694  0.2976 -1.1769  0.2061
  663SOL     vw 2652   1.842   0.723   4.694 -0.2317 -0.3920 -0.3705
  664SOL     ow 2653   0.832   0.235   3.562  0.1117  0.3197  0.3356
  664SOL     hw 2654   0.891   0.288   3.508 -0.3469  0.3608 -0.1217
  664SOL     hw 2655   0.874   0.149   3.565  0.9350  0.7331  1.2028
  664SOL     vw 2656   0.846   0.230   3.555  0.1598  0.3797  0.3897
  665SOL     ow 2657   1.961   7.121   1.108  0.0029 -0.0050  0.3375
  665SOL     hw 2658   2.030   7.178   1.143 -0.1593 -0.5164  1.5173
  665SOL     hw 2659   1.966   7.134   1.013  1.8072 -0.1192  0.3710
  665SOL     vw 2660   1.971   7.130   1.100  0.2195 -0.0875  0.4976
  666SOL     ow 2661   0.322   0.730   4.025 -0.1307  0.0457 -0.2423
  666SOL     hw 2662   0.374   0.803   4.059  0.6234 -0.8933  0.6951
  666SOL     hw 2663   0.231   0.755   4.040  0.1610  0.0156  1.8024
  666SOL     vw 2664   0.317   0.743   4.031  0.0073 -0.0821  0.1514
  667SOL     ow 2665   3.696   6.578   6.188  0.3316  0.0374 -0.2204
  667SOL     hw 2666   3.656   6.500   6.227 -0.2143  0.6774  0.5287
  667SOL     hw 2667   3.624   6.640   6.178  1.3154  1.8720  2.7580
  667SOL     vw 2668   3.681   6.576   6.192  0.3895  0.3638  0.2711
  668SOL     ow 2669   2.941   3.486   2.442  0.2697  0.5207 -0.2686
  668SOL     hw 2670   2.908   3.569   2.407 -1.7699 -0.0770  0.1155
  668SOL     hw 2671   2.888   3.470   2.520  0.8000 -1.0157 -0.1934
  668SOL     vw 2672   2.929   3.494   2.448  0.0707  0.2391 -0.2080
  669SOL     ow 2673   2.692   5.126   3.243 -0.3105  0.0620 -0.1849
  669SOL     hw 2674   2.687   5.063   3.314 -0.9825  1.1010  0.7021
  669SOL     hw 2675   2.785   5.126   3.218  0.1494  0.4628  1.4172
  669SOL     vw 2676   2.704   5.118   3.249 -0.3386  0.2518  0.1435
  670SOL     ow 2677   7.486   4.727   6.576 -0.3810  0.0012 -0.0871
  670SOL     hw 2678   7.576   4.754   6.563 -0.2722  0.3086  1.1745
  670SOL     hw 2679   7.437   4.772   6.507  0.5966 -1.3277 -1.7084
  670SOL     vw 2680   7.491   4.736   6.565 -0.2377 -0.1338 -0.1345
  671SOL     ow 2681   4.306   2.562   2.227  0.2024 -0.2701 -0.2194
  671SOL     hw 2682   4.284   2.590   2.138  0.5978  0.1081 -0.2031
  671SOL     hw 2683   4.366   2.629   2.259  0.3034 -0.5670  0.2233
  671SOL     vw 2684   4.311   2.575   2.219  0.2677 -0.2594 -0.1588
  672SOL     ow 2685   7.087   1.869   1.572 -0.1605  0.1449  0.0315
  672SOL     hw 2686   7.128   1.783   1.575 -1.0111 -0.2586  0.4443
  672SOL     hw 2687   7.112   1.910   1.655  0.2464  0.2940 -0.1661
  672SOL     vw 2688   7.096   1.863   1.583 -0.2189  0.1113  0.0599
  673SOL     ow 2689   6.758   1.003   1.873 -0.0695 -0.5807 -0.1611
  673SOL     hw 2690   6.728   1.094   1.883 -2.1641 -1.0663 -1.3519
  673SOL     hw 2691   6.823   1.007   1.803 -0.7663 -0.1004 -0.7931
  673SOL     vw 2692   6.762   1.016   1.865 -0.4380 -0.5814 -0.4016
  674SOL     ow 2693   2.300   5.731   0.976 -0.1648 -0.0714  0.7103
  674SOL     hw 2694   2.368   5.668   0.950 -0.4155  0.1877 -0.6196
  674SOL     hw 2695   2.344   5.816   0.974 -0.3340  0.0137  0.5599
  674SOL     vw 2696   2.315   5.734   0.972 -0.2201 -0.0260  0.5150
  675SOL     ow 2697   2.863   4.296   4.260 -0.2139 -0.1448 -0.3134
  675SOL     hw 2698   2.923   4.322   4.329 -1.1446 -0.4091  0.6229
  675SOL     hw 2699   2.895   4.340   4.182  1.9463 -1.3061 -0.1434
  675SOL     vw 2700   2.875   4.305   4.259 -0.0519 -0.3326 -0.1674
  676SOL     ow 2701   0.197   4.822   2.771 -0.4842  0.2372  0.3994
  676SOL     hw 2702   0.258   4.755   2.741  0.4198  2.0548 -2.3178
  676SOL     hw 2703   0.156   4.785   2.849  2.3185 -2.0616  0.9702
  676SOL     vw 2704   0.200   4.808   2.777  0.0049  0.1740  0.1162
  677SOL     ow 2705   4.534   2.381   5.543  0.0745 -0.1255  0.2585
  677SOL     hw 2706   4.547   2.312   5.608 -0.8797 -0.6306 -0.0677
  677SOL     hw 2707   4.499   2.336   5.466 -1.7627  0.8699  0.4592
  677SOL     vw 2708   4.531   2.366   5.541 -0.2937 -0.0609  0.2422
  678SOL     ow 2709   5.299   2.177   2.460  0.2338  0.3283 -0.8610
  678SOL     hw 2710   5.309   2.112   2.529  0.6294 -0.7488 -1.9050
  678SOL     hw 2711   5.381   2.227   2.462  1.1476 -1.0437 -1.8663
  678SOL     vw 2712   5.311   2.175   2.469  0.4063  0.0051 -1.1313
  679SOL     ow 2713   1.195   5.968   7.213  0.4160  0.0449 -0.0104
  679SOL     hw 2714   1.288   5.959   7.231 -0.1623 -2.2343  2.4810
  679SOL     hw 2715   1.171   5.885   7.170 -1.0483 -1.1507  2.8360
  679SOL     vw 2716   1.204   5.956   7.210  0.1465 -0.4134  0.6938
  680SOL     ow 2717   0.240   6.858   1.916 -0.2266 -0.1298 -0.3704
  680SOL     hw 2718   0.274   6.904   1.839  0.9124  0.6236  0.5461
  680SOL     hw 2719   0.254   6.765   1.896  1.4140  0.1165 -0.4838
  680SOL     vw 2720   0.246   6.852   1.903  0.1401  0.0021 -0.2645
  681SOL     ow 2721   0.399   2.902   1.868  0.2397 -0.2649 -0.2381
  681SOL     hw 2722   0.472   2.840   1.878  0.2359 -0.0746  1.2211
  681SOL     hw 2723   0.442   2.987   1.857  0.2304 -0.3299 -0.8378
  681SOL     vw 2724   0.414   2.905   1.868  0.2380 -0.2483 -0.1248
  682SOL     ow 2725   2.499   0.203   2.857 -0.2842 -0.3602  0.1738
  682SOL     hw 2726   2.565   0.139   2.831  1.5440  1.5470 -0.1333
  682SOL     hw 2727   2.547   0.265   2.912 -2.7328 -1.0744  3.4028
  682SOL     vw 2728   2.514   0.203   2.861 -0.3661 -0.2028  0.5592
  683SOL     ow 2729   6.922   1.771   2.223 -0.4430  0.0075  0.4984
  683SOL     hw 2730   7.005   1.756   2.268 -0.2266 -1.7977 -0.3999
  683SOL     hw 2731   6.855   1.755   2.290 -0.0924 -1.0053  0.6237
  683SOL     vw 2732   6.924   1.767   2.238 -0.3681 -0.3642  0.3964
  684SOL     ow 2733   4.460   1.791   0.883 -0.2482  0.4650 -0.0273
  684SOL     hw 2734   4.535   1.770   0.938  1.2240  0.6397 -1.8443
  684SOL     hw 2735   4.406   1.711   0.883  1.0987 -0.4725 -0.4507
  684SOL     vw 2736   4.463   1.778   0.890  0.1240  0.3643 -0.3229
  685SOL     ow 2737   6.203   1.334   5.937  0.1642  0.3778  0.2405
  685SOL     hw 2738   6.248   1.353   6.020  0.7969  1.2273 -0.2755
  685SOL     hw 2739   6.162   1.417   5.913  0.0900  0.1747 -0.3542
  685SOL     vw 2740   6.204   1.347   5.945  0.2382  0.4631  0.0939
  686SOL     ow 2741   4.856   3.935   6.016  0.7307 -0.6122 -0.2988
  686SOL     hw 2742   4.943   3.934   6.056  0.2758  0.2169  0.7681
  686SOL     hw 2743   4.799   3.969   6.085 -0.0176  1.4354 -1.8469
  686SOL     vw 2744   4.860   3.939   6.030  0.5717 -0.2327 -0.3622
  687SOL     ow 2745   4.244   5.971   5.492 -0.0367  0.2907  0.1885
  687SOL     hw 2746   4.193   5.991   5.571 -0.7172 -0.4586 -0.0411
  687SOL     hw 2747   4.265   5.878   5.500  0.6026  0.4059 -0.1192
  687SOL     vw 2748   4.240   5.962   5.504 -0.0424  0.2072  0.1175
  688SOL     ow 2749   5.413   1.137   0.558 -0.1072 -0.0235 -0.0368
  688SOL     hw 2750   5.439   1.228   0.543  0.5103 -0.3119 -0.7741
  688SOL     hw 2751   5.323   1.144   0.592  0.2689  0.8940  0.8201
  688SOL     vw 2752   5.404   1.150   0.560  0.0238  0.0595 -0.0210
  689SOL     ow 2753   0.421   6.947   5.211  0.1269 -0.3158  0.5968
  689SOL     hw 2754   0.352   6.882   5.194 -0.2794  0.3278 -0.3083
  689SOL     hw 2755   0.375   7.031   5.214  0.8052  0.0712  0.4755
  689SOL     vw 2756   0.406   6.949   5.209  0.1628 -0.1800  0.4613
  690SOL     ow 2757   2.785   2.814   6.888 -0.4763 -0.1399  0.2405
  690SOL     hw 2758   2.823   2.890   6.845  0.0816 -0.1296  0.7321
  690SOL     hw 2759   2.692   2.833   6.894 -0.2964  0.6462  0.6310
  690SOL     vw 2760   2.778   2.826   6.883 -0.3790 -0.0347  0.3569
  691SOL     ow 2761   4.793   4.932   1.132  0.3080 -0.3154 -0.0482
  691SOL     hw 2762   4.763   5.012   1.176  3.1533  1.7416 -1.4786
  691SOL     hw 2763   4.724   4.868   1.148 -2.3190  2.5171  0.9141
  691SOL     vw 2764   4.780   4.934   1.140  0.3369  0.3297 -0.1100
  692SOL     ow 2765   0.122   4.588   4.651 -0.4806  0.2744  0.6896
  692SOL     hw 2766   0.071   4.524   4.601 -2.9293  1.8522  0.9994
  692SOL     hw 2767   0.185   4.623   4.588  1.0981 -2.4878  0.5640
  692SOL     vw 2768   0.124   4.584   4.636 -0.5954  0.1180  0.7138
  693SOL     ow 2769   4.834   3.253   6.092 -0.0410  0.7663  0.2746
  693SOL     hw 2770   4.751   3.206   6.098  0.6636 -1.0486 -2.4108
  693SOL     hw 2771   4.845   3.270   5.998  2.2516  1.6490  0.6428
  693SOL     vw 2772   4.824   3.249   6.080  0.3545  0.6433 -0.0310
  694SOL     ow 2773   4.727   6.311   2.975 -0.1728  0.0752  0.2241
  694SOL     hw 2774   4.810   6.352   2.950 -0.1544  0.4430  0.8504
  694SOL     hw 2775   4.710   6.246   2.907  0.9837 -0.4982  0.4568
  694SOL     vw 2776   4.736   6.308   2.963 -0.0176  0.0479  0.3374
  695SOL     ow 2777   6.863   2.280   0.946 -0.5270 -0.9851 -0.4944
  695SOL     hw 2778   6.885   2.286   0.853 -0.9549  1.3346 -0.4941
  695SOL     hw 2779   6.909   2.353   0.987 -3.0336  0.1376  0.5170
  695SOL     vw 2780   6.872   2.290   0.939 -0.9143 -0.5310 -0.3609
  696SOL     ow 2781   5.398   1.002   2.734 -0.0671 -0.0901 -0.0070
  696SOL     hw 2782   5.397   1.092   2.702  0.8387 -0.5017 -1.2806
  696SOL     hw 2783   5.337   1.002   2.808  0.3760  1.6861  0.3952
  696SOL     vw 2784   5.390   1.014   2.739  0.1109  0.0901 -0.1220
  697SOL     ow 2785   4.956   2.501   3.113 -0.5800  0.5156 -0.1523
  697SOL     hw 2786   4.922   2.515   3.201  0.4153 -0.1870  0.3537
  697SOL     hw 2787   5.048   2.479   3.125 -0.6714 -0.6197 -1.2970
  697SOL     vw 2788   4.964   2.500   3.126 -0.4606  0.2732 -0.2366
  698SOL     ow 2789   1.378   1.430   2.215 -0.2102  0.5532  0.0412
  698SOL     hw 2790   1.310   1.445   2.281 -1.0002  0.9721 -0.8576
  698SOL     hw 2791   1.413   1.517   2.197 -0.5034  0.5325 -0.6290
  698SOL     vw 2792   1.374   1.443   2.222 -0.3531  0.6058 -0.1658
  699SOL     ow 2793   4.016   6.404   2.443 -0.4942 -0.8303  0.3446
  699SOL     hw 2794   3.983   6.481   2.489 -0.1509 -1.3728  1.5465
  699SOL     hw 2795   3.983   6.413   2.354 -0.9296  0.4132  0.6153
  699SOL     vw 2796   4.007   6.415   2.438 -0.5064 -0.7377  0.5388
  700SOL     ow 2797   3.426   6.637   4.002  0.1381 -0.3570 -0.3936
  700SOL     hw 2798   3.426   6.600   3.914  1.1292  0.4898 -0.7674
  700SOL     hw 2799   3.458   6.726   3.991 -1.4644  0.3766  0.5987
  700SOL     vw 2800   3.430   6.644   3.989  0.0573 -0.1485 -0.3121
  701SOL     ow 2801   1.492   2.921   1.207  0.1098 -0.0267 -0.0185
  701SOL     hw 2802   1.490   2.828   1.185 -1.0801 -0.3100  1.2076
  701SOL     hw 2803   1.405   2.953   1.183  0.7126  0.9323 -1.0185
  701SOL     vw 2804   1.480   2.913   1.201  0.0322  0.0626  0.0114
  702SOL     ow 2805   6.070   2.086   0.270  0.4395 -0.2659  0.2206
  702SOL     hw 2806   5.993   2.131   0.235  0.3964  0.8042  1.6143
  702SOL     hw 2807   6.141   2.111   0.211  0.1273  0.4563  0.1468
  702SOL     vw 2808   6.069   2.095   0.257  0.3924 -0.0294  0.3948
  703SOL     ow 2809   3.741   4.786   6.496  0.4852 -0.0991  0.1299
  703SOL     hw 2810   3.799   4.729   6.546 -0.1020  0.0296  0.9839
  703SOL     hw 2811   3.654   4.749   6.508  0.2730  0.2156 -0.4013
  703SOL     vw 2812   3.737   4.774   6.504  0.3797 -0.0408  0.1726
  704SOL     ow 2813   2.915   2.749   2.989 -0.1323 -0.3610  0.1389
  704SOL     hw 2814   2.837   2.712   2.947 -2.4925  2.0102  2.0869
  704SOL     hw 2815   2.910   2.718   3.079  2.9216 -2.5163 -0.2730
  704SOL     vw 2816   2.904   2.740   2.995 -0.0408 -0.3324  0.3417
  705SOL     ow 2817   5.533   6.965   4.444 -0.1946  1.1749 -0.0874
  705SOL     hw 2818   5.571   6.893   4.395 -0.6415  2.0657 -1.8026
  705SOL     hw 2819   5.578   6.962   4.529  0.8867 -0.1564 -0.6659
  705SOL     vw 2820   5.544   6.955   4.449 -0.1109  1.1165 -0.3901
  706SOL     ow 2821   6.765   0.013   4.523  0.0466  1.1346 -0.0232
  706SOL     hw 2822   6.756  -0.018   4.613 -2.1522  0.3682 -0.4536
  706SOL     hw 2823   6.808   0.098   4.531  3.9111 -0.7427  1.3702
  706SOL     vw 2824   6.769   0.020   4.536  0.2661  0.7858  0.1040
  707SOL     ow 2825   1.593   7.101   1.245 -0.2039  0.1107  0.4163
  707SOL     hw 2826   1.601   7.164   1.174  0.4858  0.6459  0.9473
  707SOL     hw 2827   1.571   7.154   1.322  2.9516  0.1670  1.4615
  707SOL     vw 2828   1.591   7.116   1.246  0.3034  0.1891  0.6242
  708SOL     ow 2829   4.901   6.324   0.517 -0.4982 -0.8241  0.1208
  708SOL     hw 2830   4.976   6.271   0.490 -1.4364 -1.5408 -1.2309
  708SOL     hw 2831   4.940   6.404   0.552  0.9141 -0.7134 -1.5223
  708SOL     vw 2832   4.916   6.328   0.518 -0.4356 -0.9041 -0.2743
  709SOL     ow 2833   6.929   0.678   0.928  0.2270 -0.2393 -0.4557
  709SOL     hw 2834   6.954   0.636   1.011  0.0889 -2.0914 -1.3080
  709SOL     hw 2835   6.983   0.635   0.862 -1.0773 -0.2324 -1.5838
  709SOL     vw 2836   6.939   0.667   0.931  0.0367 -0.4827 -0.7170
  710SOL     ow 2837   5.347   4.711   2.963 -0.3241  0.4783  0.2963
  710SOL     hw 2838   5.343   4.616   2.975 -0.1697  0.7172  2.9874
  710SOL     hw 2839   5.398   4.742   3.038 -0.9108  2.7392 -0.1641
  710SOL     vw 2840   5.353   4.702   2.975 -0.3812  0.8082  0.5907
  711SOL     ow 2841   3.717   5.496   2.373 -0.4685 -0.9350  0.2872
  711SOL     hw 2842   3.788   5.444   2.335 -0.4320 -1.2735  0.8047
  711SOL     hw 2843   3.641   5.439   2.368 -0.9514 -0.1971 -1.1962
  711SOL     vw 2844   3.717   5.482   2.367 -0.5275 -0.8824  0.1599
  712SOL     ow 2845   6.378   2.408   6.556  0.1477  0.0914 -0.1985
  712SOL     hw 2846   6.346   2.480   6.502  1.0743  0.6552 -0.0143
  712SOL     hw 2847   6.348   2.429   6.644  0.4465  0.2753 -0.1389
  712SOL     vw 2848   6.369   2.420   6.560  0.3095  0.1901 -0.1662
  713SOL     ow 2849   4.989   6.635   3.297 -0.0715  0.5875  0.5497
  713SOL     hw 2850   5.065   6.687   3.322  1.9189 -0.2316 -3.0803
  713SOL     hw 2851   5.025   6.563   3.245 -3.2781 -0.2825 -0.7337
  713SOL     vw 2852   5.004   6.632   3.294 -0.2317  0.3648 -0.0986
  714SOL     ow 2853   0.311   7.293   6.646  0.0127  0.4724  0.4472
  714SOL     hw 2854   0.369   7.359   6.609 -0.1704  0.5197  0.2395
  714SOL     hw 2855   0.332   7.291   6.739  3.0764 -2.2133 -0.1169
  714SOL     vw 2856   0.321   7.301   6.653  0.3927  0.1242  0.3455
  715SOL     ow 2857   6.724   7.261   5.439  0.6192  0.4891  0.0284
  715SOL     hw 2858   6.793   7.326   5.420  1.6749 -0.2347  1.2058
  715SOL     hw 2859   6.690   7.236   5.353  0.5196  2.2358 -0.4790
  715SOL     vw 2860   6.729   7.267   5.425  0.7453  0.6242  0.1166
  716SOL     ow 2861   2.822   3.680   3.870 -0.2108  0.4015  0.4926
  716SOL     hw 2862   2.841   3.718   3.784 -4.3549  0.8408 -0.4484
  716SOL     hw 2863   2.768   3.603   3.851  0.9044 -1.0203  2.6875
  716SOL     vw 2864   2.817   3.675   3.857 -0.6106  0.2717  0.6580
  717SOL     ow 2865   5.861   3.335   2.243  0.4809 -0.0452 -0.1927
  717SOL     hw 2866   5.942   3.308   2.201 -0.0685  0.1745 -1.4292
  717SOL     hw 2867   5.869   3.429   2.255  1.3084 -0.3044  1.7425
  717SOL     vw 2868   5.873   3.344   2.239  0.5176 -0.0503 -0.1005
  718SOL     ow 2869   4.031   3.570   5.084 -0.5585 -1.0682  0.2366
  718SOL     hw 2870   3.986   3.515   5.148 -1.4077 -0.4882  0.1561
  718SOL     hw 2871   4.028   3.520   5.002  1.7668 -2.4480  0.9024
  718SOL     vw 2872   4.025   3.557   5.081 -0.3638 -1.1736  0.3138
  719SOL     ow 2873   0.995   2.915   0.997  0.2711  0.3384 -0.1567
  719SOL     hw 2874   0.944   2.840   0.967  0.6860  0.4288 -1.1102
  719SOL     hw 2875   1.010   2.967   0.918  3.8085 -0.8208 -0.4349
  719SOL     vw 2876   0.990   2.912   0.982  0.7925  0.1974 -0.3192
  720SOL     ow 2877   2.411   4.386   7.483  0.0222 -0.7136 -0.3511
  720SOL     hw 2878   2.427   4.479   7.496  0.2189 -1.0156  1.9243
  720SOL     hw 2879   2.439   4.369   7.393  1.6609  1.0704 -0.2352
  720SOL     vw 2880   2.417   4.396   7.473  0.2644 -0.5181 -0.0355
  721SOL     ow 2881   2.447   4.191   4.611 -0.8114 -0.7490  0.2404
  721SOL     hw 2882   2.472   4.101   4.591  1.8925 -0.3151  1.1587
  721SOL     hw 2883   2.483   4.243   4.538 -2.1772 -0.3737 -0.1869
  721SOL     vw 2884   2.455   4.186   4.599 -0.6348 -0.6423  0.3052
  722SOL     ow 2885   2.686   0.419   3.673  0.1540  0.2462  0.1937
  722SOL     hw 2886   2.628   0.466   3.733  1.1584  1.8340 -0.0435
  722SOL     hw 2887   2.634   0.344   3.644 -1.4719  1.1591  0.6377
  722SOL     vw 2888   2.671   0.415   3.677  0.0720  0.5761  0.2209
  723SOL     ow 2889   6.727   0.559   2.661 -0.6412  0.3130  0.3567
  723SOL     hw 2890   6.818   0.572   2.689 -0.6658  1.1370  0.0966
  723SOL     hw 2891   6.706   0.639   2.613 -2.2071  1.1279  2.2590
  723SOL     vw 2892   6.736   0.572   2.658 -0.8512  0.5293  0.5735
  724SOL     ow 2893   4.937   6.285   4.435 -0.2376  0.3948  0.7002
  724SOL     hw 2894   5.016   6.240   4.405 -0.9698 -1.4427  1.3556
  724SOL     hw 2895   4.911   6.341   4.362 -0.2827 -1.6541 -0.9250
  724SOL     vw 2896   4.944   6.286   4.422 -0.3402 -0.1178  0.5722
  725SOL     ow 2897   4.106   1.232   1.586 -0.2152 -0.2822 -0.3601
  725SOL     hw 2898   4.054   1.178   1.645 -0.8149 -1.1046 -1.6092
  725SOL     hw 2899   4.168   1.172   1.545  1.8222  0.6784  1.1116
  725SOL     vw 2900   4.107   1.217   1.589 -0.0257 -0.2640 -0.3307
  726SOL     ow 2901   1.640   6.633   4.736 -0.0407 -0.3348 -0.2618
  726SOL     hw 2902   1.729   6.624   4.700  0.3221 -0.2527  0.6062
  726SOL     hw 2903   1.592   6.559   4.699  0.4585 -0.5279 -0.5359
  726SOL     vw 2904   1.646   6.622   4.726  0.0730 -0.3493 -0.1836
  727SOL     ow 2905   4.794   7.190   3.969  0.7544  0.6809  0.0134
  727SOL     hw 2906   4.865   7.128   3.985 -1.0117 -1.4757 -0.1607
  727SOL     hw 2907   4.829   7.248   3.901  2.2514 -0.4651 -0.2469
  727SOL     vw 2908   4.808   7.189   3.962  0.7188  0.2453 -0.0439
  728SOL     ow 2909   7.358   7.024   5.372  0.4037  0.7024 -0.1317
  728SOL     hw 2910   7.288   6.970   5.408  0.9933  0.0222  0.0164
  728SOL     hw 2911   7.332   7.114   5.393 -1.0008  0.5530 -1.0971
  728SOL     vw 2912   7.345   7.029   5.380  0.2964  0.5927 -0.2394
  729SOL     ow 2913   3.804   4.341   6.022 -0.0763  0.3492 -0.4745
  729SOL     hw 2914   3.870   4.398   5.984  0.2648 -0.2291 -0.7749
  729SOL     hw 2915   3.853   4.282   6.080 -0.0767 -1.1325 -1.9039
  729SOL     vw 2916   3.819   4.340   6.025 -0.0315  0.0775 -0.7026
  730SOL     ow 2917   6.494   6.684   3.928 -0.1027  0.3304 -0.4640
  730SOL     hw 2918   6.589   6.677   3.917 -0.4896 -0.7078 -4.4481
  730SOL     hw 2919   6.475   6.629   4.004  2.4748  0.8716  0.6807
  730SOL     vw 2920   6.504   6.676   3.937  0.1864  0.2649 -0.8386
  731SOL     ow 2921   3.708   0.492   4.505 -0.0601 -0.0299 -0.6027
  731SOL     hw 2922   3.748   0.452   4.582 -0.7664  2.1885  1.0394
  731SOL     hw 2923   3.614   0.482   4.520 -0.1978  0.2609 -1.2610
  731SOL     vw 2924   3.701   0.486   4.517 -0.1714  0.3012 -0.4730
  732SOL     ow 2925   2.853   2.370   6.750  0.6289  0.2075  0.4468
  732SOL     hw 2926   2.923   2.430   6.777  0.6522 -0.3697  1.8035
  732SOL     hw 2927   2.897   2.285   6.744 -0.1347 -0.3923  2.5018
  732SOL     vw 2928   2.868   2.366   6.753  0.5312  0.0522  0.8972
  733SOL     ow 2929   2.523   0.915   1.199 -0.4328  0.2028  0.3634
  733SOL     hw 2930   2.445   0.880   1.155 -1.8499  2.4832  0.9203
  733SOL     hw 2931   2.528   0.866   1.281 -0.7032 -0.6228 -0.1006
  733SOL     vw 2932   2.513   0.904   1.204 -0.6554  0.3947  0.3757
  734SOL     ow 2933   5.684   1.877   6.611 -0.6511 -0.4349  0.3486
  734SOL     hw 2934   5.679   1.842   6.700 -0.5953  3.5099  2.1318
  734SOL     hw 2935   5.776   1.870   6.587 -0.0211  1.1973  2.0117
  734SOL     vw 2936   5.695   1.872   6.620 -0.5605  0.3009  0.8035
  735SOL     ow 2937   3.377   3.040   4.343 -0.5083 -0.3021  0.1816
  735SOL     hw 2938   3.437   3.061   4.415  2.2844  0.7024 -2.2244
  735SOL     hw 2939   3.392   2.947   4.326 -0.0330 -0.1892 -0.0361
  735SOL     vw 2940   3.387   3.030   4.350 -0.0771 -0.1547 -0.1647
  736SOL     ow 2941   1.692   1.298   3.572  0.0300 -0.9949  0.5806
  736SOL     hw 2942   1.771   1.352   3.569 -1.0965  0.6945 -0.1353
  736SOL     hw 2943   1.718   1.216   3.530  0.9725  0.1582 -1.2046
  736SOL     vw 2944   1.706   1.294   3.566  0.0057 -0.6199  0.2507
  737SOL     ow 2945   6.264   0.181   2.085  0.4064 -0.2655  0.1917
  737SOL     hw 2946   6.184   0.177   2.032  0.1654 -2.6520  0.6452
  737SOL     hw 2947   6.334   0.161   2.023  0.3015 -1.3659  0.4188
  737SOL     vw 2948   6.262   0.178   2.070  0.3607 -0.7255  0.2816
  738SOL     ow 2949   3.989   4.009   0.414 -0.8225 -0.0737  0.2602
  738SOL     hw 2950   4.016   3.957   0.489 -1.4734  0.3710  0.8135
  738SOL     hw 2951   3.933   4.078   0.451  1.3371  2.0515 -0.2165
  738SOL     vw 2952   3.985   4.011   0.429 -0.6235  0.2656  0.2703
  739SOL     ow 2953   3.607   3.249   7.381 -0.1729  0.2120  0.0840
  739SOL     hw 2954   3.623   3.337   7.349 -1.3520  0.6355  0.6106
  739SOL     hw 2955   3.512   3.243   7.391 -0.0030 -0.5717  1.5431
  739SOL     vw 2956   3.597   3.259   7.378 -0.3061  0.1646  0.3462
  740SOL     ow 2957   2.038   2.791   3.701 -0.5630 -0.7373  0.4811
  740SOL     hw 2958   2.026   2.886   3.711  1.9210  0.1182 -2.8285
  740SOL     hw 2959   2.108   2.770   3.763 -0.0835 -0.0558  0.1860
  740SOL     vw 2960   2.046   2.801   3.711 -0.1719 -0.5345  0.0056
  741SOL     ow 2961   5.195   7.003   2.531  0.7468 -0.1077  0.3041
  741SOL     hw 2962   5.215   7.089   2.569 -1.6463  2.2886 -3.2260
  741SOL     hw 2963   5.109   6.980   2.567 -0.3941  0.9865 -1.5487
  741SOL     vw 2964   5.186   7.011   2.541  0.2806  0.3526 -0.4061
  742SOL     ow 2965   3.618   2.638   1.831 -0.4742  0.0173  0.5590
  742SOL     hw 2966   3.623   2.654   1.737  3.6223 -1.2873  0.3751
  742SOL     hw 2967   3.626   2.725   1.870 -1.0399  0.4680 -0.2897
  742SOL     vw 2968   3.620   2.652   1.824 -0.0083 -0.0955  0.4228
  743SOL     ow 2969   5.737   0.726   5.163 -0.1860  0.0357  0.1801
  743SOL     hw 2970   5.663   0.666   5.171  2.6315 -3.6286  1.5267
  743SOL     hw 2971   5.708   0.807   5.206 -3.9402 -0.4798 -1.0544
  743SOL     vw 2972   5.724   0.729   5.170 -0.3092 -0.5157  0.1948
  744SOL     ow 2973   1.853   3.210   1.173 -0.3567 -0.1466 -0.4598
  744SOL     hw 2974   1.830   3.285   1.119  0.0492  0.1515 -0.2207
  744SOL     hw 2975   1.806   3.226   1.256  0.1611  0.1236 -0.2128
  744SOL     vw 2976   1.844   3.222   1.177 -0.2348 -0.0716 -0.3957
  745SOL     ow 2977   1.895   7.310   6.422 -0.3950  0.0921 -0.3008
  745SOL     hw 2978   1.802   7.306   6.446 -0.7697  2.5555 -1.0450
  745SOL     hw 2979   1.897   7.283   6.330 -0.0573 -1.7666  0.2104
  745SOL     vw 2980   1.883   7.306   6.413 -0.3999  0.1721 -0.3314
  746SOL     ow 2981   1.738   5.876   1.354 -0.5522 -0.1841  0.6014
  746SOL     hw 2982   1.733   5.952   1.412 -1.5227 -0.0998  0.4307
  746SOL     hw 2983   1.822   5.836   1.373 -1.1017 -0.5156  2.5260
  746SOL     vw 2984   1.748   5.881   1.364 -0.7527 -0.2165  0.8328
  747SOL     ow 2985   6.080   6.262   0.928  0.3697 -0.5160 -0.6643
  747SOL     hw 2986   6.149   6.256   0.995 -1.1052 -0.8498  0.8918
  747SOL     hw 2987   6.091   6.350   0.892  1.2862 -0.3713 -0.0936
  747SOL     vw 2988   6.091   6.273   0.932  0.2961 -0.5407 -0.3837
  748SOL     ow 2989   0.107   5.433   6.049 -0.1468 -0.3197 -0.0512
  748SOL     hw 2990   0.169   5.458   6.117 -0.6963 -1.1089  0.7634
  748SOL     hw 2991   0.148   5.462   5.967 -0.1942  2.0963  0.7063
  748SOL     vw 2992   0.120   5.440   6.047 -0.2256 -0.1051  0.1562
  749SOL     ow 2993   7.458   4.999   2.429 -0.4403 -0.8858  0.0854
  749SOL     hw 2994   7.490   5.017   2.340 -0.5000  0.8354  0.3681
  749SOL     hw 2995   7.489   4.911   2.449  3.1943  0.1782 -0.1030
  749SOL     vw 2996   7.467   4.990   2.420  0.0312 -0.5183  0.0979
  750SOL     ow 2997   4.273   6.397   4.898  0.0218  0.0456 -0.2867
  750SOL     hw 2998   4.321   6.349   4.831 -0.6489  0.8619 -1.3832
  750SOL     hw 2999   4.295   6.489   4.882 -0.9349  0.3295 -0.0307
  750SOL     vw 3000   4.282   6.403   4.887 -0.1929  0.1907 -0.3977
  751SOL     ow 3001   4.225   6.118   5.740  0.5050 -0.4294 -0.3879
  751SOL     hw 3002   4.272   6.201   5.730  0.9129 -0.4546  1.1538
  751SOL     hw 3003   4.255   6.082   5.823 -0.8430 -1.3581 -0.2589
  751SOL     vw 3004   4.235   6.124   5.750  0.3812 -0.5553 -0.1674
  752SOL     ow 3005   6.196   1.958   2.382 -0.0271 -0.7572 -0.9766
  752SOL     hw 3006   6.201   2.052   2.396  0.5924 -0.9178 -0.0348
  752SOL     hw 3007   6.158   1.948   2.294  0.7323  0.3808 -1.4507
  752SOL     vw 3008   6.192   1.969   2.372  0.1547 -0.6283 -0.9148
  753SOL     ow 3009   0.079   2.590   6.990 -0.3396  0.2061 -0.3023
  753SOL     hw 3010   0.127   2.562   7.069  1.8282  0.9691 -1.2545
  753SOL     hw 3011   0.063   2.508   6.943 -1.7073 -0.2685  0.8998
  753SOL     vw 3012   0.083   2.575   6.994 -0.2340  0.2441 -0.2694
  754SOL     ow 3013   2.070   0.865   4.713 -0.2573  0.5425  0.7770
  754SOL     hw 3014   2.049   0.938   4.771 -1.1612  0.0907  1.0332
  754SOL     hw 3015   2.143   0.897   4.660 -0.0381  1.3009  1.5115
  754SOL     vw 3016   2.077   0.879   4.713 -0.3476  0.5830  0.9074
  755SOL     ow 3017   4.415   0.360   6.796 -0.0883 -0.6155  0.0146
  755SOL     hw 3018   4.427   0.383   6.888 -0.7729 -2.6976  0.6611
  755SOL     hw 3019   4.470   0.284   6.782  0.3284 -0.0884 -1.4422
  755SOL     vw 3020   4.424   0.353   6.806 -0.1235 -0.8207 -0.0925
  756SOL     ow 3021   1.429   4.484   0.376  0.3098 -0.3591 -0.2012
  756SOL     hw 3022   1.365   4.495   0.306 -0.4258  0.7888  0.6158
  756SOL     hw 3023   1.390   4.419   0.435 -0.2193  0.4894  0.4018
  756SOL     vw 3024   1.415   4.477   0.375  0.1429 -0.0958 -0.0139
  757SOL     ow 3025   1.790   1.018   1.738 -0.3276 -0.1011  0.4863
  757SOL     hw 3026   1.707   0.969   1.745 -0.2276 -0.2955  0.3246
  757SOL     hw 3027   1.805   1.051   1.826  0.1570 -1.2814  0.8675
  757SOL     vw 3028   1.781   1.016   1.751 -0.2505 -0.2825  0.5152
  758SOL     ow 3029   2.383   3.619   4.343  0.1109  0.3849  0.0378
  758SOL     hw 3030   2.342   3.586   4.263 -0.0488 -3.0493  1.3930
  758SOL     hw 3031   2.315   3.610   4.410  1.1353  0.5238  1.1231
  758SOL     vw 3032   2.368   3.613   4.342  0.2249 -0.0497  0.3598
  759SOL     ow 3033   4.708   5.161   5.872 -0.0463  0.3798  0.4092
  759SOL     hw 3034   4.666   5.094   5.925  0.3468 -0.9156 -0.8691
  759SOL     hw 3035   4.776   5.197   5.929 -0.7803  0.2895  1.3824
  759SOL     vw 3036   4.711   5.157   5.887 -0.0913  0.1969  0.3691
  760SOL     ow 3037   7.098   4.601   1.285  0.1130 -0.3575 -0.1311
  760SOL     hw 3038   7.008   4.605   1.318  0.3466  0.3067  0.4645
  760SOL     hw 3039   7.089   4.607   1.189 -0.5082 -1.0842 -0.1262
  760SOL     vw 3040   7.085   4.603   1.276  0.0622 -0.3655 -0.0519
  761SOL     ow 3041   3.036   0.132   2.450 -0.0174 -0.1402  0.3595
  761SOL     hw 3042   2.991   0.208   2.412  0.6970  0.8281  1.3714
  761SOL     hw 3043   3.041   0.151   2.543 -0.0547 -1.5740  0.6751
  761SOL     vw 3044   3.031   0.145   2.457  0.0720 -0.2016  0.5347
  762SOL     ow 3045   2.952   3.073   7.337  0.3117  0.3934  1.0607
  762SOL     hw 3046   2.885   3.104   7.275  0.7313  1.6704  1.2231
  762SOL     hw 3047   2.924   3.108   7.422  0.0530 -0.8634  1.5230
  762SOL     vw 3048   2.939   3.081   7.340  0.3330  0.3960  1.1430
  763SOL     ow 3049   7.477   4.573   6.876  0.1057  0.3997 -0.2156
  763SOL     hw 3050   7.550   4.546   6.931 -0.4316 -1.1573 -0.2281
  763SOL     hw 3051   7.400   4.560   6.931 -0.4635 -1.4030 -1.3712
  763SOL     vw 3052   7.476   4.568   6.890 -0.0403 -0.0436 -0.3698
  764SOL     ow 3053   5.956   1.781   1.961  0.7263  0.7255 -0.1167
  764SOL     hw 3054   5.950   1.819   1.874  0.8745 -2.4687 -1.6662
  764SOL     hw 3055   5.865   1.770   1.989  0.5779 -0.5523 -1.0313
  764SOL     vw 3056   5.943   1.785   1.953  0.7265  0.1354 -0.4418
  765SOL     ow 3057   6.181   0.183   5.854  0.7585  0.4343  0.3628
  765SOL     hw 3058   6.122   0.222   5.919  0.2102  0.0791  0.0902
  765SOL     hw 3059   6.162   0.231   5.773 -1.9119 -2.0958 -0.6886
  765SOL     vw 3060   6.171   0.195   5.852  0.3338  0.0536  0.1881
  766SOL     ow 3061   4.778   0.774   2.973 -0.9104 -0.3677 -0.1819
  766SOL     hw 3062   4.745   0.787   3.062  2.9530  1.4885  1.2218
  766SOL     hw 3063   4.818   0.687   2.974  0.9358  0.4386  0.6691
  766SOL     vw 3064   4.779   0.764   2.985 -0.1571 -0.0165  0.1156
  767SOL     ow 3065   6.417   0.293   2.570 -0.4862 -0.0428 -0.1313
  767SOL     hw 3066   6.344   0.286   2.632  0.4381  0.0782  1.0105
  767SOL     hw 3067   6.388   0.357   2.506 -0.6018  1.5898  1.4783
  767SOL     vw 3068   6.403   0.300   2.570 -0.3793  0.1886  0.2317
  768SOL     ow 3069   0.891   6.986   0.052  0.1742  0.0575  0.2661
  768SOL     hw 3070   0.935   6.905   0.023  2.2050  0.1745  2.6367
  768SOL     hw 3071   0.960   7.052   0.050 -0.9924  1.2906  0.1257
  768SOL     vw 3072   0.906   6.984   0.048  0.2882  0.2356  0.5600
  769SOL     ow 3073   1.510   3.371   5.421 -0.3513 -0.3456  0.0410
  769SOL     hw 3074   1.551   3.350   5.337 -0.1783  0.8481 -0.1842
  769SOL     hw 3075   1.462   3.291   5.444 -1.3147 -0.3372 -1.7197
  769SOL     vw 3076   1.509   3.358   5.413 -0.4556 -0.1870 -0.2208
  770SOL     ow 3077   3.443   4.503   4.603  0.0762  0.2862  0.5297
  770SOL     hw 3078   3.518   4.493   4.660  2.0218  0.1561 -1.8724
  770SOL     hw 3079   3.480   4.503   4.514 -2.6879  0.9105 -0.7422
  770SOL     vw 3080   3.458   4.502   4.599 -0.0317  0.3512  0.0453
  771SOL     ow 3081   2.043   0.987   1.627 -0.1775 -0.5052 -0.6333
  771SOL     hw 3082   1.948   0.975   1.636 -0.4222 -0.2624 -2.4980
  771SOL     hw 3083   2.057   1.080   1.643 -0.5938 -0.0813 -2.5495
  771SOL     vw 3084   2.032   0.998   1.631 -0.2648 -0.4173 -1.1322
  772SOL     ow 3085   4.094   1.902   0.452 -0.4069  0.9087 -0.2648
  772SOL     hw 3086   4.131   1.989   0.440 -0.8071  1.0671 -0.3771
  772SOL     hw 3087   4.094   1.888   0.546  3.3669 -0.5984 -0.3207
  772SOL     vw 3088   4.099   1.911   0.463  0.0384  0.7307 -0.2870
  773SOL     ow 3089   7.368   2.679   6.929 -0.0143  0.2891  0.0341
  773SOL     hw 3090   7.454   2.637   6.932  0.0321  0.1454 -1.7957
  773SOL     hw 3091   7.357   2.703   6.837 -1.8829  0.4132  0.2576
  773SOL     vw 3092   7.378   2.676   6.917 -0.2549  0.2866 -0.1781
  774SOL     ow 3093   6.620   0.223   2.778 -0.5490  0.1023 -0.3153
  774SOL     hw 3094   6.622   0.309   2.820 -1.9673  0.3827 -0.7480
  774SOL     hw 3095   6.616   0.160   2.850 -0.9939  0.4815 -0.0023
  774SOL     vw 3096   6.620   0.226   2.793 -0.7949  0.1894 -0.3310
  775SOL     ow 3097   2.436   0.178   3.295  0.2545  0.1871 -0.7661
  775SOL     hw 3098   2.358   0.161   3.348  0.4945  1.4759  0.0357
  775SOL     hw 3099   2.486   0.096   3.298  0.1731  0.1739  0.8710
  775SOL     vw 3100   2.433   0.165   3.302  0.2755  0.3554 -0.4443
  776SOL     ow 3101   7.107   6.822   7.198  0.3614  0.3827  0.1310
  776SOL     hw 3102   7.183   6.822   7.256 -0.8529 -0.4753  1.8359
  776SOL     hw 3103   7.120   6.745   7.142 -0.0739 -0.8730  1.6663
  776SOL     vw 3104   7.119   6.812   7.198  0.1435  0.1037  0.5589
  777SOL     ow 3105   1.642   7.262   0.946 -0.3035  0.0699 -0.4127
  777SOL     hw 3106   1.672   7.346   0.982 -0.4662  0.6009 -1.4626
  777SOL     hw 3107   1.655   7.271   0.851 -1.3822 -0.6560 -0.6426
  777SOL     vw 3108   1.648   7.275   0.938 -0.4673  0.0443 -0.5815
  778SOL     ow 3109   0.783   5.313   4.900  0.2721 -0.3674  0.5558
  778SOL     hw 3110   0.785   5.219   4.916  3.1125 -0.3738  0.6036
  778SOL     hw 3111   0.768   5.321   4.806 -0.7366 -0.7967  0.6600
  778SOL     vw 3112   0.781   5.302   4.890  0.5137 -0.4246  0.5758
  779SOL     ow 3113   3.323   1.283   2.201 -0.5013  0.4601  0.0650
  779SOL     hw 3114   3.350   1.319   2.117  0.4254  0.2990  0.2801
  779SOL     hw 3115   3.229   1.273   2.194 -0.4553  0.6308 -0.8862
  779SOL     vw 3116   3.314   1.286   2.189 -0.3731  0.4613 -0.0319
  780SOL     ow 3117   6.434   1.299   2.638 -0.3115 -0.5141  0.4023
  780SOL     hw 3118   6.436   1.301   2.734  0.4419 -0.5779  0.3986
  780SOL     hw 3119   6.495   1.229   2.615 -2.2494 -2.1203 -0.0814
  780SOL     vw 3120   6.442   1.290   2.648 -0.4678 -0.7344  0.3381
  781SOL     ow 3121   0.785   4.672   5.630 -0.2630  0.3329  0.3815
  781SOL     hw 3122   0.712   4.735   5.622 -0.5038  0.3391  2.2230
  781SOL     hw 3123   0.825   4.672   5.543 -2.5202  0.2417 -0.7420
  781SOL     vw 3124   0.780   4.680   5.618 -0.5926  0.3219  0.4761
  782SOL     ow 3125   5.577   3.858   3.976  0.4183  0.4499  0.5175
  782SOL     hw 3126   5.641   3.795   4.009  0.8376  0.2726 -0.5930
  782SOL     hw 3127   5.508   3.859   4.041  0.1684 -1.5053  0.3363
  782SOL     vw 3128   5.577   3.850   3.989  0.4406  0.1686  0.3471
  783SOL     ow 3129   3.493   4.680   6.571  0.1373 -0.4913  0.2186
  783SOL     hw 3130   3.442   4.623   6.513 -0.1824  0.4397 -0.4390
  783SOL     hw 3131   3.432   4.708   6.638  0.2889 -0.9042  0.5298
  783SOL     vw 3132   3.479   4.676   6.572  0.1152 -0.4232  0.1729
  784SOL     ow 3133   5.535   6.083   2.249  0.5021  0.4417 -0.1572
  784SOL     hw 3134   5.621   6.093   2.209 -0.3794 -0.7796 -2.5070
  784SOL     hw 3135   5.482   6.150   2.208 -0.6161 -1.3381 -1.8052
  784SOL     vw 3136   5.540   6.093   2.239  0.2384  0.0458 -0.6847
  785SOL     ow 3137   6.009   1.651   3.566  0.0318 -0.3599 -0.2033
  785SOL     hw 3138   6.017   1.638   3.471 -0.9346  0.3350 -0.3925
  785SOL     hw 3139   6.089   1.613   3.602 -0.0053 -1.4477 -1.2178
  785SOL     vw 3140   6.021   1.644   3.558 -0.1006 -0.4117 -0.3620
  786SOL     ow 3141   0.273   5.870   6.907 -0.5624 -0.0475  0.2514
  786SOL     hw 3142   0.230   5.944   6.864  1.1512  1.2113  0.5881
  786SOL     hw 3143   0.350   5.853   6.854  0.0076 -0.4116  1.1809
  786SOL     vw 3144   0.277   5.877   6.895 -0.2611  0.0708  0.4184
  787SOL     ow 3145   0.833   0.983   7.341  0.5348 -0.3152  0.0268
  787SOL     hw 3146   0.883   1.033   7.276 -1.5129 -0.3687 -1.7059
  787SOL     hw 3147   0.780   0.923   7.289 -1.2549 -0.2982  1.7304
  787SOL     vw 3148   0.832   0.982   7.325  0.0285 -0.3200  0.0229
  788SOL     ow 3149   4.740   2.359   4.691  0.7543  0.5318  0.3132
  788SOL     hw 3150   4.811   2.376   4.754 -0.5133  1.1806  1.6394
  788SOL     hw 3151   4.665   2.334   4.746 -0.0450 -0.1605 -1.0512
  788SOL     vw 3152   4.739   2.358   4.707  0.4818  0.5261  0.3083
  789SOL     ow 3153   1.537   0.472   2.332 -1.0015 -0.6800  0.4446
  789SOL     hw 3154   1.566   0.484   2.422  1.0721  2.4960 -0.4955
  789SOL     hw 3155   1.618   0.457   2.283 -1.7805  0.2713 -1.2021
  789SOL     vw 3156   1.552   0.471   2.338 -0.8307 -0.1355  0.1032
  790SOL     ow 3157   0.670   5.116   3.962  0.2113  0.0849  0.0992
  790SOL     hw 3158   0.639   5.186   3.905  2.6527  1.9593  0.9023
  790SOL     hw 3159   0.730   5.066   3.907  0.2094  0.0012  0.1744
  790SOL     vw 3160   0.673   5.119   3.947  0.5331  0.3216  0.2152
  791SOL     ow 3161   6.957   2.665   5.371  0.6125  0.0944 -0.2572
  791SOL     hw 3162   6.940   2.586   5.320  0.3441 -0.4992  0.7294
  791SOL     hw 3163   7.049   2.657   5.398  0.2725 -0.4404  0.7750
  791SOL     vw 3164   6.967   2.654   5.368  0.5322 -0.0545  0.0091
  792SOL     ow 3165   0.131   7.315   3.654  0.4588 -0.2260 -0.5164
  792SOL     hw 3166   0.105   7.303   3.745  1.1490  0.8683 -0.1611
  792SOL     hw 3167   0.218   7.355   3.658  0.9625 -1.1395 -1.6665
  792SOL     vw 3168   0.139   7.319   3.666  0.6163 -0.2022 -0.6213
  793SOL     ow 3169   2.588   0.704   3.183  0.0504  0.4654  0.0868
  793SOL     hw 3170   2.671   0.707   3.135 -0.2702  1.4232 -0.4466
  793SOL     hw 3171   2.550   0.791   3.169 -0.4105  0.5060  1.4701
  793SOL     vw 3172   2.594   0.716   3.175 -0.0527  0.5971  0.1990
  794SOL     ow 3173   3.647   0.621   2.741 -0.2103  0.3693 -0.2832
  794SOL     hw 3174   3.741   0.611   2.731  0.0398  2.1325 -0.0292
  794SOL     hw 3175   3.630   0.605   2.834  0.0232  1.2646 -0.0842
  794SOL     vw 3176   3.657   0.617   2.752 -0.1464  0.7201 -0.2234
  795SOL     ow 3177   3.709   0.822   4.060 -0.3744 -0.3921  0.0523
  795SOL     hw 3178   3.709   0.770   4.140 -0.1704  0.5428  0.6818
  795SOL     hw 3179   3.671   0.906   4.086 -0.8314 -0.2600 -0.9705
  795SOL     vw 3180   3.704   0.826   4.074 -0.4078 -0.2513  0.0005
  796SOL     ow 3181   3.045   4.482   7.350 -0.3263  0.1576 -0.0823
  796SOL     hw 3182   3.011   4.436   7.273  0.8280  1.2762 -1.3202
  796SOL     hw 3183   3.139   4.463   7.350 -0.4952 -0.9635  1.9042
  796SOL     vw 3184   3.053   4.474   7.340 -0.1962  0.1571  0.0165
  797SOL     ow 3185   5.320   1.588   7.449 -0.7191  0.2976 -0.0964
  797SOL     hw 3186   5.253   1.633   7.398 -0.4908 -0.1612 -0.8389
  797SOL     hw 3187   5.291   1.594   7.539 -0.2475  2.7100 -0.0326
  797SOL     vw 3188   5.307   1.595   7.454 -0.6268  0.5553 -0.1857
  798SOL     ow 3189   7.155   3.434   6.527  0.2221 -0.1602  0.0185
  798SOL     hw 3190   7.167   3.393   6.612 -0.0319  2.2022  1.2778
  798SOL     hw 3191   7.229   3.494   6.518  0.9111 -1.2065 -2.0147
  798SOL     vw 3192   7.166   3.436   6.537  0.2797  0.0136 -0.0837
  799SOL     ow 3193   0.106   5.385   4.555  0.6113 -1.0454 -0.0820
  799SOL     hw 3194   0.085   5.365   4.464  0.3922 -1.1501 -0.0093
  799SOL     hw 3195   0.144   5.473   4.552 -1.8193  0.0897  0.0139
  799SOL     vw 3196   0.108   5.394   4.543  0.2617 -0.9091 -0.0598
  800SOL     ow 3197   6.535   5.170   1.571  0.3248  0.1778  0.2637
  800SOL     hw 3198   6.539   5.143   1.662  0.1607 -0.1579  0.1715
  800SOL     hw 3199   6.575   5.098   1.522  1.3665  0.8091  0.1602
  800SOL     vw 3200   6.541   5.157   1.576  0.4406  0.2170  0.2379
  801SOL     ow 3201   6.380   0.039   4.278 -0.2125  0.5322  0.6932
  801SOL     hw 3202   6.329   0.013   4.355 -0.7364  4.9342  2.0755
  801SOL     hw 3203   6.458   0.082   4.315  1.5991 -0.7925 -1.3591
  801SOL     vw 3204   6.384   0.041   4.293 -0.0427  0.9382  0.6049
  802SOL     ow 3205   7.277   0.498   1.088  0.1681  0.0297  0.2576
  802SOL     hw 3206   7.337   0.432   1.053  1.1002  1.6890 -1.4917
  802SOL     hw 3207   7.258   0.469   1.177  0.7892 -2.3898 -0.3307
  802SOL     vw 3208   7.283   0.486   1.095  0.3726 -0.0706 -0.0509
  803SOL     ow 3209   7.044   4.221   0.004 -0.4789  0.7366 -0.2161
  803SOL     hw 3210   6.991   4.273   0.064 -1.0055  1.4058 -1.2369
  803SOL     hw 3211   7.108   4.283  -0.032 -1.0454  0.6787 -1.3664
  803SOL     vw 3212   7.046   4.236   0.007 -0.6230  0.8173 -0.5023
  804SOL     ow 3213   2.956   5.569   3.680  0.5830  0.2344  0.3267
  804SOL     hw 3214   3.030   5.582   3.621  2.3951  1.6095  2.7149
  804SOL     hw 3215   2.884   5.541   3.623  2.9004 -1.2095 -2.1050
  804SOL     vw 3216   2.956   5.567   3.664  1.1278  0.2253  0.3210
  805SOL     ow 3217   2.168   4.648   0.843 -0.4237 -0.1834  0.4178
  805SOL     hw 3218   2.179   4.553   0.843 -1.4864 -0.3193  0.0622
  805SOL     hw 3219   2.237   4.680   0.901  0.4478 -1.1074 -0.0684
  805SOL     vw 3220   2.179   4.640   0.851 -0.4491 -0.3231  0.3067
  806SOL     ow 3221   3.520   2.274   6.297  0.0523 -0.9374  0.7721
  806SOL     hw 3222   3.597   2.261   6.353 -0.2233  0.7211  1.6045
  806SOL     hw 3223   3.528   2.363   6.265 -0.5967 -1.3621 -0.6330
  806SOL     vw 3224   3.531   2.284   6.300 -0.0697 -0.7747  0.6964
  807SOL     ow 3225   5.504   0.600   5.148  0.1576 -0.1387  0.8816
  807SOL     hw 3226   5.479   0.644   5.066  2.3268 -0.4925 -0.0178
  807SOL     hw 3227   5.457   0.516   5.145 -2.9530  1.3998  1.9815
  807SOL     vw 3228   5.494   0.595   5.137  0.0334  0.0176  0.9081
  808SOL     ow 3229   2.674   0.094   5.659  0.0906  0.0626  0.6623
  808SOL     hw 3230   2.676   0.184   5.689 -0.6574  0.0971  0.6396
  808SOL     hw 3231   2.652   0.043   5.737  0.9122 -0.1457  0.7615
  808SOL     vw 3232   2.671   0.099   5.673  0.1003  0.0397  0.6723
  809SOL     ow 3233   5.731   0.378   4.995  0.3602  0.0971  0.9337
  809SOL     hw 3234   5.755   0.302   5.048  0.7161 -1.3808 -1.2433
  809SOL     hw 3235   5.652   0.412   5.037  0.7678 -0.8329  2.5521
  809SOL     vw 3236   5.724   0.373   5.008  0.4609 -0.2206  0.8597
  810SOL     ow 3237   2.850   7.212   5.803 -0.2220 -0.1572 -0.2089
  810SOL     hw 3238   2.863   7.118   5.820 -1.3108 -0.2794  0.0088
  810SOL     hw 3239   2.755   7.223   5.804 -0.1877  0.6004 -2.2047
  810SOL     vw 3240   2.839   7.201   5.806 -0.3611 -0.0734 -0.4437
  811SOL     ow 3241   7.525   5.362   6.270 -0.0633 -0.7480 -0.4661
  811SOL     hw 3242   7.594   5.319   6.320  1.1569  0.0590 -1.3779
  811SOL     hw 3243   7.562   5.370   6.182 -0.8034  0.8763 -0.6600
  811SOL     vw 3244   7.539   5.357   6.265  0.0000 -0.4272 -0.6118
  812SOL     ow 3245   6.492   4.378   4.389  0.1737 -0.1582 -0.0933
  812SOL     hw 3246   6.432   4.446   4.358  1.0046  0.4759 -0.3585
  812SOL     hw 3247   6.450   4.343   4.468 -1.7018 -1.3977 -1.5472
  812SOL     vw 3248   6.478   4.382   4.396  0.0360 -0.2379 -0.3202
  813SOL     ow 3249   4.612   5.452   0.800 -0.4210 -0.2607 -0.6705
  813SOL     hw 3250   4.683   5.397   0.766 -0.4825 -1.1093  0.5216
  813SOL     hw 3251   4.656   5.529   0.836 -0.0568 -0.9665  0.4155
  813SOL     vw 3252   4.627   5.455   0.800 -0.3812 -0.4659 -0.3700
  814SOL     ow 3253   1.975   6.974   2.308 -0.3526 -0.3142 -0.7956
  814SOL     hw 3254   1.928   7.020   2.239 -0.3003 -0.5091 -0.9641
  814SOL     hw 3255   2.047   6.930   2.262 -0.4645 -0.6487 -0.6591
  814SOL     vw 3256   1.978   6.974   2.293 -0.3604 -0.3841 -0.7998
  815SOL     ow 3257   0.286   4.086   0.915 -0.2557 -0.0116 -0.4735
  815SOL     hw 3258   0.359   4.024   0.924  0.0119  0.3178 -0.3380
  815SOL     hw 3259   0.237   4.076   0.997 -0.0136  0.2005 -0.2978
  815SOL     vw 3260   0.289   4.077   0.927 -0.1885  0.0601 -0.4324
  816SOL     ow 3261   6.347   7.350   0.324 -0.0877  0.7701  0.1656
  816SOL     hw 3262   6.297   7.344   0.243  0.6662 -0.8453 -0.2353
  816SOL     hw 3263   6.294   7.303   0.389  0.9671 -1.2020 -0.3310
  816SOL     vw 3264   6.334   7.343   0.322  0.1507  0.2966  0.0472
  817SOL     ow 3265   2.752   0.090   0.997  0.2560 -0.3416 -0.3651
  817SOL     hw 3266   2.763   0.155   1.066 -0.3408  0.4468 -0.9836
  817SOL     hw 3267   2.660   0.064   1.003  0.6538 -1.6718  0.3224
  817SOL     vw 3268   2.741   0.095   1.007  0.2296 -0.4131 -0.3560
  818SOL     ow 3269   5.209   3.558   3.151  0.5263 -0.1328 -0.3329
  818SOL     hw 3270   5.297   3.554   3.115  0.4110 -0.5746 -0.5755
  818SOL     hw 3271   5.158   3.498   3.097  0.0502  0.1967 -0.2648
  818SOL     vw 3272   5.214   3.550   3.139  0.4480 -0.1477 -0.3558
  819SOL     ow 3273   2.706   3.831   6.172 -0.4680  0.1409  0.7464
  819SOL     hw 3274   2.796   3.863   6.165 -0.0912 -0.8403  0.8203
  819SOL     hw 3275   2.654   3.908   6.191 -0.0470  1.1864 -1.9755
  819SOL     vw 3276   2.711   3.845   6.174 -0.3628  0.1495  0.3970
  820SOL     ow 3277   4.199   4.156   0.242  0.1503 -0.1567 -0.2922
  820SOL     hw 3278   4.276   4.162   0.185 -0.4046  0.7153 -0.9757
  820SOL     hw 3279   4.136   4.218   0.205 -0.0893  0.7420  1.5037
  820SOL     vw 3280   4.201   4.165   0.230  0.0455  0.0768 -0.1454
  821SOL     ow 3281   0.198   5.801   3.143 -0.1426  0.6926  0.1007
  821SOL     hw 3282   0.181   5.881   3.093 -0.6748  0.4116 -0.1737
  821SOL     hw 3283   0.293   5.796   3.148 -0.0372  0.3369 -1.5354
  821SOL     vw 3284   0.208   5.811   3.137 -0.1989  0.6087 -0.1513
  822SOL     ow 3285   1.229   7.486   0.964  0.7984 -0.4556 -0.4752
  822SOL     hw 3286   1.264   7.402   0.993 -2.1547 -1.5609  0.3518
  822SOL     hw 3287   1.233   7.542   1.041  1.2732 -0.3866 -0.5513
  822SOL     vw 3288   1.234   7.482   0.978  0.4714 -0.5925 -0.3761
  823SOL     ow 3289   1.908   0.312   0.275 -0.7783 -0.0042  0.1253
  823SOL     hw 3290   1.913   0.399   0.314  0.3216  0.0948 -0.2097
  823SOL     hw 3291   1.839   0.319   0.209 -0.2813  0.7932 -0.3321
  823SOL     vw 3292   1.899   0.324   0.272 -0.5676  0.1141  0.0207
  824SOL     ow 3293   3.240   5.119   6.844 -0.3904 -0.3323  0.0888
  824SOL     hw 3294   3.198   5.192   6.797 -0.4737 -0.3557  0.1282
  824SOL     hw 3295   3.314   5.095   6.788  1.1110  1.3922  1.2496
  824SOL     vw 3296   3.244   5.126   6.830 -0.2035 -0.1078  0.2470
  825SOL     ow 3297   2.120   5.540   6.928 -0.3947  0.1777 -0.3214
  825SOL     hw 3298   2.107   5.559   7.021 -0.8210 -0.7339 -0.1884
  825SOL     hw 3299   2.172   5.614   6.896  1.5158 -0.4714  1.1046
  825SOL     vw 3300   2.125   5.553   6.936 -0.1988 -0.0281 -0.1156
  826SOL     ow 3301   2.791   5.816   2.329  0.0063 -0.0694  0.5059
  826SOL     hw 3302   2.801   5.879   2.257 -2.3061 -0.0723  0.0993
  826SOL     hw 3303   2.848   5.743   2.305  0.3798  0.5598 -0.5870
  826SOL     vw 3304   2.800   5.814   2.316 -0.2495  0.0131  0.3080
  827SOL     ow 3305   1.786   2.177   4.164  0.6784 -0.0711  0.5090
  827SOL     hw 3306   1.856   2.167   4.099 -0.1918 -1.1958 -0.3007
  827SOL     hw 3307   1.811   2.254   4.214  0.6036  1.8475 -2.1901
  827SOL     vw 3308   1.799   2.186   4.162  0.5537  0.0337  0.0460
  828SOL     ow 3309   3.033   5.031   1.345  0.3353  0.0609  0.3220
  828SOL     hw 3310   3.076   5.060   1.426 -0.7340  0.4937  0.7562
  828SOL     hw 3311   2.995   4.946   1.367  3.0278 -1.5448 -0.8017
  828SOL     vw 3312   3.034   5.024   1.359  0.5494 -0.0942  0.2311
  829SOL     ow 3313   0.954   3.863   7.130 -0.0150  0.5748 -0.6980
  829SOL     hw 3314   1.002   3.865   7.048 -1.6418  0.2660 -1.7129
  829SOL     hw 3315   0.862   3.867   7.104 -0.6074 -0.3663  1.0704
  829SOL     vw 3316   0.948   3.864   7.116 -0.3078  0.4097 -0.5989
  830SOL     ow 3317   5.103   6.231   1.638 -0.0825 -0.5400 -0.2106
  830SOL     hw 3318   5.152   6.252   1.559 -0.4749  0.2159 -0.2623
  830SOL     hw 3319   5.132   6.144   1.662  0.2606 -0.6539 -1.0206
  830SOL     vw 3320   5.113   6.223   1.631 -0.0889 -0.4551 -0.3242
  831SOL     ow 3321   6.246   1.184   2.477  0.6393 -0.0090 -0.1798
  831SOL     hw 3322   6.297   1.224   2.548  0.1420  0.5077 -0.1076
  831SOL     hw 3323   6.155   1.190   2.505  0.5317 -1.0236 -0.2639
  831SOL     vw 3324   6.241   1.190   2.490  0.5593 -0.0747 -0.1814
  832SOL     ow 3325   7.441   4.515   3.325  0.0642 -0.7725 -0.4869
  832SOL     hw 3326   7.403   4.447   3.269 -0.5037 -0.9638  0.1122
  832SOL     hw 3327   7.420   4.487   3.414 -2.9568  1.6814 -0.2437
  832SOL     vw 3328   7.433   4.502   3.329 -0.4094 -0.4740 -0.3757
  833SOL     ow 3329   7.439   3.274   0.223 -0.1519 -0.5098  0.1834
  833SOL     hw 3330   7.512   3.314   0.269 -0.8460 -0.1853  1.0286
  833SOL     hw 3331   7.388   3.230   0.291 -1.6783  0.7122 -0.0964
  833SOL     vw 3332   7.442   3.274   0.238 -0.4451 -0.3058  0.2580
  834SOL     ow 3333   3.705   5.118   2.097  0.1536 -0.4635 -0.2255
  834SOL     hw 3334   3.770   5.051   2.074 -0.1315 -0.2702 -1.7137
  834SOL     hw 3335   3.621   5.074   2.088 -0.0125 -0.0615 -0.6618
  834SOL     vw 3336   3.703   5.104   2.093  0.0942 -0.3853 -0.4793
  835SOL     ow 3337   4.020   6.342   4.926 -0.1555  0.1274  0.2029
  835SOL     hw 3338   3.976   6.355   4.842 -0.8725  0.9327  0.6824
  835SOL     hw 3339   4.114   6.338   4.904 -0.4352 -1.5544 -0.8241
  835SOL     vw 3340   4.027   6.343   4.912 -0.2871  0.0122  0.1307
  836SOL     ow 3341   1.394   4.640   1.033 -0.1498  0.8446 -0.8602
  836SOL     hw 3342   1.382   4.633   1.128  0.1557 -0.0174 -0.8762
  836SOL     hw 3343   1.357   4.725   1.010 -0.7248  0.8258 -0.0452
  836SOL     vw 3344   1.387   4.650   1.043 -0.1853  0.7284 -0.7548
  837SOL     ow 3345   0.498   3.779   3.904  1.1665 -0.2643  0.8999
  837SOL     hw 3346   0.516   3.853   3.846  0.1488  0.9922  2.1298
  837SOL     hw 3347   0.406   3.757   3.887  0.3223  1.2047  3.1119
  837SOL     vw 3348   0.488   3.786   3.894  0.9209  0.0952  1.3540
  838SOL     ow 3349   3.167   4.637   6.857 -0.4694  0.1263  0.4790
  838SOL     hw 3350   3.079   4.670   6.873 -0.9689 -1.6972  1.7786
  838SOL     hw 3351   3.222   4.681   6.922 -0.6895  0.1468  0.6499
  838SOL     vw 3352   3.163   4.647   6.868 -0.5645 -0.1113  0.6731
  839SOL     ow 3353   3.477   6.785   5.472  0.3231  0.7055 -0.2149
  839SOL     hw 3354   3.466   6.837   5.552  0.8293  1.7727 -0.8178
  839SOL     hw 3355   3.391   6.786   5.430  0.5721  1.9745 -0.7455
  839SOL     vw 3356   3.464   6.792   5.477  0.4227  1.0135 -0.3648
  840SOL     ow 3357   0.447   3.074   1.155  0.3879  0.6739  0.1815
  840SOL     hw 3358   0.536   3.041   1.165  1.3213  2.6086 -1.0433
  840SOL     hw 3359   0.399   3.004   1.112  0.5638 -1.4005  3.0837
  840SOL     vw 3360   0.453   3.061   1.150  0.5343  0.6554  0.4029
  841SOL     ow 3361   6.289   0.872   6.671  0.1810  0.3185 -0.0863
  841SOL     hw 3362   6.310   0.945   6.729 -3.0551  0.6964  0.8247
  841SOL     hw 3363   6.238   0.911   6.600 -1.7279 -0.9716  0.4926
  841SOL     vw 3364   6.285   0.887   6.670 -0.4976  0.1982  0.1101
  842SOL     ow 3365   0.962   7.315   1.253 -0.0648  0.1082  0.2085
  842SOL     hw 3366   0.905   7.239   1.267 -0.2989  0.4614  1.3380
  842SOL     hw 3367   1.025   7.286   1.187  0.7688 -1.5926  1.6498
  842SOL     vw 3368   0.963   7.301   1.246  0.0143 -0.0694  0.5477
  843SOL     ow 3369   0.109   7.060   3.600 -0.1822 -0.7180 -0.3051
  843SOL     hw 3370   0.112   7.065   3.505  0.5663 -1.7852 -0.3586
  843SOL     hw 3371   0.147   7.143   3.630  3.2581 -1.8741 -0.9856
  843SOL     vw 3372   0.115   7.072   3.591  0.3705 -1.0114 -0.4020
  844SOL     ow 3373   4.009   1.006   1.690  0.1387 -0.5026 -0.3046
  844SOL     hw 3374   3.936   0.957   1.651 -0.5375  0.0046  0.2853
  844SOL     hw 3375   3.992   1.002   1.784  0.6600 -0.0304 -0.1892
  844SOL     vw 3376   3.997   0.999   1.697  0.1184 -0.3733 -0.2115
  845SOL     ow 3377   5.766   4.295   1.507 -0.0351  0.5465 -0.2910
  845SOL     hw 3378   5.714   4.233   1.559 -0.2470  2.0892  1.4781
  845SOL     hw 3379   5.856   4.272   1.526 -0.0994 -0.2379 -0.9362
  845SOL     vw 3380   5.771   4.284   1.517 -0.0713  0.6466 -0.1427
  846SOL     ow 3381   4.476   6.207   0.543  0.1299 -0.2685  0.2231
  846SOL     hw 3382   4.444   6.232   0.456  2.0904 -2.0638 -1.0993
  846SOL     hw 3383   4.521   6.285   0.575 -1.3158  0.6842  0.0306
  846SOL     vw 3384   4.477   6.221   0.536  0.1976 -0.3798  0.0233
  847SOL     ow 3385   6.523   4.332   6.534  0.2331 -0.0076 -0.1001
  847SOL     hw 3386   6.546   4.342   6.442  1.7356 -1.2379  0.1095
  847SOL     hw 3387   6.592   4.378   6.582 -0.0603 -0.1161  0.4458
  847SOL     vw 3388   6.535   4.340   6.528  0.3924 -0.1845 -0.0005
  848SOL     ow 3389   0.907   7.315   6.311 -0.5941  0.5324  0.0760
  848SOL     hw 3390   0.960   7.291   6.386 -2.4446 -0.5836  1.1018
  848SOL     hw 3391   0.879   7.405   6.328 -2.2466 -0.2090  1.5528
  848SOL     vw 3392   0.910   7.323   6.323 -1.0563  0.2873  0.4065
  849SOL     ow 3393   0.709   3.515   0.048 -0.3681 -0.0712  0.1887
  849SOL     hw 3394   0.747   3.599   0.072  0.7133 -0.3524 -0.4466
  849SOL     hw 3395   0.619   3.536   0.021  0.0104  0.9488 -0.3540
  849SOL     vw 3396   0.702   3.529   0.047 -0.1755  0.0262  0.0333
  850SOL     ow 3397   0.705   6.436   2.718 -0.1803  0.1368 -0.4620
  850SOL     hw 3398   0.698   6.430   2.813  1.6103 -0.1637 -0.3157
  850SOL     hw 3399   0.672   6.352   2.686 -0.5345  0.1348 -0.1111
  850SOL     vw 3400   0.699   6.424   2.726  0.0092  0.0970 -0.3965
  851SOL     ow 3401   0.533   1.567   7.475 -0.4465 -0.0226 -0.1325
  851SOL     hw 3402   0.607   1.604   7.522 -1.8858  0.3820  1.9243
  851SOL     hw 3403   0.538   1.473   7.492  0.5650 -0.2627 -1.5189
  851SOL     vw 3404   0.543   1.559   7.483 -0.5029 -0.0010 -0.0441
  852SOL     ow 3405   2.044   7.268   2.283 -0.7401 -0.0079 -0.2349
  852SOL     hw 3406   2.089   7.194   2.323 -1.0123 -0.0031  0.0881
  852SOL     hw 3407   2.003   7.232   2.205  0.2235  0.0944 -0.8077
  852SOL     vw 3408   2.045   7.253   2.278 -0.6487  0.0062 -0.2679
  853SOL     ow 3409   4.343   3.141   3.706  0.0333  0.5542  0.3397
  853SOL     hw 3410   4.394   3.069   3.744  1.1760  1.9738  1.5964
  853SOL     hw 3411   4.261   3.140   3.755  0.3871  0.6214  0.9481
  853SOL     vw 3412   4.339   3.131   3.717  0.2313  0.7504  0.5858
  854SOL     ow 3413   1.778   6.910   4.548  0.2842  0.1004 -0.3413
  854SOL     hw 3414   1.866   6.944   4.531  0.7227 -0.9655 -0.2303
  854SOL     hw 3415   1.721   6.961   4.490  0.8104  1.5794  0.3962
  854SOL     vw 3416   1.782   6.921   4.538  0.4115  0.1547 -0.2291
  855SOL     ow 3417   1.848   4.672   0.480  0.3719  0.2404 -0.6899
  855SOL     hw 3418   1.754   4.656   0.471  0.3075  0.0928  0.2077
  855SOL     hw 3419   1.882   4.591   0.518  0.6588  0.7691  0.2009
  855SOL     vw 3420   1.840   4.659   0.484  0.4013  0.2906 -0.4539
  856SOL     ow 3421   3.167   6.594   5.113 -0.1175 -0.1055  0.1284
  856SOL     hw 3422   3.091   6.601   5.055  0.0889 -2.2631 -0.5081
  856SOL     hw 3423   3.148   6.653   5.185 -2.3174 -0.4046 -0.1374
  856SOL     vw 3424   3.155   6.602   5.115 -0.3805 -0.4296  0.0091
  857SOL     ow 3425   1.734   4.851   0.233  0.2265 -0.4597 -0.7004
  857SOL     hw 3426   1.653   4.866   0.282  1.1052  1.4924  0.2779
  857SOL     hw 3427   1.727   4.908   0.157 -0.0724 -1.6535 -1.5893
  857SOL     vw 3428   1.723   4.860   0.230  0.3029 -0.3598 -0.6886
  858SOL     ow 3429   5.380   4.864   4.877  0.5310  0.5765 -0.2847
  858SOL     hw 3430   5.426   4.806   4.938  0.7015  1.9030  0.8946
  858SOL     hw 3431   5.310   4.902   4.929 -1.5581 -0.8681 -1.8640
  858SOL     vw 3432   5.377   4.861   4.892  0.2778  0.5610 -0.3376
  859SOL     ow 3433   4.525   3.150   3.461  0.3022 -0.1746 -0.3693
  859SOL     hw 3434   4.488   3.062   3.471  1.8219 -0.6557  1.3171
  859SOL     hw 3435   4.601   3.138   3.403 -1.2295  0.6050 -2.7230
  859SOL     vw 3436   4.530   3.137   3.454  0.3009 -0.1353 -0.4573
  860SOL     ow 3437   4.466   7.025   2.196  0.0298  0.2669  0.1324
  860SOL     hw 3438   4.431   6.938   2.214  1.2251 -0.3606 -0.4164
  860SOL     hw 3439   4.433   7.048   2.109  2.9761 -1.4944 -1.6084
  860SOL     vw 3440   4.457   7.017   2.187  0.5763 -0.0482 -0.1696
  861SOL     ow 3441   2.081   3.896   7.038  0.0537 -0.1994  0.0323
  861SOL     hw 3442   2.036   3.875   6.956 -1.1832  2.0830  0.0461
  861SOL     hw 3443   2.072   3.817   7.092 -0.6070 -1.1175 -1.3817
  861SOL     vw 3444   2.074   3.883   7.034 -0.1968 -0.0194 -0.1523
  862SOL     ow 3445   0.171   6.710   3.093 -0.5926  0.2317  0.0369
  862SOL     hw 3446   0.261   6.686   3.072 -0.7197 -1.6454  1.3996
  862SOL     hw 3447   0.123   6.697   3.011  0.0909 -0.2883 -0.2897
  862SOL     vw 3448   0.177   6.705   3.080 -0.5192 -0.0846  0.1737
  863SOL     ow 3449   6.170   3.101   0.973  0.7049 -1.0980  0.6097
  863SOL     hw 3450   6.254   3.109   1.019  0.7299 -0.9567  0.5399
  863SOL     hw 3451   6.139   3.192   0.965  1.0160 -1.0605 -0.2489
  863SOL     vw 3452   6.177   3.114   0.978  0.7491 -1.0746  0.4873
  864SOL     ow 3453   2.684   0.145   6.279 -0.3103 -0.6214 -0.2288
  864SOL     hw 3454   2.778   0.141   6.262  0.0325  1.2202  0.9066
  864SOL     hw 3455   2.649   0.199   6.209  0.1059  1.6695  1.2155
  864SOL     vw 3456   2.692   0.152   6.268 -0.2102 -0.0762  0.1116
  865SOL     ow 3457   1.833   6.557   5.893  0.2275 -0.4537  0.1939
  865SOL     hw 3458   1.834   6.623   5.824  0.1750 -0.3734  0.2683
  865SOL     hw 3459   1.781   6.597   5.963 -0.0201 -0.6766  0.1382
  865SOL     vw 3460   1.826   6.571   5.893  0.1878 -0.4725  0.1962
  866SOL     ow 3461   5.409   0.122   3.639 -0.1289  0.6930 -0.6836
  866SOL     hw 3462   5.488   0.171   3.615  0.3252  0.3441  0.0269
  866SOL     hw 3463   5.356   0.185   3.689 -0.6884  1.1679 -1.8503
  866SOL     vw 3464   5.413   0.137   3.643 -0.1426  0.7096 -0.7437
  867SOL     ow 3465   1.429   5.989   5.641 -0.3457 -0.1189  0.5801
  867SOL     hw 3466   1.499   6.008   5.703 -2.3544  2.6084  2.2325
  867SOL     hw 3467   1.457   6.029   5.559  1.2288 -1.6020  0.3373
  867SOL     vw 3468   1.442   5.997   5.638 -0.4030  0.0453  0.7660
  868SOL     ow 3469   3.547   3.821   6.936 -0.2193  0.0470  0.2359
  868SOL     hw 3470   3.597   3.778   6.867 -1.4441 -0.8811 -0.0836
  868SOL     hw 3471   3.496   3.889   6.891 -1.2847 -0.7887  0.1528
  868SOL     vw 3472   3.547   3.825   6.921 -0.5215 -0.1858  0.1829
  869SOL     ow 3473   4.152   4.067   5.036 -0.0644  0.4215  0.1400
  869SOL     hw 3474   4.171   3.974   5.053  0.4904  0.8386  2.0357
  869SOL     hw 3475   4.061   4.078   5.063  0.2179  0.6592  1.0246
  869SOL     vw 3476   4.143   4.056   5.042  0.0463  0.5081  0.5069
  870SOL     ow 3477   1.436   2.740   6.849 -0.2324 -0.2182  0.5498
  870SOL     hw 3478   1.342   2.720   6.848 -0.3963  0.3140 -2.7199
  870SOL     hw 3479   1.478   2.655   6.862 -1.1469 -0.8118 -0.2292
  870SOL     vw 3480   1.429   2.726   6.851 -0.3747 -0.2263  0.0157
  871SOL     ow 3481   0.378   1.115   6.664 -0.1580  0.6060 -0.0756
  871SOL     hw 3482   0.374   1.177   6.737 -2.8553 -0.7721  1.1019
  871SOL     hw 3483   0.287   1.102   6.638  0.2000 -2.9624 -0.1108
  871SOL     vw 3484   0.366   1.121   6.670 -0.4666 -0.0465  0.0751
  872SOL     ow 3485   4.011   0.757   0.748  0.1296  0.0477  0.0056
  872SOL     hw 3486   4.089   0.788   0.794 -0.6223 -0.1131  1.4388
  872SOL     hw 3487   4.040   0.679   0.701  0.9580  0.3166  0.0521
  872SOL     vw 3488   4.025   0.751   0.748  0.1397  0.0620  0.2008
  873SOL     ow 3489   5.226   6.743   0.508 -0.1125  0.6434  0.5329
  873SOL     hw 3490   5.176   6.755   0.428  0.4760  4.1334  0.4945
  873SOL     hw 3491   5.285   6.671   0.490 -1.5286 -0.1335 -1.3031
  873SOL     vw 3492   5.227   6.735   0.495 -0.2220  1.0016  0.2856
  874SOL     ow 3493   4.415   3.110   6.670 -0.3459 -0.0251  0.0429
  874SOL     hw 3494   4.477   3.118   6.598 -1.6557 -2.0233 -1.4173
  874SOL     hw 3495   4.363   3.190   6.665  1.2959  1.1266  0.5495
  874SOL     vw 3496   4.416   3.122   6.660 -0.3026 -0.1369 -0.0830
  875SOL     ow 3497   4.549   6.901   3.361 -0.4978 -0.3606 -0.2253
  875SOL     hw 3498   4.467   6.871   3.322 -0.6565 -1.4077  0.8531
  875SOL     hw 3499   4.617   6.855   3.312 -0.6106 -0.4314 -0.3155
  875SOL     vw 3500   4.548   6.891   3.350 -0.5336 -0.5081 -0.0949
  876SOL     ow 3501   2.352   2.351   2.355  0.2189  0.0224  0.5854
  876SOL     hw 3502   2.257   2.367   2.357  0.3787  1.2436 -0.2747
  876SOL     hw 3503   2.374   2.327   2.445 -0.9939 -0.8935  0.6706
  876SOL     vw 3504   2.342   2.350   2.367  0.0799  0.0628  0.4830
  877SOL     ow 3505   6.198   0.988   5.870 -0.3237  0.0543 -0.4931
  877SOL     hw 3506   6.177   0.999   5.963 -0.6067  1.0005 -0.6531
  877SOL     hw 3507   6.116   0.959   5.830 -0.5188  0.7424 -0.6160
  877SOL     vw 3508   6.184   0.986   5.877 -0.3867  0.2699 -0.5305
  878SOL     ow 3509   3.869   2.912   7.221 -0.3875 -0.0143  0.3080
  878SOL     hw 3510   3.880   2.820   7.197  0.3696  0.4483 -1.2670
  878SOL     hw 3511   3.871   2.959   7.137  3.8500  1.8606  1.2043
  878SOL     vw 3512   3.871   2.906   7.206  0.2714  0.2942  0.2184
  879SOL     ow 3513   3.140   7.227   7.308  0.2233  0.1713 -0.2905
  879SOL     hw 3514   3.127   7.148   7.361 -1.4808 -0.1573 -1.0929
  879SOL     hw 3515   3.178   7.195   7.226 -2.2538 -0.1829 -1.3933
  879SOL     vw 3516   3.143   7.212   7.304 -0.3283  0.0813 -0.5419
  880SOL     ow 3517   6.143   7.474   5.785 -0.0516  0.1672 -0.5092
  880SOL     hw 3518   6.221   7.503   5.737  0.0463 -1.3602 -1.3508
  880SOL     hw 3519   6.103   7.554   5.817  2.5508  0.9499  1.1006
  880SOL     vw 3520   6.148   7.488   5.783  0.3047  0.0687 -0.4079
  881SOL     ow 3521   5.560   1.007   5.247  0.4011 -0.1950 -0.0825
  881SOL     hw 3522   5.569   1.001   5.152 -0.4631 -1.0704 -0.1321
  881SOL     hw 3523   5.476   0.964   5.266  1.1059 -1.0864  1.1892
  881SOL     vw 3524   5.550   1.001   5.237  0.3803 -0.4281  0.0784
  882SOL     ow 3525   4.280   1.215   5.495  0.2028 -0.3356  1.1248
  882SOL     hw 3526   4.362   1.250   5.461 -0.2326 -0.7645 -0.4773
  882SOL     hw 3527   4.272   1.129   5.453  0.0889 -1.3565  3.1316
  882SOL     vw 3528   4.290   1.208   5.485  0.1304 -0.5270  1.1778
  883SOL     ow 3529   6.738   5.842   0.052 -0.0540 -0.6419  0.3631
  883SOL     hw 3530   6.643   5.835   0.066 -0.3115  1.9224  0.3738
  883SOL     hw 3531   6.754   5.790  -0.026 -1.5807 -0.6227 -0.0034
  883SOL     vw 3532   6.727   5.834   0.044 -0.2892 -0.3009  0.3162
  884SOL     ow 3533   3.979   0.673   2.248  0.3460  0.1538 -0.4279
  884SOL     hw 3534   3.977   0.581   2.221  0.2688 -0.0758  0.3298
  884SOL     hw 3535   3.922   0.717   2.185 -2.9706 -0.9839  1.5067
  884SOL     vw 3536   3.971   0.667   2.236 -0.1017 -0.0266 -0.0727
  885SOL     ow 3537   3.330   0.922   1.839 -0.7637 -0.1440 -0.0767
  885SOL     hw 3538   3.259   0.865   1.808 -0.7102  0.0989 -0.6473
  885SOL     hw 3539   3.393   0.924   1.767 -0.4759  0.1458  0.1817
  885SOL     vw 3540   3.329   0.915   1.825 -0.7186 -0.0737 -0.1178
  886SOL     ow 3541   4.049   6.651   6.358  1.0754  0.4539  0.0275
  886SOL     hw 3542   4.015   6.591   6.424 -2.3210  1.1849 -0.8815
  886SOL     hw 3543   3.976   6.710   6.339  2.4674  1.3766 -3.1089
  886SOL     vw 3544   4.035   6.651   6.364  0.8111  0.6716 -0.5064
  887SOL     ow 3545   0.590   3.484   1.784 -0.2026 -0.0142 -0.2722
  887SOL     hw 3546   0.523   3.543   1.749 -0.3608 -0.9477 -1.6394
  887SOL     hw 3547   0.543   3.432   1.850 -1.1552 -1.2975 -1.8586
  887SOL     vw 3548   0.575   3.485   1.788 -0.3492 -0.3068 -0.6618
  888SOL     ow 3549   1.075   6.204   7.227 -0.0519 -0.6199  0.3003
  888SOL     hw 3550   1.109   6.115   7.217  1.8555  0.1612 -0.8259
  888SOL     hw 3551   1.125   6.240   7.300  0.3108 -0.0025 -0.2400
  888SOL     vw 3552   1.086   6.197   7.235  0.2475 -0.4354  0.0803
  889SOL     ow 3553   3.898   1.287   4.294 -0.7551 -0.4914 -0.0648
  889SOL     hw 3554   3.967   1.255   4.236  0.0867 -0.1791  0.7280
  889SOL     hw 3555   3.851   1.209   4.321  0.1852 -0.8954  0.4835
  889SOL     vw 3556   3.901   1.273   4.290 -0.5200 -0.5035  0.1121
  890SOL     ow 3557   6.202   2.810   5.643 -0.1635 -0.1981 -0.4057
  890SOL     hw 3558   6.221   2.902   5.664  1.3157 -0.6424  0.3658
  890SOL     hw 3559   6.167   2.774   5.725  0.1091 -0.5391 -0.4381
  890SOL     vw 3560   6.200   2.818   5.657  0.0677 -0.3017 -0.3083
  891SOL     ow 3561   2.969   6.454   6.945 -0.9529 -0.0927 -0.2761
  891SOL     hw 3562   2.969   6.422   7.035 -2.3066  0.4614 -0.0595
  891SOL     hw 3563   3.046   6.511   6.939 -0.3206 -0.8774  0.2431
  891SOL     vw 3564   2.979   6.457   6.956 -1.0480 -0.1230 -0.1791
  892SOL     ow 3565   1.850   1.569   7.373 -0.2338 -0.9845 -0.5691
  892SOL     hw 3566   1.886   1.489   7.410 -1.2946 -0.8676  0.7877
  892SOL     hw 3567   1.774   1.539   7.322  1.3388 -1.1748 -2.9891
  892SOL     vw 3568   1.845   1.554   7.371 -0.1662 -0.9941 -0.7093
  893SOL     ow 3569   1.314   3.189   7.357 -0.5481  0.6514 -0.3251
  893SOL     hw 3570   1.252   3.124   7.324  1.6311 -1.3081 -0.8413
  893SOL     hw 3571   1.350   3.230   7.279 -2.0387  2.7427 -0.0017
  893SOL     vw 3572   1.311   3.186   7.342 -0.4573  0.6688 -0.3502
  894SOL     ow 3573   3.881   5.301   0.978 -0.3903  0.5322  0.3090
  894SOL     hw 3574   3.852   5.392   0.977  0.3951  0.7927  0.3576
  894SOL     hw 3575   3.867   5.272   1.068 -0.7777  0.5568  0.2584
  894SOL     vw 3576   3.875   5.309   0.990 -0.3380  0.5698  0.3088
  895SOL     ow 3577   7.411   5.846   6.062  0.1014  0.0739  0.3228
  895SOL     hw 3578   7.462   5.925   6.081  0.0385 -0.1389  1.4340
  895SOL     hw 3579   7.445   5.816   5.978  0.0057  1.3792 -0.2118
  895SOL     vw 3580   7.422   5.852   6.053  0.0806  0.2179  0.3989
  896SOL     ow 3581   4.156   5.625   0.767 -0.4490  0.1608 -0.0074
  896SOL     hw 3582   4.122   5.543   0.730 -0.8701  0.1218  0.4612
  896SOL     hw 3583   4.080   5.683   0.771 -0.3515  0.2521  0.5517
  896SOL     vw 3584   4.141   5.622   0.763 -0.4916  0.1676  0.1281
  897SOL     ow 3585   5.439   7.242   4.380  0.1631  0.9960 -0.1284
  897SOL     hw 3586   5.378   7.220   4.450  1.3922  2.1594  1.3804
  897SOL     hw 3587   5.439   7.338   4.378  0.8769  0.9870 -1.0625
  897SOL     vw 3588   5.431   7.252   4.389  0.4196  1.1482 -0.0527
  898SOL     ow 3589   5.275   3.427   0.743  0.4545  0.3004 -0.3810
  898SOL     hw 3590   5.349   3.402   0.687 -0.2479  1.2806 -1.8010
  898SOL     hw 3591   5.283   3.522   0.752  1.1568  0.0817  2.1250
  898SOL     vw 3592   5.286   3.436   0.737  0.4544  0.4009 -0.2378
  899SOL     ow 3593   2.806   3.234   3.042  0.1453 -0.0353  0.0752
  899SOL     hw 3594   2.812   3.309   2.984  1.8646 -0.5136 -0.4405
  899SOL     hw 3595   2.730   3.251   3.097  1.3173  2.8023  0.9712
  899SOL     vw 3596   2.797   3.246   3.042  0.5268  0.2760  0.1253
  900SOL     ow 3597   4.143   6.750   6.134  0.0936 -0.3130  0.4046
  900SOL     hw 3598   4.238   6.739   6.127 -0.1831 -1.8683 -2.4474
  900SOL     hw 3599   4.117   6.690   6.204  1.1908  0.1594  1.2463
  900SOL     vw 3600   4.152   6.741   6.142  0.2019 -0.4559  0.1395
  901SOL     ow 3601   5.389   4.547   1.356 -0.1241 -0.0094  0.9912
  901SOL     hw 3602   5.407   4.614   1.289 -1.5495 -0.8561 -0.2989
  901SOL     hw 3603   5.295   4.555   1.373 -0.3790 -1.8183  0.6161
  901SOL     vw 3604   5.379   4.557   1.349 -0.3455 -0.3598  0.7715
  902SOL     ow 3605   3.311   5.689   7.344  0.2465  0.5659  0.6241
  902SOL     hw 3606   3.239   5.647   7.297 -0.7472  0.4144  2.2439
  902SOL     hw 3607   3.380   5.622   7.347  0.4765  0.6917 -0.8706
  902SOL     vw 3608   3.311   5.675   7.338  0.1457  0.5627  0.6404
  903SOL     ow 3609   1.248   6.702   6.162 -0.9617 -0.3444 -0.6527
  903SOL     hw 3610   1.285   6.784   6.196  0.9343 -0.3798 -2.4484
  903SOL     hw 3611   1.181   6.678   6.226 -1.7960  2.7432 -0.2199
  903SOL     vw 3612   1.244   6.709   6.175 -0.8216  0.0584 -0.8323
  904SOL     ow 3613   3.244   4.492   6.197 -0.3154 -0.1942  0.3722
  904SOL     hw 3614   3.177   4.547   6.238 -1.1929 -1.1185  0.2222
  904SOL     hw 3615   3.287   4.549   6.134 -0.9850  0.4170  0.4523
  904SOL     vw 3616   3.241   4.507   6.194 -0.5198 -0.2353  0.3629
  905SOL     ow 3617   3.017   1.679   3.534  0.4267 -0.2076  0.4150
  905SOL     hw 3618   3.104   1.659   3.500  0.6519 -0.0896  0.8990
  905SOL     hw 3619   2.964   1.699   3.457  1.0957  0.7408  0.1834
  905SOL     vw 3620   3.022   1.679   3.520  0.5447 -0.0669  0.4483
  906SOL     ow 3621   3.015   0.150   3.519 -0.3092 -0.1625 -0.3364
  906SOL     hw 3622   3.007   0.106   3.435 -1.0739 -0.2945 -0.2010
  906SOL     hw 3623   3.086   0.104   3.564  1.1111  0.8339 -1.4569
  906SOL     vw 3624   3.023   0.138   3.514 -0.2227 -0.0484 -0.4663
  907SOL     ow 3625   0.645   1.741   7.225 -0.1238 -0.2207 -0.4148
  907SOL     hw 3626   0.657   1.719   7.132  0.4146  0.1148 -0.4261
  907SOL     hw 3627   0.729   1.776   7.253  0.2523 -1.8731  0.6631
  907SOL     vw 3628   0.658   1.743   7.216 -0.0032 -0.3944 -0.2742
  908SOL     ow 3629   2.542   2.251   7.266 -0.3733  0.2407 -0.1327
  908SOL     hw 3630   2.621   2.283   7.222 -0.3126 -1.1496 -1.0904
  908SOL     hw 3631   2.505   2.187   7.206 -0.9159 -0.8840  1.3367
  908SOL     vw 3632   2.548   2.247   7.253 -0.4369 -0.0912 -0.0651
  909SOL     ow 3633   5.610   2.094   6.867 -0.2642 -0.4783  0.0948
  909SOL     hw 3634   5.632   2.001   6.859  0.4788 -0.3670  0.7280
  909SOL     hw 3635   5.611   2.111   6.961 -1.2569 -0.0210  0.0349
  909SOL     vw 3636   5.613   2.084   6.878 -0.2973 -0.4033  0.1705
  910SOL     ow 3637   4.655   1.442   6.295  0.5042 -0.0640 -0.3827
  910SOL     hw 3638   4.718   1.370   6.304  1.4516  0.5421 -1.8124
  910SOL     hw 3639   4.672   1.498   6.371 -0.8958 -1.7807  1.2802
  910SOL     vw 3640   4.666   1.440   6.306  0.4447 -0.2106 -0.3521
  911SOL     ow 3641   4.157   0.387   3.627 -0.5823 -0.4823  0.1461
  911SOL     hw 3642   4.085   0.324   3.629 -1.4884  0.5325  0.3990
  911SOL     hw 3643   4.148   0.430   3.542  0.2953 -0.9572 -0.2105
  911SOL     vw 3644   4.146   0.384   3.616 -0.5858 -0.4111  0.1323
  912SOL     ow 3645   7.390   3.071   4.323 -1.0789  0.1868 -0.3303
  912SOL     hw 3646   7.378   3.007   4.393 -0.6168 -0.8386 -1.1734
  912SOL     hw 3647   7.311   3.125   4.327 -0.7351  0.6388  1.4482
  912SOL     vw 3648   7.378   3.070   4.333 -0.9725  0.1111 -0.2069
  913SOL     ow 3649   7.300   4.874   1.676  0.3022 -0.4537 -0.2932
  913SOL     hw 3650   7.289   4.942   1.742  0.6616 -0.2811 -0.4098
  913SOL     hw 3651   7.298   4.921   1.592 -0.3078 -0.6896 -0.4120
  913SOL     vw 3652   7.299   4.889   1.673  0.2692 -0.4623 -0.3242
  914SOL     ow 3653   3.523   4.245   3.020  0.1948 -0.2043 -0.1046
  914SOL     hw 3654   3.470   4.182   3.069 -1.1919 -1.2508 -2.7201
  914SOL     hw 3655   3.467   4.322   3.011  0.2277 -0.2123 -0.4094
  914SOL     vw 3656   3.508   4.246   3.025  0.0162 -0.3433 -0.4900
  915SOL     ow 3657   3.612   4.477   4.809  0.0296  0.3435 -0.0857
  915SOL     hw 3658   3.620   4.542   4.879  0.2776 -0.4511  0.6441
  915SOL     hw 3659   3.703   4.454   4.788 -0.0457  0.5556 -0.6540
  915SOL     vw 3660   3.625   4.483   4.815  0.0525  0.2666 -0.0644
  916SOL     ow 3661   7.360   1.351   5.638 -0.6993 -0.1631 -0.1378
  916SOL     hw 3662   7.328   1.396   5.560  1.1910 -0.4509 -1.1485
  916SOL     hw 3663   7.321   1.398   5.711 -3.1737 -0.3984 -1.2329
  916SOL     vw 3664   7.351   1.363   5.637 -0.7768 -0.2320 -0.4156
  917SOL     ow 3665   1.518   3.532   7.026 -0.3759  0.3609 -0.0533
  917SOL     hw 3666   1.462   3.605   7.052 -1.9979 -1.0512  0.5958
  917SOL     hw 3667   1.600   3.547   7.074 -0.6146  1.7862 -0.0327
  917SOL     vw 3668   1.522   3.544   7.036 -0.6214  0.3628  0.0353
  918SOL     ow 3669   2.479   1.195   1.286  0.4951 -0.0897 -0.1034
  918SOL     hw 3670   2.527   1.272   1.318  1.9184 -1.1284  0.3389
  918SOL     hw 3671   2.438   1.159   1.365  0.8802 -0.5040 -0.0923
  918SOL     vw 3672   2.480   1.201   1.301  0.7337 -0.2815 -0.0436
  919SOL     ow 3673   5.531   2.927   2.911  0.6384 -0.2651  0.0840
  919SOL     hw 3674   5.583   3.003   2.884  0.0690 -0.1096 -0.6151
  919SOL     hw 3675   5.595   2.864   2.943  1.1743  0.2686  0.0856
  919SOL     vw 3676   5.547   2.929   2.912  0.6340 -0.1742 -0.0080
  920SOL     ow 3677   3.265   7.306   4.344  0.2046  0.3519 -0.2573
  920SOL     hw 3678   3.217   7.358   4.279 -1.4856  1.6726  1.8435
  920SOL     hw 3679   3.304   7.372   4.402  0.8231 -0.7573  0.6259
  920SOL     vw 3680   3.264   7.322   4.343  0.0632  0.3798  0.1366
  921SOL     ow 3681   2.043   7.488   0.670  0.4600 -0.4943 -0.4626
  921SOL     hw 3682   2.093   7.471   0.750  0.1897 -0.4271 -0.2752
  921SOL     hw 3683   2.104   7.469   0.599  0.7429 -0.4340 -0.2390
  921SOL     vw 3684   2.057   7.483   0.671  0.4616 -0.4773 -0.4084
  922SOL     ow 3685   5.072   1.210   2.528  0.5943 -0.4391  0.1898
  922SOL     hw 3686   5.033   1.256   2.602 -1.1163 -0.0147 -0.9071
  922SOL     hw 3687   4.997   1.174   2.480  1.5619 -0.0665 -1.7227
  922SOL     vw 3688   5.057   1.211   2.531  0.4961 -0.3340 -0.2073
  923SOL     ow 3689   0.327   6.992   3.104  0.6829 -0.1743 -0.0942
  923SOL     hw 3690   0.415   7.018   3.078  0.5577 -0.9858 -1.4387
  923SOL     hw 3691   0.328   6.896   3.100 -0.6513 -0.1781 -1.6030
  923SOL     vw 3692   0.338   6.982   3.100  0.4903 -0.2818 -0.4706
  924SOL     ow 3693   3.269   4.559   2.465  0.0951  0.6304  0.1444
  924SOL     hw 3694   3.239   4.472   2.439 -0.1765  1.1122 -1.2036
  924SOL     hw 3695   3.302   4.546   2.554  1.4716 -1.1739 -0.5615
  924SOL     vw 3696   3.269   4.546   2.473  0.2409  0.4563 -0.1267
  925SOL     ow 3697   4.267   2.147   1.909  0.1336 -0.2831  0.1923
  925SOL     hw 3698   4.348   2.097   1.922  0.7626  0.6232 -0.1397
  925SOL     hw 3699   4.294   2.238   1.916 -0.5807  0.0842 -1.4066
  925SOL     vw 3700   4.281   2.152   1.912  0.1225 -0.1150 -0.0624
  926SOL     ow 3701   6.451   2.585   5.948 -0.1272 -0.1352 -0.7226
  926SOL     hw 3702   6.447   2.639   6.027  0.9119  0.4799 -1.0770
  926SOL     hw 3703   6.395   2.509   5.968  0.8874 -0.4884  0.9796
  926SOL     vw 3704   6.443   2.582   5.961  0.1438 -0.1006 -0.5445
  927SOL     ow 3705   3.405   7.218   6.442  0.5200 -0.7540 -0.1597
  927SOL     hw 3706   3.466   7.204   6.370  1.0799 -1.4160  0.4256
  927SOL     hw 3707   3.415   7.310   6.464 -0.6329 -0.1982 -1.7822
  927SOL     vw 3708   3.415   7.228   6.435  0.4419 -0.7677 -0.2966
  928SOL     ow 3709   6.230   0.874   4.224 -0.1496  0.3345  0.1185
  928SOL     hw 3710   6.180   0.952   4.198 -0.1954 -0.0733 -1.0594
  928SOL     hw 3711   6.245   0.886   4.318  2.1790  3.1002 -0.4934
  928SOL     vw 3712   6.225   0.886   4.233  0.1514  0.6456 -0.1178
  929SOL     ow 3713   5.908   4.343   4.161  0.2587  0.6341  0.1293
  929SOL     hw 3714   5.921   4.428   4.203  1.6408 -0.2411  1.5335
  929SOL     hw 3715   5.890   4.282   4.232 -1.2487 -0.2129 -0.8983
  929SOL     vw 3716   5.907   4.346   4.176  0.2422  0.4072  0.1788
  930SOL     ow 3717   4.709   7.475   3.558  0.4144 -0.0530  0.9834
  930SOL     hw 3718   4.791   7.500   3.516  0.2920  0.6526  1.1467
  930SOL     hw 3719   4.661   7.557   3.567 -0.4578 -0.5055  0.5820
  930SOL     vw 3720   4.713   7.489   3.553  0.2832 -0.0198  0.9520
  931SOL     ow 3721   2.152   5.579   1.225  0.3549  0.9910  0.3231
  931SOL     hw 3722   2.185   5.491   1.203  0.9134  0.7362  2.0603
  931SOL     hw 3723   2.194   5.600   1.308 -0.2411  2.6763  0.2273
  931SOL     vw 3724   2.162   5.570   1.233  0.3499  1.1797  0.5396
  932SOL     ow 3725   0.490   2.408   6.232 -0.0449 -0.0942  0.4770
  932SOL     hw 3726   0.460   2.334   6.179 -1.5298 -0.8895  2.3205
  932SOL     hw 3727   0.579   2.383   6.259  1.0940  0.7181 -2.2224
  932SOL     vw 3728   0.498   2.395   6.229 -0.0905 -0.0919  0.3641
  933SOL     ow 3729   6.716   3.387   6.790 -0.0581  0.8307  0.0011
  933SOL     hw 3730   6.629   3.426   6.794  0.3476  1.6987  2.6593
  933SOL     hw 3731   6.748   3.391   6.880  0.6457 -4.3512  0.2722
  933SOL     vw 3732   6.709   3.393   6.803  0.0880  0.2615  0.3877
  934SOL     ow 3733   6.004   4.999   2.101 -0.4296  0.6227 -0.4217
  934SOL     hw 3734   6.033   5.073   2.048  2.9532 -0.1401  0.1408
  934SOL     hw 3735   6.047   5.011   2.185  0.8379 -2.2821 -0.5416
  934SOL     vw 3736   6.013   5.010   2.105  0.1838  0.1388 -0.3632
  935SOL     ow 3737   5.527   6.809   3.422  0.3199  0.4329 -0.2674
  935SOL     hw 3738   5.568   6.832   3.339  1.4639  0.9319  0.3995
  935SOL     hw 3739   5.598   6.771   3.474  0.3823  2.6883  1.4665
  935SOL     vw 3740   5.542   6.807   3.418  0.4790  0.7963  0.0492
  936SOL     ow 3741   6.214   0.557   5.746  0.3302  0.3201 -0.2342
  936SOL     hw 3742   6.189   0.473   5.709 -0.6197  0.9136 -0.9789
  936SOL     hw 3743   6.177   0.622   5.686 -0.6976  1.3060  1.4060
  936SOL     vw 3744   6.206   0.555   5.733  0.0691  0.5285 -0.1161
  937SOL     ow 3745   1.531   2.623   1.123 -0.3376  0.4010  0.9915
  937SOL     hw 3746   1.542   2.625   1.027 -3.4537  0.4443  0.5335
  937SOL     hw 3747   1.548   2.532   1.147 -1.3387 -0.0549  0.0787
  937SOL     vw 3748   1.535   2.612   1.113 -0.8808  0.3465  0.8106
  938SOL     ow 3749   5.856   2.074   0.529 -0.4688 -0.2380 -0.0558
  938SOL     hw 3750   5.944   2.037   0.521  0.0477  1.1992 -1.6882
  938SOL     hw 3751   5.854   2.114   0.615  1.5796  2.2363 -1.0320
  938SOL     vw 3752   5.867   2.074   0.539 -0.1304  0.2781 -0.3999
  939SOL     ow 3753   1.967   0.616   1.931 -0.3450 -0.0793  0.3091
  939SOL     hw 3754   1.887   0.591   1.884 -0.3081  2.3468 -1.2065
  939SOL     hw 3755   1.938   0.678   1.997  0.0729 -0.6600  1.0503
  939SOL     vw 3756   1.952   0.621   1.933 -0.2850  0.1642  0.2069
  940SOL     ow 3757   2.045   6.824   4.585  0.3426  0.8099  0.2634
  940SOL     hw 3758   2.031   6.855   4.675 -1.0900  0.5479  0.1491
  940SOL     hw 3759   1.988   6.747   4.577  1.1863  0.2467 -0.5782
  940SOL     vw 3760   2.036   6.818   4.596  0.2649  0.7012  0.1376
  941SOL     ow 3761   4.279   1.971   7.217  0.0099 -0.2511 -0.2982
  941SOL     hw 3762   4.191   1.970   7.179  0.6900 -0.8565 -1.9553
  941SOL     hw 3763   4.337   1.986   7.142  1.4336 -1.4427  0.5071
  941SOL     vw 3764   4.275   1.973   7.202  0.2875 -0.4881 -0.4106
  942SOL     ow 3765   0.557   0.078   0.594 -0.1309 -0.5707 -0.1984
  942SOL     hw 3766   0.492   0.058   0.661  0.3672 -1.8487 -0.0725
  942SOL     hw 3767   0.562  -0.001   0.541  0.5325 -0.0925 -0.8682
  942SOL     vw 3768   0.549   0.065   0.596  0.0224 -0.6763 -0.2702
  943SOL     ow 3769   0.550   1.551   1.024 -0.2179  0.7071  0.0525
  943SOL     hw 3770   0.568   1.638   0.987  0.6006  0.2659 -0.6408
  943SOL     hw 3771   0.520   1.500   0.949 -1.2613  0.5381  0.5752
  943SOL     vw 3772   0.548   1.556   1.009 -0.2476  0.6267  0.0301
  944SOL     ow 3773   2.280   6.570   7.260 -0.5248 -0.7156 -0.7336
  944SOL     hw 3774   2.237   6.486   7.273  0.1516 -0.8339  0.9749
  944SOL     hw 3775   2.307   6.569   7.168  1.2323 -3.2752 -0.3068
  944SOL     vw 3776   2.278   6.559   7.249 -0.2036 -1.0688 -0.4518
  945SOL     ow 3777   4.791   4.323   3.934 -0.0071  0.0823  0.0725
  945SOL     hw 3778   4.793   4.249   3.873  2.3981  0.9735 -1.0631
  945SOL     hw 3779   4.883   4.339   3.954 -0.5335  2.1536  1.0568
  945SOL     vw 3780   4.804   4.315   3.928  0.2408  0.4730  0.0525
  946SOL     ow 3781   1.504   6.003   4.332  0.0372  0.2885 -0.1744
  946SOL     hw 3782   1.575   6.001   4.267  0.1592 -0.6845 -0.0198
  946SOL     hw 3783   1.427   6.028   4.282  0.4147  1.0124 -0.4127
  946SOL     vw 3784   1.503   6.006   4.317  0.1032  0.2556 -0.1855
  947SOL     ow 3785   0.497   5.896   1.135 -0.6225  0.7060 -0.4745
  947SOL     hw 3786   0.593   5.895   1.138 -0.5087  3.8245 -0.0562
  947SOL     hw 3787   0.476   5.869   1.045  0.4847 -1.6085 -0.1277
  947SOL     vw 3788   0.507   5.892   1.123 -0.4614  0.8118 -0.3735
  948SOL     ow 3789   6.092   4.324   3.922 -0.2833 -0.5997  0.2640
  948SOL     hw 3790   6.059   4.280   3.844 -1.1861 -2.3564  1.5760
  948SOL     hw 3791   6.017   4.327   3.982 -0.1616  2.4501  0.4205
  948SOL     vw 3792   6.078   4.319   3.919 -0.3862 -0.4289  0.4576
  949SOL     ow 3793   3.004   2.549   6.863 -0.4082  0.5391  0.1315
  949SOL     hw 3794   3.027   2.616   6.799  0.4301 -0.7502 -0.9633
  949SOL     hw 3795   3.087   2.511   6.890 -0.7563  0.8977  1.8774
  949SOL     vw 3796   3.018   2.553   6.858 -0.3434  0.4163  0.2174
  950SOL     ow 3797   2.493   4.944   7.519 -0.0342  0.0874 -0.1254
  950SOL     hw 3798   2.406   4.984   7.519 -0.9366 -1.7701  0.7579
  950SOL     hw 3799   2.529   4.964   7.605  0.3749  0.7612 -0.4506
  950SOL     vw 3800   2.486   4.952   7.530 -0.0993 -0.0689 -0.0522
  951SOL     ow 3801   2.556   5.732   0.350 -0.4771  0.0502 -0.0134
  951SOL     hw 3802   2.546   5.638   0.365 -1.0074  0.1794  0.4726
  951SOL     hw 3803   2.474   5.759   0.311  0.4341 -0.0448 -2.1143
  951SOL     vw 3804   2.544   5.723   0.347 -0.4269  0.0548 -0.2265
  952SOL     ow 3805   2.582   4.944   6.066  0.6259  0.2619  0.7778
  952SOL     hw 3806   2.551   4.922   6.154 -1.4124  0.6047  0.1987
  952SOL     hw 3807   2.541   5.028   6.047 -0.0444 -0.4230 -0.9889
  952SOL     vw 3808   2.573   4.952   6.075  0.2685  0.2170  0.4685
  953SOL     ow 3809   5.444   7.011   1.596  0.4588  0.2921  0.0264
  953SOL     hw 3810   5.351   7.034   1.594  0.2166 -0.0899  2.7411
  953SOL     hw 3811   5.488   7.092   1.619  0.7072  0.2493 -0.2914
  953SOL     vw 3812   5.437   7.025   1.599  0.4597  0.2360  0.3427
  954SOL     ow 3813   6.344   7.313   5.309  0.7161 -0.7018 -0.0970
  954SOL     hw 3814   6.412   7.339   5.246  0.5712  0.9514  0.3863
  954SOL     hw 3815   6.390   7.297   5.390  0.6956 -1.1319 -0.1658
  954SOL     vw 3816   6.359   7.314   5.311  0.6943 -0.5405 -0.0422
  955SOL     ow 3817   6.325   2.610   6.387  0.2201  0.4630  0.8235
  955SOL     hw 3818   6.298   2.665   6.460  3.6036  1.6034  1.3812
  955SOL     hw 3819   6.380   2.667   6.333  1.0097 -1.4381 -0.4911
  955SOL     vw 3820   6.328   2.625   6.389  0.7703  0.3626  0.7238
  956SOL     ow 3821   3.381   4.597   2.186 -0.1851  0.2189 -0.5500
  956SOL     hw 3822   3.347   4.648   2.112 -0.0712  0.1272 -0.6665
  956SOL     hw 3823   3.438   4.531   2.145 -0.8020 -0.3910 -0.4581
  956SOL     vw 3824   3.384   4.595   2.171 -0.2515  0.1261 -0.5531
  957SOL     ow 3825   6.768   5.633   7.427  0.6625 -0.0146 -0.4335
  957SOL     hw 3826   6.857   5.667   7.417  0.6957  0.5675  1.4411
  957SOL     hw 3827   6.764   5.604   7.518 -0.7408 -1.0519 -0.7952
  957SOL     vw 3828   6.779   5.634   7.438  0.4816 -0.0746 -0.2339
  958SOL     ow 3829   1.339   5.421   5.150  0.4702 -0.7272 -0.9572
  958SOL     hw 3830   1.397   5.492   5.122 -0.5771  0.1889 -0.8848
  958SOL     hw 3831   1.395   5.363   5.201  1.2526  0.2920 -0.6186
  958SOL     vw 3832   1.354   5.423   5.153  0.4352 -0.4718 -0.9029
  959SOL     ow 3833   5.901   7.329   6.683  0.7824 -0.4447  0.4305
  959SOL     hw 3834   5.958   7.299   6.613  0.6750 -0.8981  0.5323
  959SOL     hw 3835   5.961   7.353   6.754  0.9037  0.2450  0.1068
  959SOL     vw 3836   5.916   7.328   6.683  0.7844 -0.4137  0.4015
  960SOL     ow 3837   6.424   3.113   7.051 -0.1177 -0.1500  0.5533
  960SOL     hw 3838   6.417   3.178   6.981 -2.3889 -1.0448 -0.1349
  960SOL     hw 3839   6.507   3.134   7.095 -0.7929  3.3324  0.4791
  960SOL     vw 3840   6.434   3.125   7.048 -0.5066  0.1915  0.4525
  961SOL     ow 3841   6.788   6.310   4.409 -0.9441 -0.0885  0.1437
  961SOL     hw 3842   6.712   6.336   4.357 -1.0884  0.4241  0.5981
  961SOL     hw 3843   6.758   6.238   4.463 -0.9672 -0.2142 -0.0368
  961SOL     vw 3844   6.774   6.304   4.409 -0.9663 -0.0377  0.1798
  962SOL     ow 3845   5.746   0.844   2.315 -0.1747  0.5780  0.6012
  962SOL     hw 3846   5.747   0.893   2.397  3.3887  0.9966  0.4941
  962SOL     hw 3847   5.721   0.908   2.249  2.4494  1.8894  0.7348
  962SOL     vw 3848   5.743   0.859   2.317  0.6416  0.8062  0.6046
  963SOL     ow 3849   7.076   0.132   2.672 -0.7451  0.0542 -0.0022
  963SOL     hw 3850   7.018   0.131   2.595 -1.4205  0.3061  0.4952
  963SOL     hw 3851   7.164   0.136   2.635 -1.1014  1.5925 -0.7788
  963SOL     vw 3852   7.080   0.132   2.657 -0.8812  0.2904 -0.0392
  964SOL     ow 3853   0.423   2.387   1.539  0.4858 -0.3066  0.0147
  964SOL     hw 3854   0.436   2.318   1.473 -2.3295  0.1143 -1.1291
  964SOL     hw 3855   0.385   2.460   1.490  0.1337  0.7677  1.7924
  964SOL     vw 3856   0.419   2.387   1.524  0.0678 -0.1093  0.0983
  965SOL     ow 3857   1.552   3.510   6.213 -0.0171  0.2126  0.1471
  965SOL     hw 3858   1.632   3.471   6.177 -0.5828 -1.0958  0.2717
  965SOL     hw 3859   1.516   3.561   6.140  2.6071  3.6691  0.9779
  965SOL     vw 3860   1.558   3.512   6.199  0.2545  0.4960  0.2732
  966SOL     ow 3861   4.576   5.753   7.516 -0.2872 -0.0586 -0.0530
  966SOL     hw 3862   4.555   5.705   7.436  2.5402 -0.8391 -0.4229
  966SOL     hw 3863   4.556   5.691   7.587  1.8224 -1.3152 -0.4599
  966SOL     vw 3864   4.570   5.739   7.515  0.3641 -0.3273 -0.1554
  967SOL     ow 3865   6.339   5.197   6.181  0.7478  0.4133  0.2476
  967SOL     hw 3866   6.274   5.262   6.208  1.9820  1.2184  1.3406
  967SOL     hw 3867   6.299   5.113   6.202 -0.4897  0.8249 -0.3465
  967SOL     vw 3868   6.325   5.195   6.187  0.7472  0.5739  0.3133
  968SOL     ow 3869   3.794   4.038   7.328  0.5882  0.3761  0.0150
  968SOL     hw 3870   3.861   3.977   7.297  0.7772  0.5043  0.1751
  968SOL     hw 3871   3.712   4.002   7.294  0.5930 -0.4505  0.8310
  968SOL     vw 3872   3.792   4.025   7.319  0.6139  0.2840  0.1440
  969SOL     ow 3873   3.245   4.704   4.656  0.1631 -0.3245  0.1456
  969SOL     hw 3874   3.317   4.641   4.645  0.9822  0.1849  2.0951
  969SOL     hw 3875   3.175   4.653   4.696  0.4409 -0.2415  0.7472
  969SOL     vw 3876   3.245   4.689   4.660  0.3079 -0.2463  0.4821
  970SOL     ow 3877   4.234   5.222   2.314 -0.0946  0.5826  0.3952
  970SOL     hw 3878   4.286   5.293   2.277 -1.3028  0.8024 -0.9666
  970SOL     hw 3879   4.280   5.197   2.394  3.1850 -0.4943 -1.6300
  970SOL     vw 3880   4.247   5.228   2.320  0.1791  0.4694 -0.0517
  971SOL     ow 3881   1.801   7.300   3.987  0.0889 -0.4600 -0.7414
  971SOL     hw 3882   1.714   7.287   4.025  0.1852 -0.0870 -0.3865
  971SOL     hw 3883   1.790   7.375   3.928  1.1897  2.9723  2.9376
  971SOL     vw 3884   1.788   7.308   3.984  0.2469  0.0420 -0.2091
  972SOL     ow 3885   6.532   7.240   4.915 -0.7741  0.1432  0.0287
  972SOL     hw 3886   6.530   7.205   4.826 -0.4533 -0.3855  0.2276
  972SOL     hw 3887   6.442   7.270   4.930 -0.9534 -0.2113 -0.2963
  972SOL     vw 3888   6.520   7.239   4.905 -0.7553  0.0265  0.0122
  973SOL     ow 3889   4.604   4.918   7.399  0.6955 -0.3764 -0.2695
  973SOL     hw 3890   4.635   4.979   7.333 -1.1586  0.6484 -0.2787
  973SOL     hw 3891   4.643   4.949   7.481  1.3100 -0.3657 -0.5658
  973SOL     vw 3892   4.613   4.930   7.401  0.5319 -0.2398 -0.3099
  974SOL     ow 3893   4.658   5.904   5.653 -0.1424 -0.1046  0.0709
  974SOL     hw 3894   4.738   5.870   5.694 -0.0937 -1.0432 -0.7582
  974SOL     hw 3895   4.653   5.995   5.682  1.4688  0.1065 -0.2173
  974SOL     vw 3896   4.668   5.912   5.662  0.0768 -0.2005 -0.0765
  975SOL     ow 3897   6.391   1.896   5.957  0.0231 -0.0477 -0.2676
  975SOL     hw 3898   6.448   1.848   5.896 -0.4760 -0.0994 -0.7039
  975SOL     hw 3899   6.448   1.919   6.031  0.4109 -0.7818 -0.3357
  975SOL     vw 3900   6.406   1.893   5.958  0.0083 -0.1513 -0.3340
  976SOL     ow 3901   3.902   4.626   1.548 -0.4292  0.4984  0.3373
  976SOL     hw 3902   3.864   4.555   1.497  2.0892  1.3504 -3.0761
  976SOL     hw 3903   3.970   4.584   1.600  0.5029  0.2145 -1.0551
  976SOL     vw 3904   3.906   4.611   1.548  0.0261  0.5732 -0.2968
  977SOL     ow 3905   2.884   3.295   0.336  0.0006 -0.1319 -0.0443
  977SOL     hw 3906   2.790   3.312   0.330 -0.3370 -1.9681 -0.5739
  977SOL     hw 3907   2.923   3.352   0.270 -0.8211  0.1583 -0.2933
  977SOL     vw 3908   2.876   3.305   0.326 -0.1523 -0.3359 -0.1471
  978SOL     ow 3909   7.480   3.707   3.292  0.2601  0.1070 -0.6145
  978SOL     hw 3910   7.532   3.753   3.358  2.3935  0.3792 -2.3822
  978SOL     hw 3911   7.454   3.776   3.230 -0.5432 -0.3508 -0.7991
  978SOL     vw 3912   7.483   3.722   3.293  0.4356  0.0825 -0.8721
  979SOL     ow 3913   5.218   3.300   5.235  0.1077 -0.1501 -0.3601
  979SOL     hw 3914   5.307   3.274   5.212 -0.3067 -2.4344  0.3772
  979SOL     hw 3915   5.228   3.352   5.315  0.6996 -1.9987  0.8365
  979SOL     vw 3916   5.231   3.303   5.243  0.1311 -0.6955 -0.1049
  980SOL     ow 3917   4.723   6.275   1.047  0.1480  0.1022 -0.6999
  980SOL     hw 3918   4.655   6.327   1.005 -0.2822  0.5821  0.5397
  980SOL     hw 3919   4.678   6.230   1.118  0.8307 -0.7780 -0.7993
  980SOL     vw 3920   4.708   6.276   1.051  0.1814  0.0494 -0.5495
  981SOL     ow 3921   6.144   1.572   2.006  0.3945 -0.3375 -0.3435
  981SOL     hw 3922   6.080   1.641   1.992  1.1999  0.3240 -0.8896
  981SOL     hw 3923   6.205   1.580   1.932 -0.0405 -2.2701 -0.9749
  981SOL     vw 3924   6.144   1.582   1.995  0.4435 -0.5052 -0.4990
  982SOL     ow 3925   6.799   5.527   1.644  0.0283  0.1109 -0.3338
  982SOL     hw 3926   6.881   5.556   1.685  1.6016 -2.0390 -1.7644
  982SOL     hw 3927   6.809   5.551   1.552 -0.9161 -0.3165 -0.5575
  982SOL     vw 3928   6.811   5.534   1.637  0.1113 -0.2291 -0.5521
  983SOL     ow 3929   5.317   2.509   2.370  0.0668  0.3089 -0.1726
  983SOL     hw 3930   5.226   2.520   2.395 -0.0282 -0.9154  0.1067
  983SOL     hw 3931   5.315   2.500   2.275  0.1087  2.0453 -0.3629
  983SOL     vw 3932   5.305   2.509   2.361  0.0598  0.3766 -0.1609
  984SOL     ow 3933   5.491   5.066   7.151  0.2758  0.1367  0.7437
  984SOL     hw 3934   5.413   5.109   7.188  1.5482  1.6686  1.8095
  984SOL     hw 3935   5.476   5.066   7.056 -2.1253 -1.9456  1.0389
  984SOL     vw 3936   5.479   5.072   7.143  0.1271  0.0641  0.9234
  985SOL     ow 3937   1.337   6.040   4.592 -0.6369 -0.3001 -0.1840
  985SOL     hw 3938   1.292   6.125   4.589 -0.9077 -0.4616 -0.7279
  985SOL     hw 3939   1.268   5.976   4.574 -0.1652 -0.5465 -1.1517
  985SOL     vw 3940   1.322   6.043   4.589 -0.6104 -0.3538 -0.3836
  986SOL     ow 3941   2.938   4.325   7.551  0.3926  0.0025 -0.0958
  986SOL     hw 3942   2.969   4.382   7.481 -0.3647  1.8855  1.0129
  986SOL     hw 3943   2.867   4.275   7.512  1.8477 -1.1041 -1.4214
  986SOL     vw 3944   2.933   4.326   7.537  0.4847  0.1049 -0.1244
  987SOL     ow 3945   3.398   6.567   0.641  0.7208 -0.1643  0.5497
  987SOL     hw 3946   3.437   6.644   0.681 -0.3557 -0.0473  1.4391
  987SOL     hw 3947   3.360   6.598   0.559 -1.5684  0.7918  1.8707
  987SOL     vw 3948   3.398   6.581   0.635  0.2768 -0.0229  0.8413
  988SOL     ow 3949   4.104   5.709   1.034  0.4105 -0.1154 -0.4594
  988SOL     hw 3950   4.083   5.799   1.010  0.5679 -0.2113 -0.9662
  988SOL     hw 3951   4.097   5.708   1.130  2.6069  1.0289 -0.2051
  988SOL     vw 3952   4.100   5.721   1.044  0.7212  0.0226 -0.4928
  989SOL     ow 3953   6.221   6.009   3.731  0.5912  0.2875 -0.1759
  989SOL     hw 3954   6.190   6.020   3.821  0.6514  1.2507 -0.2629
  989SOL     hw 3955   6.179   6.080   3.683 -0.6319 -1.0905 -1.2408
  989SOL     vw 3956   6.211   6.020   3.737  0.4375  0.2327 -0.3278
  990SOL     ow 3957   0.281   4.109   3.094  0.2083  0.1002 -0.5450
  990SOL     hw 3958   0.234   4.029   3.068 -1.2960  1.5964 -2.7064
  990SOL     hw 3959   0.241   4.178   3.042  0.3761  2.5833  2.3671
  990SOL     vw 3960   0.270   4.107   3.084  0.0320  0.6251 -0.4458
  991SOL     ow 3961   2.498   4.061   7.310 -0.6175 -0.1172 -0.1461
  991SOL     hw 3962   2.490   3.998   7.382  1.3247 -0.8409 -0.4953
  991SOL     hw 3963   2.505   4.007   7.232 -0.3796  0.5937 -0.6194
  991SOL     vw 3964   2.498   4.046   7.310 -0.3300 -0.1187 -0.2546
  992SOL     ow 3965   0.476   5.541   3.785  0.2065  0.3785 -0.4029
  992SOL     hw 3966   0.457   5.568   3.875  0.0816  0.1431 -0.3587
  992SOL     hw 3967   0.454   5.618   3.732  4.4930  2.2266  0.1149
  992SOL     vw 3968   0.470   5.555   3.789  0.7556  0.5913 -0.3288
  993SOL     ow 3969   4.293   4.149   7.089  0.1549  0.7977  0.7722
  993SOL     hw 3970   4.375   4.148   7.139  0.7147  0.5620 -0.1220
  993SOL     hw 3971   4.229   4.187   7.148  0.8078  0.5573  1.6521
  993SOL     vw 3972   4.295   4.154   7.103  0.3152  0.7350  0.7703
  994SOL     ow 3973   7.232   5.666   6.233  0.5916 -0.0127 -0.2038
  994SOL     hw 3974   7.190   5.582   6.252 -1.1406  0.9449  0.3606
  994SOL     hw 3975   7.163   5.731   6.241  1.1114  1.2053 -3.7557
  994SOL     vw 3976   7.218   5.663   6.237  0.4318  0.2744 -0.5980
  995SOL     ow 3977   5.651   1.097   2.805  0.0234 -0.0734 -0.5039
  995SOL     hw 3978   5.618   1.164   2.864  2.8468  1.6770 -0.7132
  995SOL     hw 3979   5.577   1.038   2.791 -1.7363  1.3679  1.9934
  995SOL     vw 3980   5.637   1.098   2.811  0.1638  0.3477 -0.2019
  996SOL     ow 3981   4.290   6.271   4.646  0.3859 -0.6629 -0.1472
  996SOL     hw 3982   4.365   6.267   4.587  2.4173  0.5174  2.1461
  996SOL     hw 3983   4.279   6.182   4.678 -2.1367 -1.8384 -3.6667
  996SOL     vw 3984   4.298   6.259   4.643  0.3211 -0.6623 -0.3092
  997SOL     ow 3985   4.956   6.484   2.900  0.0127 -0.0677 -0.1483
  997SOL     hw 3986   4.936   6.578   2.901 -0.7021 -0.2000 -0.7536
  997SOL     hw 3987   4.958   6.461   2.807  0.1505 -0.6616 -0.0035
  997SOL     vw 3988   4.954   6.494   2.888 -0.0634 -0.1638 -0.2090
  998SOL     ow 3989   2.613   4.328   4.401  0.0963  0.2740 -0.0603
  998SOL     hw 3990   2.635   4.418   4.425 -0.3011  0.0517  1.2288
  998SOL     hw 3991   2.687   4.299   4.347  0.9486  0.8971  0.7326
  998SOL     vw 3992   2.626   4.336   4.397  0.1563  0.3271  0.2143
  999SOL     ow 3993   6.781   3.135   2.352  0.2973 -0.3757 -0.0931
  999SOL     hw 3994   6.741   3.072   2.411 -1.7032  0.3623 -0.5780
  999SOL     hw 3995   6.794   3.214   2.405 -0.3767 -0.1153 -0.2914
  999SOL     vw 3996   6.777   3.137   2.366 -0.0556 -0.2438 -0.1832
 1000SOL     ow 3997   2.186   0.712   7.371 -0.0720  0.6694  0.2396
 1000SOL     hw 3998   2.178   0.680   7.281 -1.4031  0.8691  0.2647
 1000SOL     hw 3999   2.275   0.689   7.397 -0.7442 -2.6192  0.0919
 1000SOL     vw 4000   2.196   0.704   7.362 -0.3363  0.2619  0.2236
 1001SOL     ow 4001   5.091   2.003   2.320  0.3195 -0.5207 -0.3099
 1001SOL     hw 4002   5.015   1.997   2.263 -0.0530  0.4125  0.0627
 1001SOL     hw 4003   5.094   1.919   2.366 -0.5270 -0.5341 -0.2690
 1001SOL     vw 4004   5.082   1.991   2.318  0.1585 -0.3994 -0.2552
 1002SOL     ow 4005   2.884   5.549   7.230  0.2846  0.0665 -0.1280
 1002SOL     hw 4006   2.862   5.544   7.323  1.5095  1.5604  0.2651
 1002SOL     hw 4007   2.807   5.511   7.186  0.4032 -2.3124  1.5193
 1002SOL     vw 4008   2.871   5.543   7.237  0.4618 -0.0505  0.1411
 1003SOL     ow 4009   2.787   4.992   5.469 -0.4167  0.0937  0.5056
 1003SOL     hw 4010   2.714   4.959   5.522 -1.7409 -1.2039 -1.9624
 1003SOL     hw 4011   2.766   4.966   5.380  2.3953  0.9710 -0.5280
 1003SOL     vw 4012   2.775   4.985   5.464 -0.2202  0.0384  0.0439
 1004SOL     ow 4013   2.844   6.191   0.672 -0.2098 -0.2048  0.6332
 1004SOL     hw 4014   2.791   6.244   0.731  0.6514 -0.6279  1.8160
 1004SOL     hw 4015   2.928   6.236   0.668 -0.8209  0.8754 -1.8242
 1004SOL     vw 4016   2.848   6.204   0.679 -0.1768 -0.1180  0.4650
 1005SOL     ow 4017   1.024   7.043   0.751 -0.4889  0.0311  1.0026
 1005SOL     hw 4018   1.047   7.070   0.662 -1.6237 -0.9423  0.3900
 1005SOL     hw 4019   0.965   6.969   0.740 -1.8089  0.7810  2.5352
 1005SOL     vw 4020   1.019   7.037   0.738 -0.8128  0.0017  1.1240
 1006SOL     ow 4021   1.028   1.703   6.837  0.2123  0.2988  0.3234
 1006SOL     hw 4022   1.073   1.777   6.877 -1.5922  1.0603  1.0507
 1006SOL     hw 4023   0.950   1.691   6.891 -0.8623 -0.4624 -1.3262
 1006SOL     vw 4024   1.023   1.711   6.849 -0.1675  0.2989  0.2015
 1007SOL     ow 4025   4.754   6.773   3.248  0.4103 -0.2179  0.0503
 1007SOL     hw 4026   4.844   6.741   3.255  0.2886 -0.6126 -0.1840
 1007SOL     hw 4027   4.750   6.816   3.163 -0.0464 -1.5752 -0.6470
 1007SOL     vw 4028   4.765   6.774   3.238  0.3340 -0.4492 -0.0727
 1008SOL     ow 4029   2.547   4.819   5.252 -0.6639  0.3892 -0.2926
 1008SOL     hw 4030   2.626   4.869   5.232 -0.3768 -0.3554 -1.0747
 1008SOL     hw 4031   2.578   4.747   5.308 -0.4929 -0.8000 -1.8524
 1008SOL     vw 4032   2.562   4.816   5.257 -0.6034  0.1342 -0.6018
 1009SOL     ow 4033   6.705   6.015   2.544 -0.1708  0.0182  0.8779
 1009SOL     hw 4034   6.733   6.031   2.634 -1.8279 -1.2011  1.6633
 1009SOL     hw 4035   6.683   6.101   2.510  0.9890  0.5581  1.4291
 1009SOL     vw 4036   6.706   6.028   2.552 -0.2365 -0.0715  1.0543
 1010SOL     ow 4037   0.552   2.469   0.217 -0.3792 -0.5934 -0.0527
 1010SOL     hw 4038   0.644   2.493   0.202  0.0121 -0.6974  1.8749
 1010SOL     hw 4039   0.556   2.394   0.276 -1.7163 -0.2477  0.5077
 1010SOL     vw 4040   0.565   2.462   0.223 -0.5040 -0.5616  0.2756
 1011SOL     ow 4041   1.274   1.364   2.944  0.2474 -0.2294 -0.1520
 1011SOL     hw 4042   1.354   1.326   2.907  1.0136  1.9021 -0.8638
 1011SOL     hw 4043   1.291   1.459   2.945 -0.7533  0.0566  3.2608
 1011SOL     vw 4044   1.287   1.372   2.939  0.2164  0.0895  0.2044
 1012SOL     ow 4045   1.958   6.005   0.475  0.2266 -0.6477  0.3864
 1012SOL     hw 4046   1.953   5.929   0.417  2.3012  0.4561 -1.4134
 1012SOL     hw 4047   1.950   6.080   0.417 -1.4483  0.5689  2.0734
 1012SOL     vw 4048   1.956   6.005   0.460  0.2794 -0.3417  0.3715
 1013SOL     ow 4049   6.267   3.421   0.050  0.2771  0.3363 -0.5177
 1013SOL     hw 4050   6.305   3.389  -0.032  1.4649  0.0701  0.1115
 1013SOL     hw 4051   6.342   3.452   0.100 -0.3589 -0.0368  0.7036
 1013SOL     vw 4052   6.282   3.421   0.046  0.3498  0.2519 -0.2736
 1014SOL     ow 4053   3.366   5.568   0.489  0.0554 -0.2908  0.0366
 1014SOL     hw 4054   3.324   5.643   0.446 -0.4917 -0.1713  0.7658
 1014SOL     hw 4055   3.305   5.543   0.558  0.0702 -1.6294 -0.4121
 1014SOL     vw 4056   3.353   5.574   0.492 -0.0148 -0.4518  0.0736
 1015SOL     ow 4057   0.571   6.071   6.689  0.9073  0.0461  0.2596
 1015SOL     hw 4058   0.579   6.116   6.773 -0.3296  0.4002  0.2073
 1015SOL     hw 4059   0.567   5.978   6.712 -0.0494  0.1711  0.6670
 1015SOL     vw 4060   0.571   6.065   6.703  0.6179  0.1092  0.3066
 1016SOL     ow 4061   7.354   3.558   0.233 -0.2634 -0.0337  0.6763
 1016SOL     hw 4062   7.344   3.654   0.233  0.6127  0.0659  0.1542
 1016SOL     hw 4063   7.284   3.527   0.291 -1.1619  0.8533  0.0976
 1016SOL     vw 4064   7.344   3.567   0.241 -0.2661  0.0966  0.5311
 1017SOL     ow 4065   1.295   1.777   1.175 -0.2473 -0.5029 -0.0358
 1017SOL     hw 4066   1.369   1.808   1.227 -0.7719  1.4011 -0.3234
 1017SOL     hw 4067   1.313   1.684   1.160  0.8414 -0.6768  1.9429
 1017SOL     vw 4068   1.307   1.769   1.180 -0.1729 -0.2747  0.1873
 1018SOL     ow 4069   7.008   5.404   0.152 -0.0897  0.4454  0.2906
 1018SOL     hw 4070   6.987   5.432   0.241  1.3429  0.2771  0.7115
 1018SOL     hw 4071   7.061   5.475   0.117  0.7545 -0.2159  0.1842
 1018SOL     vw 4072   7.013   5.417   0.159  0.2108  0.3362  0.3321
 1019SOL     ow 4073   6.391   5.793   5.650  0.2887  0.1868 -0.2397
 1019SOL     hw 4074   6.448   5.804   5.726 -0.6299  0.7977  0.3800
 1019SOL     hw 4075   6.347   5.710   5.665  1.2767 -0.4811 -0.9142
 1019SOL     vw 4076   6.393   5.784   5.662  0.2978  0.1795 -0.2468
 1020SOL     ow 4077   3.937   4.983   2.048  0.6041 -0.0305  0.3223
 1020SOL     hw 4078   3.977   4.919   2.106  0.6122  0.5403  0.9561
 1020SOL     hw 4079   3.918   4.934   1.968 -0.5560 -1.1527  1.2341
 1020SOL     vw 4080   3.940   4.968   2.045  0.4522 -0.1032  0.5262
 1021SOL     ow 4081   0.090   5.728   3.397 -0.1871  0.3933 -0.2665
 1021SOL     hw 4082   0.052   5.811   3.427  0.1108  0.2246  0.6164
 1021SOL     hw 4083   0.127   5.748   3.311 -1.6490  0.7378 -0.8553
 1021SOL     vw 4084   0.090   5.741   3.390 -0.3407  0.4165 -0.2278
 1022SOL     ow 4085   0.960   5.865   7.368 -0.7167  0.0480 -0.4113
 1022SOL     hw 4086   1.025   5.904   7.309  0.0945 -0.3718  0.1877
 1022SOL     hw 4087   1.007   5.852   7.450 -1.5462 -0.3311  0.0126
 1022SOL     vw 4088   0.975   5.868   7.371 -0.7191 -0.0572 -0.2763
 1023SOL     ow 4089   1.614   3.340   5.693  0.5727 -0.2663  0.6195
 1023SOL     hw 4090   1.555   3.392   5.747 -0.0642  1.0500 -1.2507
 1023SOL     hw 4091   1.645   3.271   5.752 -0.5519  0.7113  2.4636
 1023SOL     vw 4092   1.610   3.337   5.708  0.3403  0.0364  0.6163
 1024SOL     ow 4093   2.076   2.877   6.929  0.5094  0.5863 -0.0895
 1024SOL     hw 4094   2.060   2.928   7.009  1.0855  1.4124 -0.4783
 1024SOL     hw 4095   2.163   2.906   6.900 -0.1498  1.1188 -1.6147
 1024SOL     vw 4096   2.086   2.888   6.936  0.4983  0.7654 -0.3421
 1025SOL     ow 4097   1.938   1.171   0.460 -0.1295  0.3090  0.1630
 1025SOL     hw 4098   1.892   1.174   0.376 -0.7490 -0.7289  0.4473
 1025SOL     hw 4099   2.025   1.206   0.441 -0.3026  0.1983 -0.8911
 1025SOL     vw 4100   1.943   1.176   0.447 -0.2341  0.1575  0.0614
 1026SOL     ow 4101   4.299   0.998   1.789  0.5397  0.0506 -0.6288
 1026SOL     hw 4102   4.244   1.055   1.735 -0.3974 -0.1729  0.0695
 1026SOL     hw 4103   4.332   1.055   1.858 -2.5059 -0.6999  1.6272
 1026SOL     vw 4104   4.296   1.013   1.791  0.0141 -0.0778 -0.2390
 1027SOL     ow 4105   7.529   4.770   4.764 -0.0459  0.5999 -0.6683
 1027SOL     hw 4106   7.587   4.712   4.714  0.7615 -0.0445  0.9730
 1027SOL     hw 4107   7.463   4.712   4.802 -0.5759  1.0706 -0.8501
 1027SOL     vw 4108   7.528   4.755   4.762 -0.0093  0.5770 -0.4761
 1028SOL     ow 4109   1.076   6.199   2.849 -0.6235  0.6830  0.2547
 1028SOL     hw 4110   1.016   6.137   2.891 -0.4044  0.1475 -0.2118
 1028SOL     hw 4111   1.023   6.241   2.781 -0.8943  1.3314  0.8604
 1028SOL     vw 4112   1.061   6.196   2.846 -0.6303  0.6981  0.2731
 1029SOL     ow 4113   6.367   5.767   3.816  0.1160 -0.4028 -0.1730
 1029SOL     hw 4114   6.306   5.712   3.768 -2.1934  1.0518  0.9109
 1029SOL     hw 4115   6.437   5.708   3.843 -1.6529 -2.5496 -0.0234
 1029SOL     vw 4116   6.369   5.752   3.813 -0.4220 -0.4942 -0.0104
 1030SOL     ow 4117   1.808   7.338   0.676  0.0919  0.1452  0.3853
 1030SOL     hw 4118   1.821   7.297   0.590 -0.3428 -0.7022  0.7059
 1030SOL     hw 4119   1.885   7.393   0.688 -0.4189  1.2780 -1.0870
 1030SOL     vw 4120   1.820   7.340   0.666 -0.0329  0.1826  0.2334
 1031SOL     ow 4121   0.166   2.419   2.788  0.3620  0.1728  0.2418
 1031SOL     hw 4122   0.225   2.410   2.863  0.7200  2.0992  0.2307
 1031SOL     hw 4123   0.086   2.458   2.826  0.0213 -0.1289 -0.1563
 1031SOL     vw 4124   0.163   2.423   2.803  0.3643  0.3872  0.1878
 1032SOL     ow 4125   6.831   6.443   0.493  0.1348  0.1983  0.3957
 1032SOL     hw 4126   6.800   6.519   0.444 -0.1541 -0.3027 -0.1998
 1032SOL     hw 4127   6.926   6.444   0.481  0.0612  0.0538 -0.2002
 1032SOL     vw 4128   6.839   6.453   0.485  0.0870  0.1130  0.2385
 1033SOL     ow 4129   6.606   2.975   6.171 -0.9654  0.3149  0.5080
 1033SOL     hw 4130   6.643   3.052   6.214 -1.2728  0.7441  0.0057
 1033SOL     hw 4131   6.558   3.009   6.096  0.6257 -0.4966 -0.9557
 1033SOL     vw 4132   6.605   2.990   6.167 -0.7958  0.2644  0.2484
 1034SOL     ow 4133   6.835   6.920   7.260 -0.2442  0.5780  0.2021
 1034SOL     hw 4134   6.795   6.919   7.347  0.5408  4.8879  0.8285
 1034SOL     hw 4135   6.765   6.948   7.201  0.0065  0.8122  0.0139
 1034SOL     vw 4136   6.821   6.923   7.264 -0.1075  1.1775  0.2599
 1035SOL     ow 4137   6.204   6.928   0.890  0.7017  0.4018 -0.4821
 1035SOL     hw 4138   6.113   6.912   0.865  0.4479  1.1098 -0.0660
 1035SOL     hw 4139   6.249   6.845   0.873 -0.2786 -0.3544  0.4480
 1035SOL     vw 4140   6.198   6.915   0.885  0.5388  0.3955 -0.3045
 1036SOL     ow 4141   0.386   4.340   0.788  0.4285 -0.0176 -0.3437
 1036SOL     hw 4142   0.399   4.407   0.855  1.3493 -1.1597  0.6553
 1036SOL     hw 4143   0.382   4.389   0.706 -1.2114  1.4652  0.5447
 1036SOL     vw 4144   0.387   4.355   0.786  0.3337  0.0272 -0.0946
 1037SOL     ow 4145   1.142   5.876   3.900  0.6202 -0.6406  0.2225
 1037SOL     hw 4146   1.227   5.917   3.917  0.2561 -0.6907  2.5109
 1037SOL     hw 4147   1.161   5.783   3.891  1.0173 -0.4345 -1.3837
 1037SOL     vw 4148   1.155   5.869   3.901  0.6245 -0.6201  0.3126
 1038SOL     ow 4149   0.613   2.602   3.579  0.0133 -0.0671 -0.3773
 1038SOL     hw 4150   0.590   2.667   3.646  0.2450 -0.5816  0.2067
 1038SOL     hw 4151   0.688   2.640   3.533  0.4787 -0.1612  0.3061
 1038SOL     vw 4152   0.620   2.616   3.582  0.1053 -0.1475 -0.2100
 1039SOL     ow 4153   3.031   2.053   3.245 -0.3318 -0.4022  0.3474
 1039SOL     hw 4154   3.080   2.059   3.163  0.9661 -2.0311  0.9620
 1039SOL     hw 4155   2.943   2.026   3.218 -0.5803  1.2496 -0.6540
 1039SOL     vw 4156   3.026   2.050   3.231 -0.1932 -0.3992  0.2964
 1040SOL     ow 4157   4.337   5.993   5.977 -0.1444  0.7578 -0.2504
 1040SOL     hw 4158   4.390   5.933   5.924 -0.1592 -2.0642  2.5813
 1040SOL     hw 4159   4.399   6.031   6.039 -0.8573 -0.2626  1.1552
 1040SOL     vw 4160   4.352   5.990   5.978 -0.2403  0.2511  0.3088
 1041SOL     ow 4161   6.383   4.512   0.661 -0.0252 -0.5969  0.0208
 1041SOL     hw 4162   6.405   4.434   0.611  0.3598 -0.3656 -0.1789
 1041SOL     hw 4163   6.464   4.536   0.706 -0.5776 -1.2828  1.4409
 1041SOL     vw 4164   6.396   4.505   0.660 -0.0472 -0.6568  0.1818
 1042SOL     ow 4165   0.658   5.099   2.888  0.2572  0.3234 -0.2186
 1042SOL     hw 4166   0.658   5.065   2.798  0.4402  1.9101 -0.8464
 1042SOL     hw 4167   0.747   5.134   2.900 -0.3209  1.8410 -0.1325
 1042SOL     vw 4168   0.670   5.099   2.878  0.2051  0.7329 -0.2902
 1043SOL     ow 4169   2.215   5.350   0.853  0.6974  0.1452 -0.5932
 1043SOL     hw 4170   2.121   5.332   0.845 -0.1651  2.5739  2.0545
 1043SOL     hw 4171   2.230   5.424   0.794  0.9373 -0.1942 -0.9587
 1043SOL     vw 4172   2.204   5.357   0.844  0.6154  0.4208 -0.2921
 1044SOL     ow 4173   4.213   5.179   1.212  0.0866  0.0964 -0.5472
 1044SOL     hw 4174   4.237   5.146   1.299  1.3109  1.5645 -0.2967
 1044SOL     hw 4175   4.183   5.101   1.165  1.5834 -1.1443  0.4467
 1044SOL     vw 4176   4.212   5.164   1.218  0.4454  0.1264 -0.3830
 1045SOL     ow 4177   6.689   6.132   2.791 -0.5403 -0.3209  0.4242
 1045SOL     hw 4178   6.608   6.142   2.740  0.0420 -1.8381 -0.8804
 1045SOL     hw 4179   6.716   6.222   2.810 -1.8244  0.2505 -0.2668
 1045SOL     vw 4180   6.682   6.145   2.787 -0.6328 -0.4458  0.1609
 1046SOL     ow 4181   6.754   2.638   3.575  0.0097 -0.0394  0.4203
 1046SOL     hw 4182   6.814   2.711   3.558  0.6012 -0.8161 -1.0069
 1046SOL     hw 4183   6.811   2.562   3.586 -0.6480 -1.0655 -2.3359
 1046SOL     vw 4184   6.769   2.638   3.574  0.0012 -0.2772 -0.1316
 1047SOL     ow 4185   6.232   2.090   0.703  0.2095  0.0272 -0.3228
 1047SOL     hw 4186   6.256   2.030   0.633 -1.3512 -1.3387  0.2273
 1047SOL     hw 4187   6.195   2.166   0.658  3.2237  1.2022 -1.0728
 1047SOL     vw 4188   6.230   2.092   0.688  0.4015  0.0021 -0.3491
 1048SOL     ow 4189   0.693   1.763   4.221  0.1518  0.2945  0.1020
 1048SOL     hw 4190   0.788   1.769   4.234  0.2809 -0.8223 -0.2050
 1048SOL     hw 4191   0.682   1.690   4.161 -1.0375 -1.2482  2.0436
 1048SOL     vw 4192   0.704   1.754   4.215  0.0120 -0.0564  0.3178
 1049SOL     ow 4193   2.441   3.091   0.983 -0.5478 -0.1687 -0.6896
 1049SOL     hw 4194   2.365   3.147   0.966 -0.4737 -0.1484 -0.9554
 1049SOL     hw 4195   2.501   3.147   1.032 -0.0560  0.3074 -1.7910
 1049SOL     vw 4196   2.439   3.106   0.987 -0.4733 -0.1032 -0.8700
 1050SOL     ow 4197   4.075   5.413   6.459  0.0543  0.3129 -0.2340
 1050SOL     hw 4198   4.032   5.476   6.517 -1.4902  0.4137 -1.4126
 1050SOL     hw 4199   4.107   5.464   6.386 -0.1267 -0.1104 -0.6145
 1050SOL     vw 4200   4.073   5.428   6.457 -0.1736  0.2701 -0.4396
 1051SOL     ow 4201   5.731   3.814   3.697 -0.2927  0.1690 -0.4028
 1051SOL     hw 4202   5.756   3.752   3.628  1.0322  1.7481 -1.4041
 1051SOL     hw 4203   5.812   3.830   3.745  0.1667  3.3200 -2.0102
 1051SOL     vw 4204   5.745   3.808   3.695 -0.0572  0.7931 -0.7470
 1052SOL     ow 4205   3.770   6.301   5.781 -0.0186 -0.2276 -0.3737
 1052SOL     hw 4206   3.686   6.312   5.825  1.0929 -0.6775  2.0563
 1052SOL     hw 4207   3.751   6.245   5.706 -1.5402 -2.5152  1.5492
 1052SOL     vw 4208   3.756   6.295   5.777 -0.0726 -0.5887  0.2005
 1053SOL     ow 4209   6.364   3.923   4.046 -0.4733 -0.2522 -0.5359
 1053SOL     hw 4210   6.445   3.972   4.033  0.5983 -1.6670  0.5076
 1053SOL     hw 4211   6.300   3.989   4.073  1.1473  0.5193  1.7235
 1053SOL     vw 4212   6.366   3.938   4.048 -0.1178 -0.3370 -0.1001
 1054SOL     ow 4213   2.172   3.886   4.542  0.3295 -0.2480  0.3029
 1054SOL     hw 4214   2.205   3.918   4.458  0.7951  0.2243  0.6594
 1054SOL     hw 4215   2.237   3.822   4.570  0.3525 -0.1522  0.4681
 1054SOL     vw 4216   2.185   3.882   4.535  0.3939 -0.1732  0.3717
 1055SOL     ow 4217   6.220   2.308   0.951  0.2244 -0.3407 -0.4470
 1055SOL     hw 4218   6.286   2.243   0.978  0.2292 -1.3578 -2.6603
 1055SOL     hw 4219   6.235   2.382   1.009  2.7044 -0.9022 -0.2218
 1055SOL     vw 4220   6.231   2.309   0.962  0.5522 -0.5491 -0.7093
 1056SOL     ow 4221   5.273   2.580   4.015 -0.0362 -0.4192  0.2696
 1056SOL     hw 4222   5.361   2.617   4.016 -0.5180  0.8973  2.7138
 1056SOL     hw 4223   5.286   2.487   3.996  2.0496 -0.5552  1.9799
 1056SOL     vw 4224   5.286   2.573   4.013  0.1752 -0.2635  0.8178
 1057SOL     ow 4225   5.500   7.112   0.024  0.0504 -0.1832  0.1972
 1057SOL     hw 4226   5.482   7.100  -0.069  0.0960 -2.7175  0.4487
 1057SOL     hw 4227   5.561   7.042   0.046 -0.1288  0.2224  2.1899
 1057SOL     vw 4228   5.505   7.101   0.014  0.0327 -0.4640  0.4935
 1058SOL     ow 4229   5.636   4.361   4.364 -0.1127  0.3568  0.1334
 1058SOL     hw 4230   5.678   4.278   4.385 -1.2782 -0.6167 -1.1715
 1058SOL     hw 4231   5.633   4.362   4.268 -1.6458  1.1066  0.1637
 1058SOL     vw 4232   5.641   4.350   4.354 -0.4687  0.3273 -0.0350
 1059SOL     ow 4233   4.168   7.093   2.618  0.0659  0.1997  0.3293
 1059SOL     hw 4234   4.110   7.017   2.610 -1.7118  1.5965 -0.8352
 1059SOL     hw 4235   4.184   7.101   2.713 -1.0676 -0.6458  0.6092
 1059SOL     vw 4236   4.162   7.084   2.630 -0.3181  0.2723  0.2126
 1060SOL     ow 4237   6.862   4.639   1.958  0.1875 -0.2117 -0.5279
 1060SOL     hw 4238   6.911   4.713   1.993 -2.0119  1.2480 -0.3195
 1060SOL     hw 4239   6.773   4.652   1.990 -0.1174 -3.5516  0.3695
 1060SOL     vw 4240   6.857   4.650   1.967 -0.1428 -0.4597 -0.3819
 1061SOL     ow 4241   1.016   3.079   1.503 -0.3370  0.7009 -0.6917
 1061SOL     hw 4242   0.940   3.070   1.445 -0.3907  0.8313 -0.6411
 1061SOL     hw 4243   1.003   3.014   1.571  0.2420 -0.1786 -1.3947
 1061SOL     vw 4244   1.004   3.069   1.504 -0.2677  0.6021 -0.7777
 1062SOL     ow 4245   1.298   0.306   2.458 -0.0821 -0.4510 -0.5358
 1062SOL     hw 4246   1.371   0.336   2.404 -0.6651 -0.8503 -1.5732
 1062SOL     hw 4247   1.228   0.369   2.441 -0.8720 -1.5949 -1.6971
 1062SOL     vw 4248   1.299   0.318   2.449 -0.2633 -0.6546 -0.8260
 1063SOL     ow 4249   4.353   2.237   0.839  0.2082 -0.0873  0.4961
 1063SOL     hw 4250   4.339   2.304   0.905  0.1118  1.6020 -1.1414
 1063SOL     hw 4251   4.331   2.155   0.882 -1.5054  1.1078  2.0400
 1063SOL     vw 4252   4.348   2.235   0.853 -0.0305  0.2933  0.4838
 1064SOL     ow 4253   1.681   3.799   5.820  0.0202 -0.0071  0.1472
 1064SOL     hw 4254   1.605   3.742   5.827 -0.2790  0.1474 -1.4821
 1064SOL     hw 4255   1.756   3.740   5.812  0.2402 -0.1746  2.7459
 1064SOL     vw 4256   1.681   3.784   5.820  0.0098 -0.0088  0.2749
 1065SOL     ow 4257   3.444   1.200   0.440 -0.7257  0.3442  0.0731
 1065SOL     hw 4258   3.501   1.276   0.424 -1.7982  1.4337  1.2054
 1065SOL     hw 4259   3.477   1.133   0.380  1.1787  1.2137  0.0537
 1065SOL     vw 4260   3.456   1.201   0.430 -0.6158  0.6027  0.2199
 1066SOL     ow 4261   0.023   0.792   5.479  0.4643 -0.1686  0.1334
 1066SOL     hw 4262   0.003   0.701   5.498  2.1523  0.1005  4.2922
 1066SOL     hw 4263   0.117   0.792   5.458  0.3478  0.5511 -0.4173
 1066SOL     vw 4264   0.033   0.780   5.479  0.6716 -0.0382  0.6092
 1067SOL     ow 4265   0.242   4.550   0.296 -0.1149 -0.2107  0.7024
 1067SOL     hw 4266   0.164   4.504   0.326 -0.8919 -0.0977 -1.0621
 1067SOL     hw 4267   0.315   4.500   0.333 -0.9846 -0.6512  1.8992
 1067SOL     vw 4268   0.242   4.538   0.305 -0.3322 -0.2537  0.6275
 1068SOL     ow 4269   2.115   3.149   1.110 -0.0197  0.6799  0.2427
 1068SOL     hw 4270   2.149   3.166   1.198  0.5852  0.3469  0.0748
 1068SOL     hw 4271   2.023   3.175   1.115 -0.0519  0.4359  1.0427
 1068SOL     vw 4272   2.107   3.155   1.122  0.0559  0.6038  0.3261
 1069SOL     ow 4273   4.051   4.892   1.616  0.0535  0.1183  0.1230
 1069SOL     hw 4274   3.979   4.836   1.586  0.9208 -0.7374 -0.4441
 1069SOL     hw 4275   4.116   4.830   1.651  0.8998  0.7991 -0.2068
 1069SOL     vw 4276   4.050   4.876   1.617  0.2799  0.0954  0.0046
 1070SOL     ow 4277   2.013   1.293   0.162  0.7196 -0.6716  0.2416
 1070SOL     hw 4278   2.068   1.316   0.237  0.8003  0.7094 -0.2214
 1070SOL     hw 4279   1.923   1.300   0.194  0.6689  1.8156 -0.2348
 1070SOL     vw 4280   2.009   1.297   0.176  0.7235 -0.1613  0.1176
 1071SOL     ow 4281   0.768   6.805   1.167  0.1894  0.2291  0.1132
 1071SOL     hw 4282   0.715   6.831   1.091  0.6400  1.2883  0.1417
 1071SOL     hw 4283   0.707   6.759   1.225 -0.9544  2.2025  0.5630
 1071SOL     vw 4284   0.753   6.802   1.164  0.0980  0.6292  0.1763
 1072SOL     ow 4285   3.523   4.813   0.435 -0.6620 -0.3283 -0.2460
 1072SOL     hw 4286   3.611   4.777   0.423  0.2509  1.6359  0.2128
 1072SOL     hw 4287   3.472   4.739   0.468  1.3656 -0.9832  1.6975
 1072SOL     vw 4288   3.528   4.798   0.438 -0.2741 -0.1557  0.0709
 1073SOL     ow 4289   3.260   5.079   7.144  0.1499 -0.3221  0.6591
 1073SOL     hw 4290   3.278   5.073   7.238  0.7052 -2.4136  0.4584
 1073SOL     hw 4291   3.295   4.998   7.107  0.7427  0.8424 -1.5105
 1073SOL     vw 4292   3.267   5.068   7.152  0.3014 -0.4447  0.3462
 1074SOL     ow 4293   1.256   0.516   6.592  0.5408 -0.1282  0.1093
 1074SOL     hw 4294   1.170   0.514   6.549  2.3752  0.9611 -4.1890
 1074SOL     hw 4295   1.281   0.609   6.591  2.3841 -0.5952 -0.2162
 1074SOL     vw 4296   1.248   0.528   6.586  1.0260 -0.0461 -0.5007
 1075SOL     ow 4297   6.751   4.261   1.853  0.3424 -0.7464 -0.4568
 1075SOL     hw 4298   6.685   4.328   1.841 -1.1812 -2.0662  0.1636
 1075SOL     hw 4299   6.792   4.251   1.767 -0.0799  0.2790 -0.7856
 1075SOL     vw 4300   6.748   4.268   1.840  0.0856 -0.7854 -0.4184
 1076SOL     ow 4301   5.928   4.674   2.619  0.6910 -0.4657  0.4628
 1076SOL     hw 4302   6.007   4.647   2.572  0.3543  1.3291 -1.2690
 1076SOL     hw 4303   5.961   4.731   2.689  0.9477  0.6403 -0.5267
 1076SOL     vw 4304   5.943   4.678   2.622  0.6804 -0.0832  0.1037
 1077SOL     ow 4305   3.722   5.050   2.372 -0.4789  1.0388  0.2724
 1077SOL     hw 4306   3.712   5.133   2.417  0.7245  2.6915 -2.2850
 1077SOL     hw 4307   3.712   5.071   2.279  1.0084 -1.4369 -0.5592
 1077SOL     vw 4308   3.719   5.063   2.366 -0.1239  0.9301 -0.1746
 1078SOL     ow 4309   1.938   5.678   3.408  0.1017  0.3609 -0.0638
 1078SOL     hw 4310   1.978   5.655   3.492 -0.5893  2.6464  0.9834
 1078SOL     hw 4311   1.973   5.765   3.388 -1.2201  0.6723 -1.1883
 1078SOL     vw 4312   1.948   5.687   3.416 -0.1638  0.7038 -0.0740
 1079SOL     ow 4313   2.061   3.387   0.832  0.2432  0.3351 -0.2405
 1079SOL     hw 4314   2.128   3.321   0.814  0.0574 -0.0969  0.5977
 1079SOL     hw 4315   2.110   3.464   0.861  0.4076  0.2098 -0.1870
 1079SOL     vw 4316   2.076   3.388   0.833  0.2404  0.2615 -0.1229
 1080SOL     ow 4317   1.932   5.370   6.127  0.7917 -0.5830 -0.2122
 1080SOL     hw 4318   2.025   5.371   6.150  0.7536  0.6881 -0.0304
 1080SOL     hw 4319   1.889   5.337   6.206  1.0683 -1.1238 -0.2766
 1080SOL     vw 4320   1.939   5.366   6.141  0.8231 -0.4869 -0.1967
 1081SOL     ow 4321   3.714   6.567   5.078 -0.1497 -0.4986 -0.5432
 1081SOL     hw 4322   3.708   6.596   4.986 -1.1026 -0.6356 -0.5328
 1081SOL     hw 4323   3.807   6.575   5.099 -0.0063  0.1056 -1.3407
 1081SOL     vw 4324   3.726   6.572   5.069 -0.2563 -0.4370 -0.6473
 1082SOL     ow 4325   0.822   1.657   7.004 -0.1248 -0.9110 -0.6691
 1082SOL     hw 4326   0.857   1.616   7.083  2.6583 -1.1171 -1.8722
 1082SOL     hw 4327   0.759   1.594   6.970  1.4340 -2.6048 -0.5845
 1082SOL     vw 4328   0.818   1.644   7.010  0.4480 -1.1618 -0.8168
 1083SOL     ow 4329   5.668   2.246   0.980 -0.6558 -0.0017 -0.0356
 1083SOL     hw 4330   5.623   2.323   1.014  0.2012  0.4012  0.2258
 1083SOL     hw 4331   5.610   2.212   0.912 -1.4884  0.3121  0.5058
 1083SOL     vw 4332   5.654   2.252   0.976 -0.6526  0.0927  0.0703
 1084SOL     ow 4333   5.341   1.236   2.600 -0.2105  0.5519  0.3428
 1084SOL     hw 4334   5.249   1.216   2.582  0.0061 -0.4758  0.3243
 1084SOL     hw 4335   5.338   1.312   2.657 -1.1699 -0.7033  2.0510
 1084SOL     vw 4336   5.329   1.243   2.605 -0.3083  0.2507  0.5658
 1085SOL     ow 4337   5.339   5.993   7.501 -0.5825  0.0853  0.1155
 1085SOL     hw 4338   5.398   6.018   7.430 -0.9202  0.5994  0.0082
 1085SOL     hw 4339   5.279   5.931   7.461  0.9202 -1.8098  0.6460
 1085SOL     vw 4340   5.339   5.988   7.486 -0.4287 -0.0966  0.1714
 1086SOL     ow 4341   4.844   0.485   7.233 -0.0994 -0.4939 -0.3174
 1086SOL     hw 4342   4.774   0.424   7.210 -2.8954  2.3394 -0.0764
 1086SOL     hw 4343   4.810   0.534   7.308  2.0000  1.2951 -0.4051
 1086SOL     vw 4344   4.830   0.484   7.240 -0.1915  0.1160 -0.2971
 1087SOL     ow 4345   5.294   0.870   0.520 -0.2959 -0.9432 -0.3566
 1087SOL     hw 4346   5.230   0.811   0.558 -2.0076  1.1512  0.1942
 1087SOL     hw 4347   5.248   0.912   0.447  0.4424  0.5934  0.0217
 1087SOL     vw 4348   5.280   0.868   0.515 -0.4241 -0.4641 -0.2339
 1088SOL     ow 4349   4.119   5.143   1.737 -0.5829  0.4391  0.3642
 1088SOL     hw 4350   4.194   5.170   1.789 -0.9163  1.9828  0.0768
 1088SOL     hw 4351   4.058   5.105   1.800 -0.2582  0.6854  0.8325
 1088SOL     vw 4352   4.121   5.141   1.752 -0.5839  0.6752  0.3881
 1089SOL     ow 4353   6.456   1.768   2.301 -0.4389 -0.2909  0.2349
 1089SOL     hw 4354   6.422   1.786   2.214 -3.0237 -2.1161  0.7466
 1089SOL     hw 4355   6.418   1.836   2.356 -0.4792 -0.3398  0.2675
 1089SOL     vw 4356   6.447   1.779   2.297 -0.7856 -0.5381  0.3067
 1090SOL     ow 4357   2.412   5.093   5.278  0.3381  0.1953  0.5168
 1090SOL     hw 4358   2.351   5.144   5.224  0.9627  1.2398  0.7713
 1090SOL     hw 4359   2.433   5.151   5.351  0.5323 -0.7053  1.1818
 1090SOL     vw 4360   2.407   5.107   5.280  0.4461  0.2143  0.6380
 1091SOL     ow 4361   1.908   6.266   0.301  0.0256  0.6141  0.3161
 1091SOL     hw 4362   1.872   6.301   0.383  1.5630  2.2381  0.3588
 1091SOL     hw 4363   1.868   6.319   0.232  1.5669  1.8810  0.3158
 1091SOL     vw 4364   1.898   6.278   0.303  0.4318  0.9956  0.3217
 1092SOL     ow 4365   6.905   1.793   1.972 -0.0548 -0.2396 -0.5135
 1092SOL     hw 4366   6.919   1.768   2.064  1.6124  0.7262 -0.4719
 1092SOL     hw 4367   6.827   1.745   1.946 -0.0103 -1.2776  1.1364
 1092SOL     vw 4368   6.897   1.783   1.981  0.1712 -0.2491 -0.2904
 1093SOL     ow 4369   5.028   2.916   4.867  0.3608  0.1389 -0.1104
 1093SOL     hw 4370   4.963   2.951   4.806 -1.3545  0.0961  1.6139
 1093SOL     hw 4371   5.053   2.832   4.829 -1.1295 -0.1722 -0.4841
 1093SOL     vw 4372   5.023   2.910   4.854 -0.0622  0.0921  0.0677
 1094SOL     ow 4373   3.109   1.949   3.568 -0.7249 -0.7545 -0.6335
 1094SOL     hw 4374   3.085   1.856   3.567 -0.7145 -0.7647 -0.1289
 1094SOL     hw 4375   3.025   1.995   3.577 -0.8449 -0.6623 -2.0638
 1094SOL     vw 4376   3.095   1.943   3.569 -0.7393 -0.7436 -0.7555
 1095SOL     ow 4377   2.308   5.892   4.031  0.1415  0.4787  0.6243
 1095SOL     hw 4378   2.254   5.854   4.100  1.0491  0.5217  1.3748
 1095SOL     hw 4379   2.283   5.984   4.028 -0.2398  0.3774  0.5513
 1095SOL     vw 4380   2.297   5.899   4.040  0.2109  0.4709  0.7141
 1096SOL     ow 4381   5.375   7.453   3.511 -0.0066  0.0121 -0.1175
 1096SOL     hw 4382   5.437   7.465   3.440 -2.0456  2.0076 -1.7089
 1096SOL     hw 4383   5.378   7.535   3.560 -0.8219 -0.1556  0.2326
 1096SOL     vw 4384   5.383   7.465   3.509 -0.3834  0.2537 -0.2813
 1097SOL     ow 4385   6.958   3.626   6.611  0.7465 -0.5992  0.1445
 1097SOL     hw 4386   7.009   3.641   6.691  0.5962  1.8064 -0.1332
 1097SOL     hw 4387   6.867   3.626   6.641  0.7276 -0.7556  0.0895
 1097SOL     vw 4388   6.953   3.628   6.626  0.7243 -0.3024  0.1001
 1098SOL     ow 4389   4.452   7.456   3.046  0.3139 -0.0163  0.2304
 1098SOL     hw 4390   4.384   7.394   3.020 -1.4267  1.4771  0.9779
 1098SOL     hw 4391   4.458   7.517   2.973 -0.5528  0.9457  0.9324
 1098SOL     vw 4392   4.444   7.456   3.033 -0.0303  0.3080  0.4218
 1099SOL     ow 4393   0.833   0.842   6.944  0.3275 -0.4640 -0.3451
 1099SOL     hw 4394   0.759   0.855   7.003  0.8711 -0.6314  0.3825
 1099SOL     hw 4395   0.866   0.930   6.926  0.1976 -0.4163 -0.3508
 1099SOL     vw 4396   0.827   0.855   6.949  0.3821 -0.4798 -0.2499
 1100SOL     ow 4397   2.916   3.978   4.326  0.7495 -0.6700 -0.0024
 1100SOL     hw 4398   2.834   3.998   4.281  1.8104  0.2400 -1.6296
 1100SOL     hw 4399   2.903   3.890   4.361 -0.6618 -0.8287 -0.8384
 1100SOL     vw 4400   2.903   3.969   4.325  0.7032 -0.5708 -0.3271
 1101SOL     ow 4401   1.901   0.550   5.807 -0.1820 -0.1263  0.4800
 1101SOL     hw 4402   1.871   0.606   5.735  0.2846  1.6355  1.6114
 1101SOL     hw 4403   1.996   0.564   5.810  0.2280 -2.2867 -0.2467
 1101SOL     vw 4404   1.910   0.559   5.798 -0.0663 -0.1789  0.5333
 1102SOL     ow 4405   4.468   5.620   7.283  0.0853  0.2500  0.4812
 1102SOL     hw 4406   4.416   5.616   7.203  1.7930  1.2128 -0.7499
 1102SOL     hw 4407   4.494   5.529   7.299  2.1853  0.3220 -1.8469
 1102SOL     vw 4408   4.465   5.607   7.274  0.5879  0.3865  0.0114
 1103SOL     ow 4409   7.097   1.314   1.220 -0.7778  0.7554 -0.6520
 1103SOL     hw 4410   7.050   1.339   1.140 -3.0722 -2.1973 -0.4028
 1103SOL     hw 4411   7.030   1.274   1.276  1.0938  1.1337  2.0802
 1103SOL     vw 4412   7.082   1.312   1.217 -0.8335  0.4157 -0.2586
 1104SOL     ow 4413   5.829   5.662   2.803  0.2276 -0.0412 -0.0602
 1104SOL     hw 4414   5.739   5.693   2.819  0.1582 -0.9238  1.4561
 1104SOL     hw 4415   5.883   5.716   2.861  0.4006 -1.0015  0.6836
 1104SOL     vw 4416   5.824   5.673   2.813  0.2410 -0.2842  0.2381
 1105SOL     ow 4417   3.318   3.878   1.998  0.1218  0.2861  0.1344
 1105SOL     hw 4418   3.334   3.874   1.904 -2.9931 -1.2879 -0.4688
 1105SOL     hw 4419   3.379   3.814   2.035 -0.1041 -0.6961 -1.1034
 1105SOL     vw 4420   3.328   3.869   1.990 -0.3191 -0.0511 -0.1085
 1106SOL     ow 4421   4.695   3.139   4.904 -0.5123 -0.1679 -0.6025
 1106SOL     hw 4422   4.711   3.207   4.839  0.6266  0.0966 -0.0607
 1106SOL     hw 4423   4.658   3.185   4.979  0.0038 -0.1851 -0.3364
 1106SOL     vw 4424   4.692   3.154   4.906 -0.2942 -0.1353 -0.4961
 1107SOL     ow 4425   1.603   5.875   4.576 -0.3399  0.0103  0.0895
 1107SOL     hw 4426   1.666   5.831   4.520  0.7397  1.7776 -0.1801
 1107SOL     hw 4427   1.580   5.810   4.643 -0.3405 -1.5574 -1.3712
 1107SOL     vw 4428   1.608   5.861   4.578 -0.1976  0.0365 -0.1388
 1108SOL     ow 4429   6.992   6.707   6.848  0.3731  0.0818 -0.0833
 1108SOL     hw 4430   7.077   6.669   6.825  0.5067  0.4348 -0.1940
 1108SOL     hw 4431   6.928   6.648   6.809  0.5935  1.4386 -2.7694
 1108SOL     vw 4432   6.995   6.694   6.840  0.4196  0.3076 -0.4523
 1109SOL     ow 4433   4.726   4.492   7.081  0.4491  0.5451 -0.3766
 1109SOL     hw 4434   4.765   4.558   7.139 -0.4225  2.1509 -1.5556
 1109SOL     hw 4435   4.641   4.528   7.057 -0.6203 -1.6170 -0.0772
 1109SOL     vw 4436   4.720   4.506   7.086  0.1931  0.4716 -0.4928
 1110SOL     ow 4437   6.943   4.928   6.794  0.3398  0.3665  0.2775
 1110SOL     hw 4438   6.970   4.926   6.886 -0.5705 -1.7470  0.5608
 1110SOL     hw 4439   6.847   4.919   6.797  0.4531 -1.8375 -0.8715
 1110SOL     vw 4440   6.934   4.927   6.806  0.2344 -0.2031  0.1636
 1111SOL     ow 4441   2.743   3.258   4.617  0.3572  0.7992 -0.2867
 1111SOL     hw 4442   2.793   3.185   4.653  1.5390  0.9147 -1.6110
 1111SOL     hw 4443   2.668   3.267   4.676  0.2916 -1.3168  0.0352
 1111SOL     vw 4444   2.740   3.250   4.630  0.5044  0.5352 -0.4189
 1112SOL     ow 4445   6.690   0.266   1.234  0.7392  0.0607  0.4411
 1112SOL     hw 4446   6.631   0.196   1.207  0.8926 -0.8772  2.3286
 1112SOL     hw 4447   6.775   0.242   1.197  1.1819 -1.7550  2.4136
 1112SOL     vw 4448   6.693   0.254   1.226  0.8178 -0.3026  0.9505
 1113SOL     ow 4449   3.886   6.463   6.029 -0.4321  0.2976  0.6038
 1113SOL     hw 4450   3.833   6.410   5.969 -0.0774 -0.8948  1.3203
 1113SOL     hw 4451   3.826   6.488   6.099 -0.3292 -0.0774  0.8251
 1113SOL     vw 4452   3.872   6.459   6.030 -0.3718  0.0906  0.7277
 1114SOL     ow 4453   1.496   4.255   4.520 -0.0451  0.5899  0.2350
 1114SOL     hw 4454   1.483   4.294   4.606 -2.2806  0.5478 -0.0106
 1114SOL     hw 4455   1.458   4.318   4.458  0.6560  0.1880 -0.6381
 1114SOL     vw 4456   1.489   4.268   4.523 -0.2475  0.5310  0.0875
 1115SOL     ow 4457   1.185   3.047   3.534  0.0517  0.2212 -0.4178
 1115SOL     hw 4458   1.140   3.076   3.613  1.1834  1.7282 -0.2686
 1115SOL     hw 4459   1.264   3.005   3.565 -0.0472 -0.1979 -0.7279
 1115SOL     vw 4460   1.189   3.046   3.549  0.1879  0.3647 -0.4392
 1116SOL     ow 4461   7.314   4.289   2.794 -0.8950 -0.0718 -0.2073
 1116SOL     hw 4462   7.351   4.376   2.810  0.7190 -0.6335 -0.6366
 1116SOL     hw 4463   7.295   4.254   2.881 -1.8861  0.8185 -0.0441
 1116SOL     vw 4464   7.317   4.296   2.807 -0.8128 -0.0286 -0.2424
 1117SOL     ow 4465   4.918   4.786   4.516 -0.0924  0.6736 -0.2839
 1117SOL     hw 4466   4.989   4.847   4.495  0.6355 -0.1479 -0.2967
 1117SOL     hw 4467   4.959   4.722   4.574 -0.8743  0.2745 -0.1685
 1117SOL     vw 4468   4.933   4.786   4.521 -0.0994  0.5128 -0.2704
 1118SOL     ow 4469   2.828   5.849   3.726  0.2242  0.2392  0.2310
 1118SOL     hw 4470   2.895   5.915   3.745  0.4229 -0.0395  0.4941
 1118SOL     hw 4471   2.746   5.899   3.724  0.5781  0.8036 -1.3869
 1118SOL     vw 4472   2.826   5.865   3.728  0.2971  0.2770  0.0522
 1119SOL     ow 4473   3.407   1.556   5.982  0.2537 -0.3835 -0.0110
 1119SOL     hw 4474   3.400   1.461   5.982 -2.0842 -0.3075  1.5366
 1119SOL     hw 4475   3.349   1.585   5.912 -0.8444 -0.0949  0.9784
 1119SOL     vw 4476   3.398   1.547   5.973 -0.1996 -0.3355  0.3238
 1120SOL     ow 4477   0.310   0.773   5.794 -0.0848 -0.2499 -0.8712
 1120SOL     hw 4478   0.337   0.681   5.800 -0.1228 -0.2734 -1.0369
 1120SOL     hw 4479   0.240   0.782   5.859  0.8780  0.0224  0.1495
 1120SOL     vw 4480   0.304   0.762   5.803  0.0372 -0.2171 -0.7584
 1121SOL     ow 4481   2.575   0.943   2.916 -0.3728  0.4329 -0.6595
 1121SOL     hw 4482   2.518   0.873   2.885 -2.1213  1.9931 -1.2133
 1121SOL     hw 4483   2.547   0.958   3.007  1.0397 -0.5616 -0.0387
 1121SOL     vw 4484   2.564   0.936   2.924 -0.4171  0.5075 -0.6504
 1122SOL     ow 4485   5.227   5.065   2.577  0.6168  0.1707 -0.3290
 1122SOL     hw 4486   5.296   5.001   2.591  1.3469  0.6639 -1.4860
 1122SOL     hw 4487   5.151   5.014   2.548  0.7439 -0.3005  0.1809
 1122SOL     vw 4488   5.226   5.050   2.575  0.7296  0.1736 -0.4145
 1123SOL     ow 4489   3.489   0.451   2.590  0.2752  0.2109  0.4288
 1123SOL     hw 4490   3.494   0.384   2.659  0.6464  0.2976  0.4910
 1123SOL     hw 4491   3.438   0.410   2.521  0.3561 -0.0790  0.5356
 1123SOL     vw 4492   3.483   0.436   2.590  0.3350  0.1841  0.4511
 1124SOL     ow 4493   2.163   7.513   2.424 -0.0369 -0.7525 -0.0690
 1124SOL     hw 4494   2.190   7.587   2.369 -0.4501 -0.2766  0.3696
 1124SOL     hw 4495   2.241   7.458   2.428  0.3438 -0.2358 -0.2192
 1124SOL     vw 4496   2.177   7.516   2.417 -0.0412 -0.6216 -0.0310
 1125SOL     ow 4497   3.994   5.854   0.822  0.5035  0.3075  0.0974
 1125SOL     hw 4498   3.901   5.839   0.806  1.0048 -2.3888 -0.9161
 1125SOL     hw 4499   4.021   5.915   0.754  0.3675 -2.7066 -2.9276
 1125SOL     vw 4500   3.985   5.860   0.811  0.5518 -0.4458 -0.4355
 1126SOL     ow 4501   4.269   6.549   6.984 -0.3624  0.2743 -0.5807
 1126SOL     hw 4502   4.184   6.506   6.990 -0.2919 -0.1312 -2.0429
 1126SOL     hw 4503   4.264   6.603   6.906 -0.2736  2.6416  0.9400
 1126SOL     vw 4504   4.257   6.550   6.975 -0.3412  0.5331 -0.5732
 1127SOL     ow 4505   5.016   7.229   2.073  0.0819  0.5519  0.1542
 1127SOL     hw 4506   4.970   7.157   2.030 -1.0338  0.8192  0.8396
 1127SOL     hw 4507   4.946   7.291   2.096  1.0213  1.9263 -0.5367
 1127SOL     vw 4508   5.001   7.228   2.070  0.0584  0.7684  0.1534
 1128SOL     ow 4509   6.591   7.508   4.108  0.3033  0.3601  0.3565
 1128SOL     hw 4510   6.646   7.447   4.158 -1.1845 -0.8926  0.5557
 1128SOL     hw 4511   6.516   7.524   4.164  0.1556  1.5395 -0.1621
 1128SOL     vw 4512   6.588   7.502   4.122  0.0875  0.3502  0.3145
 1129SOL     ow 4513   3.032   4.348   6.085 -0.3073  0.4488 -0.2952
 1129SOL     hw 4514   3.104   4.397   6.125  0.8826 -0.0802 -1.7041
 1129SOL     hw 4515   2.978   4.415   6.043  0.3973  0.7029 -0.8082
 1129SOL     vw 4516   3.034   4.363   6.085 -0.0573  0.4125 -0.5491
 1130SOL     ow 4517   5.512   5.275   0.584 -0.0493  0.9231  0.1605
 1130SOL     hw 4518   5.421   5.297   0.568 -0.1641  0.0552 -0.4528
 1130SOL     hw 4519   5.562   5.348   0.547 -0.4315  0.4634 -1.3131
 1130SOL     vw 4520   5.507   5.287   0.577 -0.1144  0.7479 -0.1148
 1131SOL     ow 4521   6.825   6.651   5.153 -0.0567  0.5665 -0.2638
 1131SOL     hw 4522   6.889   6.627   5.220 -1.5384 -0.2030  0.9426
 1131SOL     hw 4523   6.868   6.632   5.070  0.9741 -0.7124  0.5335
 1131SOL     vw 4524   6.839   6.646   5.151 -0.1163  0.2961  0.0005
 1132SOL     ow 4525   7.454   7.224   3.234  0.5608 -0.7175 -0.1315
 1132SOL     hw 4526   7.454   7.188   3.146  1.2113  0.4691 -0.6379
 1132SOL     hw 4527   7.525   7.289   3.234 -0.3125  0.2874  0.8363
 1132SOL     vw 4528   7.463   7.228   3.223  0.5314 -0.4282 -0.0706
 1133SOL     ow 4529   4.912   1.116   3.217 -0.0558 -0.3176 -0.8168
 1133SOL     hw 4530   4.966   1.165   3.154  0.8950  0.0790  0.2782
 1133SOL     hw 4531   4.965   1.112   3.296 -0.4285 -2.5105 -0.6299
 1133SOL     vw 4532   4.926   1.122   3.219  0.0205 -0.5546 -0.6475
 1134SOL     ow 4533   4.765   3.813   5.772  0.1659 -0.4193  0.6258
 1134SOL     hw 4534   4.786   3.767   5.691  1.8024 -2.3558  2.0588
 1134SOL     hw 4535   4.701   3.757   5.816  0.6644 -0.3260  1.4908
 1134SOL     vw 4536   4.760   3.800   5.767  0.4475 -0.6624  0.9289
 1135SOL     ow 4537   6.254   1.481   0.502 -0.0465 -0.2012 -0.3945
 1135SOL     hw 4538   6.279   1.398   0.462 -1.0733 -0.5420 -0.3652
 1135SOL     hw 4539   6.220   1.457   0.589 -1.8216  0.0478 -0.9827
 1135SOL     vw 4540   6.252   1.467   0.508 -0.4163 -0.2133 -0.4683
 1136SOL     ow 4541   1.475   4.500   1.905 -0.6657 -0.3737  0.1440
 1136SOL     hw 4542   1.469   4.460   1.991 -0.5282  1.9827  1.3289
 1136SOL     hw 4543   1.396   4.553   1.897 -0.4229 -0.1499 -0.9528
 1136SOL     vw 4544   1.464   4.502   1.915 -0.6155 -0.0331  0.1556
 1137SOL     ow 4545   6.927   7.136   4.832  0.9274 -0.2980  0.0233
 1137SOL     hw 4546   6.891   7.151   4.745 -1.3354 -2.6556  0.4314
 1137SOL     hw 4547   6.987   7.062   4.821 -1.8866 -2.8894  0.8574
 1137SOL     vw 4548   6.930   7.128   4.819  0.2577 -0.9508  0.1874
 1138SOL     ow 4549   5.327   5.534   6.630 -0.2778  0.4208  0.0839
 1138SOL     hw 4550   5.301   5.538   6.537 -2.4657  0.1165  0.6145
 1138SOL     hw 4551   5.304   5.620   6.665 -1.2761 -0.0892  0.7343
 1138SOL     vw 4552   5.320   5.546   6.622 -0.6981  0.3135  0.2394
 1139SOL     ow 4553   1.605   6.121   2.837 -0.7594  0.3048  0.3447
 1139SOL     hw 4554   1.679   6.181   2.844 -1.3112  0.8337  2.1192
 1139SOL     hw 4555   1.634   6.041   2.882 -1.5497  0.8348  1.8436
 1139SOL     vw 4556   1.619   6.118   2.843 -0.9366  0.4447  0.7766
 1140SOL     ow 4557   4.275   0.608   6.696  0.1430  0.4765 -0.2451
 1140SOL     hw 4558   4.327   0.653   6.629  1.1780  1.0553  0.9091
 1140SOL     hw 4559   4.331   0.536   6.724 -0.8776 -0.6390 -0.9856
 1140SOL     vw 4560   4.289   0.604   6.691  0.1450  0.4057 -0.1903
 1141SOL     ow 4561   6.196   4.768   0.668  0.0326  0.3294 -0.3095
 1141SOL     hw 4562   6.187   4.782   0.763  0.5022  0.5472 -0.2947
 1141SOL     hw 4563   6.280   4.807   0.646 -0.1824  0.4890 -0.8620
 1141SOL     vw 4564   6.206   4.775   0.678  0.0660  0.3791 -0.3804
 1142SOL     ow 4565   3.732   1.488   2.464 -0.3411 -0.0859  0.0537
 1142SOL     hw 4566   3.694   1.565   2.422 -1.3202 -1.6492 -2.1453
 1142SOL     hw 4567   3.678   1.475   2.542 -1.2258  0.5388 -0.4281
 1142SOL     vw 4568   3.720   1.496   2.469 -0.5870 -0.2097 -0.3000
 1143SOL     ow 4569   4.380   2.190   0.180  0.9040 -0.1932 -1.1196
 1143SOL     hw 4570   4.304   2.185   0.122 -1.3666  2.7229  1.2356
 1143SOL     hw 4571   4.407   2.282   0.174  0.8324  0.1091  1.9994
 1143SOL     vw 4572   4.374   2.202   0.171  0.5949  0.2315 -0.3973
 1144SOL     ow 4573   5.328   0.968   6.321  0.2888 -0.0202 -0.1489
 1144SOL     hw 4574   5.388   0.962   6.247  0.6558 -0.8066  0.2087
 1144SOL     hw 4575   5.249   0.921   6.292 -0.0810  0.7994 -0.5237
 1144SOL     vw 4576   5.325   0.961   6.307  0.2887 -0.0158 -0.1512
 1145SOL     ow 4577   7.528   7.074   2.991  0.2011 -0.1809 -0.0504
 1145SOL     hw 4578   7.571   7.054   2.907 -0.3680  0.0365 -0.4032
 1145SOL     hw 4579   7.553   7.003   3.049  0.0746 -0.6846 -0.6050
 1145SOL     vw 4580   7.537   7.062   2.987  0.1094 -0.2186 -0.1701
 1146SOL     ow 4581   7.137   4.258   2.572  0.2065  0.2576 -0.0629
 1146SOL     hw 4582   7.106   4.329   2.516  1.0378  0.1794 -0.6408
 1146SOL     hw 4583   7.163   4.301   2.653  0.3151  0.5634 -0.2597
 1146SOL     vw 4584   7.136   4.273   2.576  0.3304  0.2878 -0.1651
 1147SOL     ow 4585   4.607   1.206   1.719 -0.2669 -0.9062  0.0763
 1147SOL     hw 4586   4.530   1.233   1.770 -0.8350 -1.6244 -0.3784
 1147SOL     hw 4587   4.584   1.229   1.628  0.1676 -0.8724 -0.0246
 1147SOL     vw 4588   4.594   1.213   1.713 -0.2847 -0.9965  0.0030
 1148SOL     ow 4589   3.872   4.905   6.300  0.6480 -0.4993 -0.2561
 1148SOL     hw 4590   3.835   4.864   6.378 -0.9244  0.1638 -0.6147
 1148SOL     hw 4591   3.930   4.839   6.263 -0.5366 -1.7679  0.0857
 1148SOL     vw 4592   3.875   4.891   6.306  0.2844 -0.5794 -0.2584
 1149SOL     ow 4593   4.736   6.612   1.514 -0.2245 -0.3913  0.6166
 1149SOL     hw 4594   4.695   6.590   1.597 -2.5513  0.6957 -0.1719
 1149SOL     hw 4595   4.788   6.691   1.532  0.5188 -1.0274  1.3340
 1149SOL     vw 4596   4.738   6.619   1.527 -0.4334 -0.3316  0.6072
 1150SOL     ow 4597   5.166   3.811   3.228 -0.0997 -0.1757 -1.0096
 1150SOL     hw 4598   5.259   3.836   3.232  0.2126 -1.4109  0.4314
 1150SOL     hw 4599   5.167   3.716   3.213 -1.0331 -0.5859  1.1301
 1150SOL     vw 4600   5.178   3.802   3.227 -0.1814 -0.3928 -0.5373
 1151SOL     ow 4601   5.259   4.871   7.082  0.1794 -0.4283 -0.3648
 1151SOL     hw 4602   5.177   4.894   7.126  0.1547 -3.7085  1.6764
 1151SOL     hw 4603   5.231   4.844   6.994 -0.5503  0.8873 -0.5605
 1151SOL     vw 4604   5.244   4.870   7.076  0.0799 -0.6874 -0.1214
 1152SOL     ow 4605   2.184   7.145   3.014 -0.1475  0.5114  0.5018
 1152SOL     hw 4606   2.143   7.060   2.996 -0.4810  0.4994  1.2463
 1152SOL     hw 4607   2.117   7.193   3.064 -0.9290  2.1406 -1.9309
 1152SOL     vw 4608   2.169   7.140   3.018 -0.2947  0.7248  0.2792
 1153SOL     ow 4609   1.357   5.986   2.173  0.1686  0.2777  0.7837
 1153SOL     hw 4610   1.361   5.892   2.153  1.0998 -0.0528  2.3537
 1153SOL     hw 4611   1.373   6.029   2.089  0.8601 -0.9740  0.2442
 1153SOL     vw 4612   1.360   5.979   2.159  0.3827  0.0689  0.9198
 1154SOL     ow 4613   3.093   0.762   1.786 -1.0323 -0.3478 -0.2397
 1154SOL     hw 4614   3.076   0.716   1.868  0.8905 -1.0662 -0.2071
 1154SOL     hw 4615   3.006   0.792   1.758 -1.6906  0.2755  2.2179
 1154SOL     vw 4616   3.079   0.760   1.793 -0.8655 -0.3603  0.0889
 1155SOL     ow 4617   4.072   5.193   2.059 -0.0236 -0.9643  0.2537
 1155SOL     hw 4618   4.014   5.256   2.017  1.6373  1.0173  0.7904
 1155SOL     hw 4619   4.032   5.108   2.041 -0.1563 -0.1687 -4.1469
 1155SOL     vw 4620   4.059   5.190   2.051  0.1781 -0.5977 -0.2559
 1156SOL     ow 4621   4.598   2.061   0.098 -0.2588 -0.3340 -0.0571
 1156SOL     hw 4622   4.666   2.082   0.162  0.9420  1.3448 -1.7880
 1156SOL     hw 4623   4.518   2.101   0.134 -0.1191 -1.2587  1.3814
 1156SOL     vw 4624   4.596   2.069   0.111 -0.0820 -0.2342 -0.0956
 1157SOL     ow 4625   7.186   7.067   4.082 -0.0600 -0.2547 -0.5259
 1157SOL     hw 4626   7.117   7.121   4.120 -1.0243 -0.9407 -1.2334
 1157SOL     hw 4627   7.207   7.109   3.999 -1.0163 -1.0748 -1.2145
 1157SOL     vw 4628   7.179   7.080   4.076 -0.3135 -0.4535 -0.7102
 1158SOL     ow 4629   3.513   1.621   0.591 -0.2680  0.4684  0.2535
 1158SOL     hw 4630   3.507   1.573   0.508 -0.0745 -1.2067  1.1506
 1158SOL     hw 4631   3.444   1.583   0.645 -0.7535  1.9238  0.6981
 1158SOL     vw 4632   3.503   1.609   0.587 -0.3064  0.4393  0.4305
 1159SOL     ow 4633   3.914   6.679   5.348  0.7019  0.1605 -0.3434
 1159SOL     hw 4634   3.963   6.626   5.285  2.8865 -0.1432  1.4807
 1159SOL     hw 4635   3.885   6.755   5.298  0.0709 -1.2889 -2.3075
 1159SOL     vw 4636   3.917   6.682   5.333  0.9068 -0.0708 -0.3619
 1160SOL     ow 4637   3.362   0.678   0.002 -0.7347 -0.3686  0.2895
 1160SOL     hw 4638   3.341   0.609   0.064  3.1691 -2.3020 -0.2302
 1160SOL     hw 4639   3.393   0.751   0.056 -0.4805 -0.8070  0.7436
 1160SOL     vw 4640   3.363   0.679   0.017 -0.1861 -0.6815  0.2809
 1161SOL     ow 4641   2.341   7.356   4.695 -0.0935 -0.0555  0.2042
 1161SOL     hw 4642   2.415   7.304   4.666 -1.0755 -0.9264 -0.8205
 1161SOL     hw 4643   2.291   7.298   4.753  0.4049  0.7801  1.5291
 1161SOL     vw 4644   2.344   7.342   4.699 -0.1574 -0.0601  0.2441
 1162SOL     ow 4645   5.054   4.376   5.979  0.2262 -0.7938  1.1894
 1162SOL     hw 4646   5.112   4.301   5.968 -0.2584 -1.4038  2.5438
 1162SOL     hw 4647   5.084   4.418   6.060 -1.4988 -1.4417  2.2290
 1162SOL     vw 4648   5.066   4.372   5.988 -0.0653 -0.9601  1.5051
 1163SOL     ow 4649   6.712   5.615   6.907 -0.8598 -0.3874  0.6778
 1163SOL     hw 4650   6.633   5.658   6.873 -0.1146  1.2295  0.8969
 1163SOL     hw 4651   6.778   5.628   6.839 -0.2741 -0.0611  1.2950
 1163SOL     vw 4652   6.710   5.623   6.893 -0.6845 -0.1311  0.7882
 1164SOL     ow 4653   1.341   7.533   0.438 -0.0374  0.8842 -0.3242
 1164SOL     hw 4654   1.369   7.477   0.366 -0.3611  0.7288 -0.3320
 1164SOL     hw 4655   1.302   7.609   0.395 -1.1879  0.3137 -0.3275
 1164SOL     vw 4656   1.339   7.536   0.423 -0.2319  0.7885 -0.3256
 1165SOL     ow 4657   5.847   2.316   3.698  0.2085  0.0916 -0.1408
 1165SOL     hw 4658   5.924   2.261   3.714 -0.3411 -0.3119  1.1956
 1165SOL     hw 4659   5.848   2.380   3.769 -1.6704 -1.0365  0.9659
 1165SOL     vw 4660   5.857   2.318   3.709 -0.1118 -0.1106  0.1817
 1166SOL     ow 4661   6.459   4.573   4.121  1.1297  0.4545  0.2062
 1166SOL     hw 4662   6.478   4.505   4.056  0.8827 -0.7457  1.3415
 1166SOL     hw 4663   6.502   4.651   4.087  0.6434 -0.0230 -1.5967
 1166SOL     vw 4664   6.468   4.574   4.108  1.0328  0.2332  0.1185
 1167SOL     ow 4665   0.096   5.996   6.736 -0.5586  0.1330 -0.0030
 1167SOL     hw 4666   0.025   5.964   6.681 -2.3844  1.8150  1.2058
 1167SOL     hw 4667   0.140   6.062   6.683  1.0908 -1.9072 -1.2789
 1167SOL     vw 4668   0.092   6.001   6.722 -0.5818  0.0858 -0.0119
 1168SOL     ow 4669   6.202   5.795   1.260  0.4223  0.6516  0.2209
 1168SOL     hw 4670   6.153   5.772   1.182  0.7905 -1.9639  0.6657
 1168SOL     hw 4671   6.152   5.867   1.299 -0.9497  0.5757 -1.2827
 1168SOL     vw 4672   6.189   5.802   1.255  0.2899  0.2964  0.0811
 1169SOL     ow 4673   1.059   6.030   4.354  0.0656  0.4459 -0.2830
 1169SOL     hw 4674   1.026   6.088   4.423  1.1339  1.6844 -0.7685
 1169SOL     hw 4675   1.135   6.075   4.320  1.7526 -1.8503  0.1768
 1169SOL     vw 4676   1.065   6.043   4.359  0.4291  0.3064 -0.2866
 1170SOL     ow 4677   5.458   5.190   0.274 -0.1417  0.7483 -0.0620
 1170SOL     hw 4678   5.364   5.190   0.259 -0.4416 -0.0960  1.5410
 1170SOL     hw 4679   5.467   5.223   0.364  0.9681 -0.5648  0.3409
 1170SOL     vw 4680   5.447   5.195   0.284 -0.0348  0.4637  0.2026
 1171SOL     ow 4681   5.691   7.193   6.800  0.3303  0.3091 -0.3717
 1171SOL     hw 4682   5.753   7.233   6.739 -0.1118  0.8258 -0.4892
 1171SOL     hw 4683   5.706   7.239   6.883 -0.1206  0.6688 -0.4856
 1171SOL     vw 4684   5.701   7.204   6.803  0.2122  0.4249 -0.4020
 1172SOL     ow 4685   2.044   1.359   7.451  0.1781  0.0350  0.1548
 1172SOL     hw 4686   2.058   1.317   7.536 -0.8202 -1.2929 -0.3142
 1172SOL     hw 4687   2.116   1.327   7.396  0.7570  0.8026  0.4513
 1172SOL     vw 4688   2.056   1.349   7.455  0.1228 -0.0389  0.1321
 1173SOL     ow 4689   4.444   5.885   3.824  0.3774 -0.6165 -0.2398
 1173SOL     hw 4690   4.417   5.834   3.748 -0.4512  1.1453 -1.1856
 1173SOL     hw 4691   4.511   5.945   3.789 -1.3656  1.5266 -0.0834
 1173SOL     vw 4692   4.449   5.886   3.809  0.0381 -0.1013 -0.3439
 1174SOL     ow 4693   0.356   1.784   7.268 -0.7571 -0.0156 -0.2671
 1174SOL     hw 4694   0.389   1.868   7.237 -0.6654  0.2845  0.6428
 1174SOL     hw 4695   0.270   1.803   7.304 -0.7336 -0.3112 -0.0506
 1174SOL     vw 4696   0.349   1.797   7.268 -0.7419 -0.0150 -0.1185
 1175SOL     ow 4697   3.339   3.205   0.143 -0.0297  0.6527  0.5811
 1175SOL     hw 4698   3.370   3.210   0.053 -0.9025 -0.1106  0.2275
 1175SOL     hw 4699   3.328   3.297   0.169  1.1897  0.9096  0.2783
 1175SOL     vw 4700   3.342   3.218   0.135  0.0161  0.5859  0.4945
 1176SOL     ow 4701   1.379   4.586   0.745 -0.1372 -0.0637  0.5082
 1176SOL     hw 4702   1.321   4.657   0.774 -0.8276 -0.1327 -0.6618
 1176SOL     hw 4703   1.326   4.534   0.685  0.2305 -1.8218  1.6333
 1176SOL     vw 4704   1.364   4.589   0.741 -0.1798 -0.3045  0.5023
 1177SOL     ow 4705   6.271   0.423   2.361 -0.0934 -0.5242 -0.4730
 1177SOL     hw 4706   6.296   0.415   2.269  1.0773  0.8813 -0.3136
 1177SOL     hw 4707   6.177   0.442   2.359  0.5310  3.1562 -1.6435
 1177SOL     vw 4708   6.262   0.424   2.349  0.1435  0.1468 -0.6065
 1178SOL     ow 4709   7.523   0.844   7.147  0.4564  0.0925 -0.0927
 1178SOL     hw 4710   7.523   0.871   7.238  1.1467  0.8503 -0.3120
 1178SOL     hw 4711   7.535   0.749   7.150  1.2774  0.2110  0.5774
 1178SOL     vw 4712   7.525   0.835   7.159  0.6557  0.2081 -0.0334
 1179SOL     ow 4713   0.095   4.519   7.069  0.5885 -0.2756 -0.6496
 1179SOL     hw 4714   0.143   4.555   7.143 -1.0148  0.0511  0.2844
 1179SOL     hw 4715   0.158   4.464   7.024  1.6692 -0.3246  0.8459
 1179SOL     vw 4716   0.110   4.517   7.073  0.5196 -0.2387 -0.3295
 1180SOL     ow 4717   5.872   2.057   1.410 -0.2108  0.5497  0.3282
 1180SOL     hw 4718   5.863   1.986   1.473 -0.1439  0.5846  0.3764
 1180SOL     hw 4719   5.831   2.132   1.453  0.7883  0.8537  0.7744
 1180SOL     vw 4720   5.865   2.057   1.424 -0.0701  0.5943  0.3935
 1181SOL     ow 4721   3.630   6.436   7.164  0.1451 -0.2950 -0.0121
 1181SOL     hw 4722   3.692   6.480   7.106 -0.3059  0.5681  0.1340
 1181SOL     hw 4723   3.682   6.368   7.208  0.3767 -1.3070 -1.7706
 1181SOL     vw 4724   3.645   6.433   7.162  0.1160 -0.3145 -0.2246
 1182SOL     ow 4725   0.961   5.892   4.103 -0.4079  0.7845 -0.0190
 1182SOL     hw 4726   1.007   5.887   4.019 -1.4754  1.3265 -0.6572
 1182SOL     hw 4727   0.883   5.839   4.090 -0.9530  1.4810  0.3768
 1182SOL     vw 4728   0.957   5.884   4.090 -0.6207  0.9482 -0.0510
 1183SOL     ow 4729   0.777   5.572   4.961  0.4259  0.0557  0.2534
 1183SOL     hw 4730   0.738   5.606   5.041  0.3222  0.3068  0.0976
 1183SOL     hw 4731   0.766   5.477   4.967 -1.1645  0.1733 -0.2561
 1183SOL     vw 4732   0.770   5.564   4.972  0.2024  0.1044  0.1655
 1184SOL     ow 4733   2.041   5.590   0.938  0.2065  0.2240  0.8110
 1184SOL     hw 4734   2.001   5.603   0.852  0.8550 -0.0184  0.4671
 1184SOL     hw 4735   2.008   5.505   0.968  0.0081  0.2936  0.7955
 1184SOL     vw 4736   2.031   5.580   0.931  0.2660  0.2012  0.7636
 1185SOL     ow 4737   4.910   4.750   5.743 -0.1292 -0.0959  0.0738
 1185SOL     hw 4738   4.944   4.781   5.827 -0.8662 -0.3829  0.4840
 1185SOL     hw 4739   4.975   4.688   5.712 -1.2695 -2.3718  1.9174
 1185SOL     vw 4740   4.923   4.746   5.750 -0.3767 -0.4339  0.3712
 1186SOL     ow 4741   2.139   1.627   6.141  0.2525 -0.0050 -0.5906
 1186SOL     hw 4742   2.234   1.610   6.142  0.4726  0.9364 -2.0804
 1186SOL     hw 4743   2.109   1.602   6.228  1.7181 -1.1691 -0.3768
 1186SOL     vw 4744   2.148   1.621   6.152  0.4750 -0.0343 -0.7594
 1187SOL     ow 4745   1.854   7.087   2.537 -0.4657 -0.2814  0.0342
 1187SOL     hw 4746   1.890   7.056   2.454  0.2801 -3.1033  1.3144
 1187SOL     hw 4747   1.766   7.051   2.540 -0.2177 -0.8574  0.7674
 1187SOL     vw 4748   1.848   7.078   2.526 -0.3346 -0.7296  0.2999
 1188SOL     ow 4749   6.755   6.952   6.623  0.4168 -0.1038  0.0755
 1188SOL     hw 4750   6.767   7.045   6.640  1.3676  0.3140 -2.5152
 1188SOL     hw 4751   6.667   6.933   6.656  1.3372  0.8856  3.5372
 1188SOL     vw 4752   6.745   6.962   6.630  0.6635  0.0820  0.1907
 1189SOL     ow 4753   3.046   6.777   4.297  0.5187 -0.0277 -0.2131
 1189SOL     hw 4754   3.112   6.785   4.228  1.2084  0.2364  0.4624
 1189SOL     hw 4755   2.979   6.720   4.259  1.7541 -1.3768 -0.4618
 1189SOL     vw 4756   3.046   6.770   4.283  0.7727 -0.1709 -0.1569
 1190SOL     ow 4757   0.670   3.398   1.250 -0.5107 -0.1261 -0.0810
 1190SOL     hw 4758   0.623   3.337   1.307 -0.1781  0.1452  0.4838
 1190SOL     hw 4759   0.647   3.369   1.161  0.0406 -1.3938  0.1591
 1190SOL     vw 4760   0.661   3.386   1.245 -0.3940 -0.2576  0.0252
 1191SOL     ow 4761   6.927   6.145   5.618 -0.0667 -0.4427 -0.2137
 1191SOL     hw 4762   7.006   6.092   5.619 -0.6673 -1.3658  1.0128
 1191SOL     hw 4763   6.893   6.136   5.529  0.0233 -1.8805 -0.1222
 1191SOL     vw 4764   6.933   6.137   5.606 -0.1340 -0.7544 -0.0401
 1192SOL     ow 4765   7.412   1.315   6.217 -0.1618  0.3226 -0.0009
 1192SOL     hw 4766   7.336   1.256   6.213  0.5408 -0.5566 -1.1715
 1192SOL     hw 4767   7.376   1.402   6.201 -0.9398 -0.0914 -0.5731
 1192SOL     vw 4768   7.397   1.318   6.214 -0.1717  0.1519 -0.2310
 1193SOL     ow 4769   0.471   4.237   2.703  0.2145 -0.2550 -0.0362
 1193SOL     hw 4770   0.492   4.330   2.709  2.8247 -0.7940  0.5361
 1193SOL     hw 4771   0.379   4.231   2.726  0.0520  2.1462  0.1618
 1193SOL     vw 4772   0.462   4.248   2.707  0.5375 -0.0095  0.0654
 1194SOL     ow 4773   7.250   5.167   4.681 -0.2280 -0.4294 -0.3252
 1194SOL     hw 4774   7.183   5.099   4.688  0.3682 -1.2915 -2.3175
 1194SOL     hw 4775   7.206   5.241   4.639 -1.1179  0.8910  2.6185
 1194SOL     vw 4776   7.235   5.168   4.677 -0.2668 -0.3691 -0.1993
 1195SOL     ow 4777   5.269   2.845   3.899 -0.1960  0.2330  0.2408
 1195SOL     hw 4778   5.314   2.852   3.815  0.7068  0.0312  0.6992
 1195SOL     hw 4779   5.215   2.925   3.904 -4.4940 -2.0679 -2.8811
 1195SOL     vw 4780   5.268   2.857   3.889 -0.6440 -0.0972 -0.1105
 1196SOL     ow 4781   4.816   6.634   1.132  0.3067 -0.1493 -0.1858
 1196SOL     hw 4782   4.860   6.706   1.178 -2.2520 -0.4213  3.0682
 1196SOL     hw 4783   4.877   6.561   1.140  1.7663  0.8997 -1.1518
 1196SOL     vw 4784   4.830   6.634   1.139  0.1619 -0.0467  0.1162
 1197SOL     ow 4785   7.286   7.043   3.101 -0.2402 -0.1933  0.3934
 1197SOL     hw 4786   7.354   7.059   3.036  0.5895  0.5584  1.4035
 1197SOL     hw 4787   7.204   7.047   3.052  0.3413  0.6439 -0.5501
 1197SOL     vw 4788   7.284   7.045   3.086 -0.0541  0.0162  0.4022
 1198SOL     ow 4789   7.185   1.949   3.890 -0.6994 -0.3972  0.2503
 1198SOL     hw 4790   7.275   1.933   3.920 -1.0854 -1.4883  0.9253
 1198SOL     hw 4791   7.190   2.027   3.835  0.0531  1.8855  3.3088
 1198SOL     vw 4792   7.197   1.957   3.887 -0.6509 -0.2400  0.7429
 1199SOL     ow 4793   3.656   1.764   0.174  0.4006 -0.1608  0.1838
 1199SOL     hw 4794   3.591   1.696   0.159 -0.7818  0.9737 -0.0616
 1199SOL     hw 4795   3.738   1.727   0.142  0.3099 -2.3543  2.2759
 1199SOL     vw 4796   3.658   1.750   0.167  0.2327 -0.3005  0.4275
 1200SOL     ow 4797   2.600   3.817   3.049  0.1821  0.5058  0.2213
 1200SOL     hw 4798   2.522   3.844   3.098 -0.6254  0.8081 -1.1876
 1200SOL     hw 4799   2.566   3.759   2.980  1.4417 -0.9696  0.7870
 1200SOL     vw 4800   2.585   3.813   3.046  0.2416  0.3511  0.1099
 1201SOL     ow 4801   4.296   1.994   0.959 -0.0261 -0.3406  0.0704
 1201SOL     hw 4802   4.281   1.978   1.053  0.9437 -0.9503  0.1329
 1201SOL     hw 4803   4.350   1.920   0.931  1.7143  1.0471 -0.4315
 1201SOL     vw 4804   4.301   1.982   0.968  0.3314 -0.2380  0.0124
 1202SOL     ow 4805   3.882   6.637   4.607 -0.6072  0.2378  0.8938
 1202SOL     hw 4806   3.864   6.722   4.648  0.6508  0.8145  0.2840
 1202SOL     hw 4807   3.814   6.628   4.540 -1.3217  0.3121  1.5883
 1202SOL     vw 4808   3.870   6.647   4.604 -0.5354  0.3235  0.9050
 1203SOL     ow 4809   5.389   5.192   0.873  0.1872  0.0230 -0.5065
 1203SOL     hw 4810   5.371   5.099   0.886  1.2400  0.1452  2.6358
 1203SOL     hw 4811   5.349   5.235   0.949  2.4638  1.7236 -0.1666
 1203SOL     vw 4812   5.381   5.186   0.885  0.6266  0.2637 -0.0470
 1204SOL     ow 4813   4.782   3.390   2.137 -0.4967 -0.4616 -0.5692
 1204SOL     hw 4814   4.766   3.481   2.109  4.0833  1.0199  0.6676
 1204SOL     hw 4815   4.723   3.376   2.210 -1.7926  1.2400 -1.2249
 1204SOL     vw 4816   4.772   3.400   2.143 -0.0637 -0.0416 -0.4925
 1205SOL     ow 4817   5.378   6.358   3.622 -0.0776 -0.4752 -0.1544
 1205SOL     hw 4818   5.406   6.405   3.700  2.2277 -2.4851  0.3594
 1205SOL     hw 4819   5.287   6.333   3.639  0.2452 -0.4814  1.6783
 1205SOL     vw 4820   5.370   6.361   3.634  0.2694 -0.7412  0.1551
 1206SOL     ow 4821   4.153   3.334   2.944  0.1035  0.0196 -0.3850
 1206SOL     hw 4822   4.243   3.360   2.924  0.3246  0.0987  0.6775
 1206SOL     hw 4823   4.104   3.357   2.865  1.0357 -0.1771 -1.0392
 1206SOL     vw 4824   4.159   3.340   2.931  0.2558  0.0041 -0.3310
 1207SOL     ow 4825   3.704   4.882   6.077 -1.3469 -0.2849 -0.1567
 1207SOL     hw 4826   3.705   4.789   6.054 -0.5443 -0.7928  1.7585
 1207SOL     hw 4827   3.746   4.886   6.163 -1.3391  1.8639 -0.2145
 1207SOL     vw 4828   3.709   4.870   6.085 -1.2399 -0.0682  0.0882
 1208SOL     ow 4829   4.581   4.581   2.723  0.6969  0.2512  0.2736
 1208SOL     hw 4830   4.579   4.662   2.774  0.5145  0.4886 -0.1039
 1208SOL     hw 4831   4.603   4.513   2.787  0.0493  0.4809  0.7492
 1208SOL     vw 4832   4.584   4.582   2.738  0.5872  0.3128  0.2865
 1209SOL     ow 4833   5.647   4.174   4.109 -0.5733  0.2339  0.4259
 1209SOL     hw 4834   5.709   4.243   4.084 -0.9385  0.7351  0.8781
 1209SOL     hw 4835   5.700   4.094   4.109 -0.0288  0.5847  0.3712
 1209SOL     vw 4836   5.662   4.173   4.106 -0.5496  0.3464  0.4783
 1210SOL     ow 4837   6.317   2.331   5.596 -0.1046  0.4137  0.1811
 1210SOL     hw 4838   6.322   2.238   5.620  1.5106  0.3930 -0.1619
 1210SOL     hw 4839   6.225   2.354   5.612 -0.2061 -0.8505  1.7159
 1210SOL     vw 4840   6.306   2.322   5.602  0.0951  0.2441  0.3383
 1211SOL     ow 4841   4.659   6.965   0.842  0.3211  0.7562  0.4297
 1211SOL     hw 4842   4.616   6.930   0.764 -0.0886 -3.3982  2.2745
 1211SOL     hw 4843   4.609   7.043   0.864 -2.0219 -0.1516 -1.3000
 1211SOL     vw 4844   4.647   6.971   0.834 -0.0422  0.0885  0.4449
 1212SOL     ow 4845   0.920   5.661   1.021  0.7646 -0.2171 -0.2678
 1212SOL     hw 4846   0.862   5.586   1.027  0.6333 -0.0947  0.0230
 1212SOL     hw 4847   1.008   5.625   1.034  0.6698 -0.2698  0.2345
 1212SOL     vw 4848   0.924   5.646   1.023  0.7348 -0.2079 -0.1631
 1213SOL     ow 4849   1.613   1.779   5.879  0.3402 -0.0074 -0.4177
 1213SOL     hw 4850   1.539   1.796   5.821 -1.5046  2.0185  2.2580
 1213SOL     hw 4851   1.613   1.684   5.890 -1.9441 -0.0700 -0.4776
 1213SOL     vw 4852   1.603   1.769   5.873 -0.2046  0.2517 -0.0727
 1214SOL     ow 4853   4.717   6.117   4.481  0.3821  0.1775  0.3593
 1214SOL     hw 4854   4.786   6.181   4.463  0.8917 -0.3340  0.4633
 1214SOL     hw 4855   4.756   6.059   4.546  0.0026 -0.3632  0.1034
 1214SOL     vw 4856   4.732   6.118   4.487  0.3991  0.0386  0.3393
 1215SOL     ow 4857   5.591   1.926   1.596 -0.0954  0.4203 -0.6658
 1215SOL     hw 4858   5.530   1.899   1.666  1.0108  2.6097  1.3021
 1215SOL     hw 4859   5.678   1.909   1.632  0.5058  0.2933 -2.1239
 1215SOL     vw 4860   5.594   1.920   1.610  0.1299  0.6924 -0.5985
 1216SOL     ow 4861   5.256   1.156   3.177 -0.0081  0.5779  0.1301
 1216SOL     hw 4862   5.216   1.193   3.256 -0.3809 -0.4013  0.4191
 1216SOL     hw 4863   5.225   1.212   3.106 -0.5683  0.8101  0.5501
 1216SOL     vw 4864   5.247   1.168   3.178 -0.1311  0.4793  0.2236
 1217SOL     ow 4865   3.464   3.073   5.926 -0.0668 -0.8532 -0.6677
 1217SOL     hw 4866   3.420   3.011   5.984 -2.7179  2.4422  1.1662
 1217SOL     hw 4867   3.488   3.147   5.983  1.5183  0.5406 -2.9683
 1217SOL     vw 4868   3.461   3.075   5.941 -0.2074 -0.2345 -0.7293
 1218SOL     ow 4869   5.921   0.592   4.954 -0.1706 -0.2909 -0.5861
 1218SOL     hw 4870   6.003   0.547   4.932 -0.8373 -0.9238 -1.8350
 1218SOL     hw 4871   5.860   0.522   4.976 -0.5961  0.1366 -0.3717
 1218SOL     vw 4872   5.924   0.577   4.954 -0.3145 -0.3180 -0.7226
 1219SOL     ow 4873   2.101   4.441   0.509 -0.2784 -0.2705  0.0323
 1219SOL     hw 4874   2.148   4.385   0.447  0.0697 -1.5056  1.3612
 1219SOL     hw 4875   2.018   4.397   0.524  0.0387 -0.5090  1.1743
 1219SOL     vw 4876   2.096   4.428   0.503 -0.1905 -0.4649  0.3583
 1220SOL     ow 4877   0.728   6.857   5.120  0.0890  0.1097 -0.2586
 1220SOL     hw 4878   0.819   6.846   5.146  0.8013 -1.0289 -2.9369
 1220SOL     hw 4879   0.692   6.768   5.123 -0.2858  0.2157 -1.3534
 1220SOL     vw 4880   0.735   6.844   5.124  0.1336 -0.0267 -0.7563
 1221SOL     ow 4881   4.743   7.053   2.093  0.0971 -0.5977 -0.3758
 1221SOL     hw 4882   4.815   6.994   2.114  1.2302  0.9438  0.2283
 1221SOL     hw 4883   4.736   7.049   1.997  2.2691  0.6173 -0.6494
 1221SOL     vw 4884   4.751   7.045   2.083  0.5331 -0.2341 -0.3322
 1222SOL     ow 4885   1.093   1.519   3.124 -0.1491 -0.4981 -0.9990
 1222SOL     hw 4886   1.158   1.582   3.156 -0.6477  0.0605 -1.0469
 1222SOL     hw 4887   1.011   1.570   3.121 -0.5356 -1.1221 -1.1561
 1222SOL     vw 4888   1.091   1.534   3.128 -0.2658 -0.5066 -1.0260
 1223SOL     ow 4889   0.040   4.183   5.774 -0.2114 -0.0281  0.1806
 1223SOL     hw 4890   0.052   4.251   5.840  2.2293 -1.3536  1.2102
 1223SOL     hw 4891  -0.054   4.164   5.777 -0.8878  2.8559  0.2228
 1223SOL     vw 4892   0.029   4.190   5.783  0.0213  0.1776  0.3221
 1224SOL     ow 4893   3.191   0.507   2.169  0.3422  0.1620 -0.7782
 1224SOL     hw 4894   3.117   0.473   2.120 -0.6260  0.2895  0.5489
 1224SOL     hw 4895   3.268   0.479   2.119 -0.5788 -0.1389 -2.0717
 1224SOL     vw 4896   3.192   0.499   2.156  0.0927  0.1391 -0.7738
 1225SOL     ow 4897   4.289   3.526   7.047 -0.0358  0.2223 -0.4354
 1225SOL     hw 4898   4.345   3.462   7.093  0.2265 -0.0681 -1.1438
 1225SOL     hw 4899   4.221   3.548   7.110  0.2787 -0.2249  0.0696
 1225SOL     vw 4900   4.288   3.520   7.062  0.0403  0.1249 -0.4623
 1226SOL     ow 4901   1.883   2.580   3.725 -0.1563  0.0325 -0.4442
 1226SOL     hw 4902   1.790   2.603   3.718  0.0165  1.2445  0.7339
 1226SOL     hw 4903   1.928   2.665   3.726  0.7873 -0.4573  0.9238
 1226SOL     vw 4904   1.877   2.594   3.724 -0.0089  0.1278 -0.1081
 1227SOL     ow 4905   2.271   2.883   0.972  0.1112 -0.4740 -0.3077
 1227SOL     hw 4906   2.343   2.947   0.969  0.2268 -0.5977 -0.1967
 1227SOL     hw 4907   2.264   2.851   0.882  1.0686 -1.4195 -0.0783
 1227SOL     vw 4908   2.280   2.887   0.959  0.2530 -0.6150 -0.2628
 1228SOL     ow 4909   3.545   4.991   3.892 -0.1525  0.4038  0.5666
 1228SOL     hw 4910   3.465   4.938   3.897  0.7141 -0.9539  0.5202
 1228SOL     hw 4911   3.515   5.080   3.906 -1.4950 -0.2209  1.9400
 1228SOL     vw 4912   3.530   4.996   3.894 -0.2154  0.1423  0.7417
 1229SOL     ow 4913   5.684   5.415   3.091  0.8575 -0.3743  0.7172
 1229SOL     hw 4914   5.657   5.323   3.095  0.8078 -0.3196  2.7342
 1229SOL     hw 4915   5.763   5.419   3.144  0.6269  0.8211  0.9972
 1229SOL     vw 4916   5.691   5.404   3.098  0.8204 -0.2091  1.0203
 1230SOL     ow 4917   3.122   2.702   4.182  0.2356  0.1236  0.0741
 1230SOL     hw 4918   3.135   2.611   4.207  0.9649  0.3272  0.4564
 1230SOL     hw 4919   3.140   2.704   4.088  1.3781  0.0849  0.2842
 1230SOL     vw 4920   3.126   2.690   4.173  0.4824  0.1453  0.1521
 1231SOL     ow 4921   4.148   6.985   0.092  0.2763  0.0034 -0.2566
 1231SOL     hw 4922   4.130   6.944   0.177  0.0714 -1.7848 -1.1423
 1231SOL     hw 4923   4.230   7.033   0.106  0.4736 -0.6247  0.8330
 1231SOL     vw 4924   4.156   6.986   0.105  0.2754 -0.3157 -0.2297
 1232SOL     ow 4925   6.535   2.301   6.294  0.3509  0.0143 -0.6956
 1232SOL     hw 4926   6.624   2.313   6.325  0.0098 -0.4768  0.5463
 1232SOL     hw 4927   6.537   2.327   6.202  1.6898  0.3171 -0.5914
 1232SOL     vw 4928   6.547   2.306   6.286  0.4826 -0.0105 -0.5178
 1233SOL     ow 4929   0.996   5.666   4.304  0.3630 -0.2209 -0.0387
 1233SOL     hw 4930   0.903   5.644   4.304  0.0878  0.7960  0.8340
 1233SOL     hw 4931   1.039   5.593   4.261 -0.8163 -0.8403 -0.1990
 1233SOL     vw 4932   0.989   5.654   4.298  0.1711 -0.1688  0.0551
 1234SOL     ow 4933   5.150   7.348   2.288  0.4015 -0.1719 -0.1563
 1234SOL     hw 4934   5.140   7.418   2.224  0.3973  1.7408  1.8130
 1234SOL     hw 4935   5.195   7.389   2.362 -0.9267 -1.8470  1.6938
 1234SOL     vw 4936   5.155   7.362   2.289  0.2255 -0.1402  0.3475
 1235SOL     ow 4937   2.344   0.172   4.964  0.1304  0.3266  0.4028
 1235SOL     hw 4938   2.327   0.264   4.987 -1.9893  0.0614  0.1066
 1235SOL     hw 4939   2.258   0.130   4.971  0.8961 -1.4455 -0.3950
 1235SOL     vw 4940   2.330   0.179   4.968 -0.0484  0.0578  0.2584
 1236SOL     ow 4941   0.822   1.485   1.017  0.1759  0.5215  0.0916
 1236SOL     hw 4942   0.810   1.396   0.983 -0.7114  1.0118 -0.9799
 1236SOL     hw 4943   0.733   1.521   1.020  0.2419  0.6252  2.7550
 1236SOL     vw 4944   0.808   1.478   1.013  0.0676  0.5999  0.3017
 1237SOL     ow 4945   1.209   3.441   3.229 -0.4639 -0.3872 -0.5244
 1237SOL     hw 4946   1.184   3.524   3.270 -0.9321 -0.6710 -0.2323
 1237SOL     hw 4947   1.235   3.385   3.302 -1.2271 -0.8694 -0.6069
 1237SOL     vw 4948   1.209   3.445   3.244 -0.6264 -0.4882 -0.4969
 1238SOL     ow 4949   0.096   6.676   6.988  0.0221  0.3097  0.2086
 1238SOL     hw 4950   0.118   6.734   7.062  2.4688  1.6315 -1.4104
 1238SOL     hw 4951   0.018   6.716   6.949  0.1554  1.0413  0.6582
 1238SOL     vw 4952   0.089   6.689   6.993  0.3625  0.5805  0.0544
 1239SOL     ow 4953   1.645   3.983   4.350  0.0608  0.1274  0.1088
 1239SOL     hw 4954   1.711   3.997   4.282  0.4379 -1.0021  0.2276
 1239SOL     hw 4955   1.617   3.892   4.338 -1.2080  0.4689  0.3039
 1239SOL     vw 4956   1.650   3.973   4.339 -0.0569  0.0234  0.1500
 1240SOL     ow 4957   1.615   2.060   5.884 -0.4001 -0.5201  0.1717
 1240SOL     hw 4958   1.657   2.062   5.798  1.6227  1.4163  1.1236
 1240SOL     hw 4959   1.565   2.142   5.889 -0.4405 -0.5784  0.8860
 1240SOL     vw 4960   1.614   2.071   5.873 -0.1385 -0.2724  0.3912
 1241SOL     ow 4961   4.487   3.782   3.820  0.2179  0.4902 -0.4059
 1241SOL     hw 4962   4.506   3.798   3.912 -0.1379  2.2056 -0.5910
 1241SOL     hw 4963   4.531   3.700   3.800  0.3709  0.1273  1.2628
 1241SOL     vw 4964   4.495   3.773   3.830  0.1915  0.6688 -0.2103
 1242SOL     ow 4965   1.743   3.583   5.531 -0.8226 -0.1591 -0.4282
 1242SOL     hw 4966   1.813   3.602   5.593 -1.5732  0.5968  0.2219
 1242SOL     hw 4967   1.754   3.648   5.461 -2.6879  2.1038  1.2179
 1242SOL     vw 4968   1.753   3.594   5.530 -1.1677  0.2393 -0.1254
 1243SOL     ow 4969   0.516   3.941   3.192 -0.4099 -0.0141 -0.1378
 1243SOL     hw 4970   0.556   3.854   3.197 -2.4012 -1.1421 -2.0111
 1243SOL     hw 4971   0.493   3.962   3.283 -1.6247 -2.3443  0.1626
 1243SOL     vw 4972   0.519   3.932   3.205 -0.8329 -0.4704 -0.3452
 1244SOL     ow 4973   3.647   6.322   4.771 -0.5608  0.2116  0.4051
 1244SOL     hw 4974   3.615   6.284   4.689  0.3799  0.1069  0.0831
 1244SOL     hw 4975   3.584   6.392   4.790 -1.0401 -0.0477 -0.1637
 1244SOL     vw 4976   3.634   6.326   4.763 -0.5000  0.1636  0.2873
 1245SOL     ow 4977   4.474   3.761   7.038 -0.8173 -0.3009 -0.2333
 1245SOL     hw 4978   4.422   3.813   6.977 -2.1584  0.8304  1.7599
 1245SOL     hw 4979   4.421   3.683   7.056 -0.5376 -0.5151 -0.3260
 1245SOL     vw 4980   4.461   3.757   7.033 -0.9573 -0.1799  0.0174
 1246SOL     ow 4981   3.408   6.447   6.972 -0.2577 -1.1592  0.2903
 1246SOL     hw 4982   3.474   6.426   7.037  0.3555 -0.9953 -0.2669
 1246SOL     hw 4983   3.449   6.514   6.917  0.2677 -3.1032 -1.8558
 1246SOL     vw 4984   3.422   6.453   6.973 -0.1074 -1.3938 -0.0665
 1247SOL     ow 4985   6.510   2.872   6.938  0.0652 -0.0689 -0.2579
 1247SOL     hw 4986   6.550   2.847   7.022 -1.2627  0.2246  0.4865
 1247SOL     hw 4987   6.452   2.945   6.960  0.5231  0.7518 -1.6397
 1247SOL     vw 4988   6.508   2.879   6.952 -0.0496  0.0782 -0.3421
 1248SOL     ow 4989   6.876   3.055   5.772 -0.2467  0.3688 -0.6032
 1248SOL     hw 4990   6.890   3.127   5.711  0.3175  1.5812  0.9016
 1248SOL     hw 4991   6.947   2.993   5.754  2.5612  2.7045  1.5822
 1248SOL     vw 4992   6.887   3.056   5.761  0.1984  0.8370 -0.1161
 1249SOL     ow 4993   3.763   6.304   4.431  0.0910  0.1241  0.5511
 1249SOL     hw 4994   3.766   6.321   4.337 -0.7061  1.0192  0.6791
 1249SOL     hw 4995   3.670   6.289   4.450 -0.1211  2.3339  1.5762
 1249SOL     vw 4996   3.751   6.304   4.422 -0.0422  0.5341  0.7033
 1250SOL     ow 4997   6.287   1.107   3.929  0.0327 -0.3616  0.3288
 1250SOL     hw 4998   6.289   1.103   3.833 -0.1516  1.3632  0.2208
 1250SOL     hw 4999   6.373   1.076   3.956  0.4570  0.0952 -0.4574
 1250SOL     vw 5000   6.298   1.102   3.920  0.0644 -0.0738  0.2108
 1251SOL     ow 5001   1.637   0.716   4.238 -0.1605 -0.2390  0.1397
 1251SOL     hw 5002   1.587   0.783   4.191 -0.4375 -1.5130 -1.4733
 1251SOL     hw 5003   1.710   0.763   4.278  0.0265  0.9395 -1.5106
 1251SOL     vw 5004   1.640   0.731   4.237 -0.1724 -0.2516 -0.2911
 1252SOL     ow 5005   0.003   4.662   3.607 -0.5726 -0.3702 -0.5070
 1252SOL     hw 5006  -0.043   4.586   3.571 -1.3328 -1.3822  2.3176
 1252SOL     hw 5007   0.068   4.625   3.667  1.2287  1.1741 -1.3862
 1252SOL     vw 5008   0.005   4.647   3.610 -0.4352 -0.2999 -0.2502
 1253SOL     ow 5009   0.094   3.025   6.465 -0.1791  0.2069  0.1036
 1253SOL     hw 5010   0.133   3.051   6.381  0.1077  1.7073  0.6697
 1253SOL     hw 5011   0.091   2.930   6.462  0.7676  0.1976 -1.1935
 1253SOL     vw 5012   0.099   3.016   6.453 -0.0164  0.4035  0.0076
 1254SOL     ow 5013   1.530   0.712   5.778 -0.1738  0.8573 -0.5267
 1254SOL     hw 5014   1.563   0.761   5.703 -1.1391  1.1917 -0.7487
 1254SOL     hw 5015   1.558   0.764   5.854  2.8624 -0.6716 -0.4329
 1254SOL     vw 5016   1.538   0.725   5.778  0.0994  0.6997 -0.5438
 1255SOL     ow 5017   7.190   5.246   1.890  0.0356  0.5137  0.3599
 1255SOL     hw 5018   7.257   5.299   1.932  1.3834 -0.6263 -0.2866
 1255SOL     hw 5019   7.183   5.280   1.801  2.1615 -1.3763 -0.6303
 1255SOL     vw 5020   7.198   5.257   1.884  0.4940  0.1137  0.1440
 1256SOL     ow 5021   4.030   0.254   7.447 -1.0164  0.6516  0.3714
 1256SOL     hw 5022   4.120   0.254   7.415 -1.3901  1.6818 -0.8036
 1256SOL     hw 5023   4.005   0.162   7.448  0.7851  0.0962  3.0667
 1256SOL     vw 5024   4.039   0.242   7.443 -0.8280  0.7143  0.5720
 1257SOL     ow 5025   6.020   5.265   2.042  0.1264 -0.0697 -0.0866
 1257SOL     hw 5026   6.115   5.266   2.028  0.2570 -3.1537 -0.0711
 1257SOL     hw 5027   5.983   5.287   1.957  0.9256 -2.2852 -1.0859
 1257SOL     vw 5028   6.028   5.268   2.029  0.2489 -0.7689 -0.2165
 1258SOL     ow 5029   3.162   5.535   5.827 -0.8149  0.3714  0.5794
 1258SOL     hw 5030   3.142   5.602   5.893 -1.7335 -0.6173  1.3487
 1258SOL     hw 5031   3.205   5.465   5.876 -1.0326 -0.1459  0.0447
 1258SOL     vw 5032   3.165   5.534   5.842 -0.9650  0.1726  0.6104
 1259SOL     ow 5033   0.589   3.854   4.140 -0.3480  0.3375 -0.5951
 1259SOL     hw 5034   0.522   3.837   4.207 -0.1792  1.2267 -0.1884
 1259SOL     hw 5035   0.544   3.840   4.057 -0.7261 -0.1847 -0.3141
 1259SOL     vw 5036   0.574   3.850   4.138 -0.3756  0.3859 -0.5045
 1260SOL     ow 5037   6.606   2.442   0.607 -0.7422 -0.1106 -0.5096
 1260SOL     hw 5038   6.595   2.351   0.581  1.1546 -0.4196 -0.3649
 1260SOL     hw 5039   6.689   2.468   0.567  0.8431  0.2993  2.7269
 1260SOL     vw 5040   6.616   2.434   0.598 -0.2828 -0.0973 -0.0635
 1261SOL     ow 5041   6.783   1.457   2.221 -0.4165 -0.3896  0.3982
 1261SOL     hw 5042   6.739   1.483   2.140  1.5151 -1.0970 -0.9668
 1261SOL     hw 5043   6.755   1.521   2.286  0.7220  2.4443 -1.7103
 1261SOL     vw 5044   6.774   1.469   2.219 -0.0114 -0.1090 -0.0601
 1262SOL     ow 5045   4.835   4.136   5.747  0.0664 -0.3481 -0.1677
 1262SOL     hw 5046   4.874   4.185   5.675 -1.5725  2.8616  0.9440
 1262SOL     hw 5047   4.837   4.197   5.822  1.2442 -3.3238  2.4618
 1262SOL     vw 5048   4.841   4.151   5.748  0.0055 -0.3171  0.3257
 1263SOL     ow 5049   0.122   3.730   1.965 -0.2633  0.2510  0.1578
 1263SOL     hw 5050   0.143   3.711   2.056  0.9259 -0.8349 -0.2990
 1263SOL     hw 5051   0.060   3.662   1.940 -0.0641  0.1353 -0.0259
 1263SOL     vw 5052   0.117   3.719   1.973 -0.0801  0.0925  0.0733
 1264SOL     ow 5053   1.786   3.672   1.422 -0.7901  0.4071 -0.6405
 1264SOL     hw 5054   1.872   3.632   1.408 -0.3955  0.6181  0.8986
 1264SOL     hw 5055   1.726   3.598   1.429 -0.5447  0.2022 -0.6723
 1264SOL     vw 5056   1.789   3.657   1.421 -0.7057  0.4079 -0.4417
 1265SOL     ow 5057   4.675   0.943   2.774 -0.5745 -0.1809 -0.6172
 1265SOL     hw 5058   4.700   0.909   2.860  0.4213 -0.9107 -1.1743
 1265SOL     hw 5059   4.612   0.879   2.741  1.9856 -2.1721 -2.0598
 1265SOL     vw 5060   4.670   0.930   2.781 -0.1054 -0.5400 -0.8811
 1266SOL     ow 5061   4.999   2.298   2.372 -0.0819 -0.1110 -0.3806
 1266SOL     hw 5062   4.991   2.385   2.334  1.3431 -1.0447 -3.1134
 1266SOL     hw 5063   4.909   2.265   2.376 -0.8230  1.9559  2.1666
 1266SOL     vw 5064   4.986   2.305   2.367  0.0086  0.0385 -0.4051
 1267SOL     ow 5065   6.950   4.180   5.325 -0.0689  0.7076  1.1154
 1267SOL     hw 5066   6.889   4.253   5.329  0.8567  1.5358  0.8399
 1267SOL     hw 5067   7.024   4.215   5.274  0.3081 -0.4856  0.8198
 1267SOL     vw 5068   6.952   4.194   5.319  0.1030  0.6597  1.0402
 1268SOL     ow 5069   3.574   7.191   6.246 -0.4680  0.2330 -0.9446
 1268SOL     hw 5070   3.652   7.145   6.213  0.3099  0.6493  0.2370
 1268SOL     hw 5071   3.560   7.262   6.183  1.0540  1.0800 -0.3977
 1268SOL     vw 5072   3.583   7.195   6.234 -0.1645  0.3998 -0.7167
 1269SOL     ow 5073   6.172   4.704   4.087  0.1942  0.1018 -0.2880
 1269SOL     hw 5074   6.173   4.800   4.082  2.0871  0.1344 -0.0395
 1269SOL     hw 5075   6.162   4.685   4.180  0.1858  0.0676 -0.2961
 1269SOL     vw 5076   6.171   4.714   4.098  0.4430  0.1016 -0.2563
 1270SOL     ow 5077   3.072   7.389   2.318 -0.1174  0.5866  0.2102
 1270SOL     hw 5078   3.013   7.342   2.259  1.1601 -0.0650 -0.5848
 1270SOL     hw 5079   3.121   7.320   2.363 -0.0299  1.1123  0.9391
 1270SOL     vw 5080   3.070   7.374   2.316  0.0627  0.5698  0.2015
 1271SOL     ow 5081   6.313   1.415   1.146 -0.5871 -0.2006 -0.8973
 1271SOL     hw 5082   6.390   1.434   1.198 -0.6095 -2.1236 -0.0601
 1271SOL     hw 5083   6.337   1.337   1.095 -1.8866 -0.7159 -0.7729
 1271SOL     vw 5084   6.326   1.407   1.146 -0.7615 -0.5224 -0.7704
 1272SOL     ow 5085   6.988   6.909   0.302 -0.6147  0.4545 -1.0054
 1272SOL     hw 5086   7.047   6.970   0.345 -1.3119  1.8154 -1.9190
 1272SOL     hw 5087   6.968   6.844   0.370  0.6932  0.8320 -0.2273
 1272SOL     vw 5088   6.993   6.909   0.317 -0.5341  0.6838 -1.0232
 1273SOL     ow 5089   4.891   1.216   1.658  0.0195 -0.1038  0.0396
 1273SOL     hw 5090   4.955   1.281   1.628  0.6308  0.3625  2.1862
 1273SOL     hw 5091   4.937   1.133   1.649  1.5382  0.3313  2.7953
 1273SOL     vw 5092   4.906   1.214   1.653  0.3006  0.0151  0.6864
 1274SOL     ow 5093   3.042   1.324   7.340 -0.5958 -0.8834  0.4157
 1274SOL     hw 5094   3.137   1.326   7.351 -0.3517 -1.1844 -1.4220
 1274SOL     hw 5095   3.008   1.325   7.430  1.0760  1.0912  1.1076
 1274SOL     vw 5096   3.050   1.324   7.354 -0.3430 -0.6626  0.2646
 1275SOL     ow 5097   4.088   7.061   7.044 -0.1898  0.4700 -0.1820
 1275SOL     hw 5098   4.130   7.053   7.129 -2.1465 -2.6993  0.6393
 1275SOL     hw 5099   4.114   7.148   7.013  2.9803  0.5874  2.2597
 1275SOL     vw 5100   4.097   7.071   7.051 -0.0296  0.0672  0.2484
 1276SOL     ow 5101   2.156   1.839   1.501 -0.2645 -0.1582  0.0298
 1276SOL     hw 5102   2.217   1.779   1.459 -1.3940 -1.2428 -0.1344
 1276SOL     hw 5103   2.200   1.866   1.582  1.0941  0.3787 -0.8567
 1276SOL     vw 5104   2.170   1.834   1.506 -0.2342 -0.2304 -0.1088
 1277SOL     ow 5105   5.032   2.506   4.969  0.3850  0.6501 -0.6063
 1277SOL     hw 5106   4.963   2.441   4.962  1.3067 -0.3233 -1.0679
 1277SOL     hw 5107   5.002   2.568   5.036 -0.5985 -0.1412 -0.3071
 1277SOL     vw 5108   5.019   2.506   4.977  0.3767  0.4172 -0.6278
 1278SOL     ow 5109   6.558   0.401   4.169  0.4043  0.2001  0.4711
 1278SOL     hw 5110   6.577   0.318   4.213 -0.7695 -0.9760 -1.1286
 1278SOL     hw 5111   6.611   0.399   4.090  0.4847  1.0489  0.5008
 1278SOL     vw 5112   6.567   0.390   4.165  0.2601  0.1569  0.2639
 1279SOL     ow 5113   2.867   3.029   2.864  0.8284  0.0889 -0.3897
 1279SOL     hw 5114   2.846   3.101   2.924  2.6466  0.2152  0.1462
 1279SOL     hw 5115   2.802   3.037   2.794  1.0201  2.3331 -0.3937
 1279SOL     vw 5116   2.856   3.040   2.863  1.0936  0.4015 -0.3195
 1280SOL     ow 5117   0.612   5.758   0.243  0.4031 -0.5073  0.4360
 1280SOL     hw 5118   0.563   5.832   0.207 -0.4275 -1.2895 -0.0963
 1280SOL     hw 5119   0.554   5.683   0.230  1.0835 -1.2016  1.2753
 1280SOL     vw 5120   0.598   5.758   0.237  0.3833 -0.7021  0.4765
 1281SOL     ow 5121   0.495   5.742   6.823  0.7533  0.0069  0.0196
 1281SOL     hw 5122   0.495   5.697   6.739  1.4564 -3.7496  1.8413
 1281SOL     hw 5123   0.584   5.776   6.832  1.1466 -0.9639 -0.1043
 1281SOL     vw 5124   0.506   5.741   6.813  0.8979 -0.6170  0.2434
 1282SOL     ow 5125   2.608   3.804   4.027  0.0736 -0.2915 -0.5235
 1282SOL     hw 5126   2.556   3.814   3.947 -0.6194 -3.1205 -0.5528
 1282SOL     hw 5127   2.691   3.766   3.997  0.6288  0.5234 -0.0627
 1282SOL     vw 5128   2.612   3.800   4.012  0.0554 -0.5572 -0.4663
 1283SOL     ow 5129   1.062   3.131   3.753 -0.2468 -0.2386 -0.1460
 1283SOL     hw 5130   1.015   3.208   3.719 -0.7454  0.2097  1.4450
 1283SOL     hw 5131   1.117   3.167   3.822 -1.1418 -1.4030  1.2247
 1283SOL     vw 5132   1.063   3.146   3.758 -0.4306 -0.3331  0.2446
 1284SOL     ow 5133   2.106   0.799   4.347  0.7048 -0.6680 -0.5427
 1284SOL     hw 5134   2.088   0.707   4.363  0.3382 -0.7629 -1.4475
 1284SOL     hw 5135   2.129   0.803   4.254 -1.5038  0.4638 -1.1044
 1284SOL     vw 5136   2.107   0.788   4.337  0.3650 -0.5312 -0.7360
 1285SOL     ow 5137   0.111   2.885   1.948 -0.7521  0.1513  0.2494
 1285SOL     hw 5138   0.103   2.818   2.016  0.0694  2.5630  2.9264
 1285SOL     hw 5139   0.084   2.966   1.991 -1.7837  1.6035 -2.8543
 1285SOL     vw 5140   0.107   2.887   1.963 -0.7798  0.6610  0.1931
 1286SOL     ow 5141   5.748   2.284   3.196 -0.3352  0.0821 -0.3186
 1286SOL     hw 5142   5.791   2.199   3.201 -0.0635  0.2620  0.6074
 1286SOL     hw 5143   5.656   2.266   3.211 -0.2929 -0.0694 -0.2392
 1286SOL     vw 5144   5.742   2.270   3.199 -0.2935  0.0859 -0.1860
 1287SOL     ow 5145   0.007   5.344   3.797 -0.4139 -0.3467 -0.2394
 1287SOL     hw 5146   0.034   5.346   3.889 -0.6168 -3.3057  0.0091
 1287SOL     hw 5147  -0.002   5.250   3.778  1.3332  0.0523 -3.7927
 1287SOL     vw 5148   0.009   5.332   3.807 -0.2102 -0.6845 -0.6754
 1288SOL     ow 5149   0.789   0.852   0.285  0.3128 -0.0106  0.3009
 1288SOL     hw 5150   0.774   0.869   0.192  1.5657  1.7804  0.3748
 1288SOL     hw 5151   0.730   0.912   0.331  0.9796  0.4093  0.6286
 1288SOL     vw 5152   0.779   0.862   0.279  0.5661  0.2811  0.3539
 1289SOL     ow 5153   0.835   0.184   1.026  0.3074  0.4755 -0.3958
 1289SOL     hw 5154   0.865   0.241   1.097 -0.6292 -0.4294  0.7580
 1289SOL     hw 5155   0.842   0.096   1.060 -0.1662  0.0155 -1.4300
 1289SOL     vw 5156   0.840   0.180   1.040  0.1214  0.2954 -0.3800
 1290SOL     ow 5157   3.391   5.052   4.346 -0.1523 -0.0921 -0.2277
 1290SOL     hw 5158   3.426   5.117   4.284 -1.6076  0.9629  0.0094
 1290SOL     hw 5159   3.429   4.969   4.317  0.1965  0.5568 -1.7532
 1290SOL     vw 5160   3.401   5.050   4.334 -0.2984  0.1328 -0.3977
 1291SOL     ow 5161   5.747   3.322   1.061 -0.1620  0.3744  0.6937
 1291SOL     hw 5162   5.702   3.346   1.142 -3.1356 -1.5146 -0.2203
 1291SOL     hw 5163   5.730   3.395   1.002 -1.0846  0.2064  0.7334
 1291SOL     vw 5164   5.739   3.335   1.064 -0.6762  0.1031  0.5783
 1292SOL     ow 5165   0.182   0.423   1.542  0.1104  1.0313 -0.6357
 1292SOL     hw 5166   0.136   0.482   1.481  0.9275 -0.1522 -2.4702
 1292SOL     hw 5167   0.130   0.343   1.541 -0.2131  1.2135  0.7474
 1292SOL     vw 5168   0.169   0.420   1.534  0.1756  0.8992 -0.6953
 1293SOL     ow 5169   6.689   6.331   5.731 -0.3161 -0.5834 -0.4413
 1293SOL     hw 5170   6.686   6.393   5.658 -1.0799  1.4306  1.1971
 1293SOL     hw 5171   6.632   6.370   5.798 -1.4778 -3.4804  0.4030
 1293SOL     vw 5172   6.681   6.344   5.730 -0.5701 -0.7002 -0.1137
 1294SOL     ow 5173   2.170   1.228   4.553 -0.4036  0.1974  0.2762
 1294SOL     hw 5174   2.107   1.239   4.624 -0.0556 -1.3209  0.8521
 1294SOL     hw 5175   2.195   1.136   4.556  1.2984  0.5843 -0.3989
 1294SOL     vw 5176   2.165   1.218   4.563 -0.1330  0.0482  0.2635
 1295SOL     ow 5177   0.789   3.946   5.773 -0.0941  0.5162 -0.3368
 1295SOL     hw 5178   0.764   4.006   5.843  2.0519  1.6597 -0.4849
 1295SOL     hw 5179   0.882   3.930   5.786  0.0170 -0.5087 -2.0170
 1295SOL     vw 5180   0.798   3.951   5.784  0.2037  0.5319 -0.5782
 1296SOL     ow 5181   6.147   1.994   6.414  0.1274 -0.0035 -0.0967
 1296SOL     hw 5182   6.215   1.947   6.366 -1.3214 -3.3453  0.7917
 1296SOL     hw 5183   6.179   1.997   6.505 -0.4842 -0.8379  0.1621
 1296SOL     vw 5184   6.160   1.988   6.420 -0.1442 -0.5545  0.0548
 1297SOL     ow 5185   0.434   4.545   6.421 -0.3281 -0.2388  0.3727
 1297SOL     hw 5186   0.340   4.534   6.408 -0.4576 -0.0084  1.0908
 1297SOL     hw 5187   0.472   4.466   6.383 -0.8089 -0.3284  0.0674
 1297SOL     vw 5188   0.427   4.533   6.414 -0.4086 -0.2203  0.4270
 1298SOL     ow 5189   6.569   1.521   2.511  0.5283  0.0275 -0.3059
 1298SOL     hw 5190   6.639   1.492   2.569 -0.5702 -0.2635  0.9461
 1298SOL     hw 5191   6.494   1.467   2.536  0.1940 -0.6471 -2.5439
 1298SOL     vw 5192   6.568   1.510   2.522  0.3393 -0.0999 -0.4358
 1299SOL     ow 5193   4.134   4.725   4.297 -0.2662  0.1139 -0.5014
 1299SOL     hw 5194   4.126   4.639   4.257  2.3614 -0.8972  0.8696
 1299SOL     hw 5195   4.205   4.768   4.249 -0.1602  0.6758  0.1402
 1299SOL     vw 5196   4.142   4.719   4.286  0.0944  0.0548 -0.2360
 1300SOL     ow 5197   2.824   6.102   7.181  0.3463 -0.3358 -0.4757
 1300SOL     hw 5198   2.821   6.122   7.087 -0.2654  2.7079  0.0652
 1300SOL     hw 5199   2.735   6.074   7.202 -0.0392  0.7710 -0.5372
 1300SOL     vw 5200   2.811   6.101   7.171  0.2146  0.2120 -0.4122
 1301SOL     ow 5201   1.364   0.298   6.785  0.2311  0.0003  0.2777
 1301SOL     hw 5202   1.408   0.297   6.871  1.4436 -1.1191 -0.3122
 1301SOL     hw 5203   1.308   0.220   6.786  0.6625 -0.3221 -0.1289
 1301SOL     vw 5204   1.363   0.287   6.797  0.4480 -0.1899  0.1464
 1302SOL     ow 5205   1.004   1.574   4.806  0.0878 -0.7022  0.2269
 1302SOL     hw 5206   0.976   1.632   4.877 -0.2881 -1.8619  1.0677
 1302SOL     hw 5207   1.043   1.632   4.741 -1.1754  0.5926  0.5798
 1302SOL     vw 5208   1.005   1.589   4.807 -0.1284 -0.6843  0.3846
 1303SOL     ow 5209   5.872   0.037   6.551  0.5625 -0.1646  0.2883
 1303SOL     hw 5210   5.918   0.047   6.467  3.6251  1.5594  1.9848
 1303SOL     hw 5211   5.877  -0.056   6.570 -1.3570 -0.8226 -1.9429
 1303SOL     vw 5212   5.879   0.026   6.542  0.7133 -0.0239  0.2179
 1304SOL     ow 5213   4.134   5.562   2.236  0.1229 -0.1772  0.8721
 1304SOL     hw 5214   4.124   5.618   2.312 -1.9540 -0.8766  1.1789
 1304SOL     hw 5215   4.227   5.570   2.212  0.1767  2.3662  1.6310
 1304SOL     vw 5216   4.145   5.570   2.243 -0.1438  0.0663  1.0128
 1305SOL     ow 5217   6.689   1.633   7.091  0.6355 -0.1459 -0.3082
 1305SOL     hw 5218   6.632   1.556   7.089  1.6686 -0.9128 -1.3999
 1305SOL     hw 5219   6.717   1.645   7.001  2.0567  0.3142  0.1712
 1305SOL     vw 5220   6.685   1.624   7.079  0.9592 -0.1864 -0.3891
 1306SOL     ow 5221   5.299   3.219   5.904  0.3923  0.2345  0.4452
 1306SOL     hw 5222   5.204   3.221   5.896  0.4082  0.2079  0.2295
 1306SOL     hw 5223   5.326   3.142   5.853  0.6794  1.3918 -1.2409
 1306SOL     vw 5224   5.290   3.209   5.896  0.4325  0.3836  0.1943
 1307SOL     ow 5225   2.671   0.336   4.728  0.5914 -0.5332  0.2155
 1307SOL     hw 5226   2.661   0.431   4.733  1.5567 -0.3605 -0.8286
 1307SOL     hw 5227   2.765   0.322   4.716  0.5036 -1.6419  0.6813
 1307SOL     vw 5228   2.682   0.347   4.728  0.7073 -0.6567  0.1395
 1308SOL     ow 5229   3.857   0.463   5.637 -0.1013  0.0317  0.1770
 1308SOL     hw 5230   3.817   0.520   5.703 -0.2498 -1.4719  1.4646
 1308SOL     hw 5231   3.803   0.384   5.638 -1.8232  0.8969 -3.7817
 1308SOL     vw 5232   3.845   0.460   5.646 -0.3483 -0.0525 -0.1752
 1309SOL     ow 5233   6.674   5.958   4.084  0.2060 -0.5263 -0.1471
 1309SOL     hw 5234   6.750   5.970   4.142 -0.5002  0.0266  0.7017
 1309SOL     hw 5235   6.696   5.883   4.030  1.4139 -0.2943 -0.0041
 1309SOL     vw 5236   6.687   5.950   4.085  0.2725 -0.4230 -0.0162
 1310SOL     ow 5237   0.739   6.794   0.563 -0.0938  0.4913 -0.0101
 1310SOL     hw 5238   0.651   6.799   0.598 -0.5021 -1.5510 -0.6078
 1310SOL     hw 5239   0.796   6.794   0.640 -0.7353 -0.0024  0.4757
 1310SOL     vw 5240   0.735   6.795   0.578 -0.2323  0.1566 -0.0248
 1311SOL     ow 5241   3.387   6.534   0.914 -0.2772  0.4786  0.1498
 1311SOL     hw 5242   3.376   6.544   0.819 -0.8022 -1.7450 -0.0765
 1311SOL     hw 5243   3.458   6.471   0.923 -0.5484  0.3127  1.2277
 1311SOL     vw 5244   3.395   6.527   0.903 -0.3823  0.1636  0.2621
 1312SOL     ow 5245   5.258   3.044   4.845  0.4458  0.0460 -0.2035
 1312SOL     hw 5246   5.162   3.040   4.846  0.2483  0.0416 -3.7697
 1312SOL     hw 5247   5.277   3.129   4.804  1.9294 -0.2929 -0.2575
 1312SOL     vw 5248   5.248   3.055   4.840  0.6151  0.0006 -0.6812
 1313SOL     ow 5249   1.870   2.058   4.659  0.7405  0.6860  0.3076
 1313SOL     hw 5250   1.956   2.098   4.674  1.7234 -0.6267 -1.4475
 1313SOL     hw 5251   1.885   1.964   4.670 -0.3762  0.3986 -0.4539
 1313SOL     vw 5252   1.883   2.051   4.663  0.7229  0.4748 -0.0246
 1314SOL     ow 5253   6.752   1.126   3.404 -0.0001 -0.5521  0.2183
 1314SOL     hw 5254   6.757   1.091   3.315  2.4455  0.6252 -0.1812
 1314SOL     hw 5255   6.778   1.053   3.460 -1.1718 -1.1845 -0.0206
 1314SOL     vw 5256   6.756   1.112   3.400  0.1678 -0.4802  0.1341
 1315SOL     ow 5257   3.432   0.795   2.553  0.2970  0.1912  0.5027
 1315SOL     hw 5258   3.345   0.772   2.521  0.7516 -0.6911 -0.1198
 1315SOL     hw 5259   3.464   0.860   2.491  0.0108  0.6639  0.8440
 1315SOL     vw 5260   3.425   0.801   2.541  0.3191  0.1372  0.4655
 1316SOL     ow 5261   7.488   0.423   2.668  0.4488 -0.2530 -0.4476
 1316SOL     hw 5262   7.555   0.411   2.735  0.7856  0.7755 -0.5842
 1316SOL     hw 5263   7.423   0.355   2.686  0.0440  0.6101  1.4899
 1316SOL     vw 5264   7.488   0.412   2.679  0.4399 -0.0034 -0.2099
 1317SOL     ow 5265   0.042   0.784   1.128 -0.2838 -0.4456 -0.5449
 1317SOL     hw 5266   0.121   0.836   1.144  1.3788 -2.6929 -0.8646
 1317SOL     hw 5267  -0.025   0.847   1.105  0.9129  1.7451  1.5591
 1317SOL     vw 5268   0.044   0.799   1.127  0.0934 -0.4531 -0.3096
 1318SOL     ow 5269   5.536   0.939   0.368 -0.0565  0.2009 -0.7340
 1318SOL     hw 5270   5.622   0.911   0.338 -0.2806  0.2263 -1.4131
 1318SOL     hw 5271   5.478   0.923   0.294 -0.5118  0.8204 -0.5211
 1318SOL     vw 5272   5.540   0.934   0.354 -0.1459  0.2860 -0.7955
 1319SOL     ow 5273   6.050   0.968   2.643 -0.4548 -0.4994 -0.3275
 1319SOL     hw 5274   6.031   0.875   2.628 -0.8256 -0.1628 -2.1387
 1319SOL     hw 5275   5.980   1.014   2.598  0.0983  0.6840 -0.0056
 1319SOL     vw 5276   6.039   0.962   2.635 -0.4306 -0.2989 -0.5242
 1320SOL     ow 5277   1.279   6.067   4.196 -0.4380 -0.3705 -0.3035
 1320SOL     hw 5278   1.266   6.152   4.155  1.0459  0.0041 -0.0320
 1320SOL     hw 5279   1.299   6.008   4.124 -3.7774 -1.1012 -0.8240
 1320SOL     vw 5280   1.280   6.070   4.181 -0.6828 -0.4175 -0.3364
 1321SOL     ow 5281   3.708   1.483   7.414 -0.4980 -0.3629  0.1149
 1321SOL     hw 5282   3.698   1.403   7.465 -4.3435 -1.2552 -1.7335
 1321SOL     hw 5283   3.742   1.454   7.329  0.2385  0.2992  0.1722
 1321SOL     vw 5284   3.711   1.469   7.409 -0.9083 -0.3932 -0.1214
 1322SOL     ow 5285   4.376   0.801   2.903  0.0861  0.5253 -0.9111
 1322SOL     hw 5286   4.431   0.782   2.826  2.2856  0.4893  0.5901
 1322SOL     hw 5287   4.353   0.715   2.937 -1.1007  0.5368 -1.6008
 1322SOL     vw 5288   4.380   0.787   2.897  0.2198  0.5221 -0.8041
 1323SOL     ow 5289   1.312   2.609   1.278 -0.0721 -0.3100  0.1223
 1323SOL     hw 5290   1.240   2.670   1.289  0.1499 -0.1405  0.6852
 1323SOL     hw 5291   1.343   2.624   1.189 -1.3251 -1.0449 -0.4522
 1323SOL     vw 5292   1.307   2.619   1.268 -0.2082 -0.3844  0.1208
 1324SOL     ow 5293   3.587   2.373   3.459 -0.6068  0.3518  0.6426
 1324SOL     hw 5294   3.605   2.467   3.452 -0.6259  0.4178  1.3532
 1324SOL     hw 5295   3.664   2.338   3.504  0.5144 -0.3787 -1.7219
 1324SOL     vw 5296   3.600   2.381   3.464 -0.4613  0.2642  0.4244
 1325SOL     ow 5297   0.745   1.495   2.983  0.2032 -0.5463 -0.1105
 1325SOL     hw 5298   0.697   1.519   2.904 -0.3148 -0.9476  0.0802
 1325SOL     hw 5299   0.817   1.559   2.987  1.6384 -1.8975 -2.1551
 1325SOL     vw 5300   0.748   1.507   2.973  0.3242 -0.7775 -0.3551
 1326SOL     ow 5301   3.948   5.360   2.268  0.4963 -0.1750  0.1114
 1326SOL     hw 5302   4.024   5.414   2.288  0.3292  0.4380 -0.8188
 1326SOL     hw 5303   3.932   5.375   2.175 -1.6476  0.8719  0.5882
 1326SOL     vw 5304   3.956   5.369   2.258  0.1915  0.0439  0.0515
 1327SOL     ow 5305   4.477   0.787   2.663  0.1194  0.0715 -0.2869
 1327SOL     hw 5306   4.506   0.697   2.648  0.1880 -0.0829  0.7543
 1327SOL     hw 5307   4.447   0.817   2.577 -3.5187 -2.2124 -0.0267
 1327SOL     vw 5308   4.477   0.779   2.649 -0.3514 -0.2501 -0.1152
 1328SOL     ow 5309   0.708   0.325   5.126 -0.6889 -0.2144  0.5752
 1328SOL     hw 5310   0.797   0.306   5.156 -1.0408  0.3865  2.1382
 1328SOL     hw 5311   0.700   0.280   5.042  1.6722  1.1637 -0.4736
 1328SOL     vw 5312   0.719   0.317   5.119 -0.4238  0.0467  0.6433
 1329SOL     ow 5313   1.745   3.024   2.808  0.4902  0.2945 -0.1298
 1329SOL     hw 5314   1.784   3.072   2.882 -1.0365 -0.2927  1.1184
 1329SOL     hw 5315   1.730   2.936   2.842 -1.8270  0.4745 -0.5098
 1329SOL     vw 5316   1.748   3.019   2.822 -0.0169  0.2408 -0.0151
 1330SOL     ow 5317   1.221   5.361   1.564  0.4166  0.0384 -0.6533
 1330SOL     hw 5318   1.307   5.329   1.536  1.5404  2.1563  0.1352
 1330SOL     hw 5319   1.217   5.338   1.657 -0.0689 -0.4108 -0.7810
 1330SOL     vw 5320   1.232   5.353   1.572  0.5008  0.2584 -0.5661
 1331SOL     ow 5321   6.913   5.265   1.623 -0.7384 -0.1720 -0.0063
 1331SOL     hw 5322   6.899   5.360   1.621 -0.9334 -0.1775  0.8240
 1331SOL     hw 5323   6.884   5.235   1.537  0.7663  0.7042 -0.8549
 1331SOL     vw 5324   6.907   5.273   1.611 -0.5658 -0.0570 -0.0088
 1332SOL     ow 5325   6.803   2.365   5.907  0.5208  0.5553  0.3537
 1332SOL     hw 5326   6.773   2.448   5.872 -1.4331 -0.6717 -1.0871
 1332SOL     hw 5327   6.872   2.336   5.847 -0.0357  0.3242 -0.1819
 1332SOL     vw 5328   6.808   2.372   5.895  0.1898  0.3629  0.0927
 1333SOL     ow 5329   4.783   4.712   2.465  0.0974 -0.4740  0.7403
 1333SOL     hw 5330   4.811   4.667   2.385 -0.7398  0.0688  0.1170
 1333SOL     hw 5331   4.711   4.769   2.436  0.6860  0.7578  1.6368
 1333SOL     vw 5332   4.777   4.713   2.451  0.0648 -0.2396  0.7763
 1334SOL     ow 5333   7.075   1.755   4.299  0.4429  0.1752  0.1588
 1334SOL     hw 5334   7.133   1.825   4.328 -0.7439  1.5182 -0.5737
 1334SOL     hw 5335   7.021   1.735   4.376  1.6824 -0.9534  0.7866
 1334SOL     vw 5336   7.076   1.762   4.313  0.4499  0.2034  0.1452
 1335SOL     ow 5337   6.216   5.179   0.854  0.2734 -0.2467 -0.7892
 1335SOL     hw 5338   6.146   5.116   0.869 -1.6033  1.3475 -2.2740
 1335SOL     hw 5339   6.260   5.149   0.774  0.3994 -0.5218 -0.6151
 1335SOL     vw 5340   6.213   5.167   0.845  0.0422 -0.0725 -0.9622
 1336SOL     ow 5341   4.925   4.359   6.917 -0.1031 -0.8179 -0.1613
 1336SOL     hw 5342   4.886   4.356   6.830 -1.7697 -1.6050  0.5750
 1336SOL     hw 5343   4.866   4.413   6.968  0.8698 -0.3543  0.4930
 1336SOL     vw 5344   4.912   4.365   6.912 -0.1948 -0.8607  0.0224
 1337SOL     ow 5345   2.573   6.093   3.071 -0.2108 -0.0636 -0.2107
 1337SOL     hw 5346   2.629   6.164   3.103  1.5363  0.0275 -3.0662
 1337SOL     hw 5347   2.493   6.137   3.041 -0.0858  0.4044  0.1283
 1337SOL     vw 5348   2.570   6.108   3.071  0.0362  0.0103 -0.5429
 1338SOL     ow 5349   3.210   3.476   4.924 -0.2285  0.1106  0.0560
 1338SOL     hw 5350   3.217   3.394   4.875 -2.1750 -0.3535  0.4750
 1338SOL     hw 5351   3.147   3.528   4.874  1.4344  1.6438 -0.5401
 1338SOL     vw 5352   3.203   3.472   4.911 -0.2661  0.2515  0.0324
 1339SOL     ow 5353   1.455   3.773   6.306  0.5525 -0.0910  0.2852
 1339SOL     hw 5354   1.396   3.779   6.230 -1.9783  1.3032  2.1804
 1339SOL     hw 5355   1.489   3.862   6.317  1.0031 -0.3083  0.6860
 1339SOL     vw 5356   1.452   3.786   6.298  0.2781  0.0643  0.5882
 1340SOL     ow 5357   5.964   0.129   2.410  0.4178 -0.2043 -0.1146
 1340SOL     hw 5358   5.969   0.223   2.396  1.8643 -0.2107  0.2653
 1340SOL     hw 5359   5.877   0.115   2.448 -0.0022  0.8992 -0.6176
 1340SOL     vw 5360   5.953   0.139   2.413  0.5531 -0.0595 -0.1309
 1341SOL     ow 5361   6.580   1.860   4.600  0.3275  0.0928 -0.4208
 1341SOL     hw 5362   6.523   1.783   4.597 -1.2473  1.0978  1.5762
 1341SOL     hw 5363   6.648   1.836   4.664 -1.1320  0.8693  1.5410
 1341SOL     vw 5364   6.582   1.846   4.608 -0.0727  0.3278  0.1018
 1342SOL     ow 5365   6.789   2.717   5.577  0.0385 -0.4197 -0.2713
 1342SOL     hw 5366   6.755   2.806   5.562  1.3333  0.8043  3.0520
 1342SOL     hw 5367   6.842   2.699   5.500 -0.5944  1.4931 -1.2479
 1342SOL     vw 5368   6.791   2.726   5.565  0.1256 -0.0058  0.0384
 1343SOL     ow 5369   1.538   4.084   5.776  0.1882  0.9100  0.1394
 1343SOL     hw 5370   1.530   4.140   5.853  1.2667  0.3176  0.7019
 1343SOL     hw 5371   1.563   4.144   5.705 -3.0528  1.8476 -0.3555
 1343SOL     vw 5372   1.540   4.100   5.777 -0.0972  0.9556  0.1485
 1344SOL     ow 5373   0.609   5.247   2.541 -0.1471 -0.1765  0.4126
 1344SOL     hw 5374   0.687   5.207   2.578 -0.6176 -0.7712  0.7811
 1344SOL     hw 5375   0.642   5.305   2.472  0.7078  0.5818  1.4209
 1344SOL     vw 5376   0.624   5.250   2.537 -0.0964 -0.1552  0.5943
 1345SOL     ow 5377   2.860   2.979   1.211  0.0865  0.6266 -0.2278
 1345SOL     hw 5378   2.891   3.060   1.171  0.8467  0.8676  0.7922
 1345SOL     hw 5379   2.782   2.955   1.162 -0.5144  2.3133 -0.1387
 1345SOL     vw 5380   2.854   2.986   1.199  0.1076  0.8810 -0.0814
 1346SOL     ow 5381   0.280   0.749   2.381 -0.3418 -0.3612  0.0482
 1346SOL     hw 5382   0.203   0.793   2.345 -0.1156  2.3123  2.4463
 1346SOL     hw 5383   0.342   0.746   2.309 -2.1695 -1.4398 -1.5893
 1346SOL     vw 5384   0.278   0.755   2.367 -0.5531 -0.1508  0.1485
 1347SOL     ow 5385   3.188   5.775   6.846 -0.4090  0.2990 -0.7103
 1347SOL     hw 5386   3.105   5.756   6.888 -0.5755  1.0458 -0.6741
 1347SOL     hw 5387   3.230   5.840   6.903  0.7507 -0.9511 -0.0896
 1347SOL     vw 5388   3.182   5.781   6.859 -0.2779  0.2325 -0.6235
 1348SOL     ow 5389   0.768   5.153   4.508 -0.0032  0.0520  0.3195
 1348SOL     hw 5390   0.728   5.239   4.522 -1.2837 -0.7290  1.8177
 1348SOL     hw 5391   0.850   5.157   4.558 -0.6732 -0.0102  1.4435
 1348SOL     vw 5392   0.774   5.165   4.517 -0.2606 -0.0591  0.6657
 1349SOL     ow 5393   3.334   3.304   5.795 -0.3186 -0.5538 -0.0881
 1349SOL     hw 5394   3.311   3.228   5.848 -1.2454 -0.5018 -0.4002
 1349SOL     hw 5395   3.302   3.379   5.845  1.2431 -0.2920  0.5726
 1349SOL     vw 5396   3.327   3.304   5.809 -0.2348 -0.5124 -0.0422
 1350SOL     ow 5397   6.725   3.529   7.246 -0.4356 -0.9637  0.1552
 1350SOL     hw 5398   6.736   3.606   7.302  1.3167 -0.5133 -0.7313
 1350SOL     hw 5399   6.741   3.454   7.303 -0.5481 -0.6078  0.6617
 1350SOL     vw 5400   6.729   3.530   7.261 -0.2193 -0.8575  0.1049
 1351SOL     ow 5401   0.205   1.122   7.052  0.2103  0.1628 -1.0334
 1351SOL     hw 5402   0.157   1.049   7.012  3.6391 -1.9245 -1.7168
 1351SOL     hw 5403   0.297   1.103   7.034  1.5726  2.4006  2.5692
 1351SOL     vw 5404   0.211   1.110   7.044  0.8424  0.1826 -0.6483
 1352SOL     ow 5405   4.793   1.037   2.493  0.4267  0.0480  0.1136
 1352SOL     hw 5406   4.707   1.072   2.517  1.2769  1.7000  0.9373
 1352SOL     hw 5407   4.774   0.968   2.429 -1.5818 -0.5398  1.2451
 1352SOL     vw 5408   4.779   1.032   2.488  0.2735  0.1884  0.3716
 1353SOL     ow 5409   4.013   6.365   7.003  0.2657 -0.4200  0.1645
 1353SOL     hw 5410   3.948   6.324   7.059  0.4152 -2.2829 -0.9353
 1353SOL     hw 5411   3.964   6.394   6.926  0.1449  1.6723  0.9478
 1353SOL     vw 5412   3.998   6.364   7.000  0.2695 -0.3898  0.1228
 1354SOL     ow 5413   6.464   5.993   3.572 -0.2615  0.6645 -0.3511
 1354SOL     hw 5414   6.452   6.075   3.524 -0.1555  0.3183 -0.9825
 1354SOL     hw 5415   6.471   5.926   3.504 -1.0279  0.0373  0.1671
 1354SOL     vw 5416   6.463   5.995   3.557 -0.3483  0.5362 -0.3662
 1355SOL     ow 5417   2.774   3.950   2.787  0.4742  0.1318 -0.0361
 1355SOL     hw 5418   2.849   3.992   2.744  0.2637  0.1568 -0.3888
 1355SOL     hw 5419   2.735   3.895   2.718  0.5651 -0.3991  0.3343
 1355SOL     vw 5420   2.779   3.948   2.772  0.4585  0.0651 -0.0337
 1356SOL     ow 5421   1.760   5.825   4.346 -0.3863 -0.5317  0.2003
 1356SOL     hw 5422   1.773   5.889   4.276  0.4303  1.8201  2.3773
 1356SOL     hw 5423   1.849   5.803   4.374 -0.6883 -1.9850  0.1051
 1356SOL     vw 5424   1.773   5.830   4.340 -0.3184 -0.4129  0.4747
 1357SOL     ow 5425   4.192   4.768   7.209  0.7920 -0.0706 -0.0506
 1357SOL     hw 5426   4.103   4.741   7.186  1.4485 -2.0659 -0.4606
 1357SOL     hw 5427   4.189   4.782   7.303  0.1298 -0.5084  0.0006
 1357SOL     vw 5428   4.180   4.766   7.218  0.7913 -0.3915 -0.0978
 1358SOL     ow 5429   1.277   3.315   1.740  0.3116 -0.1382  0.6085
 1358SOL     hw 5430   1.360   3.333   1.784  0.6531  0.6195 -0.3385
 1358SOL     hw 5431   1.227   3.263   1.804  2.7780 -3.6589 -0.0279
 1358SOL     vw 5432   1.281   3.310   1.755  0.6821 -0.5027  0.3996
 1359SOL     ow 5433   5.778   0.660   3.530  0.4709  0.2128 -0.2298
 1359SOL     hw 5434   5.858   0.633   3.575 -0.8896  0.5195  2.5866
 1359SOL     hw 5435   5.734   0.720   3.592 -0.7198  2.1258 -2.7366
 1359SOL     vw 5436   5.783   0.665   3.544  0.1342  0.5057 -0.1889
 1360SOL     ow 5437   2.672   0.381   3.008  0.3020  0.2730 -0.4197
 1360SOL     hw 5438   2.742   0.321   2.981  0.5271  0.3405  0.0174
 1360SOL     hw 5439   2.715   0.466   3.016  0.3321  0.1629  0.6032
 1360SOL     vw 5440   2.687   0.384   3.005  0.3356  0.2674 -0.2270
 1361SOL     ow 5441   7.005   5.460   6.291  0.4496 -0.5267  0.4040
 1361SOL     hw 5442   7.032   5.498   6.375  0.0444  1.9608 -0.5031
 1361SOL     hw 5443   6.922   5.503   6.271  0.5167 -1.1122 -1.2540
 1361SOL     vw 5444   6.998   5.471   6.300  0.4051 -0.2756  0.0653
 1362SOL     ow 5445   3.751   5.456   6.298  0.5188  0.5213 -0.2144
 1362SOL     hw 5446   3.757   5.529   6.237 -0.5377  0.9187  0.1370
 1362SOL     hw 5447   3.678   5.403   6.266  0.0436  0.6547  0.6063
 1362SOL     vw 5448   3.742   5.458   6.286  0.3167  0.5915 -0.0596
 1363SOL     ow 5449   6.206   5.514   1.810 -0.0118 -0.7332 -0.1292
 1363SOL     hw 5450   6.189   5.598   1.767  0.1982  0.2831  1.7090
 1363SOL     hw 5451   6.121   5.472   1.816  0.1754 -1.8913 -3.3408
 1363SOL     vw 5452   6.193   5.520   1.805  0.0408 -0.7520 -0.3104
 1364SOL     ow 5453   4.668   4.431   2.442  0.1739  0.4697 -0.0198
 1364SOL     hw 5454   4.649   4.437   2.348 -3.4787 -1.0350  0.4657
 1364SOL     hw 5455   4.687   4.338   2.456  1.0392  0.7493  0.7326
 1364SOL     vw 5456   4.668   4.419   2.431 -0.1938  0.3080  0.1434
 1365SOL     ow 5457   1.141   7.149   3.671  0.1314  0.4325  0.2164
 1365SOL     hw 5458   1.175   7.101   3.747  1.5354  1.1677  0.0776
 1365SOL     hw 5459   1.112   7.081   3.611  1.3119 -0.2465  0.3823
 1365SOL     vw 5460   1.142   7.134   3.673  0.4724  0.4399  0.2198
 1366SOL     ow 5461   1.216   1.007   1.662  0.7154  0.0729 -0.1163
 1366SOL     hw 5462   1.140   1.033   1.714 -0.3087  2.0939 -2.4442
 1366SOL     hw 5463   1.194   0.921   1.627  0.4712 -0.3126  0.9543
 1366SOL     vw 5464   1.203   0.999   1.664  0.5480  0.2887 -0.2822
 1367SOL     ow 5465   2.616   6.143   6.824 -0.4225  0.1785  0.2513
 1367SOL     hw 5466   2.618   6.074   6.758 -0.0777  0.3668  0.0648
 1367SOL     hw 5467   2.593   6.222   6.775 -1.6962  0.0458  0.6010
 1367SOL     vw 5468   2.613   6.144   6.809 -0.5450  0.1860  0.2730
 1368SOL     ow 5469   5.193   4.833   5.380 -0.4688 -0.4136  0.0697
 1368SOL     hw 5470   5.219   4.751   5.338  0.5557 -0.0797  0.0357
 1368SOL     hw 5471   5.240   4.901   5.332 -3.0737  0.4630 -1.4068
 1368SOL     vw 5472   5.203   4.831   5.368 -0.6773 -0.2537 -0.1297
 1369SOL     ow 5473   6.482   7.268   5.535  0.6778 -0.2307 -0.0117
 1369SOL     hw 5474   6.568   7.254   5.498  0.6336  0.9898 -0.6303
 1369SOL     hw 5475   6.491   7.348   5.588  0.2554 -0.8428  1.0055
 1369SOL     vw 5476   6.494   7.277   5.537  0.6163 -0.1502  0.0410
 1370SOL     ow 5477   1.829   1.900   6.341 -0.3649 -0.5036 -0.0256
 1370SOL     hw 5478   1.904   1.872   6.394 -0.0404  1.4619  0.6382
 1370SOL     hw 5479   1.810   1.988   6.372 -1.7657 -0.2472 -1.5039
 1370SOL     vw 5480   1.837   1.908   6.352 -0.5068 -0.2105 -0.1330
 1371SOL     ow 5481   1.194   0.042   1.236  0.1458  0.4157 -0.5629
 1371SOL     hw 5482   1.131   0.026   1.307  1.6923  0.3870  0.8746
 1371SOL     hw 5483   1.270   0.080   1.280  1.1225  0.5006 -2.2497
 1371SOL     vw 5484   1.196   0.045   1.251  0.4788  0.4232 -0.5957
 1372SOL     ow 5485   2.910   4.789   1.128 -0.4768  0.0013  0.2224
 1372SOL     hw 5486   2.862   4.804   1.046 -1.7738 -1.4856  0.6687
 1372SOL     hw 5487   2.979   4.727   1.103 -0.5562 -0.0614  0.1574
 1372SOL     vw 5488   2.913   4.783   1.114 -0.6584 -0.2031  0.2727
 1373SOL     ow 5489   4.567   0.613   4.597  0.2270  0.0141 -0.0264
 1373SOL     hw 5490   4.544   0.586   4.686 -1.5283 -0.2150 -0.5146
 1373SOL     hw 5491   4.484   0.611   4.549  0.9390  1.2496 -1.3888
 1373SOL     vw 5492   4.553   0.610   4.602  0.0894  0.1469 -0.2706
 1374SOL     ow 5493   2.572   4.478   6.161  0.6974 -0.0681 -0.2373
 1374SOL     hw 5494   2.664   4.477   6.186  1.3833 -0.2234 -2.5069
 1374SOL     hw 5495   2.536   4.555   6.203  1.8173 -0.0865  0.8069
 1374SOL     vw 5496   2.579   4.488   6.170  0.9356 -0.0911 -0.3991
 1375SOL     ow 5497   6.705   2.126   6.662 -0.2105  0.1898  0.3472
 1375SOL     hw 5498   6.758   2.046   6.659 -0.5778 -0.0254 -1.3221
 1375SOL     hw 5499   6.731   2.169   6.744  1.1648 -0.8335  0.4850
 1375SOL     vw 5500   6.715   2.121   6.673 -0.0775  0.0265  0.1452
 1376SOL     ow 5501   6.506   0.498   5.787 -0.1283  0.2246  0.0754
 1376SOL     hw 5502   6.420   0.524   5.754  0.1945  1.2214 -0.0119
 1376SOL     hw 5503   6.543   0.578   5.822  0.7899 -0.1892  0.0711
 1376SOL     vw 5504   6.499   0.512   5.787  0.0353  0.3015  0.0634
 1377SOL     ow 5505   4.037   6.503   5.150 -0.5641 -0.3306 -0.6341
 1377SOL     hw 5506   4.043   6.454   5.068 -0.8624 -0.6438 -0.4732
 1377SOL     hw 5507   4.042   6.436   5.218 -2.2296 -0.2859 -0.4277
 1377SOL     vw 5508   4.038   6.487   5.148 -0.8230 -0.3660 -0.5858
 1378SOL     ow 5509   2.710   0.448   4.430 -0.4253  0.2356 -0.2763
 1378SOL     hw 5510   2.739   0.517   4.371 -0.8826  0.5796 -0.1103
 1378SOL     hw 5511   2.641   0.402   4.381  1.1549 -1.3169 -1.1266
 1378SOL     vw 5512   2.704   0.451   4.416 -0.2772  0.0762 -0.3662
 1379SOL     ow 5513   3.554   1.477   0.355  0.5767 -0.4518 -0.0289
 1379SOL     hw 5514   3.483   1.497   0.294  0.9125  1.2537  0.0736
 1379SOL     hw 5515   3.634   1.500   0.307  1.0622 -1.9164  0.0208
 1379SOL     vw 5516   3.555   1.483   0.341  0.6850 -0.4200 -0.0088
 1380SOL     ow 5517   5.108   1.256   6.977  0.5197  0.1682  0.1190
 1380SOL     hw 5518   5.126   1.246   6.884  0.0524  0.6948 -0.0290
 1380SOL     hw 5519   5.130   1.170   7.015  2.3942  0.4732 -0.1870
 1380SOL     vw 5520   5.114   1.243   6.970  0.7052  0.2780  0.0594
 1381SOL     ow 5521   2.302   0.404   7.006 -0.1968  0.1683  0.1243
 1381SOL     hw 5522   2.296   0.314   6.975 -2.0644  0.0687  0.6929
 1381SOL     hw 5523   2.381   0.406   7.060  0.8157 -0.6668 -1.2584
 1381SOL     vw 5524   2.312   0.392   7.009 -0.3096  0.0450  0.0167
 1382SOL     ow 5525   3.139   1.756   0.628  0.3179 -0.1121 -0.3334
 1382SOL     hw 5526   3.186   1.673   0.632  0.6952  0.1333  1.9159
 1382SOL     hw 5527   3.058   1.740   0.678 -1.1692  0.0060 -2.5572
 1382SOL     vw 5528   3.134   1.743   0.635  0.1715 -0.0641 -0.3300
 1383SOL     ow 5529   5.145   2.708   3.498  0.1286  0.2755  0.3158
 1383SOL     hw 5530   5.081   2.774   3.470 -0.8733 -0.6852  0.2956
 1383SOL     hw 5531   5.195   2.688   3.418  0.6297  1.1848  0.3824
 1383SOL     vw 5532   5.143   2.714   3.484  0.0627  0.2688  0.3217
 1384SOL     ow 5533   7.285   1.798   1.884 -0.4628 -0.3301  0.9762
 1384SOL     hw 5534   7.356   1.803   1.819 -0.2772  0.1279  1.2063
 1384SOL     hw 5535   7.261   1.705   1.887 -2.1326 -0.0552 -1.5044
 1384SOL     vw 5536   7.292   1.786   1.876 -0.6585 -0.2335  0.6793
 1385SOL     ow 5537   0.936   0.881   5.161  0.2240 -0.4197  0.7795
 1385SOL     hw 5538   1.004   0.869   5.227  0.5990 -1.9681  0.1575
 1385SOL     hw 5539   0.965   0.957   5.110  1.2290 -0.7419  0.8489
 1385SOL     vw 5540   0.949   0.889   5.163  0.4061 -0.6666  0.7064
 1386SOL     ow 5541   3.171   3.937   7.403  0.0988 -0.9130 -0.1254
 1386SOL     hw 5542   3.164   3.911   7.494  0.7679 -0.3133  0.1102
 1386SOL     hw 5543   3.171   3.855   7.354 -0.7810 -1.2126  0.3708
 1386SOL     vw 5544   3.170   3.923   7.408  0.0709 -0.8732 -0.0291
 1387SOL     ow 5545   4.038   0.042   0.361  0.1959 -0.7746 -0.0595
 1387SOL     hw 5546   4.109  -0.000   0.313 -0.0201 -1.6970  0.4095
 1387SOL     hw 5547   3.970  -0.025   0.367 -0.2518 -0.2821  0.5072
 1387SOL     vw 5548   4.038   0.027   0.355  0.1082 -0.8314  0.0771
 1388SOL     ow 5549   6.274   0.610   4.414 -0.3665 -0.1703  0.3548
 1388SOL     hw 5550   6.262   0.526   4.369  0.7378 -1.0943  1.6845
 1388SOL     hw 5551   6.246   0.593   4.504  0.2023  0.7886  0.7219
 1388SOL     vw 5552   6.269   0.596   4.420 -0.1457 -0.1657  0.5789
 1389SOL     ow 5553   6.695   6.976   4.773 -0.1355 -0.2000  0.1525
 1389SOL     hw 5554   6.677   7.059   4.728  4.2482  1.5085  0.9484
 1389SOL     hw 5555   6.763   6.935   4.719  0.1086 -1.6376  1.4937
 1389SOL     vw 5556   6.702   6.982   4.760  0.4747 -0.1643  0.4344
 1390SOL     ow 5557   7.495   5.032   2.890 -0.6065 -0.1048  0.1879
 1390SOL     hw 5558   7.479   4.945   2.855  0.0389  0.0841 -0.6046
 1390SOL     hw 5559   7.441   5.036   2.969 -1.6795 -0.7371 -0.4829
 1390SOL     vw 5560   7.485   5.021   2.896 -0.6630 -0.1633 -0.0054
 1391SOL     ow 5561   3.527   7.004   4.190 -0.3083  0.2964  0.0776
 1391SOL     hw 5562   3.575   6.948   4.250  0.1555  0.4462 -0.1416
 1391SOL     hw 5563   3.451   7.033   4.239  1.5202  2.8139  1.6997
 1391SOL     vw 5564   3.524   7.001   4.204 -0.0058  0.6483  0.2625
 1392SOL     ow 5565   6.786   2.401   1.188 -0.1669 -0.2625  0.5742
 1392SOL     hw 5566   6.862   2.350   1.217 -1.1254 -0.3382  3.3407
 1392SOL     hw 5567   6.820   2.488   1.170  0.7283 -0.5189  0.9659
 1392SOL     vw 5568   6.800   2.406   1.190 -0.1755 -0.3065  0.9909
 1393SOL     ow 5569   2.242   5.066   1.302 -0.6442  0.1615  0.2246
 1393SOL     hw 5570   2.261   4.973   1.286 -2.1738 -0.3982  1.4720
 1393SOL     hw 5571   2.212   5.069   1.392  4.5995  2.7365  2.3251
 1393SOL     vw 5572   2.241   5.054   1.311 -0.1541  0.4275  0.6663
 1394SOL     ow 5573   2.131   1.725   2.302  0.0282 -0.5019  0.8124
 1394SOL     hw 5574   2.143   1.678   2.220 -1.8291  0.1755  0.0894
 1394SOL     hw 5575   2.140   1.817   2.279  1.4385 -0.3721  1.7830
 1394SOL     vw 5576   2.133   1.731   2.288 -0.0309 -0.3955  0.8450
 1395SOL     ow 5577   3.719   6.258   1.554 -0.2343  0.1829  0.2566
 1395SOL     hw 5578   3.765   6.341   1.543  0.5480 -0.0144  1.7801
 1395SOL     hw 5579   3.775   6.194   1.510 -1.5591  0.5966 -2.2248
 1395SOL     vw 5580   3.733   6.261   1.546 -0.3059  0.2115  0.1302
 1396SOL     ow 5581   1.980   7.174   1.435  0.5671  0.2923 -0.1140
 1396SOL     hw 5582   1.942   7.142   1.518  1.4968 -0.7235 -0.0500
 1396SOL     hw 5583   1.980   7.269   1.444 -0.6707  0.2547  0.4553
 1396SOL     vw 5584   1.975   7.182   1.447  0.5264  0.1531 -0.0304
 1397SOL     ow 5585   1.335   1.105   5.900 -0.4962 -0.3316 -0.2532
 1397SOL     hw 5586   1.293   1.144   5.976 -0.4911  0.9219 -0.8540
 1397SOL     hw 5587   1.420   1.149   5.894 -0.5631 -0.2861 -1.0597
 1397SOL     vw 5588   1.341   1.116   5.909 -0.5044 -0.1602 -0.4389
 1398SOL     ow 5589   6.709   5.525   6.584 -0.4773 -0.7515  0.4753
 1398SOL     hw 5590   6.699   5.469   6.661 -1.6784  2.1596  2.5950
 1398SOL     hw 5591   6.645   5.595   6.596  1.3906  1.5147 -1.6528
 1398SOL     vw 5592   6.699   5.527   6.596 -0.3893 -0.0684  0.4742
 1399SOL     ow 5593   4.139   6.072   6.378 -0.3824 -0.5579 -0.4184
 1399SOL     hw 5594   4.186   6.040   6.301 -0.9414 -1.5201 -0.3806
 1399SOL     hw 5595   4.086   5.998   6.406  2.2611 -1.4944  2.9094
 1399SOL     vw 5596   4.138   6.058   6.371 -0.1073 -0.8085  0.0260
 1400SOL     ow 5597   2.257   0.145   5.326  0.8211 -0.4292 -0.7696
 1400SOL     hw 5598   2.190   0.203   5.289  1.0106 -0.6906 -1.5336
 1400SOL     hw 5599   2.208   0.078   5.373  0.5928  0.2275 -0.0528
 1400SOL     vw 5600   2.242   0.144   5.327  0.8160 -0.3771 -0.7758
 1401SOL     ow 5601   6.015   2.377   5.191 -0.2792  0.5274  0.6793
 1401SOL     hw 5602   6.094   2.343   5.232  0.9411 -0.5672 -2.3107
 1401SOL     hw 5603   6.045   2.454   5.142 -1.6261  1.6661  1.5496
 1401SOL     vw 5604   6.030   2.383   5.190 -0.2959  0.5331  0.3996
 1402SOL     ow 5605   2.805   6.594   6.811  0.3238  0.7732  0.8266
 1402SOL     hw 5606   2.772   6.664   6.867  0.5465  1.4866  0.0807
 1402SOL     hw 5607   2.861   6.542   6.869 -0.6128  0.6288  1.6306
 1402SOL     vw 5608   2.808   6.596   6.826  0.2296  0.8483  0.8342
 1403SOL     ow 5609   0.354   1.504   2.871  0.3031 -0.7013  0.3741
 1403SOL     hw 5610   0.438   1.525   2.830  0.4028 -2.6374 -0.5086
 1403SOL     hw 5611   0.358   1.410   2.888 -1.1834 -0.5953  1.5500
 1403SOL     vw 5612   0.365   1.494   2.868  0.1202 -0.9428  0.4128
 1404SOL     ow 5613   4.959   4.078   6.896 -0.4396 -0.0724 -0.1549
 1404SOL     hw 5614   5.030   4.067   6.833  0.4498  0.8727  0.6450
 1404SOL     hw 5615   4.947   4.173   6.902  0.4404 -0.0360  2.0696
 1404SOL     vw 5616   4.967   4.089   6.889 -0.2060  0.0572  0.2441
 1405SOL     ow 5617   0.620   3.354   0.995  0.8457  0.4024  0.2646
 1405SOL     hw 5618   0.602   3.276   0.942  1.6254 -0.4813  1.2779
 1405SOL     hw 5619   0.539   3.405   0.989  0.0509 -0.8194  0.1808
 1405SOL     vw 5620   0.607   3.350   0.987  0.8437  0.1247  0.3872
 1406SOL     ow 5621   0.084   1.614   2.542  0.4044  0.6016 -0.1933
 1406SOL     hw 5622   0.086   1.688   2.482  0.0492  3.7360  3.3472
 1406SOL     hw 5623  -0.009   1.590   2.546  0.1405  1.6861  0.5221
 1406SOL     vw 5624   0.072   1.620   2.534  0.3227  1.1582  0.3684
 1407SOL     ow 5625   0.882   5.713   0.752  0.2804  0.1020 -0.1397
 1407SOL     hw 5626   0.856   5.804   0.758 -1.5760 -0.3833 -0.3554
 1407SOL     hw 5627   0.907   5.689   0.841  0.9572  0.8460 -0.1178
 1407SOL     vw 5628   0.882   5.722   0.764  0.1248  0.1359 -0.1653
 1408SOL     ow 5629   3.503   4.557   7.355  0.4925 -0.1792 -0.5450
 1408SOL     hw 5630   3.595   4.534   7.365  0.3323 -0.3208  0.8832
 1408SOL     hw 5631   3.503   4.631   7.294  1.5196 -0.3360 -0.7516
 1408SOL     vw 5632   3.515   4.564   7.348  0.6070 -0.2186 -0.3839
 1409SOL     ow 5633   7.208   4.517   6.953  0.2776  0.3558  0.4190
 1409SOL     hw 5634   7.218   4.430   6.990 -0.6445 -0.0137 -0.1745
 1409SOL     hw 5635   7.142   4.560   7.007  1.6123  1.1521  1.4815
 1409SOL     vw 5636   7.201   4.511   6.965  0.3319  0.4122  0.4807
 1410SOL     ow 5637   6.749   2.830   5.901 -0.1826 -0.2748  0.0670
 1410SOL     hw 5638   6.656   2.836   5.879 -0.0425 -0.3014 -0.5479
 1410SOL     hw 5639   6.792   2.894   5.845 -0.1030  1.6731  2.1895
 1410SOL     vw 5640   6.742   2.839   5.891 -0.1533 -0.0213  0.2658
 1411SOL     ow 5641   3.648   4.063   1.867 -0.6108  0.3307 -0.3692
 1411SOL     hw 5642   3.644   3.968   1.872 -1.8082  0.4224  1.6311
 1411SOL     hw 5643   3.667   4.082   1.775  0.5177 -1.8243 -0.6494
 1411SOL     vw 5644   3.650   4.053   1.856 -0.6199  0.0584 -0.1423
 1412SOL     ow 5645   4.275   5.590   6.039 -0.1415  0.0878 -0.6992
 1412SOL     hw 5646   4.262   5.657   5.972  1.8586  1.7301  0.4210
 1412SOL     hw 5647   4.363   5.555   6.021 -0.0865 -0.3347  0.2885
 1412SOL     vw 5648   4.285   5.594   6.028  0.1297  0.2489 -0.4208
 1413SOL     ow 5649   5.435   0.957   2.396 -1.1527 -0.0928  0.2587
 1413SOL     hw 5650   5.404   0.887   2.339  0.2606 -0.3754 -0.2134
 1413SOL     hw 5651   5.400   1.038   2.358  1.0087 -0.1027 -2.0162
 1413SOL     vw 5652   5.427   0.959   2.384 -0.6812 -0.1314 -0.1038
 1414SOL     ow 5653   1.879   0.502   6.636  0.9112 -0.4604  0.2775
 1414SOL     hw 5654   1.936   0.445   6.688  1.7315  0.9873  1.0404
 1414SOL     hw 5655   1.939   0.551   6.580  0.1415 -0.9311 -1.0044
 1414SOL     vw 5656   1.895   0.501   6.636  0.9178 -0.3315  0.2089
 1415SOL     ow 5657   7.291   5.155   6.258 -0.9512  0.0732 -0.4436
 1415SOL     hw 5658   7.317   5.114   6.176  0.5124 -1.0334  0.5109
 1415SOL     hw 5659   7.347   5.233   6.265  2.4931 -2.2740  1.5813
 1415SOL     vw 5660   7.302   5.160   6.248 -0.3035 -0.3824 -0.0508
 1416SOL     ow 5661   3.668   2.840   2.364  0.3015 -0.4258 -0.5156
 1416SOL     hw 5662   3.634   2.790   2.438 -1.3857 -1.2709 -1.7791
 1416SOL     hw 5663   3.590   2.869   2.317  1.2788 -1.6306 -3.0671
 1416SOL     vw 5664   3.653   2.837   2.368  0.2079 -0.6963 -1.0189
 1417SOL     ow 5665   5.857   2.527   3.896 -0.0949 -0.0015 -0.2774
 1417SOL     hw 5666   5.785   2.487   3.946  0.5098  1.1807  1.6542
 1417SOL     hw 5667   5.827   2.616   3.879 -0.2833 -0.3873 -2.1038
 1417SOL     vw 5668   5.844   2.533   3.901 -0.0396  0.1036 -0.2636
 1418SOL     ow 5669   0.184   3.881   1.721 -0.4436 -0.2027 -0.6244
 1418SOL     hw 5670   0.122   3.933   1.669 -2.6681 -1.0807  0.9949
 1418SOL     hw 5671   0.129   3.828   1.777  1.8297 -1.6925  0.3223
 1418SOL     vw 5672   0.169   3.881   1.721 -0.4372 -0.5152 -0.2859
 1419SOL     ow 5673   2.319   4.369   4.321 -0.5679  0.6560  0.1507
 1419SOL     hw 5674   2.413   4.362   4.338 -0.7826  0.2258  1.2076
 1419SOL     hw 5675   2.279   4.306   4.380 -1.6375  1.9967  0.9278
 1419SOL     vw 5676   2.326   4.360   4.331 -0.7374  0.7763  0.3927
 1420SOL     ow 5677   6.906   1.070   2.896  0.1792 -0.7573  0.4779
 1420SOL     hw 5678   6.983   1.124   2.881 -1.7649  1.8357 -0.9536
 1420SOL     hw 5679   6.881   1.088   2.987 -2.1059  3.3710 -0.7351
 1420SOL     vw 5680   6.913   1.079   2.906 -0.3784  0.1295  0.1290
 1421SOL     ow 5681   7.060   5.938   1.495 -0.5949  0.1056 -0.1445
 1421SOL     hw 5682   7.138   5.925   1.441 -0.2443  0.3936  0.2896
 1421SOL     hw 5683   7.091   5.985   1.572 -1.3046  0.7647 -0.2437
 1421SOL     vw 5684   7.075   5.942   1.498 -0.6423  0.2306 -0.1003
 1422SOL     ow 5685   6.763   3.790   4.876  0.5085  0.7662  0.4879
 1422SOL     hw 5686   6.839   3.756   4.829 -0.5701  0.4103 -1.0937
 1422SOL     hw 5687   6.726   3.714   4.922 -0.4692  0.2751 -1.0305
 1422SOL     vw 5688   6.768   3.776   4.876  0.2372  0.6546  0.0787
 1423SOL     ow 5689   2.735   6.853   1.348  0.5124  0.3637 -0.2097
 1423SOL     hw 5690   2.640   6.858   1.340  0.1171 -1.5388  2.2597
 1423SOL     hw 5691   2.763   6.798   1.276 -0.4445 -0.2414 -0.1305
 1423SOL     vw 5692   2.726   6.847   1.338  0.3341  0.0329  0.1265
 1424SOL     ow 5693   6.795   1.425   5.113  0.3394 -0.4002 -0.3779
 1424SOL     hw 5694   6.879   1.402   5.154  0.4958 -1.2172 -1.1230
 1424SOL     hw 5695   6.770   1.347   5.064  1.7945  1.4522 -4.5683
 1424SOL     vw 5696   6.803   1.412   5.112  0.5522 -0.2636 -1.0288
 1425SOL     ow 5697   1.254   6.256   0.872  0.4579 -0.4567 -0.0793
 1425SOL     hw 5698   1.334   6.215   0.905  0.2209 -0.6099  0.3187
 1425SOL     hw 5699   1.221   6.308   0.945 -0.6795 -1.6966  0.3303
 1425SOL     vw 5700   1.260   6.257   0.886  0.2766 -0.6404  0.0273
 1426SOL     ow 5701   2.722   2.501   5.310  0.5497 -0.7694  0.3659
 1426SOL     hw 5702   2.765   2.492   5.225  1.4190 -0.9255  0.8109
 1426SOL     hw 5703   2.748   2.587   5.341 -1.1717  0.0219 -0.2719
 1426SOL     vw 5704   2.731   2.511   5.303  0.4373 -0.6857  0.3405
 1427SOL     ow 5705   2.152   4.157   2.090 -0.4813 -0.2779  0.1560
 1427SOL     hw 5706   2.174   4.123   2.003  0.0991 -0.4385  0.3620
 1427SOL     hw 5707   2.228   4.210   2.114  0.0030 -1.3853  1.1696
 1427SOL     vw 5708   2.165   4.160   2.081 -0.3408 -0.4451  0.3170
 1428SOL     ow 5709   1.334   1.518   1.095 -0.0367  0.5833  0.5287
 1428SOL     hw 5710   1.406   1.459   1.117 -1.0010 -0.0384  2.2283
 1428SOL     hw 5711   1.357   1.553   1.009 -0.1201 -3.4887 -1.4219
 1428SOL     vw 5712   1.346   1.515   1.087 -0.1750 -0.0360  0.4956
 1429SOL     ow 5713   6.026   5.192   0.169 -0.6226 -0.2626 -0.1336
 1429SOL     hw 5714   6.119   5.177   0.152 -0.5464 -0.6584  0.5931
 1429SOL     hw 5715   6.018   5.287   0.180 -0.4000 -0.1740 -0.7043
 1429SOL     vw 5716   6.037   5.203   0.168 -0.5832 -0.3030 -0.1130
 1430SOL     ow 5717   5.098   4.612   4.615  0.1618 -0.2173  0.1237
 1430SOL     hw 5718   5.120   4.528   4.574 -1.0205  0.2326 -1.5280
 1430SOL     hw 5719   5.174   4.667   4.600  0.6718 -0.7717  0.6169
 1430SOL     vw 5720   5.111   4.608   4.607  0.0732 -0.2310 -0.0293
 1431SOL     ow 5721   4.401   0.709   5.588 -0.1853 -0.0984 -0.2534
 1431SOL     hw 5722   4.495   0.716   5.604 -0.2415 -2.5423  1.7097
 1431SOL     hw 5723   4.360   0.752   5.663 -0.5639 -1.2140  0.2123
 1431SOL     vw 5724   4.408   0.716   5.600 -0.2425 -0.5681  0.0670
 1432SOL     ow 5725   0.250   0.138   6.668  0.5052  0.1637  0.2146
 1432SOL     hw 5726   0.235   0.200   6.597 -1.9042  0.9033  1.2651
 1432SOL     hw 5727   0.295   0.189   6.735 -0.3968  0.4889  0.5934
 1432SOL     vw 5728   0.254   0.153   6.667  0.0683  0.3042  0.4032
 1433SOL     ow 5729   0.264   2.328   7.324  0.3063  0.1364 -0.6669
 1433SOL     hw 5730   0.335   2.342   7.386 -1.4495 -1.3093  1.8408
 1433SOL     hw 5731   0.268   2.235   7.304 -0.5543  0.1438 -0.8990
 1433SOL     vw 5732   0.274   2.317   7.329 -0.0389 -0.0534 -0.3667
 1434SOL     ow 5733   0.034   1.090   0.433 -0.3091 -0.3134 -0.4182
 1434SOL     hw 5734   0.083   1.032   0.376  0.5502 -0.3140  0.2970
 1434SOL     hw 5735  -0.008   1.152   0.374 -0.4633 -1.0701 -1.1259
 1434SOL     vw 5736   0.035   1.090   0.418 -0.2161 -0.4133 -0.4172
 1435SOL     ow 5737   2.862   4.513   0.472 -0.0555 -0.0443 -0.8362
 1435SOL     hw 5738   2.773   4.481   0.482  0.8460 -3.1776 -1.5384
 1435SOL     hw 5739   2.890   4.537   0.560 -0.2350 -3.3252  0.2362
 1435SOL     vw 5740   2.854   4.512   0.485  0.0397 -0.8907 -0.7873
 1436SOL     ow 5741   6.716   0.816   2.517 -0.6193  0.5815 -0.4123
 1436SOL     hw 5742   6.752   0.858   2.595 -1.4119 -0.7590  0.7055
 1436SOL     hw 5743   6.793   0.781   2.471 -0.3089 -0.8149  1.0951
 1436SOL     vw 5744   6.731   0.817   2.521 -0.6831  0.2204 -0.0660
 1437SOL     ow 5745   4.553   5.936   5.414 -0.3149 -0.1217 -0.5053
 1437SOL     hw 5746   4.601   5.930   5.496 -1.1387  0.9313  0.0837
 1437SOL     hw 5747   4.616   5.908   5.347  0.8836  0.5303  0.3132
 1437SOL     vw 5748   4.568   5.932   5.416 -0.2656  0.1035 -0.3197
 1438SOL     ow 5749   5.845   2.370   0.533 -0.1479  0.6645  0.0446
 1438SOL     hw 5750   5.863   2.357   0.626 -1.2450  1.3168  0.3616
 1438SOL     hw 5751   5.847   2.282   0.495 -1.8719  0.1231  1.0996
 1438SOL     vw 5752   5.848   2.357   0.540 -0.5200  0.6791  0.2256
 1439SOL     ow 5753   4.612   6.049   3.659  0.4604 -0.2541 -0.3008
 1439SOL     hw 5754   4.649   5.971   3.619 -1.4587 -0.8421 -1.0614
 1439SOL     hw 5755   4.686   6.109   3.668  1.6319 -1.4562 -1.4175
 1439SOL     vw 5756   4.627   6.047   3.655  0.3617 -0.4902 -0.5485
 1440SOL     ow 5757   6.880   6.052   0.157 -0.4569  0.0360  0.0341
 1440SOL     hw 5758   6.813   5.988   0.135 -0.9012  0.1889  0.9010
 1440SOL     hw 5759   6.920   6.019   0.237 -2.0447  1.7991  1.6517
 1440SOL     vw 5760   6.876   6.039   0.165 -0.7248  0.2887  0.3619
 1441SOL     ow 5761   2.778   7.141   1.409 -0.1428  0.0254 -0.3481
 1441SOL     hw 5762   2.711   7.074   1.397  1.7614 -2.2756  0.9509
 1441SOL     hw 5763   2.776   7.192   1.328 -0.4271 -2.8087 -2.2712
 1441SOL     vw 5764   2.769   7.139   1.397  0.0708 -0.6523 -0.4304
 1442SOL     ow 5765   2.343   1.187   4.286  0.2511  0.4944 -0.1378
 1442SOL     hw 5766   2.367   1.141   4.206 -1.2007  1.3316 -1.0849
 1442SOL     hw 5767   2.404   1.153   4.352 -0.0584 -1.9670 -1.0282
 1442SOL     vw 5768   2.354   1.176   4.284  0.0187  0.2801 -0.3798
 1443SOL     ow 5769   2.431   5.984   0.646  0.1077 -0.0511  0.3520
 1443SOL     hw 5770   2.510   5.967   0.595  0.3658 -0.4974  0.8929
 1443SOL     hw 5771   2.359   5.969   0.585  0.4401  0.6953 -0.2451
 1443SOL     vw 5772   2.432   5.980   0.631  0.1856 -0.0114  0.3446
 1444SOL     ow 5773   0.730   1.026   5.782 -0.3633  0.8630  0.3688
 1444SOL     hw 5774   0.784   1.022   5.861 -2.7070  2.3600  2.2124
 1444SOL     hw 5775   0.738   0.940   5.742  1.2079  0.1840  2.0297
 1444SOL     vw 5776   0.738   1.014   5.787 -0.4652  0.9710  0.8311
 1445SOL     ow 5777   5.612   7.336   5.462  0.1224 -0.1483  0.0359
 1445SOL     hw 5778   5.635   7.429   5.450 -1.7805  0.4371  0.5977
 1445SOL     hw 5779   5.521   7.330   5.432 -0.0846 -1.6306  0.9015
 1445SOL     vw 5780   5.603   7.348   5.456 -0.1559 -0.2668  0.2241
 1446SOL     ow 5781   6.582   0.196   5.803  0.5421 -0.4795 -0.6434
 1446SOL     hw 5782   6.525   0.138   5.753 -0.1997  0.6072 -1.0706
 1446SOL     hw 5783   6.635   0.241   5.737  2.2032 -1.7265 -0.2452
 1446SOL     vw 5784   6.581   0.194   5.788  0.6633 -0.5006 -0.6473
 1447SOL     ow 5785   2.449   6.267   2.017 -0.6865 -0.0474 -0.6436
 1447SOL     hw 5786   2.544   6.278   2.030 -0.9322  0.5899  0.8441
 1447SOL     hw 5787   2.442   6.211   1.940  0.9549 -2.1033  0.5967
 1447SOL     vw 5788   2.461   6.261   2.009 -0.5025 -0.2344 -0.2835
 1448SOL     ow 5789   5.773   0.929   3.231  0.3642  0.3735  0.4962
 1448SOL     hw 5790   5.834   0.989   3.189 -0.5775 -0.0708 -1.6167
 1448SOL     hw 5791   5.828   0.872   3.284  1.3643  2.4303  1.7816
 1448SOL     vw 5792   5.788   0.930   3.232  0.3719  0.5863  0.3870
 1449SOL     ow 5793   6.063   2.887   0.828  0.2996  0.0888  0.1766
 1449SOL     hw 5794   6.115   2.961   0.861  0.1699 -1.0071  3.1647
 1449SOL     hw 5795   5.977   2.926   0.810  0.4092  0.8352  1.1154
 1449SOL     vw 5796   6.058   2.902   0.830  0.2966  0.0427  0.6947
 1450SOL     ow 5797   2.925   6.521   0.766  0.1164  0.8253  0.3266
 1450SOL     hw 5798   2.932   6.581   0.692  1.4745  1.2282  0.7547
 1450SOL     hw 5799   3.013   6.518   0.803 -0.6743  1.2355  2.3828
 1450SOL     vw 5800   2.938   6.528   0.761  0.1912  0.9325  0.6544
 1451SOL     ow 5801   0.358   1.232   5.977 -0.3999 -0.0355  0.3497
 1451SOL     hw 5802   0.363   1.154   6.032  2.3272 -1.0934 -1.2219
 1451SOL     hw 5803   0.448   1.262   5.970 -1.3658  3.4714  1.0566
 1451SOL     vw 5804   0.370   1.226   5.983 -0.1675  0.2876  0.2356
 1452SOL     ow 5805   3.243   7.289   1.203 -0.4271  0.1604  0.3079
 1452SOL     hw 5806   3.239   7.383   1.186  3.5701  0.6802  1.0928
 1452SOL     hw 5807   3.300   7.254   1.135 -0.1505 -1.2903  1.2126
 1452SOL     vw 5808   3.250   7.297   1.192  0.1369  0.0377  0.5309
 1453SOL     ow 5809   3.932   5.260   1.233  0.4797  0.4200 -0.8412
 1453SOL     hw 5810   3.916   5.346   1.271  0.1740 -0.0107  0.0318
 1453SOL     hw 5811   4.027   5.256   1.221  0.7004  0.2104  0.7823
 1453SOL     vw 5812   3.942   5.271   1.237  0.4685  0.3355 -0.5119
 1454SOL     ow 5813   5.912   0.967   2.858  0.1066  0.3323  0.3767
 1454SOL     hw 5814   5.843   1.033   2.850 -0.8349 -0.6894 -0.3706
 1454SOL     hw 5815   5.968   0.981   2.782 -0.4314 -0.0888 -0.1050
 1454SOL     vw 5816   5.910   0.978   2.847 -0.0887  0.1419  0.2146
 1455SOL     ow 5817   2.411   5.929   3.316 -0.1679  0.4813  0.2039
 1455SOL     hw 5818   2.323   5.968   3.308 -0.1615  0.7946  1.5433
 1455SOL     hw 5819   2.460   5.966   3.242 -1.4136 -0.4519 -1.1569
 1455SOL     vw 5820   2.406   5.939   3.305 -0.3315  0.3994  0.2011
 1456SOL     ow 5821   0.827   1.811   2.827 -0.9235 -0.3691  0.4085
 1456SOL     hw 5822   0.909   1.769   2.799  0.2594  1.9313  0.2355
 1456SOL     hw 5823   0.828   1.803   2.922  1.1311  2.2873  0.7180
 1456SOL     vw 5824   0.838   1.804   2.836 -0.4963  0.2849  0.4265
 1457SOL     ow 5825   0.752   0.329   6.712 -1.1137  0.5934 -0.5653
 1457SOL     hw 5826   0.668   0.308   6.672 -1.3121 -0.3437  0.3093
 1457SOL     hw 5827   0.812   0.261   6.680 -0.6766  1.2623 -1.1931
 1457SOL     vw 5828   0.749   0.317   6.702 -1.0822  0.5580 -0.5329
 1458SOL     ow 5829   4.145   6.403   6.177 -0.4729  0.1377 -0.3677
 1458SOL     hw 5830   4.131   6.452   6.258  1.2429 -1.0368  0.7272
 1458SOL     hw 5831   4.063   6.412   6.128 -1.2354  1.6126  1.0925
 1458SOL     vw 5832   4.132   6.411   6.181 -0.3471  0.1774 -0.0308
 1459SOL     ow 5833   4.137   5.393   1.039  0.4139 -0.1534 -0.0273
 1459SOL     hw 5834   4.052   5.356   1.015  0.3108 -0.0707  0.2051
 1459SOL     hw 5835   4.189   5.317   1.065  0.6511 -0.2846 -0.8788
 1459SOL     vw 5836   4.132   5.378   1.039  0.4315 -0.1597 -0.1090
 1460SOL     ow 5837   7.529   5.635   6.303  0.0952 -0.0973  0.7702
 1460SOL     hw 5838   7.512   5.541   6.306 -0.6254  0.0447  2.8355
 1460SOL     hw 5839   7.623   5.642   6.290 -0.0498 -1.0332 -1.2319
 1460SOL     vw 5840   7.539   5.624   6.301 -0.0191 -0.2022  0.7787
 1461SOL     ow 5841   3.272   4.365   0.652  0.7225 -0.7106 -0.2076
 1461SOL     hw 5842   3.185   4.392   0.682  0.2930 -3.1462  1.0075
 1461SOL     hw 5843   3.257   4.332   0.563  1.0234  1.5960 -1.1895
 1461SOL     vw 5844   3.259   4.364   0.644  0.7055 -0.7279 -0.1768
 1462SOL     ow 5845   5.423   5.308   2.455 -0.5957  0.6765  0.2146
 1462SOL     hw 5846   5.353   5.328   2.517  0.1908 -1.6555  2.0069
 1462SOL     hw 5847   5.402   5.220   2.424  1.3174  0.1110  0.4621
 1462SOL     vw 5848   5.411   5.299   2.459 -0.2396  0.2940  0.4836
 1463SOL     ow 5849   0.913   4.507   4.022 -0.1636  0.5556  0.2285
 1463SOL     hw 5850   0.950   4.462   3.945  0.7548 -1.3518  1.6860
 1463SOL     hw 5851   0.904   4.598   3.994  2.3580  0.4189 -1.4148
 1463SOL     vw 5852   0.917   4.513   4.008  0.2903  0.2859  0.2041
 1464SOL     ow 5853   5.872   2.787   1.156 -0.0276  0.1202 -0.4023
 1464SOL     hw 5854   5.779   2.796   1.178 -0.3252  0.2482 -1.6352
 1464SOL     hw 5855   5.911   2.748   1.234 -0.9029  1.1043  0.5684
 1464SOL     vw 5856   5.865   2.783   1.169 -0.1824  0.2669 -0.4369
 1465SOL     ow 5857   1.824   4.038   5.895 -0.0863  0.2524 -0.4577
 1465SOL     hw 5858   1.835   4.045   5.990  2.2091  0.3964 -0.6765
 1465SOL     hw 5859   1.898   3.985   5.866 -2.7895 -3.1474 -1.8249
 1465SOL     vw 5860   1.836   4.032   5.904 -0.1401 -0.1776 -0.6671
 1466SOL     ow 5861   3.184   4.151   2.120 -0.6583 -0.2684  0.4588
 1466SOL     hw 5862   3.200   4.219   2.054 -1.3059  0.2728  0.8460
 1466SOL     hw 5863   3.251   4.085   2.104  0.0289  0.5028  0.1223
 1466SOL     vw 5864   3.195   4.151   2.109 -0.6531 -0.0951  0.4655
 1467SOL     ow 5865   5.428   0.838   3.303 -0.4545  0.1327  0.4153
 1467SOL     hw 5866   5.421   0.751   3.265 -1.2479  0.4389 -0.1631
 1467SOL     hw 5867   5.371   0.835   3.380 -0.0746 -0.0069  0.6980
 1467SOL     vw 5868   5.420   0.826   3.308 -0.5090  0.1546  0.3763
 1468SOL     ow 5869   5.378   3.319   2.147  0.6114 -0.6664 -0.1792
 1468SOL     hw 5870   5.335   3.392   2.103  2.1981  0.2569 -0.2746
 1468SOL     hw 5871   5.313   3.249   2.147 -0.0394 -0.1395 -2.4520
 1468SOL     vw 5872   5.364   3.319   2.141  0.7350 -0.4750 -0.4917
 1469SOL     ow 5873   1.974   2.546   5.971 -0.1247  0.8511 -0.0125
 1469SOL     hw 5874   1.908   2.483   5.943  1.6785 -0.8604 -0.6369
 1469SOL     hw 5875   2.016   2.506   6.047 -0.0207  2.0946  0.6257
 1469SOL     vw 5876   1.971   2.533   5.977  0.1269  0.7893 -0.0107
 1470SOL     ow 5877   6.405   1.255   2.154  0.5883  0.2002 -0.2011
 1470SOL     hw 5878   6.351   1.275   2.078  1.7786  0.7743 -0.9183
 1470SOL     hw 5879   6.430   1.341   2.189 -1.1674  0.0037  1.7941
 1470SOL     vw 5880   6.401   1.269   2.149  0.5138  0.2500 -0.0325
 1471SOL     ow 5881   5.275   2.369   4.902  0.2570  0.2898  0.0773
 1471SOL     hw 5882   5.192   2.389   4.943  1.0258  0.4209  1.6382
 1471SOL     hw 5883   5.259   2.289   4.852 -1.3716  1.5754 -1.5908
 1471SOL     vw 5884   5.262   2.361   4.901  0.1435  0.4768  0.0629
 1472SOL     ow 5885   7.527   4.760   1.653  0.2632  0.1469  0.6917
 1472SOL     hw 5886   7.440   4.793   1.676  0.2976  1.6674 -1.1113
 1472SOL     hw 5887   7.542   4.792   1.564  2.9938  0.6090  1.2274
 1472SOL     vw 5888   7.517   4.768   1.644  0.6280  0.4082  0.5245
 1473SOL     ow 5889   1.443   4.132   4.799 -0.5657 -0.3374 -0.0519
 1473SOL     hw 5890   1.428   4.226   4.801 -2.1084 -0.5644  0.4929
 1473SOL     hw 5891   1.412   4.100   4.884  0.7305 -1.2467  0.1184
 1473SOL     vw 5892   1.437   4.140   4.810 -0.5982 -0.4873  0.0427
 1474SOL     ow 5893   6.845   5.600   1.405 -0.3039  0.3394  0.6002
 1474SOL     hw 5894   6.763   5.578   1.360  1.6212 -0.8090 -2.6764
 1474SOL     hw 5895   6.891   5.658   1.345  1.5043  0.6236  2.1561
 1474SOL     vw 5896   6.840   5.605   1.391  0.1886  0.2253  0.3732
 1475SOL     ow 5897   2.072   7.461   6.967 -0.2095 -0.1856  0.1770
 1475SOL     hw 5898   2.163   7.471   6.992 -0.6629  0.5656  1.6210
 1475SOL     hw 5899   2.042   7.550   6.948 -0.6461 -0.4247 -0.2861
 1475SOL     vw 5900   2.080   7.474   6.968 -0.3271 -0.1183  0.3061
 1476SOL     ow 5901   1.073   3.894   0.225  0.0956 -0.6493  0.8112
 1476SOL     hw 5902   1.140   3.873   0.161  0.8152  1.5638  0.7573
 1476SOL     hw 5903   1.112   3.964   0.279 -2.1758  0.8197  0.6869
 1476SOL     vw 5904   1.087   3.901   0.224 -0.1092 -0.1633  0.7877
 1477SOL     ow 5905   3.280   1.883   5.710 -0.0446  0.7812  0.2461
 1477SOL     hw 5906   3.255   1.934   5.633  2.2826  0.7201 -0.6204
 1477SOL     hw 5907   3.242   1.930   5.784 -0.5694  2.0032 -0.7743
 1477SOL     vw 5908   3.271   1.896   5.709  0.1932  0.9344 -0.0029
 1478SOL     ow 5909   3.199   4.278   2.379  0.0852  0.0329  0.1428
 1478SOL     hw 5910   3.145   4.222   2.434 -3.3506  1.3462 -1.5750
 1478SOL     hw 5911   3.196   4.237   2.292  3.7756 -0.9823  0.3678
 1478SOL     vw 5912   3.191   4.265   2.374  0.1189  0.0720 -0.0542
 1479SOL     ow 5913   0.333   4.582   5.876 -0.6466 -0.0943  0.1070
 1479SOL     hw 5914   0.252   4.533   5.887 -1.4858  0.9637 -1.0542
 1479SOL     hw 5915   0.343   4.631   5.958 -1.3292 -0.0259  0.1521
 1479SOL     vw 5916   0.324   4.582   5.889 -0.8474  0.0544 -0.0401
 1480SOL     ow 5917   2.782   1.705   6.400  0.0216 -0.6594  0.2007
 1480SOL     hw 5918   2.832   1.626   6.421 -0.5102 -0.6895  1.4719
 1480SOL     hw 5919   2.691   1.681   6.414 -0.1268  0.2771  1.0239
 1480SOL     vw 5920   2.777   1.692   6.405 -0.0682 -0.5398  0.4768
 1481SOL     ow 5921   4.258   6.224   0.710 -0.3089  0.1391 -0.2508
 1481SOL     hw 5922   4.196   6.159   0.679 -1.3903  1.7456 -1.6577
 1481SOL     hw 5923   4.332   6.218   0.649 -0.6682  0.5878 -0.7435
 1481SOL     vw 5924   4.260   6.215   0.698 -0.4992  0.4101 -0.5015
 1482SOL     ow 5925   1.304   1.687   3.245 -0.1241 -0.0498 -0.2260
 1482SOL     hw 5926   1.399   1.673   3.237 -0.1310  0.4638 -1.5935
 1482SOL     hw 5927   1.295   1.755   3.311  0.3797 -0.9493  0.7961
 1482SOL     vw 5928   1.315   1.694   3.252 -0.0586 -0.1007 -0.2714
 1483SOL     ow 5929   3.762   2.536   4.202 -0.3266  0.4527  0.1467
 1483SOL     hw 5930   3.754   2.450   4.159  0.2757 -1.5983  3.7240
 1483SOL     hw 5931   3.695   2.589   4.160 -0.8154 -1.7736 -2.1792
 1483SOL     vw 5932   3.752   2.531   4.190 -0.3117 -0.1117  0.3116
 1484SOL     ow 5933   3.171   2.014   3.014 -0.1845 -0.4642  0.8259
 1484SOL     hw 5934   3.177   1.936   2.960  0.3398 -0.8918  1.4783
 1484SOL     hw 5935   3.186   2.087   2.953 -0.6033 -0.8698  0.2288
 1484SOL     vw 5936   3.174   2.013   2.999 -0.1706 -0.5741  0.8332
 1485SOL     ow 5937   2.517   1.855   2.143  0.2803  0.2092  0.5401
 1485SOL     hw 5938   2.540   1.826   2.054  1.0206  0.2892  0.6949
 1485SOL     hw 5939   2.447   1.918   2.131 -0.1821 -0.3786  0.0700
 1485SOL     vw 5940   2.511   1.859   2.129  0.3170  0.1422  0.4988
 1486SOL     ow 5941   4.701   3.179   1.563 -0.0525  0.2577  0.0176
 1486SOL     hw 5942   4.717   3.269   1.593 -0.9882  1.3379 -2.4003
 1486SOL     hw 5943   4.606   3.168   1.574 -0.2069  0.2199 -1.2362
 1486SOL     vw 5944   4.690   3.190   1.568 -0.1962  0.3953 -0.4669
 1487SOL     ow 5945   4.091   3.265   0.382  0.4270 -0.6373  0.5661
 1487SOL     hw 5946   4.165   3.259   0.443 -1.0847 -1.9260  2.4036
 1487SOL     hw 5947   4.017   3.292   0.437 -0.3417  1.4956 -1.3676
 1487SOL     vw 5948   4.091   3.268   0.398  0.1259 -0.5258  0.5534
 1488SOL     ow 5949   3.475   1.038   2.411 -0.1902 -0.2428  0.2284
 1488SOL     hw 5950   3.481   1.042   2.315  0.6460  0.9318  0.3123
 1488SOL     hw 5951   3.399   1.091   2.433 -0.9765 -1.3232  0.1698
 1488SOL     vw 5952   3.466   1.045   2.401 -0.1835 -0.2304  0.2316
 1489SOL     ow 5953   0.895   2.111   3.036  0.8601 -0.1034 -0.3649
 1489SOL     hw 5954   0.939   2.029   3.058 -0.9157 -1.3289 -1.1800
 1489SOL     hw 5955   0.891   2.110   2.940  0.2126  0.6035 -0.3460
 1489SOL     vw 5956   0.901   2.100   3.026  0.5403 -0.1718 -0.4699
 1490SOL     ow 5957   2.581   4.953   1.589 -0.5390  0.1420  0.0021
 1490SOL     hw 5958   2.658   4.946   1.646 -2.3586  0.0862  2.6461
 1490SOL     hw 5959   2.567   4.864   1.558  0.0087  0.0004  0.1350
 1490SOL     vw 5960   2.589   4.940   1.593 -0.7069  0.1161  0.3685
 1491SOL     ow 5961   2.832   3.124   7.084  0.9112  0.6250 -0.7475
 1491SOL     hw 5962   2.858   3.209   7.048  0.3840  0.5941 -1.2119
 1491SOL     hw 5963   2.737   3.119   7.068  0.9943 -0.2015 -1.0402
 1491SOL     vw 5964   2.823   3.135   7.077  0.8527  0.5120 -0.8476
 1492SOL     ow 5965   4.207   3.791   0.310 -0.6283 -0.2496  0.6325
 1492SOL     hw 5966   4.253   3.780   0.393  1.8400 -0.3980 -0.6827
 1492SOL     hw 5967   4.162   3.708   0.296  0.3757 -0.8703  1.0037
 1492SOL     vw 5968   4.207   3.779   0.319 -0.1700 -0.3512  0.5080
 1493SOL     ow 5969   4.794   0.333   1.124  0.3216 -0.2396  0.6863
 1493SOL     hw 5970   4.798   0.238   1.110 -1.4177 -0.0784 -1.5139
 1493SOL     hw 5971   4.712   0.346   1.173  0.8819  0.1110  1.5571
 1493SOL     vw 5972   4.783   0.322   1.129  0.1662 -0.1721  0.5109
 1494SOL     ow 5973   6.955   0.569   0.155 -0.2173 -0.6951  0.3555
 1494SOL     hw 5974   6.886   0.627   0.188  0.1727 -0.8069  1.3939
 1494SOL     hw 5975   6.936   0.484   0.194  0.3377 -0.7956  0.4163
 1494SOL     vw 5976   6.943   0.566   0.165 -0.0927 -0.7231  0.5005
 1495SOL     ow 5977   0.910   6.329   6.270  0.7615  0.2167  0.9826
 1495SOL     hw 5978   0.854   6.283   6.332  0.3799  1.6574  1.7675
 1495SOL     hw 5979   0.878   6.303   6.184 -1.2007  1.0658  1.4084
 1495SOL     vw 5980   0.898   6.320   6.267  0.4522  0.5188  1.1423
 1496SOL     ow 5981   0.835   7.332   4.455  0.0619  0.6291 -0.2316
 1496SOL     hw 5982   0.915   7.371   4.489 -0.3934  2.0954 -0.7911
 1496SOL     hw 5983   0.790   7.403   4.409  0.2181 -0.9840 -3.1181
 1496SOL     vw 5984   0.839   7.346   4.453  0.0224  0.6099 -0.6862
 1497SOL     ow 5985   3.228   4.822   1.366  0.7203  0.3619 -0.2511
 1497SOL     hw 5986   3.303   4.867   1.327 -0.6816  4.3706  1.1547
 1497SOL     hw 5987   3.152   4.870   1.336 -1.2675 -2.5681 -0.3270
 1497SOL     vw 5988   3.228   4.834   1.357  0.2731  0.5045 -0.0756
 1498SOL     ow 5989   2.572   1.677   1.612  0.2291 -0.3355  0.1604
 1498SOL     hw 5990   2.647   1.733   1.591  0.6091 -1.1297 -0.6935
 1498SOL     hw 5991   2.609   1.589   1.615 -0.1398 -0.4677  2.5568
 1498SOL     vw 5992   2.587   1.673   1.609  0.2306 -0.4578  0.3638
 1499SOL     ow 5993   3.287   0.753   5.054  0.3400  0.3677 -1.0043
 1499SOL     hw 5994   3.345   0.696   5.003  2.8064 -2.6537  4.2268
 1499SOL     hw 5995   3.332   0.837   5.058  3.0914 -1.0429  0.5074
 1499SOL     vw 5996   3.301   0.756   5.048  1.0284 -0.2170 -0.1149
 1500SOL     ow 5997   6.214   2.648   4.603  0.5576  0.1861 -0.2957
 1500SOL     hw 5998   6.161   2.571   4.582  0.1798 -0.0197  1.2437
 1500SOL     hw 5999   6.304   2.621   4.585  0.4624 -0.7557  0.5376
 1500SOL     vw 6000   6.219   2.634   4.598  0.4952  0.0348  0.0174
 1501SOL     ow 6001   6.361   0.243   5.555  0.1448 -0.1900  0.8710
 1501SOL     hw 6002   6.370   0.155   5.518  0.6831 -0.0487  0.6699
 1501SOL     hw 6003   6.375   0.302   5.480  0.0742  0.0734  1.0657
 1501SOL     vw 6004   6.364   0.239   5.540  0.2065 -0.1366  0.8700
 1502SOL     ow 6005   3.742   2.102   7.157 -0.1896  0.0721  0.8084
 1502SOL     hw 6006   3.744   2.197   7.171  3.5611  0.4178 -0.8183
 1502SOL     hw 6007   3.759   2.065   7.244 -4.5685  0.5653  2.0788
 1502SOL     vw 6008   3.745   2.110   7.171 -0.2725  0.1829  0.7615
 1503SOL     ow 6009   3.774   6.598   6.999 -0.2758 -0.0568 -0.2551
 1503SOL     hw 6010   3.690   6.638   6.976  0.2638  0.1603 -1.9866
 1503SOL     hw 6011   3.837   6.670   6.996 -0.2037  0.1586  2.7340
 1503SOL     vw 6012   3.771   6.612   6.996 -0.1950  0.0002 -0.0892
 1504SOL     ow 6013   6.734   4.412   6.658  0.3594 -0.0701 -0.9633
 1504SOL     hw 6014   6.780   4.328   6.655 -1.6014 -1.3791  1.5766
 1504SOL     hw 6015   6.746   4.443   6.747 -0.6138  1.3741 -1.2922
 1504SOL     vw 6016   6.742   4.405   6.669 -0.0277 -0.0525 -0.6714
 1505SOL     ow 6017   5.052   7.393   5.240 -0.2272 -0.1292 -0.0733
 1505SOL     hw 6018   5.015   7.353   5.319  1.5882 -0.1881  0.7959
 1505SOL     hw 6019   5.094   7.321   5.194  0.3617  0.2344 -0.1138
 1505SOL     vw 6020   5.052   7.378   5.245  0.0899 -0.0892  0.0358
 1506SOL     ow 6021   1.042   0.803   0.779 -0.2749 -0.4921  0.1766
 1506SOL     hw 6022   1.103   0.821   0.851 -0.2222  1.7199 -0.3402
 1506SOL     hw 6023   0.958   0.838   0.810 -0.1171  1.0654 -1.0069
 1506SOL     vw 6024   1.039   0.810   0.793 -0.2472  0.0052 -0.0477
 1507SOL     ow 6025   3.039   6.518   1.204 -0.2949  0.4199 -0.1575
 1507SOL     hw 6026   3.027   6.423   1.195  1.5288  0.3167 -2.5589
 1507SOL     hw 6027   3.013   6.537   1.294 -0.7116 -2.3372  0.4063
 1507SOL     vw 6028   3.034   6.508   1.214 -0.1093  0.0424 -0.4000
 1508SOL     ow 6029   7.155   5.419   3.410 -0.5229 -0.4803  0.1388
 1508SOL     hw 6030   7.211   5.378   3.344  1.3335 -0.5597  1.6764
 1508SOL     hw 6031   7.067   5.384   3.394  0.1044 -1.3338 -1.5575
 1508SOL     vw 6032   7.151   5.409   3.399 -0.1953 -0.6034  0.1178
 1509SOL     ow 6033   0.506   1.794   4.477  0.1113  0.0965  0.4177
 1509SOL     hw 6034   0.516   1.838   4.562  0.4649 -2.0077  1.5461
 1509SOL     hw 6035   0.435   1.731   4.491  1.1890 -1.3473 -0.3345
 1509SOL     vw 6036   0.498   1.791   4.490  0.3002 -0.3716  0.4678
 1510SOL     ow 6037   3.019   3.400   0.111 -0.4466  0.4038  0.0947
 1510SOL     hw 6038   3.068   3.405   0.029 -1.3224  1.3636 -0.3908
 1510SOL     hw 6039   3.012   3.491   0.141 -1.3889  0.2249  0.4620
 1510SOL     vw 6040   3.024   3.413   0.104 -0.6866  0.5068  0.0791
 1511SOL     ow 6041   0.617   3.596   4.310  0.1626  0.2667  0.4121
 1511SOL     hw 6042   0.679   3.597   4.384  1.6745 -1.2235 -0.7543
 1511SOL     hw 6043   0.607   3.504   4.288 -0.5597  0.6514 -0.9910
 1511SOL     vw 6044   0.624   3.584   4.317  0.2668  0.1209  0.0730
 1512SOL     ow 6045   2.398   3.883   7.103 -0.4552 -0.3656 -0.6954
 1512SOL     hw 6046   2.373   3.815   7.165 -1.5160 -0.3768 -1.1063
 1512SOL     hw 6047   2.476   3.848   7.060  1.1149  0.2198  1.5199
 1512SOL     vw 6048   2.405   3.869   7.105 -0.3879 -0.2899 -0.4575
 1513SOL     ow 6049   4.279   1.659   1.375  0.3455  0.7954 -0.0231
 1513SOL     hw 6050   4.361   1.707   1.362  0.1975  0.6202 -1.9550
 1513SOL     hw 6051   4.269   1.608   1.294 -0.6891 -0.6885  0.9996
 1513SOL     vw 6052   4.289   1.659   1.362  0.1895  0.5766 -0.1431
 1514SOL     ow 6053   6.436   0.663   4.175 -0.0234  0.3564  0.3062
 1514SOL     hw 6054   6.389   0.665   4.258  0.4431  0.4310  0.5745
 1514SOL     hw 6055   6.483   0.580   4.177  0.3392  0.5566  0.3227
 1514SOL     vw 6056   6.436   0.653   4.187  0.0861  0.3927  0.3438
 1515SOL     ow 6057   2.554   6.494   7.314  0.0215 -0.6218 -0.0466
 1515SOL     hw 6058   2.530   6.402   7.310 -1.2050 -0.2656 -2.3933
 1515SOL     hw 6059   2.555   6.523   7.223  2.1441  1.2707  0.4874
 1515SOL     vw 6060   2.551   6.486   7.302  0.1397 -0.3252 -0.2856
 1516SOL     ow 6061   4.861   3.308   2.722 -0.7043 -0.6040  0.1877
 1516SOL     hw 6062   4.884   3.365   2.649  0.1627 -0.4005  0.6009
 1516SOL     hw 6063   4.813   3.365   2.783 -0.3266 -0.4489  0.3446
 1516SOL     vw 6064   4.858   3.323   2.721 -0.5398 -0.5566  0.2629
 1517SOL     ow 6065   5.412   5.023   2.292 -0.1161  0.0211 -0.2434
 1517SOL     hw 6066   5.317   5.028   2.304  0.0141  0.6810  0.5881
 1517SOL     hw 6067   5.424   4.958   2.223 -1.2132  0.4426 -0.8562
 1517SOL     vw 6068   5.401   5.015   2.284 -0.2437  0.1640 -0.2147
 1518SOL     ow 6069   6.872   1.203   2.339 -0.6059  0.0541  0.0995
 1518SOL     hw 6070   6.962   1.187   2.310 -1.3171  0.7777 -2.7521
 1518SOL     hw 6071   6.851   1.290   2.306 -2.8990 -0.7462 -0.7486
 1518SOL     vw 6072   6.881   1.212   2.331 -1.0023  0.0440 -0.3886
 1519SOL     ow 6073   2.813   4.465   6.238  0.1209  0.1169 -0.1010
 1519SOL     hw 6074   2.889   4.411   6.217 -0.0837  0.0398 -0.6768
 1519SOL     hw 6075   2.848   4.554   6.248  0.5637 -0.2227  1.5697
 1519SOL     vw 6076   2.827   4.470   6.237  0.1523  0.0620  0.0439
 1520SOL     ow 6077   3.559   2.739   4.635  0.4426  0.0565  0.4202
 1520SOL     hw 6078   3.522   2.655   4.661 -0.0276  0.6184  1.6593
 1520SOL     hw 6079   3.564   2.789   4.716 -1.9665  2.2737 -0.6695
 1520SOL     vw 6080   3.555   2.735   4.649  0.0626  0.4232  0.4396
 1521SOL     ow 6081   5.546   4.952   0.208 -0.4328  0.5905 -0.7864
 1521SOL     hw 6082   5.505   5.032   0.239 -0.4937  0.7375 -1.2304
 1521SOL     hw 6083   5.491   4.881   0.241 -0.0897  0.7043  0.0381
 1521SOL     vw 6084   5.533   4.953   0.216 -0.3953  0.6249 -0.7362
 1522SOL     ow 6085   6.393   1.533   7.328 -0.4137  0.0810 -0.1684
 1522SOL     hw 6086   6.422   1.573   7.410  0.9188 -1.6813  0.2782
 1522SOL     hw 6087   6.325   1.592   7.296  0.0083  1.5647  1.4761
 1522SOL     vw 6088   6.388   1.546   7.335 -0.1824  0.0442  0.1078
 1523SOL     ow 6089   1.252   4.763   6.628 -0.2283 -0.2715 -0.6737
 1523SOL     hw 6090   1.176   4.741   6.575 -0.5598  2.6831 -1.5782
 1523SOL     hw 6091   1.269   4.855   6.609  1.8611 -0.0766  1.6561
 1523SOL     vw 6092   1.244   4.772   6.619  0.0036  0.1440 -0.4854
 1524SOL     ow 6093   0.711   2.361   5.282 -0.2716  0.4177 -0.2444
 1524SOL     hw 6094   0.688   2.362   5.189 -1.5762  1.8266  0.0453
 1524SOL     hw 6095   0.753   2.276   5.296 -0.5987 -0.0654 -1.9830
 1524SOL     vw 6096   0.713   2.350   5.272 -0.4869  0.5399 -0.4356
 1525SOL     ow 6097   0.340   4.355   1.938 -0.0017 -0.1973  0.1675
 1525SOL     hw 6098   0.376   4.267   1.923 -0.5022 -0.3808  0.0236
 1525SOL     hw 6099   0.251   4.339   1.968 -0.2293  0.2748 -0.2514
 1525SOL     vw 6100   0.333   4.341   1.940 -0.0978 -0.1593  0.0932
 1526SOL     ow 6101   3.577   4.651   0.118  0.4658 -0.9712  0.0267
 1526SOL     hw 6102   3.600   4.595   0.192  0.0818 -0.4337  0.5670
 1526SOL     hw 6103   3.489   4.622   0.092  0.5513 -1.0804 -0.1395
 1526SOL     vw 6104   3.568   4.640   0.124  0.4264 -0.9151  0.0760
 1527SOL     ow 6105   1.233   2.811   3.101 -0.3042  0.1801 -0.2419
 1527SOL     hw 6106   1.196   2.796   3.015  1.5674 -1.3526 -0.8606
 1527SOL     hw 6107   1.201   2.738   3.155 -0.7497  0.6418  0.1357
 1527SOL     vw 6108   1.224   2.799   3.097 -0.1160  0.0389 -0.2736
 1528SOL     ow 6109   0.814   4.341   4.494 -0.1364 -0.0698  0.3878
 1528SOL     hw 6110   0.895   4.346   4.443 -0.3399  2.4737  0.1894
 1528SOL     hw 6111   0.843   4.328   4.584  0.4282 -0.3402  0.1729
 1528SOL     vw 6112   0.828   4.340   4.499 -0.0887  0.2301  0.3333
 1529SOL     ow 6113   2.783   7.370   1.190  0.0157  0.1587  0.4184
 1529SOL     hw 6114   2.709   7.425   1.217 -0.6026 -0.3237 -0.2521
 1529SOL     hw 6115   2.852   7.432   1.168 -0.5128  0.6562  0.1362
 1529SOL     vw 6116   2.782   7.386   1.190 -0.1357  0.1605  0.2927
 1530SOL     ow 6117   3.200   0.104   7.505  0.1833  0.7248  0.7413
 1530SOL     hw 6118   3.105   0.095   7.511  0.0618 -0.1104 -1.5602
 1530SOL     hw 6119   3.233   0.071   7.589 -1.5114  0.6714  1.4210
 1530SOL     vw 6120   3.192   0.099   7.517 -0.0564  0.6076  0.5274
 1531SOL     ow 6121   3.011   5.713   5.601  0.2762  0.0983  0.6544
 1531SOL     hw 6122   3.050   5.719   5.514  2.9811 -0.6035  1.7062
 1531SOL     hw 6123   2.974   5.800   5.617  2.6643  1.3111  0.0409
 1531SOL     vw 6124   3.012   5.725   5.592  0.9482  0.1655  0.7124
 1532SOL     ow 6125   2.479   5.130   1.404  0.8508 -0.3193 -0.1083
 1532SOL     hw 6126   2.391   5.127   1.367  1.3054 -0.2022 -1.2131
 1532SOL     hw 6127   2.537   5.137   1.329  1.9420 -2.3998  0.4525
 1532SOL     vw 6128   2.475   5.130   1.390  1.0548 -0.5782 -0.1800
 1533SOL     ow 6129   1.642   1.853   5.223 -0.6816  0.0636 -0.7613
 1533SOL     hw 6130   1.558   1.900   5.221 -0.3590  0.9967  2.5639
 1533SOL     hw 6131   1.699   1.904   5.164 -0.6906  3.3466  1.7791
 1533SOL     vw 6132   1.638   1.866   5.215 -0.6403  0.6198  0.0126
 1534SOL     ow 6133   0.254   7.546   0.806 -0.2351 -0.1646 -0.3256
 1534SOL     hw 6134   0.232   7.509   0.720  0.5948  0.6270 -0.8962
 1534SOL     hw 6135   0.223   7.480   0.869 -3.9103  0.6602 -1.0153
 1534SOL     vw 6136   0.247   7.532   0.803 -0.6105  0.0486 -0.4919
 1535SOL     ow 6137   5.260   1.882   6.697 -0.5560  0.7472 -0.4039
 1535SOL     hw 6138   5.202   1.822   6.649 -1.2726 -0.6302  2.0476
 1535SOL     hw 6139   5.200   1.933   6.751  0.4138 -1.0414  2.5658
 1535SOL     vw 6140   5.244   1.881   6.698 -0.5224  0.3296  0.3116
 1536SOL     ow 6141   7.244   2.917   4.513  0.4802 -0.0520 -0.1372
 1536SOL     hw 6142   7.197   2.927   4.430  0.1084  0.7057  0.1566
 1536SOL     hw 6143   7.245   2.822   4.528  2.2176 -0.3644 -1.9308
 1536SOL     vw 6144   7.238   2.906   4.504  0.6604  0.0069 -0.3352
 1537SOL     ow 6145   1.981   4.879   0.306  0.1321  0.6394  0.4115
 1537SOL     hw 6146   1.886   4.878   0.296 -0.1913  0.2355  2.8187
 1537SOL     hw 6147   2.013   4.931   0.232 -1.7938 -0.6164 -1.4023
 1537SOL     vw 6148   1.973   4.886   0.295 -0.1646  0.4206  0.4898
 1538SOL     ow 6149   7.436   7.396   3.525 -0.4498 -1.0524 -0.3492
 1538SOL     hw 6150   7.523   7.363   3.547 -0.2629 -1.4849 -1.6456
 1538SOL     hw 6151   7.451   7.489   3.506 -0.0337 -1.3822 -1.7346
 1538SOL     vw 6152   7.450   7.404   3.526 -0.3703 -1.1528 -0.7030
 1539SOL     ow 6153   3.142   6.849   6.585  0.1855 -0.3143  0.0156
 1539SOL     hw 6154   3.169   6.758   6.597 -1.6381 -1.0358 -0.9012
 1539SOL     hw 6155   3.104   6.874   6.669 -0.7843 -0.9665 -0.2165
 1539SOL     vw 6156   3.141   6.840   6.597 -0.1831 -0.4957 -0.1357
 1540SOL     ow 6157   1.952   7.283   3.478 -0.2293 -0.6138  0.2895
 1540SOL     hw 6158   1.877   7.312   3.530 -0.6625  0.1150 -0.7194
 1540SOL     hw 6159   2.028   7.293   3.537 -0.8716 -1.1562  1.2431
 1540SOL     vw 6160   1.952   7.288   3.493 -0.3712 -0.5894  0.2823
 1541SOL     ow 6161   0.189   4.679   1.855 -0.0723 -0.4665 -0.0702
 1541SOL     hw 6162   0.278   4.659   1.828  0.0705  0.0519  0.0040
 1541SOL     hw 6163   0.158   4.599   1.898 -0.2342 -1.2411 -1.5408
 1541SOL     vw 6164   0.196   4.666   1.857 -0.0748 -0.5002 -0.2544
 1542SOL     ow 6165   1.834   5.162   4.403  0.0710  0.1461  0.2455
 1542SOL     hw 6166   1.740   5.157   4.388  0.2859 -0.3391 -1.1054
 1542SOL     hw 6167   1.847   5.131   4.493 -0.9723 -0.6921  0.1222
 1542SOL     vw 6168   1.824   5.157   4.413 -0.0383 -0.0286  0.0510
 1543SOL     ow 6169   0.245   5.623   6.208  0.5782  0.1951  0.1999
 1543SOL     hw 6170   0.301   5.567   6.262  2.5266  1.4291 -0.4028
 1543SOL     hw 6171   0.306   5.667   6.148 -1.1295  1.2376 -0.8736
 1543SOL     vw 6172   0.261   5.622   6.207  0.6099  0.4957 -0.0212
 1544SOL     ow 6173   4.427   4.746   4.840 -0.4947 -0.2825  0.7774
 1544SOL     hw 6174   4.432   4.663   4.889 -0.1528 -1.5140 -1.2212
 1544SOL     hw 6175   4.467   4.726   4.756 -2.5061  1.2780 -0.6296
 1544SOL     vw 6176   4.433   4.732   4.836 -0.7148 -0.2391  0.3281
 1545SOL     ow 6177   5.368   2.467   2.100 -0.4757  0.2248 -0.5138
 1545SOL     hw 6178   5.310   2.502   2.032 -1.5463  0.1427  0.3237
 1545SOL     hw 6179   5.453   2.505   2.081 -1.5823  3.4604  0.4140
 1545SOL     vw 6180   5.371   2.476   2.088 -0.7629  0.6410 -0.2809
 1546SOL     ow 6181   3.905   7.094   5.851  0.6240  0.1702  0.0475
 1546SOL     hw 6182   3.865   7.151   5.784 -1.4782 -3.0929 -1.7932
 1546SOL     hw 6183   3.998   7.095   5.831  0.1976  0.2731 -2.2090
 1546SOL     vw 6184   3.912   7.102   5.839  0.2903 -0.2465 -0.4933
 1547SOL     ow 6185   1.771   5.174   7.112 -0.5391  0.0608 -0.0217
 1547SOL     hw 6186   1.781   5.168   7.207  0.9799  0.6240 -0.1294
 1547SOL     hw 6187   1.813   5.094   7.079  0.5959  0.7605 -0.3038
 1547SOL     vw 6188   1.778   5.162   7.120 -0.1889  0.2277 -0.0730
 1548SOL     ow 6189   0.671   7.162   0.639 -0.5053  0.2673  0.1635
 1548SOL     hw 6190   0.605   7.111   0.590 -1.1366  0.7654  0.4882
 1548SOL     hw 6191   0.627   7.187   0.720  0.0534  0.6943  0.3393
 1548SOL     vw 6192   0.656   7.158   0.643 -0.5149  0.3893  0.2295
 1549SOL     ow 6193   6.740   1.450   7.298 -0.3750  0.1541 -0.0829
 1549SOL     hw 6194   6.671   1.402   7.253 -1.3938  0.3990  1.1849
 1549SOL     hw 6195   6.753   1.403   7.380 -0.8068  1.5486  0.8052
 1549SOL     vw 6196   6.733   1.437   7.303 -0.5665  0.3704  0.2017
 1550SOL     ow 6197   6.357   0.991   4.447  0.7413  0.1140 -0.1836
 1550SOL     hw 6198   6.369   1.084   4.464 -0.9523  0.3887 -0.3285
 1550SOL     hw 6199   6.445   0.959   4.427  1.7523  1.1814  2.1305
 1550SOL     vw 6200   6.370   0.999   4.447  0.6514  0.2911  0.1028
 1551SOL     ow 6201   0.440   1.201   5.503  0.1351 -0.3271 -0.2366
 1551SOL     hw 6202   0.375   1.162   5.562 -0.2484  1.1386  0.3592
 1551SOL     hw 6203   0.388   1.252   5.441  0.6710  0.6393  0.0752
 1551SOL     vw 6204   0.424   1.203   5.503  0.1552 -0.0062 -0.1171
 1552SOL     ow 6205   0.210   1.426   7.090  0.4351 -0.3701 -0.0236
 1552SOL     hw 6206   0.169   1.347   7.126 -0.9008  0.9383  1.4515
 1552SOL     hw 6207   0.162   1.444   7.010 -0.1923 -0.2643  0.3756
 1552SOL     vw 6208   0.199   1.418   7.084  0.1761 -0.1835  0.2236
 1553SOL     ow 6209   4.879   2.371   1.050 -0.0792  0.7826  0.1466
 1553SOL     hw 6210   4.810   2.359   1.115 -0.9091  0.0978 -0.8246
 1553SOL     hw 6211   4.937   2.437   1.088 -0.0438 -0.2263  1.9611
 1553SOL     vw 6212   4.878   2.378   1.063 -0.1838  0.5591  0.2578
 1554SOL     ow 6213   0.173   1.143   2.554  0.0734  0.0139  0.2668
 1554SOL     hw 6214   0.225   1.071   2.590 -0.0057 -0.4075 -0.4473
 1554SOL     hw 6215   0.105   1.157   2.620  0.6128  0.0361  0.8302
 1554SOL     vw 6216   0.171   1.135   2.567  0.1341 -0.0387  0.2470
 1555SOL     ow 6217   4.583   1.569   3.110  0.1831 -0.4554  0.1935
 1555SOL     hw 6218   4.593   1.579   3.015  2.5092 -1.1970  0.2894
 1555SOL     hw 6219   4.671   1.545   3.140 -0.6868 -1.0029  2.4477
 1555SOL     vw 6220   4.596   1.567   3.101  0.3750 -0.6255  0.5035
 1556SOL     ow 6221   0.790   0.204   1.637 -0.1150 -0.4140  0.2950
 1556SOL     hw 6222   0.793   0.109   1.647 -1.6008 -0.5401 -0.1492
 1556SOL     hw 6223   0.851   0.222   1.565  1.7171 -0.7580  1.6720
 1556SOL     vw 6224   0.799   0.194   1.629 -0.0693 -0.4760  0.4180
 1557SOL     ow 6225   1.264   4.844   2.585  0.1073 -0.3838  0.1222
 1557SOL     hw 6226   1.210   4.915   2.621 -1.8949 -1.8349  0.1479
 1557SOL     hw 6227   1.298   4.798   2.662 -2.3429 -2.1289  0.2775
 1557SOL     vw 6228   1.261   4.847   2.600 -0.4802 -0.8056  0.1462
 1558SOL     ow 6229   7.138   3.898   1.087 -0.2545  0.7037  0.1662
 1558SOL     hw 6230   7.091   3.957   1.146  0.1732 -0.4785  1.7513
 1558SOL     hw 6231   7.101   3.916   1.001 -1.7582  1.6340  0.9666
 1558SOL     vw 6232   7.127   3.908   1.084 -0.3965  0.6706  0.4809
 1559SOL     ow 6233   3.964   2.063   0.251  0.1571  0.3241 -0.0385
 1559SOL     hw 6234   3.949   2.001   0.322  0.4143 -0.5463 -0.7241
 1559SOL     hw 6235   3.879   2.068   0.206  0.2200  0.2289 -0.1679
 1559SOL     vw 6236   3.951   2.056   0.254  0.1994  0.1966 -0.1461
 1560SOL     ow 6237   1.380   6.216   2.719 -0.0297  0.2441 -0.1224
 1560SOL     hw 6238   1.468   6.181   2.737  0.1472 -0.1040 -1.5225
 1560SOL     hw 6239   1.382   6.238   2.626 -2.3033 -2.4468 -0.9433
 1560SOL     vw 6240   1.392   6.214   2.709 -0.3064 -0.1564 -0.4154
 1561SOL     ow 6241   2.571   3.287   1.927 -0.0226  0.4514 -0.6552
 1561SOL     hw 6242   2.593   3.216   1.988 -1.3470  1.7321  1.4322
 1561SOL     hw 6243   2.495   3.254   1.878 -0.9749  0.5626  0.6848
 1561SOL     vw 6244   2.564   3.273   1.929 -0.3231  0.6350 -0.2029
 1562SOL     ow 6245   6.028   5.998   1.338  0.1959  0.7558 -0.2961
 1562SOL     hw 6246   5.968   5.963   1.272 -0.2802  1.2554 -0.1328
 1562SOL     hw 6247   5.976   6.063   1.385 -0.8013 -2.2278  3.1547
 1562SOL     vw 6248   6.013   6.002   1.335  0.0014  0.4280  0.1808
 1563SOL     ow 6249   7.516   4.493   1.618 -0.3523 -0.1148  0.5475
 1563SOL     hw 6250   7.598   4.467   1.576 -0.0113  0.3691  0.8998
 1563SOL     hw 6251   7.531   4.583   1.647 -0.9817 -0.0483  0.6842
 1563SOL     vw 6252   7.529   4.501   1.617 -0.3905 -0.0420  0.6121
 1564SOL     ow 6253   6.822   6.805   0.551  0.0709  0.6690 -0.1349
 1564SOL     hw 6254   6.901   6.751   0.552  0.5657  1.3272 -1.2863
 1564SOL     hw 6255   6.770   6.770   0.479 -0.8833  0.0005  0.8532
 1564SOL     vw 6256   6.826   6.794   0.541  0.0103  0.6676 -0.1565
 1565SOL     ow 6257   4.701   2.360   5.172  0.2466  0.3069 -0.2847
 1565SOL     hw 6258   4.608   2.381   5.169 -0.2041 -1.5219 -0.3793
 1565SOL     hw 6259   4.706   2.279   5.223  1.6808 -0.1319 -1.0617
 1565SOL     vw 6260   4.689   2.352   5.179  0.3762  0.0077 -0.3998
 1566SOL     ow 6261   0.975   1.118   2.701  0.3216  0.0071  0.9403
 1566SOL     hw 6262   0.932   1.033   2.690 -2.8402  1.5710  0.2940
 1566SOL     hw 6263   0.966   1.161   2.616  0.4161  1.5884  1.7001
 1566SOL     vw 6264   0.968   1.112   2.689 -0.0831  0.4221  0.9553
 1567SOL     ow 6265   4.116   0.367   4.485 -0.3798 -0.3739 -0.4027
 1567SOL     hw 6266   4.122   0.412   4.569  0.9402  0.2610 -0.8073
 1567SOL     hw 6267   4.143   0.432   4.420 -2.4985 -0.4839 -1.4885
 1567SOL     vw 6268   4.120   0.381   4.488 -0.4854 -0.3046 -0.5994
 1568SOL     ow 6269   4.505   7.094   6.338 -0.0847  0.0344  0.3221
 1568SOL     hw 6270   4.420   7.093   6.382 -0.2318 -0.4287  0.0318
 1568SOL     hw 6271   4.566   7.063   6.404 -0.2105 -0.0632  0.3941
 1568SOL     vw 6272   4.502   7.089   6.352 -0.1206 -0.0396  0.2933
 1569SOL     ow 6273   3.425   5.372   0.325  0.6512 -0.1427 -0.5151
 1569SOL     hw 6274   3.350   5.345   0.273 -1.1610  0.3483  1.6536
 1569SOL     hw 6275   3.399   5.456   0.364  2.4797  0.2355  0.0396
 1569SOL     vw 6276   3.412   5.379   0.323  0.6533 -0.0277 -0.1558
 1570SOL     ow 6277   0.069   2.658   3.937  0.0412 -0.1458  0.3351
 1570SOL     hw 6278   0.075   2.565   3.916  0.9212  0.1374 -0.7633
 1570SOL     hw 6279   0.108   2.702   3.862  0.4858  1.0697  1.2480
 1570SOL     vw 6280   0.075   2.651   3.924  0.2160  0.0519  0.3107
 1571SOL     ow 6281   5.591   4.077   3.790 -0.1792 -0.1423  0.4615
 1571SOL     hw 6282   5.640   4.111   3.864  2.4618 -0.1202 -1.1677
 1571SOL     hw 6283   5.547   4.154   3.753  1.2113  0.5010  0.0897
 1571SOL     vw 6284   5.591   4.092   3.795  0.3526 -0.0544  0.1975
 1572SOL     ow 6285   1.402   3.052   6.432  0.1374 -0.2014 -0.3619
 1572SOL     hw 6286   1.319   3.092   6.457  0.7655  2.3995 -1.9669
 1572SOL     hw 6287   1.429   3.002   6.510 -2.7317 -0.9481  0.2821
 1572SOL     vw 6288   1.395   3.051   6.446 -0.1583  0.0432 -0.4890
 1573SOL     ow 6289   4.222   1.452   1.711 -0.2288 -0.4669 -0.4670
 1573SOL     hw 6290   4.208   1.359   1.692  0.7801 -1.0930  1.5569
 1573SOL     hw 6291   4.292   1.478   1.653 -1.0538 -0.7373 -1.6130
 1573SOL     vw 6292   4.229   1.443   1.701 -0.2046 -0.5852 -0.3511
 1574SOL     ow 6293   2.955   4.399   1.726  0.8562  0.0587 -0.2624
 1574SOL     hw 6294   2.908   4.320   1.699 -0.7470  0.4296  1.3274
 1574SOL     hw 6295   2.945   4.403   1.821  0.0956  2.6626 -0.3723
 1574SOL     vw 6296   2.948   4.389   1.735  0.5444  0.4513 -0.0672
 1575SOL     ow 6297   0.470   4.544   1.282  0.0194  0.1139  0.4923
 1575SOL     hw 6298   0.548   4.494   1.307  0.9140  0.3947 -1.5893
 1575SOL     hw 6299   0.470   4.543   1.187 -1.9726  1.0152  0.4347
 1575SOL     vw 6300   0.480   4.537   1.273 -0.1254  0.2697  0.2100
 1576SOL     ow 6301   6.098   2.523   3.411 -0.5465 -0.2455  0.4499
 1576SOL     hw 6302   6.140   2.559   3.490  1.5532  0.0834 -0.7539
 1576SOL     hw 6303   6.098   2.596   3.349  0.5510 -1.3157 -0.8416
 1576SOL     vw 6304   6.103   2.538   3.413 -0.1247 -0.3432  0.1206
 1577SOL     ow 6305   1.391   2.020   4.909 -0.4177  0.8346  0.9662
 1577SOL     hw 6306   1.300   2.025   4.938 -0.5490 -1.4132  1.0968
 1577SOL     hw 6307   1.424   1.938   4.945  1.3221  1.0150 -0.0751
 1577SOL     vw 6308   1.383   2.010   4.918 -0.2055  0.5618  0.8459
 1578SOL     ow 6309   5.594   2.774   7.324  0.2214 -0.2224 -0.3140
 1578SOL     hw 6310   5.651   2.748   7.396 -2.8078 -2.1483  1.5932
 1578SOL     hw 6311   5.611   2.709   7.256  0.3124 -0.7416  0.2003
 1578SOL     vw 6312   5.604   2.762   7.324 -0.1664 -0.5450  0.0057
 1579SOL     ow 6313   3.982   1.219   5.483 -0.2230 -0.3243  0.0437
 1579SOL     hw 6314   3.942   1.146   5.529 -1.0484  0.9108  1.3928
 1579SOL     hw 6315   3.939   1.219   5.397 -1.8414 -0.1471  0.8073
 1579SOL     vw 6316   3.971   1.210   5.478 -0.5454 -0.1379  0.3223
 1580SOL     ow 6317   2.892   5.991   2.148  0.4132 -0.0184  0.0608
 1580SOL     hw 6318   2.909   6.085   2.159 -2.2938  0.4857  0.4916
 1580SOL     hw 6319   2.945   5.966   2.072  1.9213  1.5950  0.5072
 1580SOL     vw 6320   2.902   6.000   2.140  0.2551  0.2608  0.1765
 1581SOL     ow 6321   2.538   2.386   6.655  0.2918  0.1624  0.2719
 1581SOL     hw 6322   2.476   2.313   6.641 -0.0082  0.4025  0.3296
 1581SOL     hw 6323   2.536   2.435   6.573 -1.0603  1.2625  0.9178
 1581SOL     vw 6324   2.529   2.383   6.642  0.0738  0.3392  0.3648
 1582SOL     ow 6325   0.370   4.487   0.572 -0.8203 -0.3380 -0.4437
 1582SOL     hw 6326   0.384   4.581   0.583  0.2872 -0.5699  0.2773
 1582SOL     hw 6327   0.432   4.461   0.504 -1.2549 -0.5126 -0.7742
 1582SOL     vw 6328   0.380   4.496   0.565 -0.7315 -0.3915 -0.3922
 1583SOL     ow 6329   0.050   3.528   3.972 -0.2613  0.7366 -0.6193
 1583SOL     hw 6330   0.107   3.452   3.982 -0.2364  0.5378 -2.0833
 1583SOL     hw 6331   0.012   3.541   4.059 -1.2194 -1.7205 -0.5926
 1583SOL     vw 6332   0.052   3.520   3.985 -0.3844  0.3861 -0.8090
 1584SOL     ow 6333   7.325   3.959   3.854 -0.5249  0.3062  0.5048
 1584SOL     hw 6334   7.410   3.985   3.821 -0.2861  1.4571  1.9315
 1584SOL     hw 6335   7.340   3.874   3.895 -0.0699  0.5037  0.7454
 1584SOL     vw 6336   7.338   3.951   3.855 -0.4332  0.4840  0.7248
 1585SOL     ow 6337   0.898   4.933   6.242  0.4739 -0.0381  0.6843
 1585SOL     hw 6338   0.970   4.926   6.304  1.3511 -1.1476 -0.4039
 1585SOL     hw 6339   0.819   4.934   6.296  1.2403 -0.2309  1.8363
 1585SOL     vw 6340   0.897   4.932   6.257  0.6908 -0.2096  0.6926
 1586SOL     ow 6341   5.661   4.095   2.108 -0.7358 -0.1391 -0.1821
 1586SOL     hw 6342   5.607   4.113   2.185 -0.0101 -0.1930  0.3610
 1586SOL     hw 6343   5.744   4.063   2.145  0.2870  1.5508 -0.9106
 1586SOL     vw 6344   5.665   4.093   2.123 -0.5052  0.0768 -0.2065
 1587SOL     ow 6345   0.470   0.940   5.420  0.8453  0.2179  0.1611
 1587SOL     hw 6346   0.458   1.023   5.466 -1.3755 -0.4542  0.9175
 1587SOL     hw 6347   0.531   0.961   5.349  1.5471  2.1151  1.2444
 1587SOL     vw 6348   0.476   0.954   5.416  0.6449  0.3795  0.4039
 1588SOL     ow 6349   0.753   0.277   1.935  0.3659 -0.5864  0.5125
 1588SOL     hw 6350   0.702   0.341   1.984 -0.0896 -2.4787  2.6471
 1588SOL     hw 6351   0.776   0.210   1.999  1.6147 -2.1224 -1.4222
 1588SOL     vw 6352   0.749   0.277   1.950  0.4705 -1.0387  0.5390
 1589SOL     ow 6353   3.504   5.853   1.988 -0.0760 -0.4969 -0.6991
 1589SOL     hw 6354   3.496   5.924   1.924  1.4104 -0.0327 -0.4140
 1589SOL     hw 6355   3.453   5.884   2.064 -1.8068 -1.0313 -1.5798
 1589SOL     vw 6356   3.496   5.866   1.990 -0.1084 -0.5059 -0.7776
 1590SOL     ow 6357   5.939   1.227   2.474 -0.1528  0.3858  0.3032
 1590SOL     hw 6358   5.883   1.241   2.397 -0.9734  0.5081  0.9038
 1590SOL     hw 6359   5.897   1.278   2.543 -1.7687 -2.8314  1.9156
 1590SOL     vw 6360   5.926   1.236   2.473 -0.4742 -0.0225  0.5952
 1591SOL     ow 6361   6.633   6.293   4.164 -0.2712 -0.4592  0.3646
 1591SOL     hw 6362   6.636   6.299   4.068  0.8814 -1.4165  0.3114
 1591SOL     hw 6363   6.668   6.206   4.183 -2.1547 -0.9944  1.6011
 1591SOL     vw 6364   6.638   6.282   4.154 -0.3674 -0.6561  0.5207
 1592SOL     ow 6365   6.088   2.906   2.229  0.0460  0.5804 -0.0578
 1592SOL     hw 6366   6.136   2.824   2.219  1.0536  1.2118 -0.4584
 1592SOL     hw 6367   6.040   2.895   2.312 -0.3437 -0.6536 -0.4313
 1592SOL     vw 6368   6.088   2.894   2.239  0.1273  0.5009 -0.1600
 1593SOL     ow 6369   2.031   5.838   1.111  0.4429  0.8883 -0.1998
 1593SOL     hw 6370   1.979   5.917   1.101  1.2110  1.5137  0.5730
 1593SOL     hw 6371   2.018   5.811   1.202  0.6629  0.4738 -0.2846
 1593SOL     vw 6372   2.023   5.845   1.121  0.5733  0.9160 -0.1091
 1594SOL     ow 6373   4.865   3.402   0.319  0.9782  0.4435  0.3318
 1594SOL     hw 6374   4.883   3.326   0.374 -0.1177 -0.3481 -0.3391
 1594SOL     hw 6375   4.839   3.364   0.234  0.6751  1.5667 -0.0951
 1594SOL     vw 6376   4.864   3.387   0.315  0.7939  0.4873  0.1870
 1595SOL     ow 6377   4.804   6.062   1.553 -0.0749 -0.6495 -0.1283
 1595SOL     hw 6378   4.733   6.021   1.602  1.2666  0.0191  2.5523
 1595SOL     hw 6379   4.860   5.989   1.526  0.0413 -0.9209  0.8239
 1595SOL     vw 6380   4.802   6.047   1.556  0.1175 -0.5970  0.3510
 1596SOL     ow 6381   5.049   6.493   6.783  0.6660  0.1775  0.6569
 1596SOL     hw 6382   5.084   6.582   6.775  2.4150 -0.6515 -2.8289
 1596SOL     hw 6383   5.125   6.441   6.810  0.1995 -0.5747  0.5242
 1596SOL     vw 6384   5.064   6.498   6.786  0.8354 -0.0315  0.1795
 1597SOL     ow 6385   0.845   3.520   1.500 -0.1239 -0.0242 -0.4493
 1597SOL     hw 6386   0.758   3.488   1.479  0.5076 -1.2884 -1.2680
 1597SOL     hw 6387   0.894   3.512   1.418  1.4296 -1.7672  0.5636
 1597SOL     vw 6388   0.840   3.514   1.487  0.1644 -0.4209 -0.4237
 1598SOL     ow 6389   4.622   6.123   0.830 -0.8151 -0.3556 -0.4539
 1598SOL     hw 6390   4.668   6.139   0.747  0.3379  2.1393  0.5711
 1598SOL     hw 6391   4.684   6.153   0.897 -2.4910 -0.4689  1.2070
 1598SOL     vw 6392   4.636   6.129   0.828 -0.8841 -0.0412 -0.0995
 1599SOL     ow 6393   6.606   2.572   6.440  0.0622 -0.6259  0.5046
 1599SOL     hw 6394   6.682   2.514   6.434  1.0735  0.5253  1.7634
 1599SOL     hw 6395   6.540   2.521   6.488  0.2129 -1.4278 -0.1155
 1599SOL     vw 6396   6.607   2.557   6.445  0.2153 -0.5797  0.5887
 1600SOL     ow 6397   0.294   5.908   1.637  0.8382  0.3975  0.3720
 1600SOL     hw 6398   0.257   5.988   1.675 -0.0329 -0.4450  1.3977
 1600SOL     hw 6399   0.217   5.854   1.617  1.4441 -0.7035  0.9287
 1600SOL     vw 6400   0.279   5.912   1.640  0.8032  0.1407  0.5808
 1601SOL     ow 6401   6.280   4.751   0.921  0.1215 -0.1831  0.7737
 1601SOL     hw 6402   6.367   4.735   0.885 -0.3800  0.5355 -0.8751
 1601SOL     hw 6403   6.296   4.800   1.002  1.2712 -1.0643  1.0978
 1601SOL     vw 6404   6.293   4.755   0.927  0.2072 -0.2046  0.5989
 1602SOL     ow 6405   4.707   7.116   0.479  0.3770 -0.4917  0.1653
 1602SOL     hw 6406   4.739   7.166   0.553 -0.0079 -0.3034  0.2076
 1602SOL     hw 6407   4.738   7.027   0.494  0.4318 -0.4202  0.4710
 1602SOL     vw 6408   4.715   7.111   0.491  0.3333 -0.4573  0.2113
 1603SOL     ow 6409   2.241   5.889   1.382 -0.0436 -0.0733 -0.1880
 1603SOL     hw 6410   2.308   5.828   1.414 -0.6539 -0.6540  0.0272
 1603SOL     hw 6411   2.285   5.942   1.316  0.3961 -1.0464 -0.6882
 1603SOL     vw 6412   2.255   5.888   1.378 -0.0662 -0.2782 -0.2256
 1604SOL     ow 6413   2.187   2.841   0.722  0.1730  0.3399 -0.4480
 1604SOL     hw 6414   2.183   2.921   0.671  1.7620  0.6770 -0.1105
 1604SOL     hw 6415   2.209   2.773   0.658  0.3958  0.4582 -0.5004
 1604SOL     vw 6416   2.189   2.843   0.707  0.4120  0.4001 -0.4104
 1605SOL     ow 6417   2.179   0.606   5.882 -0.0045 -0.0847 -0.1480
 1605SOL     hw 6418   2.239   0.650   5.822  0.5970  1.8232  1.7136
 1605SOL     hw 6419   2.233   0.542   5.928  0.1305  0.2301  0.1305
 1605SOL     vw 6420   2.194   0.603   5.880  0.0926  0.2085  0.1342
 1606SOL     ow 6421   2.737   4.656   7.487  0.3488 -0.0751 -0.7377
 1606SOL     hw 6422   2.754   4.589   7.420 -0.0359  1.0467 -1.9926
 1606SOL     hw 6423   2.643   4.648   7.506  0.4781 -0.4647 -0.2219
 1606SOL     vw 6424   2.727   4.646   7.481  0.3151  0.0215 -0.8352
 1607SOL     ow 6425   5.234   4.936   3.695  0.4270  0.1176  0.5047
 1607SOL     hw 6426   5.258   5.024   3.665 -0.1183  0.4767  1.0985
 1607SOL     hw 6427   5.249   4.938   3.789  0.2362 -0.3667  0.5456
 1607SOL     vw 6428   5.239   4.948   3.704  0.3300  0.1011  0.5883
 1608SOL     ow 6429   6.091   7.135   5.427 -0.3482 -0.6172  0.8632
 1608SOL     hw 6430   6.138   7.114   5.508  0.3183 -0.5299  0.5061
 1608SOL     hw 6431   6.004   7.164   5.456  0.6951  1.8730  1.7418
 1608SOL     vw 6432   6.085   7.136   5.441 -0.1225 -0.2770  0.9322
 1609SOL     ow 6433   6.879   4.104   0.267  0.4172  0.1865 -0.1327
 1609SOL     hw 6434   6.900   4.012   0.253  0.0465 -0.0480  0.8002
 1609SOL     hw 6435   6.961   4.150   0.253  0.2535 -0.0675 -2.3659
 1609SOL     vw 6436   6.892   4.098   0.263  0.3469  0.1221 -0.3043
 1610SOL     ow 6437   0.433   1.511   1.369  0.0763  0.4569 -0.0174
 1610SOL     hw 6438   0.431   1.584   1.431 -0.2085 -1.5684  2.5399
 1610SOL     hw 6439   0.389   1.439   1.415  0.8647 -1.5304 -2.1633
 1610SOL     vw 6440   0.427   1.511   1.383  0.1427 -0.0726  0.0368
 1611SOL     ow 6441   2.664   5.171   1.199  0.2511 -0.1069  0.6218
 1611SOL     hw 6442   2.714   5.204   1.274  0.9371 -1.3052  0.7326
 1611SOL     hw 6443   2.651   5.078   1.220  2.0065 -0.9225 -1.5344
 1611SOL     vw 6444   2.669   5.163   1.212  0.5732 -0.3726  0.3519
 1612SOL     ow 6445   1.668   6.548   1.985  0.1355  0.8118 -0.8205
 1612SOL     hw 6446   1.602   6.611   2.015 -1.5427 -0.9103 -0.7644
 1612SOL     hw 6447   1.733   6.547   2.056 -1.4529  0.1514  0.6882
 1612SOL     vw 6448   1.668   6.556   1.998 -0.2955  0.4976 -0.6140
 1613SOL     ow 6449   3.644   2.593   5.271  0.7685  0.6478 -0.1468
 1613SOL     hw 6450   3.693   2.675   5.271  2.3088 -0.2000  1.5772
 1613SOL     hw 6451   3.687   2.540   5.204  0.6544  0.7615 -0.3106
 1613SOL     vw 6452   3.656   2.597   5.263  0.9567  0.5510  0.0591
 1614SOL     ow 6453   6.906   0.656   2.408 -0.5977  0.3216  0.1266
 1614SOL     hw 6454   6.856   0.577   2.389  0.0948 -0.1449  0.2319
 1614SOL     hw 6455   6.897   0.709   2.328  1.3609 -1.1340 -1.1496
 1614SOL     vw 6456   6.898   0.653   2.395 -0.2480  0.0680 -0.0278
 1615SOL     ow 6457   4.798   4.481   5.534  0.0872 -0.7866 -0.8426
 1615SOL     hw 6458   4.743   4.502   5.459 -0.2724 -0.4670 -0.4949
 1615SOL     hw 6459   4.882   4.455   5.496  0.4420  0.9153 -1.3167
 1615SOL     vw 6460   4.802   4.480   5.519  0.0865 -0.5200 -0.8593
 1616SOL     ow 6461   4.692   1.733   1.001  0.7034 -0.0399 -0.0802
 1616SOL     hw 6462   4.682   1.652   1.051  0.2413  0.1347  0.1200
 1616SOL     hw 6463   4.760   1.714   0.937 -0.6882 -1.2095 -1.2927
 1616SOL     vw 6464   4.700   1.720   0.999  0.4590 -0.1711 -0.2138
 1617SOL     ow 6465   7.351   1.035   0.946  0.0671 -0.2165  0.0374
 1617SOL     hw 6466   7.340   1.111   1.002 -1.1342 -1.0103  0.9342
 1617SOL     hw 6467   7.414   1.062   0.879  0.6578  1.1187  1.1082
 1617SOL     vw 6468   7.358   1.048   0.944 -0.0136 -0.1451  0.2970
 1618SOL     ow 6469   3.785   7.297   7.325 -0.4167  0.1438  0.5013
 1618SOL     hw 6470   3.777   7.221   7.267  0.9103  1.9417 -2.2565
 1618SOL     hw 6471   3.698   7.307   7.363 -1.9760 -0.1424 -2.6266
 1618SOL     vw 6472   3.773   7.288   7.322 -0.4474  0.3433 -0.2754
 1619SOL     ow 6473   2.209   2.562   5.768 -0.1222 -0.6784 -0.3425
 1619SOL     hw 6474   2.119   2.570   5.799 -0.1024  0.9447 -0.6295
 1619SOL     hw 6475   2.225   2.643   5.719  2.9537  1.3350  3.4496
 1619SOL     vw 6476   2.199   2.574   5.765  0.2863 -0.1987  0.1199
 1620SOL     ow 6477   1.370   7.270   1.008  0.2102  0.2716  0.2087
 1620SOL     hw 6478   1.465   7.264   0.994 -0.1376 -0.6481 -2.1153
 1620SOL     hw 6479   1.342   7.179   1.015 -0.5611  0.5322  0.5645
 1620SOL     vw 6480   1.379   7.257   1.007  0.0626  0.1848 -0.0509
 1621SOL     ow 6481   1.754   1.454   0.405 -0.1958 -0.1730  0.0632
 1621SOL     hw 6482   1.661   1.465   0.384 -0.7136  1.3387  2.5863
 1621SOL     hw 6483   1.792   1.541   0.391  0.4337 -0.3355  0.7005
 1621SOL     vw 6484   1.747   1.467   0.401 -0.1811  0.0051  0.4802
 1622SOL     ow 6485   1.553   1.989   1.219 -0.2350 -0.2534 -0.2675
 1622SOL     hw 6486   1.521   1.978   1.130 -0.8450  0.9489 -0.2213
 1622SOL     hw 6487   1.506   2.065   1.252  2.1292  1.1925  0.0410
 1622SOL     vw 6488   1.543   1.998   1.212 -0.0036  0.0960 -0.2207
 1623SOL     ow 6489   4.518   6.331   3.561 -0.4292  0.2447 -0.0857
 1623SOL     hw 6490   4.527   6.236   3.574 -0.6010  0.0180 -1.4007
 1623SOL     hw 6491   4.425   6.349   3.576  0.0452  0.6911  2.7466
 1623SOL     vw 6492   4.507   6.321   3.565 -0.3893  0.2737  0.1146
 1624SOL     ow 6493   1.693   5.437   5.953  0.4706  0.0709  0.2223
 1624SOL     hw 6494   1.607   5.401   5.973  0.9315 -1.5446 -0.5016
 1624SOL     hw 6495   1.697   5.520   6.000 -0.8256 -0.6371  1.6357
 1624SOL     vw 6496   1.682   5.443   5.962  0.3604 -0.2356  0.3133
 1625SOL     ow 6497   0.692   2.435   0.673 -0.2008  0.1540 -0.4234
 1625SOL     hw 6498   0.692   2.435   0.768 -0.1124 -0.5171 -0.4170
 1625SOL     hw 6499   0.624   2.497   0.649 -0.7699 -0.2533  0.0887
 1625SOL     vw 6500   0.683   2.443   0.682 -0.2642  0.0117 -0.3550
 1626SOL     ow 6501   4.295   6.454   0.860  0.0406  0.0932 -0.3915
 1626SOL     hw 6502   4.387   6.466   0.884 -0.1000 -1.2798  0.9888
 1626SOL     hw 6503   4.294   6.372   0.811 -0.5250 -0.2860  0.2321
 1626SOL     vw 6504   4.307   6.445   0.857 -0.0525 -0.1380 -0.1271
 1627SOL     ow 6505   5.784   7.398   4.202 -0.2995 -0.5701  0.0989
 1627SOL     hw 6506   5.722   7.462   4.167  0.3347 -0.5205 -0.9699
 1627SOL     hw 6507   5.761   7.390   4.294 -0.4454  1.1176  0.2312
 1627SOL     vw 6508   5.773   7.405   4.210 -0.2348 -0.3407 -0.0246
 1628SOL     ow 6509   3.658   5.504   6.799  0.3275  0.2080 -0.1280
 1628SOL     hw 6510   3.718   5.564   6.844 -1.0469  0.2196  1.8316
 1628SOL     hw 6511   3.688   5.416   6.825 -0.0196  0.1879  0.2101
 1628SOL     vw 6512   3.670   5.500   6.809  0.1001  0.2069  0.1752
 1629SOL     ow 6513   2.915   6.966   7.011  0.1224 -0.1649  0.0248
 1629SOL     hw 6514   2.907   6.910   7.088  0.1065  1.0249  0.9285
 1629SOL     hw 6515   2.987   6.928   6.960 -0.8963 -1.8811 -0.2002
 1629SOL     vw 6516   2.924   6.954   7.014 -0.0142 -0.2341  0.1144
 1630SOL     ow 6517   0.528   3.952   5.631  0.8388 -0.6149 -0.4053
 1630SOL     hw 6518   0.508   4.037   5.671  2.0535 -0.2899 -0.4672
 1630SOL     hw 6519   0.525   3.968   5.537  1.9849 -0.4038 -0.4173
 1630SOL     vw 6520   0.525   3.965   5.624  1.1503 -0.5443 -0.4153
 1631SOL     ow 6521   1.857   7.528   4.703  0.1531  0.0395  0.3257
 1631SOL     hw 6522   1.949   7.511   4.682 -0.0680  0.9386 -1.5464
 1631SOL     hw 6523   1.819   7.441   4.715  1.0990 -0.3680  0.5173
 1631SOL     vw 6524   1.864   7.514   4.702  0.2488  0.1043  0.1042
 1632SOL     ow 6525   5.384   6.249   4.714 -0.2776  0.7574  0.1606
 1632SOL     hw 6526   5.299   6.226   4.751 -0.2988 -1.5351 -1.1450
 1632SOL     hw 6527   5.415   6.168   4.673  2.5891  1.4890  0.6643
 1632SOL     vw 6528   5.377   6.235   4.714  0.0975  0.5512  0.0548
 1633SOL     ow 6529   7.264   3.815   0.179  0.3764 -0.4671  0.2479
 1633SOL     hw 6530   7.214   3.868   0.116 -0.0753 -1.3748 -0.1857
 1633SOL     hw 6531   7.323   3.877   0.222 -0.4755  0.4723  0.1058
 1633SOL     vw 6532   7.265   3.830   0.176  0.2046 -0.4630  0.1719
 1634SOL     ow 6533   4.413   1.501   1.547  0.7938  0.1336  0.2225
 1634SOL     hw 6534   4.375   1.559   1.481 -0.6121  0.8402  1.6027
 1634SOL     hw 6535   4.432   1.420   1.499 -0.4758  0.5097 -0.9888
 1634SOL     vw 6536   4.410   1.498   1.532  0.4408  0.2764  0.2449
 1635SOL     ow 6537   1.002   2.385   0.814 -0.1901  0.5187 -0.7565
 1635SOL     hw 6538   0.979   2.339   0.733 -0.5171  0.0514 -0.3986
 1635SOL     hw 6539   1.046   2.465   0.784 -0.4607  0.4324 -1.4005
 1635SOL     vw 6540   1.005   2.390   0.799 -0.2689  0.4457 -0.7942
 1636SOL     ow 6541   2.026   6.063   1.741 -0.1958  0.2520  0.2186
 1636SOL     hw 6542   1.962   5.991   1.734 -1.5571  1.2583  1.6345
 1636SOL     hw 6543   2.083   6.037   1.813 -0.7251  0.5729  0.7709
 1636SOL     vw 6544   2.025   6.050   1.750 -0.4452  0.4270  0.4783
 1637SOL     ow 6545   1.086   1.938   2.094 -0.5882 -0.1656 -0.3302
 1637SOL     hw 6546   1.089   1.894   2.180  0.4084  1.2813  0.4158
 1637SOL     hw 6547   0.996   1.927   2.065 -0.5687 -2.0489  0.1481
 1637SOL     vw 6548   1.075   1.931   2.102 -0.4541 -0.2232 -0.1686
 1638SOL     ow 6549   0.806   2.724   0.915  0.1584 -0.6242  0.7092
 1638SOL     hw 6550   0.775   2.729   0.824  1.3495  0.9267  0.3407
 1638SOL     hw 6551   0.732   2.755   0.967  0.2393  0.8249  0.0342
 1638SOL     vw 6552   0.792   2.729   0.910  0.3262 -0.2283  0.5715
 1639SOL     ow 6553   6.827   3.496   3.332  0.1033 -0.3568 -0.7765
 1639SOL     hw 6554   6.807   3.445   3.411 -0.6157  0.1441 -0.6253
 1639SOL     hw 6555   6.760   3.564   3.330  2.7604  2.6131  0.7728
 1639SOL     vw 6556   6.816   3.498   3.342  0.3588  0.1011 -0.5519
 1640SOL     ow 6557   2.630   4.481   5.902 -0.1917 -0.0450 -0.3849
 1640SOL     hw 6558   2.596   4.565   5.872  0.4032  0.0075 -0.9370
 1640SOL     hw 6559   2.609   4.478   5.996  0.2864  0.9769 -0.2352
 1640SOL     vw 6560   2.623   4.491   5.911 -0.0501  0.0966 -0.4380
 1641SOL     ow 6561   3.383   1.488   2.368 -0.2946 -0.3905 -0.1752
 1641SOL     hw 6562   3.292   1.508   2.389 -0.3016  0.6943 -1.1330
 1641SOL     hw 6563   3.378   1.411   2.311 -0.5842 -0.5271  0.0323
 1641SOL     vw 6564   3.370   1.481   2.363 -0.3337 -0.2654 -0.2742
 1642SOL     ow 6565   1.985   2.358   3.921  0.1995  0.4854  0.2529
 1642SOL     hw 6566   1.918   2.373   3.988 -0.8098 -0.9716 -0.3847
 1642SOL     hw 6567   2.068   2.369   3.967 -0.4238 -2.1781  2.2468
 1642SOL     vw 6568   1.987   2.361   3.936 -0.0159 -0.0584  0.4319
 1643SOL     ow 6569   7.527   0.552   1.392 -0.4392 -0.0523 -0.3581
 1643SOL     hw 6570   7.544   0.466   1.354 -1.5298 -0.6496  0.4597
 1643SOL     hw 6571   7.485   0.602   1.322  0.2078 -0.1706 -0.8398
 1643SOL     vw 6572   7.524   0.547   1.378 -0.4977 -0.1467 -0.3138
 1644SOL     ow 6573   4.570   5.816   0.689 -0.0962  0.5095 -0.6975
 1644SOL     hw 6574   4.633   5.767   0.742 -0.2922 -0.3974 -1.2707
 1644SOL     hw 6575   4.614   5.899   0.670 -0.1098  0.9489  1.0328
 1644SOL     vw 6576   4.584   5.820   0.693 -0.1237  0.4478 -0.5448
 1645SOL     ow 6577   0.651   0.456   1.731  0.4672 -0.1218 -0.0567
 1645SOL     hw 6578   0.569   0.452   1.681  0.7493  2.1919 -0.8331
 1645SOL     hw 6579   0.627   0.501   1.812  1.1750  2.1577 -1.0073
 1645SOL     vw 6580   0.637   0.462   1.735  0.5978  0.4842 -0.2845
 1646SOL     ow 6581   1.482   6.144   1.064 -0.0571 -0.3958  0.3883
 1646SOL     hw 6582   1.470   6.198   1.142  1.3472 -0.5788  0.7596
 1646SOL     hw 6583   1.558   6.089   1.084  2.3502  1.7101 -2.2340
 1646SOL     vw 6584   1.491   6.144   1.077  0.4457 -0.1421  0.0914
 1647SOL     ow 6585   7.527   1.356   3.848  0.1114  0.1202  0.6465
 1647SOL     hw 6586   7.497   1.265   3.848  1.1305 -0.2679 -1.0924
 1647SOL     hw 6587   7.460   1.403   3.898 -2.0127 -1.1146 -0.8365
 1647SOL     vw 6588   7.514   1.350   3.854 -0.0343 -0.0939  0.2214
 1648SOL     ow 6589   1.181   0.250   1.057 -0.3434 -0.6052  0.3357
 1648SOL     hw 6590   1.194   0.177   1.117 -0.3768 -1.1120 -0.2561
 1648SOL     hw 6591   1.270   0.283   1.041 -0.2396 -1.0510 -0.0371
 1648SOL     vw 6592   1.194   0.245   1.062 -0.3340 -0.7309  0.2084
 1649SOL     ow 6593   5.038   5.812   5.082 -0.5613 -0.0347  0.4506
 1649SOL     hw 6594   5.065   5.731   5.126 -0.6446 -0.7529 -0.7711
 1649SOL     hw 6595   5.032   5.788   4.989 -2.5170  0.8465  0.2968
 1649SOL     vw 6596   5.041   5.798   5.075 -0.8302 -0.0129  0.2689
 1650SOL     ow 6597   5.317   3.010   5.102 -0.4320  0.0266 -0.6303
 1650SOL     hw 6598   5.396   3.065   5.109 -0.0392 -0.6965  0.9086
 1650SOL     hw 6599   5.290   3.020   5.011  2.1336 -0.6376 -1.5437
 1650SOL     vw 6600   5.324   3.019   5.091 -0.0417 -0.1564 -0.5476
 1651SOL     ow 6601   3.614   5.328   1.780 -0.2211  0.2726  0.1805
 1651SOL     hw 6602   3.643   5.413   1.812  3.2460 -0.1908 -1.2684
 1651SOL     hw 6603   3.591   5.343   1.688 -0.7831 -0.1593  0.2432
 1651SOL     vw 6604   3.615   5.341   1.772  0.1621  0.1545 -0.0024
 1652SOL     ow 6605   1.864   7.444   2.498 -0.1012  0.5141 -0.5797
 1652SOL     hw 6606   1.800   7.516   2.504 -0.8218 -0.1567 -0.0165
 1652SOL     hw 6607   1.859   7.401   2.583  1.1469  0.4673 -0.5133
 1652SOL     vw 6608   1.855   7.448   2.510 -0.0316  0.4196 -0.4966
 1653SOL     ow 6609   4.421   1.894   6.096  0.2554 -0.1864  0.4710
 1653SOL     hw 6610   4.378   1.905   6.011 -0.6593  0.4338  0.9956
 1653SOL     hw 6611   4.495   1.955   6.093 -1.2572  1.8098  1.0433
 1653SOL     vw 6612   4.425   1.904   6.084 -0.0648  0.1588  0.6158
 1654SOL     ow 6613   2.186   6.149   4.961 -0.2236 -0.1208 -0.5520
 1654SOL     hw 6614   2.106   6.116   4.920 -0.3615 -2.3765  1.2967
 1654SOL     hw 6615   2.256   6.099   4.919 -0.0665 -0.1732 -0.2257
 1654SOL     vw 6616   2.184   6.138   4.950 -0.2210 -0.4251 -0.2649
 1655SOL     ow 6617   3.424   1.156   0.806 -0.2353  0.2679  0.8112
 1655SOL     hw 6618   3.355   1.187   0.748 -0.4128  0.9796  1.3812
 1655SOL     hw 6619   3.381   1.090   0.861 -0.8722  1.6813  2.1012
 1655SOL     vw 6620   3.409   1.151   0.806 -0.3427  0.5483  1.0566
 1656SOL     ow 6621   2.824   7.093   1.766 -0.9122 -0.5285  0.3733
 1656SOL     hw 6622   2.802   7.019   1.822  0.2479 -0.5770  0.7962
 1656SOL     hw 6623   2.750   7.100   1.706 -3.2080  0.7919  3.1158
 1656SOL     vw 6624   2.812   7.084   1.765 -1.0619 -0.3607  0.7909
 1657SOL     ow 6625   1.483   2.213   1.885  0.2354  0.7038  0.6161
 1657SOL     hw 6626   1.560   2.156   1.882  1.0675  1.8514 -0.1590
 1657SOL     hw 6627   1.425   2.170   1.948  1.3930 -0.3142  1.0280
 1657SOL     vw 6628   1.485   2.199   1.893  0.4980  0.7209  0.5682
 1658SOL     ow 6629   6.584   1.095   2.573 -0.1872 -0.1800  0.2049
 1658SOL     hw 6630   6.673   1.119   2.598 -0.3415  0.0165  0.5869
 1658SOL     hw 6631   6.566   1.016   2.623 -0.8212  0.7188  1.4482
 1658SOL     vw 6632   6.593   1.088   2.583 -0.2911 -0.0355  0.4191
 1659SOL     ow 6633   5.468   4.654   5.398  0.4652  0.4331 -0.4630
 1659SOL     hw 6634   5.447   4.633   5.489  0.5824  1.2222 -0.2483
 1659SOL     hw 6635   5.389   4.629   5.349  0.7931 -1.0022 -0.3124
 1659SOL     vw 6636   5.454   4.648   5.404  0.5238  0.3474 -0.4148
 1660SOL     ow 6637   3.125   6.847   1.268 -0.1561  0.3124 -0.9296
 1660SOL     hw 6638   3.070   6.790   1.322  0.0467  2.1974  1.4484
 1660SOL     hw 6639   3.168   6.788   1.206 -1.4894 -1.7974  0.0518
 1660SOL     vw 6640   3.124   6.831   1.267 -0.3053  0.2830 -0.4864
 1661SOL     ow 6641   2.624   6.609   0.783  0.5769 -0.0233 -0.4418
 1661SOL     hw 6642   2.615   6.605   0.688  1.8030 -1.8794 -0.5193
 1661SOL     hw 6643   2.577   6.689   0.808  2.2605  1.8641 -2.8310
 1661SOL     vw 6644   2.617   6.619   0.774  0.9607 -0.0191 -0.7673
 1662SOL     ow 6645   1.623   0.451   4.305  0.2596  0.0139 -0.1871
 1662SOL     hw 6646   1.562   0.427   4.236  0.6436  2.1621 -1.3397
 1662SOL     hw 6647   1.644   0.543   4.289  1.9813  0.0025  1.5657
 1662SOL     vw 6648   1.618   0.460   4.294  0.5375  0.2958 -0.1078
 1663SOL     ow 6649   4.566   6.978   7.268 -0.4826  0.0436 -0.3482
 1663SOL     hw 6650   4.642   6.969   7.326  0.6789  1.0230 -1.6422
 1663SOL     hw 6651   4.507   7.037   7.316 -0.7399 -1.1964  0.9312
 1663SOL     vw 6652   4.568   6.985   7.282 -0.3631  0.0091 -0.3500
 1664SOL     ow 6653   6.408   3.283   1.866 -0.2821 -0.5108  0.0258
 1664SOL     hw 6654   6.430   3.210   1.808  1.7024 -0.7361  0.9685
 1664SOL     hw 6655   6.351   3.339   1.814  0.9188 -1.0144 -1.9432
 1664SOL     vw 6656   6.403   3.280   1.852  0.1378 -0.6070 -0.1096
 1665SOL     ow 6657   3.477   2.993   6.686  0.8806 -0.0797  0.4523
 1665SOL     hw 6658   3.539   3.061   6.660  0.7542  0.4661  1.5115
 1665SOL     hw 6659   3.496   2.920   6.628  1.9750  0.3594  0.2237
 1665SOL     vw 6660   3.488   2.992   6.675  1.0083  0.0502  0.5620
 1666SOL     ow 6661   0.142   1.346   4.400  0.3912  0.1171 -0.0686
 1666SOL     hw 6662   0.214   1.401   4.429 -1.1128  1.6739  0.9255
 1666SOL     hw 6663   0.146   1.350   4.304  0.9598  1.0872 -0.0193
 1666SOL     vw 6664   0.152   1.354   4.391  0.2678  0.4506  0.0691
 1667SOL     ow 6665   0.699   0.381   3.944 -0.5332 -0.6362 -0.3610
 1667SOL     hw 6666   0.677   0.307   3.888  2.8672  0.5570 -3.6962
 1667SOL     hw 6667   0.781   0.355   3.986 -0.5435  0.3481  0.2866
 1667SOL     vw 6668   0.707   0.368   3.942 -0.0860 -0.3489 -0.7157
 1668SOL     ow 6669   3.496   6.756   6.171 -0.3202 -0.1862  0.4945
 1668SOL     hw 6670   3.544   6.812   6.111 -1.5234  1.0057  0.6004
 1668SOL     hw 6671   3.414   6.737   6.127 -0.3431 -1.0645  0.8837
 1668SOL     vw 6672   3.492   6.761   6.158 -0.4818 -0.1452  0.5598
 1669SOL     ow 6673   4.013   7.216   7.443  0.0203  0.2773  0.5030
 1669SOL     hw 6674   4.068   7.237   7.367 -1.3131 -0.2520 -0.6417
 1669SOL     hw 6675   3.929   7.257   7.424  0.1457  1.5800  2.5110
 1669SOL     vw 6676   4.010   7.224   7.430 -0.1392  0.3793  0.6168
 1670SOL     ow 6677   5.395   4.939   2.742  0.6123 -0.0019 -0.9763
 1670SOL     hw 6678   5.467   4.876   2.742  1.1580  0.6188 -0.6680
 1670SOL     hw 6679   5.436   5.024   2.731 -0.2081  0.2320 -2.4599
 1670SOL     vw 6680   5.410   4.942   2.741  0.5760  0.1111 -1.1315
 1671SOL     ow 6681   7.458   2.892   4.074 -0.2258  0.0012  0.4811
 1671SOL     hw 6682   7.536   2.937   4.106  0.7635 -1.2109 -0.1108
 1671SOL     hw 6683   7.385   2.944   4.106  0.8066  0.8282  1.5914
 1671SOL     vw 6684   7.459   2.904   4.082  0.0410 -0.0497  0.5491
 1672SOL     ow 6685   6.136   5.873   5.574  0.0162 -0.1983  0.2795
 1672SOL     hw 6686   6.080   5.931   5.524 -0.5468 -0.5296  0.5172
 1672SOL     hw 6687   6.076   5.826   5.633  0.4507 -1.0427  0.0662
 1672SOL     vw 6688   6.121   5.875   5.575 -0.0007 -0.3538  0.2828
 1673SOL     ow 6689   2.155   2.514   1.670  0.5113  0.0267 -0.6747
 1673SOL     hw 6690   2.215   2.587   1.652  0.6792  0.7347  2.2899
 1673SOL     hw 6691   2.109   2.540   1.750 -1.4697 -1.9296 -1.0748
 1673SOL     vw 6692   2.157   2.527   1.678  0.2722 -0.1379 -0.3363
 1674SOL     ow 6693   3.567   4.478   2.028 -0.3689  0.4049  0.5896
 1674SOL     hw 6694   3.626   4.554   2.032  0.5635 -0.2523 -0.1536
 1674SOL     hw 6695   3.613   4.410   2.078 -0.2636 -0.2606 -0.3901
 1674SOL     vw 6696   3.581   4.479   2.035 -0.2321  0.2306  0.3623
 1675SOL     ow 6697   3.910   6.899   5.695  0.5058 -0.1508  0.0359
 1675SOL     hw 6698   3.876   6.960   5.761  0.8820  2.0521 -1.6623
 1675SOL     hw 6699   3.915   6.951   5.615  1.2980 -2.3448 -1.4399
 1675SOL     vw 6700   3.906   6.914   5.693  0.6599 -0.1497 -0.3829
 1676SOL     ow 6701   3.561   5.106   6.029  0.2242 -0.2671 -0.3271
 1676SOL     hw 6702   3.640   5.148   5.995  1.0889 -1.6672 -0.1252
 1676SOL     hw 6703   3.591   5.022   6.063 -1.1564 -0.3100  0.8916
 1676SOL     vw 6704   3.576   5.100   6.029  0.1560 -0.4575 -0.1397
 1677SOL     ow 6705   1.604   0.996   0.407  0.8598 -0.3517  0.0312
 1677SOL     hw 6706   1.520   0.954   0.422  0.4204  0.4059 -0.2785
 1677SOL     hw 6707   1.669   0.927   0.423  0.1338 -1.3384 -1.1649
 1677SOL     vw 6708   1.602   0.982   0.411  0.7061 -0.3819 -0.1675
 1678SOL     ow 6709   0.578   2.056   0.887  0.3222 -0.5074 -0.1275
 1678SOL     hw 6710   0.491   2.075   0.850  0.7877  0.1926 -0.9011
 1678SOL     hw 6711   0.583   1.961   0.888 -0.9748 -0.5896  1.1906
 1678SOL     vw 6712   0.567   2.046   0.882  0.2125 -0.4258 -0.0556
 1679SOL     ow 6713   1.169   6.282   6.445  0.2676  0.1726  0.6943
 1679SOL     hw 6714   1.169   6.190   6.419  3.3511  0.5495 -1.2348
 1679SOL     hw 6715   1.196   6.281   6.537 -0.4130 -0.8392  0.9010
 1679SOL     vw 6716   1.173   6.270   6.454  0.5847  0.0887  0.4668
 1680SOL     ow 6717   3.026   5.785   7.353  0.4913  0.3897 -0.0608
 1680SOL     hw 6718   2.978   5.733   7.290  0.2875  0.6781 -0.1468
 1680SOL     hw 6719   3.059   5.860   7.303 -1.4632  1.7562  0.5840
 1680SOL     vw 6720   3.024   5.788   7.338  0.2065  0.6084  0.0129
 1681SOL     ow 6721   0.279   6.306   5.417 -0.1820 -0.0311  0.1569
 1681SOL     hw 6722   0.331   6.343   5.345 -1.2062 -0.4601 -0.8384
 1681SOL     hw 6723   0.282   6.372   5.486  0.5948  0.5160 -0.3921
 1681SOL     vw 6724   0.286   6.320   5.417 -0.2147 -0.0155 -0.0465
 1682SOL     ow 6725   6.031   5.083   7.445  0.2464 -0.4653  0.5621
 1682SOL     hw 6726   6.099   5.139   7.406  0.7477 -0.6422  1.1683
 1682SOL     hw 6727   6.018   5.118   7.533  1.6368 -2.1528  1.5076
 1682SOL     vw 6728   6.038   5.095   7.451  0.4959 -0.7114  0.7670
 1683SOL     ow 6729   2.094   1.869   3.573  0.1394 -0.5660  0.4666
 1683SOL     hw 6730   2.007   1.871   3.533  0.8038  0.6629 -0.9831
 1683SOL     hw 6731   2.116   1.776   3.577  0.3530 -0.7494 -2.8032
 1683SOL     vw 6732   2.085   1.857   3.569  0.2553 -0.4281 -0.1559
 1684SOL     ow 6733   2.214   4.590   4.417 -0.5080  0.0830  0.1894
 1684SOL     hw 6734   2.259   4.618   4.497  1.7990 -0.7454 -0.7302
 1684SOL     hw 6735   2.259   4.509   4.392 -0.2685  1.0172 -2.6764
 1684SOL     vw 6736   2.226   4.583   4.424 -0.1719  0.0968 -0.3099
 1685SOL     ow 6737   5.785   2.642   2.469 -0.2574  0.2303 -0.1259
 1685SOL     hw 6738   5.812   2.631   2.560  0.6437  0.6477 -0.3351
 1685SOL     hw 6739   5.692   2.619   2.469 -0.3095  0.4003  0.9283
 1685SOL     vw 6740   5.776   2.637   2.481 -0.1452  0.3078 -0.0145
 1686SOL     ow 6741   4.882   6.351   1.459  0.6695  0.0995  0.2625
 1686SOL     hw 6742   4.855   6.441   1.477 -0.4735  0.0866 -1.2631
 1686SOL     hw 6743   4.918   6.353   1.371 -0.8996 -1.2279 -0.4479
 1686SOL     vw 6744   4.883   6.363   1.450  0.3116 -0.0775 -0.0325
 1687SOL     ow 6745   6.304   5.251   2.089  0.1359 -0.2562 -0.1627
 1687SOL     hw 6746   6.369   5.186   2.116 -0.6161 -2.1958 -2.5961
 1687SOL     hw 6747   6.355   5.321   2.048  0.8504 -0.3884  0.4958
 1687SOL     vw 6748   6.319   5.252   2.087  0.1307 -0.5298 -0.3970
 1688SOL     ow 6749   2.963   3.359   0.858  0.0552  0.0614 -0.0481
 1688SOL     hw 6750   2.977   3.424   0.926 -0.4736 -0.7866  0.8889
 1688SOL     hw 6751   2.932   3.281   0.904 -1.1543 -0.2626 -1.3444
 1688SOL     vw 6752   2.961   3.357   0.873 -0.1742 -0.0932 -0.0955
 1689SOL     ow 6753   0.256   1.409   2.532 -0.3650  0.1768 -0.0835
 1689SOL     hw 6754   0.284   1.375   2.618  1.9027  2.7084  0.3061
 1689SOL     hw 6755   0.192   1.477   2.554 -0.6339  0.0527 -0.4858
 1689SOL     vw 6756   0.251   1.414   2.546 -0.1013  0.4945 -0.0852
 1690SOL     ow 6757   3.226   4.585   6.570 -0.8353  0.1252 -0.4268
 1690SOL     hw 6758   3.222   4.618   6.659  1.8847  2.8930 -1.1733
 1690SOL     hw 6759   3.218   4.490   6.580 -0.9091  0.3470  2.6855
 1690SOL     vw 6760   3.224   4.577   6.583 -0.4863  0.5195 -0.1147
 1691SOL     ow 6761   6.258   6.106   5.662  0.1507 -0.1175  0.0031
 1691SOL     hw 6762   6.170   6.082   5.689 -0.6972  0.5738 -1.9614
 1691SOL     hw 6763   6.297   6.147   5.740 -1.4507  0.0571  0.7442
 1691SOL     vw 6764   6.252   6.109   5.676 -0.1726 -0.0031 -0.1585
 1692SOL     ow 6765   5.894   0.015   0.722 -0.3707 -0.3645  0.1883
 1692SOL     hw 6766   5.904   0.053   0.809  1.1263  0.8043 -0.4379
 1692SOL     hw 6767   5.801   0.023   0.702 -0.2010  2.8384  0.2102
 1692SOL     vw 6768   5.883   0.021   0.731 -0.1509  0.2124  0.1085
 1693SOL     ow 6769   7.281   3.985   6.023  0.2412  0.0822  0.3718
 1693SOL     hw 6770   7.229   3.907   6.007  0.6257 -0.3200  1.0113
 1693SOL     hw 6771   7.240   4.026   6.099  0.0181  0.5261  0.0146
 1693SOL     vw 6772   7.269   3.980   6.031  0.2625  0.0877  0.4091
 1694SOL     ow 6773   6.880   4.026   3.957  0.0189 -0.3082 -0.0362
 1694SOL     hw 6774   6.942   4.017   4.029 -0.0680 -0.3818  0.0295
 1694SOL     hw 6775   6.793   4.019   3.998 -0.1068  1.8529  0.1818
 1694SOL     vw 6776   6.876   4.024   3.971 -0.0091 -0.0329  0.0011
 1695SOL     ow 6777   5.696   6.955   7.203 -0.0433 -0.2119 -0.7862
 1695SOL     hw 6778   5.607   6.953   7.237 -0.7566  0.9618 -2.4374
 1695SOL     hw 6779   5.740   7.024   7.254  0.3768 -1.6289  0.8980
 1695SOL     vw 6780   5.690   6.964   7.214 -0.0820 -0.2439 -0.7818
 1696SOL     ow 6781   5.963   5.391   1.819 -0.0081  0.1334 -0.2321
 1696SOL     hw 6782   5.936   5.343   1.741  1.7579  1.2027 -1.5810
 1696SOL     hw 6783   5.901   5.464   1.825  0.2808  0.4673 -1.1047
 1696SOL     vw 6784   5.951   5.394   1.810  0.2632  0.3185 -0.5252
 1697SOL     ow 6785   0.800   4.533   5.856 -0.1515  0.0462  0.9467
 1697SOL     hw 6786   0.894   4.525   5.876  0.3106  4.3173  1.4045
 1697SOL     hw 6787   0.798   4.568   5.767 -1.3613 -0.3413  0.8081
 1697SOL     vw 6788   0.812   4.536   5.847 -0.2502  0.5584  0.9885
 1698SOL     ow 6789   2.817   6.892   4.522 -0.1577  0.2562  0.3989
 1698SOL     hw 6790   2.779   6.941   4.595  1.4197 -0.2438  1.6222
 1698SOL     hw 6791   2.753   6.823   4.504 -1.0632  1.0178  0.5735
 1698SOL     vw 6792   2.803   6.889   4.529 -0.0689  0.2909  0.5832
 1699SOL     ow 6793   6.058   1.977   2.127 -0.1015 -0.1341 -0.1183
 1699SOL     hw 6794   6.092   2.042   2.065 -2.3910  0.6069 -0.6987
 1699SOL     hw 6795   6.003   1.920   2.074 -1.0264 -0.3146  1.0045
 1699SOL     vw 6796   6.055   1.978   2.112 -0.5255 -0.0601 -0.0467
 1700SOL     ow 6797   5.512   2.837   6.633  0.5331 -0.7064 -0.0389
 1700SOL     hw 6798   5.563   2.769   6.677 -1.8226 -2.4709  0.1755
 1700SOL     hw 6799   5.454   2.789   6.574  0.2272  1.3110 -1.4835
 1700SOL     vw 6800   5.511   2.821   6.631  0.1822 -0.6729 -0.2015
 1701SOL     ow 6801   6.661   6.079   6.726 -0.2821 -0.2124  0.3295
 1701SOL     hw 6802   6.751   6.112   6.727 -0.8149  1.3785 -0.5297
 1701SOL     hw 6803   6.669   5.992   6.687  0.7706  0.4155 -0.9640
 1701SOL     vw 6804   6.674   6.072   6.721 -0.2134  0.0801  0.0455
 1702SOL     ow 6805   3.347   2.279   3.112 -0.2199  0.1078 -0.4240
 1702SOL     hw 6806   3.288   2.344   3.150 -1.0630 -1.2691  0.7145
 1702SOL     hw 6807   3.289   2.217   3.067  0.6240  0.5529 -2.2290
 1702SOL     vw 6808   3.332   2.279   3.111 -0.2197 -0.0150 -0.5120
 1703SOL     ow 6809   1.435   0.876   4.160 -0.1484 -0.9132 -0.2944
 1703SOL     hw 6810   1.397   0.962   4.182  0.0367 -1.0234  0.4834
 1703SOL     hw 6811   1.429   0.871   4.065 -3.2971 -1.4510 -0.1742
 1703SOL     vw 6812   1.429   0.887   4.150 -0.5394 -0.9987 -0.1760
 1704SOL     ow 6813   5.221   3.393   1.023  0.5589 -0.0386  0.0180
 1704SOL     hw 6814   5.216   3.377   0.929 -1.4535 -1.2411  0.2670
 1704SOL     hw 6815   5.275   3.321   1.057  1.5999  0.6052 -0.2269
 1704SOL     vw 6816   5.228   3.381   1.015  0.4306 -0.1123  0.0187
 1705SOL     ow 6817   5.810   7.192   7.268 -0.4154 -0.1110  0.1572
 1705SOL     hw 6818   5.889   7.244   7.255 -0.2098 -0.5845 -0.5861
 1705SOL     hw 6819   5.787   7.204   7.360  1.0548 -0.6983  0.6306
 1705SOL     vw 6820   5.817   7.200   7.278 -0.1943 -0.2511  0.1216
 1706SOL     ow 6821   4.076   1.690   1.542  0.3945  0.3066  0.1261
 1706SOL     hw 6822   4.141   1.690   1.472  0.2685  0.9455  0.0030
 1706SOL     hw 6823   4.029   1.773   1.531 -1.3165 -0.6977 -0.6032
 1706SOL     vw 6824   4.078   1.701   1.531  0.1519  0.2584  0.0136
 1707SOL     ow 6825   2.777   3.510   6.116 -0.7288  0.1259  0.5763
 1707SOL     hw 6826   2.838   3.505   6.043  1.1384  0.0351  2.0593
 1707SOL     hw 6827   2.697   3.469   6.083  1.1027 -3.0720 -0.3925
 1707SOL     vw 6828   2.775   3.504   6.102 -0.2408 -0.3079  0.6442
 1708SOL     ow 6829   0.823   0.060   2.077 -0.1760  0.2383 -0.0723
 1708SOL     hw 6830   0.885   0.022   2.015 -0.9691  1.2593 -1.5416
 1708SOL     hw 6831   0.878   0.090   2.150  0.6800 -1.7538  0.1850
 1708SOL     vw 6832   0.839   0.059   2.079 -0.1676  0.1102 -0.2322
 1709SOL     ow 6833   4.190   4.426   7.460  0.1155  0.0138 -0.7458
 1709SOL     hw 6834   4.112   4.422   7.516  0.8203 -1.0078  0.1882
 1709SOL     hw 6835   4.228   4.512   7.478  0.5799 -0.4668  0.7171
 1709SOL     vw 6836   4.184   4.436   7.470  0.2699 -0.1843 -0.4299
 1710SOL     ow 6837   6.820   1.477   2.618  0.4074 -0.2324  0.0831
 1710SOL     hw 6838   6.809   1.420   2.694 -0.3709  0.4954  0.5386
 1710SOL     hw 6839   6.893   1.439   2.569  0.0596 -1.4746  0.4907
 1710SOL     vw 6840   6.828   1.464   2.621  0.2589 -0.3003  0.1969
 1711SOL     ow 6841   1.172   1.736   6.409  0.7763  0.7678 -0.4487
 1711SOL     hw 6842   1.178   1.826   6.377 -1.6104  1.1998  0.1038
 1711SOL     hw 6843   1.089   1.704   6.374  1.1654 -0.9450  0.0889
 1711SOL     vw 6844   1.162   1.743   6.400  0.5128  0.5987 -0.3047
 1712SOL     ow 6845   1.986   5.800   1.388 -0.8348 -0.1000  0.5791
 1712SOL     hw 6846   2.069   5.847   1.389 -0.8461  0.2480 -2.8314
 1712SOL     hw 6847   2.000   5.723   1.443  2.5617 -1.2467 -1.6371
 1712SOL     vw 6848   1.999   5.796   1.395 -0.3882 -0.2050 -0.1632
 1713SOL     ow 6849   5.669   2.035   1.155  0.2956  0.2778  0.5431
 1713SOL     hw 6850   5.643   2.103   1.092  0.1361  0.9835  1.3523
 1713SOL     hw 6851   5.638   1.954   1.116  0.1282  0.7099 -0.2534
 1713SOL     vw 6852   5.662   2.033   1.142  0.2525  0.4280  0.5447
 1714SOL     ow 6853   0.299   0.496   0.581  0.1115 -0.1256 -0.0002
 1714SOL     hw 6854   0.371   0.443   0.547  0.9587 -0.3838  2.0094
 1714SOL     hw 6855   0.342   0.569   0.625 -0.8990  0.2085  0.4745
 1714SOL     vw 6856   0.314   0.498   0.583  0.0899 -0.1156  0.3276
 1715SOL     ow 6857   4.817   4.998   1.954 -0.7000 -0.6012 -1.1586
 1715SOL     hw 6858   4.814   4.978   1.861 -2.5063 -0.2943 -1.1998
 1715SOL     hw 6859   4.728   4.985   1.985 -0.6002  1.2795  0.0988
 1715SOL     vw 6860   4.805   4.994   1.946 -0.9251 -0.3126 -0.9981
 1716SOL     ow 6861   0.768   5.885   1.163  0.1671 -0.2269 -0.3960
 1716SOL     hw 6862   0.794   5.876   1.254  1.6352  0.3012 -0.7337
 1716SOL     hw 6863   0.812   5.812   1.118 -0.5279 -0.4736 -0.6949
 1716SOL     vw 6864   0.777   5.874   1.169  0.2691 -0.1898 -0.4800
 1717SOL     ow 6865   2.050   6.830   2.577 -0.5425 -0.2974  0.0509
 1717SOL     hw 6866   1.970   6.835   2.630 -0.1794  0.2253  0.5770
 1717SOL     hw 6867   2.036   6.893   2.506 -0.0056  0.9475  1.0060
 1717SOL     vw 6868   2.038   6.839   2.575 -0.4238 -0.0641  0.2462
 1718SOL     ow 6869   3.621   1.865   7.131  0.1442 -0.6962  0.5488
 1718SOL     hw 6870   3.630   1.960   7.128 -1.1534 -0.5594  0.2541
 1718SOL     hw 6871   3.575   1.848   7.214  1.8115 -1.2260  1.4127
 1718SOL     vw 6872   3.616   1.875   7.142  0.1929 -0.7481  0.6237
 1719SOL     ow 6873   4.181   1.932   0.701  0.0401 -0.5614  0.0217
 1719SOL     hw 6874   4.171   1.944   0.796 -0.9906 -1.0907 -0.0032
 1719SOL     hw 6875   4.260   1.981   0.679  1.3072 -1.8658  1.4364
 1719SOL     vw 6876   4.190   1.940   0.711  0.0710 -0.8034  0.2050
 1720SOL     ow 6877   3.968   6.690   5.929 -0.0496  0.3324  0.7220
 1720SOL     hw 6878   4.026   6.735   5.991 -0.4485  0.5478  0.9428
 1720SOL     hw 6879   3.939   6.612   5.976 -1.8179  1.4277  1.5285
 1720SOL     vw 6880   3.972   6.686   5.943 -0.3355  0.5052  0.8574
 1721SOL     ow 6881   0.708   3.749   5.517 -0.1779 -0.0156  0.0650
 1721SOL     hw 6882   0.646   3.696   5.466  0.7436 -1.1887  0.1303
 1721SOL     hw 6883   0.743   3.812   5.454  0.5302 -1.0841 -0.6308
 1721SOL     vw 6884   0.704   3.751   5.502  0.0371 -0.3114 -0.0181
 1722SOL     ow 6885   2.472   5.522   3.913 -0.3506 -0.4544  0.5970
 1722SOL     hw 6886   2.567   5.518   3.916 -0.1615  1.0533 -1.3705
 1722SOL     hw 6887   2.451   5.615   3.914 -1.7062 -0.7140 -0.4113
 1722SOL     vw 6888   2.482   5.533   3.914 -0.5044 -0.2897  0.2044
 1723SOL     ow 6889   7.240   0.615   5.134 -0.1140  0.1072 -0.9439
 1723SOL     hw 6890   7.251   0.550   5.204  0.7717  0.7670 -0.4448
 1723SOL     hw 6891   7.250   0.566   5.053  1.0173 -0.3173 -0.5687
 1723SOL     vw 6892   7.243   0.600   5.133  0.1521  0.1383 -0.8283
 1724SOL     ow 6893   7.061   3.305   3.190  0.1317 -0.1415 -0.0922
 1724SOL     hw 6894   7.088   3.254   3.114  0.0843  0.6235 -0.6321
 1724SOL     hw 6895   7.105   3.262   3.264  0.4642 -0.6794 -0.5919
 1724SOL     vw 6896   7.071   3.292   3.190  0.1693 -0.1115 -0.2295
 1725SOL     ow 6897   1.785   2.385   5.867 -0.0077 -0.4065 -0.1369
 1725SOL     hw 6898   1.814   2.311   5.920  0.4912 -0.8202 -0.9556
 1725SOL     hw 6899   1.690   2.389   5.882 -0.0496 -1.2367 -0.1053
 1725SOL     vw 6900   1.776   2.376   5.876  0.0526 -0.5707 -0.2406
 1726SOL     ow 6901   1.681   7.541   3.818 -0.6296  0.2018  0.2109
 1726SOL     hw 6902   1.624   7.509   3.888 -1.8609  0.2330 -0.7270
 1726SOL     hw 6903   1.640   7.623   3.790 -0.1366  0.2066 -0.5125
 1726SOL     vw 6904   1.668   7.547   3.824 -0.7271  0.2065 -0.0083
 1727SOL     ow 6905   1.140   3.975   4.606 -0.3294 -0.4393  0.4740
 1727SOL     hw 6906   1.164   3.897   4.655 -0.4561 -0.0212  1.2214
 1727SOL     hw 6907   1.094   4.030   4.670  1.3289  1.0422  0.4696
 1727SOL     vw 6908   1.137   3.972   4.621 -0.1274 -0.1887  0.5722
 1728SOL     ow 6909   5.347   4.418   4.378 -0.8725  0.3446  0.4589
 1728SOL     hw 6910   5.371   4.397   4.288  0.6858  0.6953  0.7705
 1728SOL     hw 6911   5.256   4.389   4.385 -1.2744  0.9524 -1.4348
 1728SOL     vw 6912   5.338   4.412   4.367 -0.7200  0.4711  0.2501
 1729SOL     ow 6913   6.635   5.237   6.442 -0.1116 -1.1502 -0.5407
 1729SOL     hw 6914   6.568   5.177   6.473 -0.3309 -0.2608  0.7816
 1729SOL     hw 6915   6.596   5.324   6.449  1.5296 -0.4788  1.4739
 1729SOL     vw 6916   6.621   5.240   6.447  0.0761 -0.9446 -0.1001
 1730SOL     ow 6917   3.368   6.298   0.706  0.3578 -0.3940 -0.1504
 1730SOL     hw 6918   3.274   6.316   0.704  0.4503  0.0592 -0.9492
 1730SOL     hw 6919   3.409   6.383   0.692  0.8572 -0.8471 -1.5665
 1730SOL     vw 6920   3.361   6.311   0.704  0.4359 -0.3939 -0.4427
 1731SOL     ow 6921   6.555   1.421   5.342 -0.6431 -0.4473  0.0513
 1731SOL     hw 6922   6.495   1.427   5.416  1.8212  0.8321  2.1012
 1731SOL     hw 6923   6.600   1.337   5.353 -1.0411 -0.7739 -0.6885
 1731SOL     vw 6924   6.553   1.411   5.353 -0.3705 -0.3216  0.2239
 1732SOL     ow 6925   4.152   4.348   4.627  0.3440 -0.2699 -0.4090
 1732SOL     hw 6926   4.174   4.441   4.619  0.7448  0.0398  2.9572
 1732SOL     hw 6927   4.233   4.302   4.601  0.9161  0.4312  0.0893
 1732SOL     vw 6928   4.166   4.354   4.622  0.4725 -0.1366  0.1009
 1733SOL     ow 6929   6.843   6.098   4.232 -0.1971 -0.6025  0.0241
 1733SOL     hw 6930   6.914   6.111   4.169 -1.0461 -0.7635 -1.0110
 1733SOL     hw 6931   6.854   6.168   4.296  1.6187 -1.3641  0.6118
 1733SOL     vw 6932   6.854   6.109   4.232 -0.0694 -0.7243 -0.0348
 1734SOL     ow 6933   0.847   1.854   7.345 -0.2664 -1.0779  0.2203
 1734SOL     hw 6934   0.937   1.877   7.323  0.1918 -1.1224  1.9330
 1734SOL     hw 6935   0.853   1.807   7.428 -1.8292 -1.4851  0.1418
 1734SOL     vw 6936   0.860   1.851   7.353 -0.4121 -1.1375  0.4363
 1735SOL     ow 6937   0.394   0.262   0.499 -0.1065 -0.0572 -0.9254
 1735SOL     hw 6938   0.306   0.224   0.494 -0.1805 -0.1868  0.9525
 1735SOL     hw 6939   0.452   0.187   0.511  0.0280  0.1822 -0.0032
 1735SOL     vw 6940   0.390   0.247   0.500 -0.0985 -0.0427 -0.5560
 1736SOL     ow 6941   4.858   3.294   6.413  0.4714 -0.1448  0.0811
 1736SOL     hw 6942   4.841   3.221   6.473 -1.7502 -0.4062 -0.7886
 1736SOL     hw 6943   4.794   3.360   6.436  0.7214  0.4538 -0.8968
 1736SOL     vw 6944   4.848   3.293   6.424  0.2112 -0.1003 -0.1626
 1737SOL     ow 6945   4.447   5.818   5.789  0.6715 -0.3130 -0.9143
 1737SOL     hw 6946   4.481   5.742   5.836  2.1134  1.2137  0.6230
 1737SOL     hw 6947   4.522   5.851   5.740 -0.0373 -0.0454 -1.8554
 1737SOL     vw 6948   4.461   5.812   5.789  0.7684 -0.0765 -0.8357
 1738SOL     ow 6949   3.404   4.694   1.638 -0.3108 -0.1606  0.1957
 1738SOL     hw 6950   3.414   4.604   1.670  0.5353  0.7363  2.6516
 1738SOL     hw 6951   3.330   4.729   1.688  2.1139  1.8176  2.6987
 1738SOL     vw 6952   3.396   4.687   1.649  0.1208  0.2186  0.8500
 1739SOL     ow 6953   3.567   6.563   5.629  0.2925 -0.4107  0.2086
 1739SOL     hw 6954   3.507   6.490   5.612 -0.0201 -0.1209  0.0556
 1739SOL     hw 6955   3.525   6.639   5.588  0.8949 -0.2555 -0.1302
 1739SOL     vw 6956   3.553   6.563   5.621  0.3308 -0.3519  0.1435
 1740SOL     ow 6957   1.434   1.169   3.619 -0.2344 -0.0653 -0.2003
 1740SOL     hw 6958   1.404   1.216   3.541  0.2467  0.3058 -0.1638
 1740SOL     hw 6959   1.382   1.088   3.619 -2.2068  1.1221  0.5718
 1740SOL     vw 6960   1.423   1.164   3.609 -0.4311  0.1402 -0.0937
 1741SOL     ow 6961   4.487   1.265   1.456  0.1061 -0.2344  0.0873
 1741SOL     hw 6962   4.422   1.200   1.429  0.6408 -0.7076 -0.0710
 1741SOL     hw 6963   4.534   1.287   1.375 -1.2268  1.7071 -0.2561
 1741SOL     vw 6964   4.485   1.259   1.441  0.0007 -0.0407  0.0211
 1742SOL     ow 6965   7.341   0.718   0.955  0.6214  0.0997  0.3196
 1742SOL     hw 6966   7.401   0.687   0.886  0.7027  1.4467 -0.2399
 1742SOL     hw 6967   7.304   0.637   0.992 -1.5329 -0.7160 -3.1365
 1742SOL     vw 6968   7.344   0.703   0.951  0.3479  0.1698 -0.2103
 1743SOL     ow 6969   2.717   6.110   5.155 -0.2997 -0.0991  0.0298
 1743SOL     hw 6970   2.627   6.097   5.125 -1.0137  1.0490  1.5777
 1743SOL     hw 6971   2.757   6.163   5.086 -1.9387  2.5734  0.9872
 1743SOL     vw 6972   2.710   6.115   5.142 -0.6102  0.4051  0.3605
 1744SOL     ow 6973   6.254   2.079   5.753 -0.0757 -0.7850  0.1958
 1744SOL     hw 6974   6.347   2.097   5.737  0.3287 -1.1241  1.9487
 1744SOL     hw 6975   6.235   2.003   5.699  1.1497 -1.7791  1.1150
 1744SOL     vw 6976   6.264   2.072   5.744  0.1392 -0.9609  0.5481
 1745SOL     ow 6977   1.085   1.796   4.650  0.5644  0.6211 -0.1587
 1745SOL     hw 6978   1.166   1.842   4.674  1.3009  0.4715 -2.0917
 1745SOL     hw 6979   1.071   1.821   4.558 -2.4630  1.8552  0.5201
 1745SOL     vw 6980   1.094   1.805   4.641  0.2621  0.7642 -0.3240
 1746SOL     ow 6981   5.249   2.246   2.184  0.4580 -0.0221  0.2605
 1746SOL     hw 6982   5.287   2.327   2.150 -0.2237  0.1030 -0.2240
 1746SOL     hw 6983   5.170   2.232   2.131  0.9845 -1.4331 -0.2173
 1746SOL     vw 6984   5.244   2.255   2.172  0.4377 -0.1917  0.1334
 1747SOL     ow 6985   0.691   7.183   0.157 -0.3780  0.2745  0.4121
 1747SOL     hw 6986   0.713   7.275   0.168  0.2545  0.1768 -0.0060
 1747SOL     hw 6987   0.677   7.173   0.063  0.0810 -0.1691  0.3854
 1747SOL     vw 6988   0.692   7.193   0.146 -0.2340  0.2031  0.3534
 1748SOL     ow 6989   5.913   2.938   2.021  0.2851 -0.7116  0.1707
 1748SOL     hw 6990   5.942   2.983   1.942 -0.2552  1.5591  1.1991
 1748SOL     hw 6991   5.994   2.912   2.066  0.6561 -3.9406 -2.0110
 1748SOL     vw 6992   5.927   2.940   2.017  0.2625 -0.8380  0.0185
 1749SOL     ow 6993   5.871   0.953   5.011 -0.1467  0.3826  0.5683
 1749SOL     hw 6994   5.926   1.028   4.991 -0.0804 -0.0353 -0.9657
 1749SOL     hw 6995   5.783   0.989   5.019 -0.4478  0.4742 -2.0722
 1749SOL     vw 6996   5.866   0.967   5.009 -0.1779  0.3396  0.0174
 1750SOL     ow 6997   2.125   7.533   4.648 -0.3412 -0.2916  0.0980
 1750SOL     hw 6998   2.194   7.467   4.637 -1.2724 -1.0781 -1.3224
 1750SOL     hw 6999   2.137   7.593   4.575  0.7932  1.4809  1.6310
 1750SOL     vw 7000   2.136   7.532   4.637 -0.3144 -0.1614  0.1128
 1751SOL     ow 7001   0.633   4.197   4.376  0.3290 -0.1809 -0.0627
 1751SOL     hw 7002   0.562   4.154   4.423  0.4009 -2.2667 -1.7210
 1751SOL     hw 7003   0.680   4.247   4.443 -0.6494 -1.5249  1.6913
 1751SOL     vw 7004   0.630   4.198   4.391  0.2094 -0.6330 -0.0498
 1752SOL     ow 7005   4.805   1.307   1.938  0.1680 -0.3333 -0.2311
 1752SOL     hw 7006   4.853   1.245   1.993 -0.5399 -2.0314 -1.4623
 1752SOL     hw 7007   4.778   1.377   1.998 -0.8262 -2.2406  1.6575
 1752SOL     vw 7008   4.808   1.308   1.953 -0.0567 -0.8091 -0.1444
 1753SOL     ow 7009   5.246   7.040   5.356  0.3825 -0.2608  0.0130
 1753SOL     hw 7010   5.215   6.949   5.346  0.6633 -0.2504 -1.0983
 1753SOL     hw 7011   5.340   7.035   5.341  0.3817  0.2240 -0.1729
 1753SOL     vw 7012   5.254   7.027   5.353  0.4196 -0.1955 -0.1581
 1754SOL     ow 7013   2.396   7.408   1.258  0.4973  0.3104 -0.1772
 1754SOL     hw 7014   2.367   7.316   1.254 -0.7332  0.6650  0.1526
 1754SOL     hw 7015   2.373   7.436   1.347 -1.0518  1.5282 -0.9211
 1754SOL     vw 7016   2.389   7.399   1.269  0.1305  0.5176 -0.2319
 1755SOL     ow 7017   4.144   0.563   1.615  0.1675 -0.5014 -0.1838
 1755SOL     hw 7018   4.119   0.492   1.557  1.8640 -1.6496  0.4058
 1755SOL     hw 7019   4.186   0.627   1.557 -1.5530  0.1662 -0.7467
 1755SOL     vw 7020   4.146   0.562   1.600  0.1645 -0.5648 -0.1802
 1756SOL     ow 7021   7.343   3.701   6.214 -0.3697  0.1724  0.0989
 1756SOL     hw 7022   7.252   3.693   6.187 -0.4791  0.9858  0.1966
 1756SOL     hw 7023   7.377   3.612   6.212 -0.5957  0.0998 -1.8912
 1756SOL     vw 7024   7.336   3.688   6.210 -0.4141  0.2701 -0.1507
 1757SOL     ow 7025   1.880   0.005   2.241 -0.1348  0.0972 -0.4023
 1757SOL     hw 7026   1.923   0.010   2.156  1.7124 -0.2200  0.4593
 1757SOL     hw 7027   1.799  -0.044   2.225 -0.7861  1.7111 -2.3003
 1757SOL     vw 7028   1.875  -0.001   2.228  0.0229  0.2682 -0.5393
 1758SOL     ow 7029   3.315   0.982   0.980 -0.3423  0.3944  0.7932
 1758SOL     hw 7030   3.273   1.043   1.040  0.2602  1.1916  0.4157
 1758SOL     hw 7031   3.276   0.897   1.002 -2.0181  1.0620  0.5874
 1758SOL     vw 7032   3.304   0.979   0.991 -0.4839  0.5877  0.7163
 1759SOL     ow 7033   3.097   6.320   0.633 -0.0420  0.2870  0.6223
 1759SOL     hw 7034   3.100   6.344   0.541  0.1430  3.1623  1.3010
 1759SOL     hw 7035   3.075   6.401   0.679 -0.2471 -1.0737  3.1193
 1759SOL     vw 7036   3.094   6.334   0.627 -0.0447  0.4869  1.0413
 1760SOL     ow 7037   6.415   3.533   3.926  0.0574 -0.0137  0.2156
 1760SOL     hw 7038   6.484   3.580   3.878  0.3318 -1.3739 -0.7813
 1760SOL     hw 7039   6.463   3.472   3.982 -0.3042 -1.0726 -0.5922
 1760SOL     vw 7040   6.431   3.531   3.927  0.0458 -0.3328 -0.0226
 1761SOL     ow 7041   6.841   5.015   4.208  0.4181 -0.4564  0.0262
 1761SOL     hw 7042   6.905   4.974   4.266  2.1815  1.4707 -0.4313
 1761SOL     hw 7043   6.854   5.109   4.222  0.4258  0.0544 -2.9246
 1761SOL     vw 7044   6.851   5.022   4.218  0.6516 -0.1349 -0.4234
 1762SOL     ow 7045   7.075   6.769   1.620 -0.7585 -0.0719  0.4064
 1762SOL     hw 7046   7.171   6.762   1.620 -0.8177 -2.4887 -1.9362
 1762SOL     hw 7047   7.058   6.863   1.608  1.2880  0.3952  0.7246
 1762SOL     vw 7048   7.086   6.781   1.619 -0.4961 -0.3290  0.1394
 1763SOL     ow 7049   2.245   0.159   6.705  0.2710 -0.3232  0.6809
 1763SOL     hw 7050   2.309   0.145   6.774  0.4096  2.2554  1.1970
 1763SOL     hw 7051   2.192   0.232   6.736 -1.3562 -0.8042 -0.8164
 1763SOL     vw 7052   2.247   0.167   6.718  0.0746 -0.0465  0.5515
 1764SOL     ow 7053   5.734   6.177   7.280  0.0617  0.0690  0.0764
 1764SOL     hw 7054   5.733   6.266   7.244  2.3131 -0.4321 -1.4092
 1764SOL     hw 7055   5.801   6.181   7.348 -1.3451 -0.0134  1.5299
 1764SOL     vw 7056   5.743   6.189   7.285  0.1733 -0.0079  0.0722
 1765SOL     ow 7057   4.456   0.157   7.182  0.0696  0.4190  0.1706
 1765SOL     hw 7058   4.425   0.076   7.221  0.8901 -0.3174 -0.6650
 1765SOL     hw 7059   4.380   0.193   7.137 -0.1128 -0.2624 -0.0666
 1765SOL     vw 7060   4.442   0.151   7.181  0.1538  0.2320  0.0291
 1766SOL     ow 7061   7.351   6.754   1.622 -0.0600 -0.0465  0.0504
 1766SOL     hw 7062   7.418   6.692   1.649 -0.6567 -1.9065 -2.3491
 1766SOL     hw 7063   7.391   6.803   1.550  0.5139  2.7515  2.0884
 1766SOL     vw 7064   7.365   6.753   1.616 -0.0629  0.0770  0.0027
 1767SOL     ow 7065   2.716   5.359   2.286  0.2259  0.0592  0.1316
 1767SOL     hw 7066   2.752   5.447   2.296  0.9954 -0.2433  0.0410
 1767SOL     hw 7067   2.740   5.313   2.366  1.5451 -0.6609 -0.6621
 1767SOL     vw 7068   2.724   5.365   2.298  0.5016 -0.0761  0.0149
 1768SOL     ow 7069   4.013   0.963   4.313  0.4704  0.1895 -0.0750
 1768SOL     hw 7070   4.042   1.031   4.252 -0.2417  0.5261 -0.0438
 1768SOL     hw 7071   3.951   1.008   4.371  0.6439 -0.2828  0.4841
 1768SOL     vw 7072   4.009   0.978   4.313  0.3994  0.1716  0.0029
 1769SOL     ow 7073   6.711   3.984   0.488  0.4744  0.1553 -0.1574
 1769SOL     hw 7074   6.642   3.980   0.421  1.1622  0.6951 -0.9272
 1769SOL     hw 7075   6.710   3.897   0.529 -0.0709 -0.1372 -0.7659
 1769SOL     vw 7076   6.702   3.972   0.484  0.4930  0.1879 -0.3393
 1770SOL     ow 7077   4.275   5.844   0.667  0.1944  0.1408 -0.2635
 1770SOL     hw 7078   4.237   5.762   0.700 -0.4882  0.9513  1.0033
 1770SOL     hw 7079   4.364   5.820   0.641  0.2941 -0.8209  0.8969
 1770SOL     vw 7080   4.282   5.830   0.668  0.1175  0.1209  0.0568
 1771SOL     ow 7081   0.222   2.435   1.739 -0.3244  0.2327  0.6546
 1771SOL     hw 7082   0.169   2.433   1.659 -0.2451  1.4644  0.5584
 1771SOL     hw 7083   0.168   2.389   1.804 -2.0302  2.3162  0.8328
 1771SOL     vw 7084   0.208   2.429   1.737 -0.5390  0.6701  0.6654
 1772SOL     ow 7085   3.983   7.200   0.176  0.2034 -0.2717  0.0527
 1772SOL     hw 7086   4.033   7.192   0.257  1.6900  0.9593 -0.7038
 1772SOL     hw 7087   3.938   7.285   0.184  0.8010  0.1154 -0.6361
 1772SOL     vw 7088   3.983   7.210   0.188  0.4783 -0.0584 -0.1380
 1773SOL     ow 7089   1.387   5.944   3.967  0.3402  0.5371 -0.6366
 1773SOL     hw 7090   1.470   5.990   3.979  0.4092 -0.1446  2.3983
 1773SOL     hw 7091   1.410   5.852   3.962 -0.1753  0.3992 -0.5756
 1773SOL     vw 7092   1.401   5.938   3.968  0.2812  0.4292 -0.2280
 1774SOL     ow 7093   1.672   5.987   1.129 -0.0945  0.8191  0.1508
 1774SOL     hw 7094   1.700   5.945   1.210  1.4697 -0.0733 -0.8220
 1774SOL     hw 7095   1.742   6.049   1.108 -0.2398  0.6779 -0.7909
 1774SOL     vw 7096   1.685   5.990   1.137  0.0927  0.6828 -0.1018
 1775SOL     ow 7097   6.741   5.597   6.285  0.1865  0.1283  0.1389
 1775SOL     hw 7098   6.741   5.691   6.302  0.3673 -0.0715  1.2954
 1775SOL     hw 7099   6.764   5.557   6.369  0.0198 -0.9552 -0.3152
 1775SOL     vw 7100   6.744   5.604   6.298  0.1884 -0.0410  0.2315
 1776SOL     ow 7101   5.310   7.492   5.496  0.5075 -0.2961  0.2459
 1776SOL     hw 7102   5.262   7.522   5.419  0.1883  1.9376  1.2277
 1776SOL     hw 7103   5.365   7.567   5.521  1.6591 -1.4516  1.3713
 1776SOL     vw 7104   5.311   7.506   5.489  0.6173 -0.1538  0.5240
 1777SOL     ow 7105   2.162   0.996   1.377  0.1842  0.2197 -0.1661
 1777SOL     hw 7106   2.120   0.967   1.458  0.7841 -1.2059 -0.3306
 1777SOL     hw 7107   2.117   0.946   1.308  1.3750 -0.5232 -0.4453
 1777SOL     vw 7108   2.150   0.985   1.379  0.4205 -0.0664 -0.2247
 1778SOL     ow 7109   1.859   1.154   2.642  0.2590 -0.1746 -0.2123
 1778SOL     hw 7110   1.843   1.067   2.679  0.2646  0.1243  0.5027
 1778SOL     hw 7111   1.953   1.159   2.628  0.2505 -0.3026 -0.3177
 1778SOL     vw 7112   1.869   1.143   2.645  0.2586 -0.1520 -0.1320
 1779SOL     ow 7113   5.681   1.044   3.815 -0.0510  0.7375 -0.4352
 1779SOL     hw 7114   5.598   1.089   3.830 -0.1145  0.0485  1.6663
 1779SOL     hw 7115   5.658   0.951   3.808  0.6023  0.3896  1.4419
 1779SOL     vw 7116   5.667   1.038   3.816  0.0267  0.6007  0.0898
 1780SOL     ow 7117   6.793   3.097   2.074  0.3984  0.0105 -0.1762
 1780SOL     hw 7118   6.729   3.027   2.063  1.1876 -0.6960 -0.3933
 1780SOL     hw 7119   6.808   3.130   1.985 -1.1140  1.5305  0.0840
 1780SOL     vw 7120   6.787   3.092   2.060  0.3030  0.1178 -0.1705
 1781SOL     ow 7121   4.137   1.546   0.502  0.2666  0.2316  0.3092
 1781SOL     hw 7122   4.203   1.614   0.492  0.2071  0.6155  2.1035
 1781SOL     hw 7123   4.153   1.485   0.431 -0.2390  2.5416 -1.9443
 1781SOL     vw 7124   4.148   1.547   0.491  0.1919  0.5870  0.2486
 1782SOL     ow 7125   0.636   1.764   3.166 -0.1530  0.4791 -0.0340
 1782SOL     hw 7126   0.631   1.819   3.244 -2.7564  0.0091  0.2400
 1782SOL     hw 7127   0.587   1.685   3.190 -1.1942  0.4065 -2.1705
 1782SOL     vw 7128   0.629   1.761   3.179 -0.6338  0.4076 -0.2798
 1783SOL     ow 7129   7.469   5.135   2.178  0.9772 -0.1238 -0.0136
 1783SOL     hw 7130   7.546   5.144   2.121 -0.8680 -0.3550 -2.6958
 1783SOL     hw 7131   7.433   5.223   2.184 -1.3846 -0.7236 -3.1476
 1783SOL     vw 7132   7.475   5.148   2.171  0.4220 -0.2334 -0.7809
 1784SOL     ow 7133   6.409   5.556   1.532  0.1058 -0.2689 -0.2814
 1784SOL     hw 7134   6.448   5.638   1.502 -0.6699  1.5307  3.1040
 1784SOL     hw 7135   6.459   5.533   1.610 -1.2445 -1.7115  0.2111
 1784SOL     vw 7136   6.421   5.564   1.538 -0.1745 -0.2217  0.2302
 1785SOL     ow 7137   6.904   4.909   1.689  0.2668  0.5422  0.0192
 1785SOL     hw 7138   6.814   4.898   1.721 -0.3262 -0.3018 -1.8065
 1785SOL     hw 7139   6.956   4.922   1.768 -1.2909 -0.1610  1.2148
 1785SOL     vw 7140   6.899   4.909   1.704 -0.0169  0.3381 -0.0639
 1786SOL     ow 7141   6.470   2.595   3.503  0.8585 -0.0063 -0.2194
 1786SOL     hw 7142   6.383   2.616   3.537  1.5147  0.9736  0.9131
 1786SOL     hw 7143   6.457   2.512   3.457 -0.8465  0.5293 -0.8185
 1786SOL     vw 7144   6.456   2.587   3.501  0.7203  0.1935 -0.1490
 1787SOL     ow 7145   2.551   3.964   4.489  0.4694 -0.5258  0.3882
 1787SOL     hw 7146   2.632   4.004   4.522 -0.0237 -0.0135  0.9924
 1787SOL     hw 7147   2.580   3.910   4.416  1.3883 -0.4933  0.7096
 1787SOL     vw 7148   2.566   3.963   4.484  0.5256 -0.4538  0.5102
 1788SOL     ow 7149   0.311   1.097   5.730 -0.4184  0.4630  0.3646
 1788SOL     hw 7150   0.352   1.018   5.765 -0.8952  1.1376  2.6063
 1788SOL     hw 7151   0.344   1.168   5.784 -0.5724  1.7399 -1.1321
 1788SOL     vw 7152   0.320   1.096   5.742 -0.5016  0.7204  0.4628
 1789SOL     ow 7153   1.789   6.315   5.986  0.4474 -0.3306 -0.0964
 1789SOL     hw 7154   1.861   6.303   6.048 -0.1132  0.3743  0.7106
 1789SOL     hw 7155   1.805   6.400   5.946 -0.3151  0.1493  0.6070
 1789SOL     vw 7156   1.801   6.324   5.989  0.2728 -0.1740  0.1028
 1790SOL     ow 7157   2.005   1.852   5.607 -0.4533  0.4014  0.8149
 1790SOL     hw 7158   1.926   1.853   5.553  0.1083  0.1128 -0.0364
 1790SOL     hw 7159   1.982   1.798   5.682 -1.4303  1.2658  1.1669
 1790SOL     vw 7160   1.991   1.845   5.610 -0.5082  0.4774  0.7491
 1791SOL     ow 7161   0.801   6.727   2.619 -0.4078 -0.0634  0.1572
 1791SOL     hw 7162   0.794   6.812   2.662  0.5485  0.0731  0.0814
 1791SOL     hw 7163   0.891   6.725   2.586 -1.8870  1.2839 -4.8883
 1791SOL     vw 7164   0.812   6.738   2.621 -0.4768  0.1323 -0.5184
 1792SOL     ow 7165   6.331   5.967   5.385  0.1614 -0.2847 -0.2066
 1792SOL     hw 7166   6.402   5.911   5.353 -1.7132 -4.0017  1.4117
 1792SOL     hw 7167   6.259   5.951   5.323 -0.2590  0.8064 -0.0131
 1792SOL     vw 7168   6.331   5.957   5.373 -0.1416 -0.6311  0.0324
 1793SOL     ow 7169   4.190   0.126   4.348  0.0532 -0.0415  0.3934
 1793SOL     hw 7170   4.260   0.184   4.317  0.1895  2.0497  3.9658
 1793SOL     hw 7171   4.230   0.039   4.351  2.4109  0.9801  1.7253
 1793SOL     vw 7172   4.205   0.122   4.345  0.3824  0.3692  1.0407
 1794SOL     ow 7173   4.035   4.773   2.182 -0.7138  0.2805  0.5445
 1794SOL     hw 7174   4.101   4.772   2.252 -0.6949 -2.9322  0.6164
 1794SOL     hw 7175   4.024   4.681   2.159 -3.2316  0.9743 -1.3589
 1794SOL     vw 7176   4.042   4.761   2.188 -1.0433 -0.0517  0.3029
 1795SOL     ow 7177   1.279   0.549   6.911 -0.2745  0.7997 -0.5725
 1795SOL     hw 7178   1.212   0.603   6.951 -1.0704 -1.1830  0.9546
 1795SOL     hw 7179   1.361   0.597   6.924 -0.5151  0.4357  3.2944
 1795SOL     vw 7180   1.281   0.562   6.918 -0.4112  0.4901  0.1390
 1796SOL     ow 7181   4.341   5.563   5.336  0.2101  0.2470  0.2983
 1796SOL     hw 7182   4.334   5.474   5.371  0.5659 -0.6306 -1.7185
 1796SOL     hw 7183   4.351   5.618   5.414  1.0966 -1.5779  1.5727
 1796SOL     vw 7184   4.341   5.558   5.351  0.3741 -0.1097  0.2000
 1797SOL     ow 7185   3.509   4.578   2.710 -0.1582  0.2276  0.6163
 1797SOL     hw 7186   3.463   4.511   2.761  0.3109 -0.8575 -0.3485
 1797SOL     hw 7187   3.586   4.599   2.763 -0.9699  1.0019  1.5478
 1797SOL     vw 7188   3.513   4.572   2.724 -0.2033  0.1864  0.6120
 1798SOL     ow 7189   4.191   1.966   4.377 -0.0208 -0.7612  0.2355
 1798SOL     hw 7190   4.262   2.027   4.396 -1.2532  0.6892  0.3060
 1798SOL     hw 7191   4.191   1.905   4.451  1.0560 -0.7380  0.2808
 1798SOL     vw 7192   4.201   1.966   4.389 -0.0412 -0.5667  0.2508
 1799SOL     ow 7193   3.759   5.056   0.892 -0.3576  0.4293  0.3004
 1799SOL     hw 7194   3.810   5.134   0.872 -2.2523  1.3489 -1.2553
 1799SOL     hw 7195   3.823   4.991   0.920  1.2697  2.5416  1.7593
 1799SOL     vw 7196   3.774   5.058   0.893 -0.3930  0.8292  0.2877
 1800SOL     ow 7197   3.174   1.829   3.294 -0.3173  0.5556 -0.1859
 1800SOL     hw 7198   3.232   1.781   3.234 -0.1612  0.5630 -0.0419
 1800SOL     hw 7199   3.087   1.817   3.257 -0.4428 -0.8609  0.5036
 1800SOL     vw 7200   3.170   1.821   3.281 -0.3134  0.3697 -0.0759
 1801SOL     ow 7201   6.819   1.601   1.023  0.0813 -0.7281  0.5449
 1801SOL     hw 7202   6.832   1.594   1.118  1.0622  0.3785  0.5255
 1801SOL     hw 7203   6.876   1.674   0.997  0.0726 -1.2276 -0.9486
 1801SOL     vw 7204   6.828   1.610   1.032  0.2096 -0.6481  0.3452
 1802SOL     ow 7205   6.095   0.968   3.520  0.1246  0.6412 -0.6722
 1802SOL     hw 7206   6.026   0.917   3.478 -0.6467 -0.2222  1.4582
 1802SOL     hw 7207   6.129   1.026   3.451 -1.4343 -0.2343 -2.2482
 1802SOL     vw 7208   6.090   0.969   3.506 -0.1831  0.4117 -0.5990
 1803SOL     ow 7209   1.144   7.059   3.292  0.7194 -0.3088 -0.1909
 1803SOL     hw 7210   1.111   6.993   3.353  0.0947  1.7985  1.9238
 1803SOL     hw 7211   1.124   7.024   3.206 -2.0141 -1.7250  0.8745
 1803SOL     vw 7212   1.137   7.046   3.289  0.2763 -0.2177  0.2286
 1804SOL     ow 7213   2.050   3.892   5.867  0.0824 -0.7099 -0.0660
 1804SOL     hw 7214   2.054   3.804   5.906 -1.0074 -1.8200 -2.2350
 1804SOL     hw 7215   2.051   3.876   5.773 -2.8762  1.3802 -0.6218
 1804SOL     vw 7216   2.050   3.878   5.860 -0.4518 -0.5807 -0.4258
 1805SOL     ow 7217   5.262   1.731   5.048  0.1910 -0.3749  0.7023
 1805SOL     hw 7218   5.351   1.701   5.063  0.0340 -0.4162  1.5867
 1805SOL     hw 7219   5.237   1.776   5.129 -0.7250 -0.7090  0.6223
 1805SOL     vw 7220   5.270   1.733   5.061  0.0494 -0.4244  0.8082
 1806SOL     ow 7221   5.363   7.167   7.065 -0.5361 -0.3184  0.4314
 1806SOL     hw 7222   5.296   7.234   7.050 -0.2356 -0.2593 -0.7426
 1806SOL     hw 7223   5.357   7.110   6.988  0.7737 -0.2974  0.2873
 1806SOL     vw 7224   5.353   7.168   7.053 -0.3235 -0.3078  0.2575
 1807SOL     ow 7225   6.799   0.435   2.267 -0.1782  0.5912  0.3255
 1807SOL     hw 7226   6.868   0.468   2.209  0.7207 -1.5231  0.1166
 1807SOL     hw 7227   6.719   0.475   2.234  0.5986  1.0818 -1.0575
 1807SOL     vw 7228   6.798   0.445   2.255  0.0427  0.3769  0.1154
 1808SOL     ow 7229   4.357   6.081   5.214  0.5849 -0.6201  0.2559
 1808SOL     hw 7230   4.326   6.165   5.180  0.0251 -0.8985  0.0629
 1808SOL     hw 7231   4.406   6.043   5.142 -1.3098 -1.5889 -0.6023
 1808SOL     vw 7232   4.359   6.087   5.200  0.2611 -0.7846  0.1173
 1809SOL     ow 7233   5.487   2.630   3.781  0.8588 -0.0306 -0.7178
 1809SOL     hw 7234   5.556   2.678   3.826  0.0594  1.7916 -1.3281
 1809SOL     hw 7235   5.441   2.696   3.729 -0.5203 -1.4113 -1.3671
 1809SOL     vw 7236   5.490   2.645   3.780  0.5715  0.0277 -0.8839
 1810SOL     ow 7237   5.138   4.511   5.751 -0.0134 -0.2817 -0.0409
 1810SOL     hw 7238   5.222   4.514   5.705 -0.0994  0.9746 -0.1532
 1810SOL     hw 7239   5.151   4.445   5.819  0.9962 -0.2620 -0.1934
 1810SOL     vw 7240   5.151   4.503   5.754  0.1085 -0.1135 -0.0758
 1811SOL     ow 7241   4.683   0.806   4.424  0.3853 -0.1479  0.4954
 1811SOL     hw 7242   4.752   0.859   4.384 -0.6245  0.5439 -0.3553
 1811SOL     hw 7243   4.640   0.763   4.351 -1.7513  1.4397  0.7389
 1811SOL     vw 7244   4.687   0.807   4.409 -0.0296  0.1528  0.4153
 1812SOL     ow 7245   3.798   1.272   7.271 -0.3043 -0.1126 -0.3856
 1812SOL     hw 7246   3.846   1.194   7.297 -0.0970  0.0194 -0.3658
 1812SOL     hw 7247   3.778   1.258   7.179 -0.5425 -0.3289 -0.3018
 1812SOL     vw 7248   3.802   1.260   7.262 -0.3082 -0.1238 -0.3722
 1813SOL     ow 7249   3.955   5.871   6.445  0.0300  0.5714  0.1631
 1813SOL     hw 7250   4.018   5.804   6.422  0.8208  1.5430 -0.5870
 1813SOL     hw 7251   3.943   5.862   6.539  2.9524  1.7179  0.7500
 1813SOL     vw 7252   3.961   5.861   6.454  0.5200  0.8504  0.1416
 1814SOL     ow 7253   4.054   0.500   6.508 -0.5023  0.0337 -0.3928
 1814SOL     hw 7254   3.978   0.441   6.501 -0.1607 -0.4099 -0.3835
 1814SOL     hw 7255   4.084   0.510   6.417 -1.7556  1.7980 -0.6742
 1814SOL     vw 7256   4.048   0.494   6.495 -0.6227  0.2079 -0.4287
 1815SOL     ow 7257   6.936   7.538   2.430 -0.5774 -0.3567  0.8958
 1815SOL     hw 7258   6.983   7.471   2.380  0.1862 -0.4271  1.6954
 1815SOL     hw 7259   6.873   7.489   2.482  1.2069 -0.6750  2.8635
 1815SOL     vw 7260   6.934   7.522   2.430 -0.2415 -0.4080  1.2610
 1816SOL     ow 7261   1.245   1.592   6.624 -0.2627 -0.0703 -0.2045
 1816SOL     hw 7262   1.286   1.518   6.579 -4.1504 -1.1334 -2.4327
 1816SOL     hw 7263   1.216   1.650   6.554 -0.2360  1.9804  1.3745
 1816SOL     vw 7264   1.247   1.590   6.609 -0.7721  0.0600 -0.2899
 1817SOL     ow 7265   2.126   2.141   4.745  0.4016 -0.0353 -0.3462
 1817SOL     hw 7266   2.176   2.222   4.732 -0.1538  0.1398 -1.5144
 1817SOL     hw 7267   2.179   2.074   4.702 -2.1702  0.7846 -5.5029
 1817SOL     vw 7268   2.140   2.143   4.738 -0.0112  0.0961 -1.1806
 1818SOL     ow 7269   0.412   5.471   6.342 -0.3037  0.1001 -0.1912
 1818SOL     hw 7270   0.460   5.503   6.418 -0.8314  0.5371 -0.0287
 1818SOL     hw 7271   0.454   5.389   6.319  0.3511  0.3475  0.1009
 1818SOL     vw 7272   0.424   5.465   6.349 -0.2869  0.1903 -0.1314
 1819SOL     ow 7273   4.634   6.501   1.272 -0.0943  0.4598 -0.2801
 1819SOL     hw 7274   4.679   6.554   1.206  0.5099  0.4291  0.0983
 1819SOL     hw 7275   4.629   6.558   1.349 -0.0543  0.2077 -0.0902
 1819SOL     vw 7276   4.639   6.515   1.274 -0.0093  0.4227 -0.2051
 1820SOL     ow 7277   5.358   4.550   7.237  0.1500 -0.4412  0.2373
 1820SOL     hw 7278   5.433   4.497   7.210 -0.1538 -1.1201  0.6850
 1820SOL     hw 7279   5.344   4.527   7.329  0.6655  1.2349  0.7561
 1820SOL     vw 7280   5.366   4.540   7.245  0.1781 -0.3097  0.3645
 1821SOL     ow 7281   4.736   1.013   6.096  0.6013  1.0457 -0.0721
 1821SOL     hw 7282   4.802   0.949   6.068  0.2562  0.7916 -0.3031
 1821SOL     hw 7283   4.788   1.086   6.131  0.9751  0.1289  1.3635
 1821SOL     vw 7284   4.752   1.014   6.097  0.6049  0.8913  0.0865
 1822SOL     ow 7285   4.268   6.644   5.104  0.5926 -0.5423 -0.3171
 1822SOL     hw 7286   4.199   6.585   5.133  0.0014 -0.0118 -0.6317
 1822SOL     hw 7287   4.252   6.656   5.010 -1.7304  3.2171  0.3807
 1822SOL     vw 7288   4.257   6.638   5.095  0.2084  0.0236 -0.2668
 1823SOL     ow 7289   3.759   1.148   2.788 -0.1174 -0.5399  0.0727
 1823SOL     hw 7290   3.847   1.185   2.792 -0.5264  0.5439  4.0286
 1823SOL     hw 7291   3.724   1.176   2.704  2.4725  1.0382 -0.5901
 1823SOL     vw 7292   3.766   1.156   2.778  0.1704 -0.1887  0.5072
 1824SOL     ow 7293   0.802   5.966   0.759 -0.1142  0.1552  0.0210
 1824SOL     hw 7294   0.810   6.014   0.841  2.5075 -1.5199  0.8922
 1824SOL     hw 7295   0.837   6.025   0.693  3.1460 -0.3742  1.0837
 1824SOL     vw 7296   0.808   5.980   0.761  0.6618 -0.1357  0.2761
 1825SOL     ow 7297   6.336   7.185   1.023  0.3314  0.3115  0.4724
 1825SOL     hw 7298   6.431   7.180   1.016  0.4210  2.7173 -1.8370
 1825SOL     hw 7299   6.320   7.259   1.082  0.0213  1.3166 -0.7962
 1825SOL     vw 7300   6.346   7.194   1.030  0.3021  0.7613  0.0003
 1826SOL     ow 7301   0.394   2.883   7.391  0.5181  0.1024  0.1224
 1826SOL     hw 7302   0.351   2.959   7.431  0.5958 -0.2642  0.9249
 1826SOL     hw 7303   0.457   2.854   7.457  0.7633 -0.4202 -0.3382
 1826SOL     vw 7304   0.396   2.889   7.405  0.5607 -0.0148  0.1676
 1827SOL     ow 7305   6.084   3.187   2.161  0.3038  0.0247  0.3536
 1827SOL     hw 7306   6.048   3.185   2.072  1.1052 -1.8910  0.0079
 1827SOL     hw 7307   6.045   3.111   2.204 -0.3027  1.0870  1.7718
 1827SOL     vw 7308   6.074   3.176   2.155  0.3293 -0.0880  0.4950
 1828SOL     ow 7309   3.701   4.253   2.103 -0.0884 -0.2707  0.1503
 1828SOL     hw 7310   3.680   4.193   2.032 -0.6448 -0.3991  0.4111
 1828SOL     hw 7311   3.782   4.219   2.141 -0.3294 -0.7892  0.2109
 1828SOL     vw 7312   3.709   4.240   2.099 -0.1936 -0.3560  0.1926
 1829SOL     ow 7313   0.110   3.869   2.776  0.2023  0.4092  0.2600
 1829SOL     hw 7314   0.117   3.798   2.712  0.9604  0.0833  0.6897
 1829SOL     hw 7315   0.051   3.933   2.735  2.6973  1.4905 -1.9742
 1829SOL     vw 7316   0.103   3.868   2.762  0.6315  0.5089  0.0218
 1830SOL     ow 7317   6.135   1.949   2.676  0.4411 -0.0497  0.3194
 1830SOL     hw 7318   6.169   1.893   2.746  2.8163 -0.7208 -1.2750
 1830SOL     hw 7319   6.148   2.039   2.709 -1.0952 -0.3121  1.8338
 1830SOL     vw 7320   6.141   1.954   2.690  0.5517 -0.1729  0.3089
 1831SOL     ow 7321   5.668   2.644   4.658 -0.0230 -0.6196  0.3982
 1831SOL     hw 7322   5.735   2.684   4.603  0.9525  0.0853  2.0129
 1831SOL     hw 7323   5.653   2.558   4.619  1.1296 -0.4140 -0.5656
 1831SOL     vw 7324   5.675   2.638   4.646  0.2577 -0.4995  0.4842
 1832SOL     ow 7325   6.713   7.499   4.764 -0.3051  0.8025  0.2027
 1832SOL     hw 7326   6.737   7.579   4.810 -2.2260  1.7662 -0.3883
 1832SOL     hw 7327   6.624   7.514   4.734  0.4764 -0.1475 -2.9662
 1832SOL     vw 7328   6.704   7.511   4.766 -0.4556  0.8042 -0.2933
 1833SOL     ow 7329   5.580   0.652   2.940  0.3955  0.3891  0.4749
 1833SOL     hw 7330   5.578   0.612   2.853 -1.3651  0.2944  0.5224
 1833SOL     hw 7331   5.673   0.666   2.958  0.8860 -1.0273 -0.7554
 1833SOL     vw 7332   5.592   0.648   2.931  0.2279  0.1897  0.3189
 1834SOL     ow 7333   5.825   1.812   0.629 -0.0812  0.5795  0.6865
 1834SOL     hw 7334   5.824   1.760   0.549  2.2988  0.2182  0.8053
 1834SOL     hw 7335   5.793   1.898   0.604 -0.5621  0.0989 -0.3644
 1834SOL     vw 7336   5.821   1.816   0.615  0.1693  0.4684  0.5636
 1835SOL     ow 7337   6.581   3.304   2.115  0.6805  0.6023 -0.7585
 1835SOL     hw 7338   6.646   3.283   2.182 -0.0134 -0.3528 -0.3614
 1835SOL     hw 7339   6.631   3.350   2.047  1.3854  1.6788  0.4299
 1835SOL     vw 7340   6.596   3.307   2.114  0.6819  0.6183 -0.5493
 1836SOL     ow 7341   2.080   2.084   1.415 -0.2119  0.3080 -0.2127
 1836SOL     hw 7342   2.005   2.091   1.355 -0.3288 -0.2672 -0.1353
 1836SOL     hw 7343   2.093   1.990   1.427  0.1611  0.4120  0.2312
 1836SOL     vw 7344   2.072   2.073   1.409 -0.1780  0.2459 -0.1439
 1837SOL     ow 7345   3.553   7.490   2.946 -0.5754  0.7741  0.5825
 1837SOL     hw 7346   3.642   7.490   2.910 -0.5073  0.6182  0.7525
 1837SOL     hw 7347   3.551   7.565   3.006 -0.7320  1.1226  0.1556
 1837SOL     vw 7348   3.564   7.500   2.949 -0.5872  0.7997  0.5486
 1838SOL     ow 7349   3.844   3.125   4.231  0.2605 -0.1532 -0.6296
 1838SOL     hw 7350   3.842   3.080   4.315 -0.8726  1.2797  0.1577
 1838SOL     hw 7351   3.937   3.142   4.216  0.5599 -1.2467 -0.1421
 1838SOL     vw 7352   3.856   3.122   4.240  0.1506 -0.1084 -0.4613
 1839SOL     ow 7353   2.556   4.475   1.841 -0.2341 -0.4299  0.2722
 1839SOL     hw 7354   2.526   4.517   1.922  1.8334  1.1143  0.2977
 1839SOL     hw 7355   2.580   4.386   1.867 -2.9199 -1.1728  0.5780
 1839SOL     vw 7356   2.555   4.468   1.855 -0.3158 -0.3240  0.3159
 1840SOL     ow 7357   7.230   5.760   0.276  0.2725  0.9823  0.4276
 1840SOL     hw 7358   7.248   5.738   0.367 -2.4057 -1.0227  0.6274
 1840SOL     hw 7359   7.199   5.851   0.279 -1.5263  0.3882  1.8722
 1840SOL     vw 7360   7.228   5.769   0.288 -0.3181  0.6397  0.6446
 1841SOL     ow 7361   2.727   2.341   5.983 -0.2414  0.1851  0.0322
 1841SOL     hw 7362   2.760   2.418   6.028 -0.8269 -1.0925  2.9244
 1841SOL     hw 7363   2.776   2.337   5.901  3.0341  1.2031  1.7566
 1841SOL     vw 7364   2.738   2.350   5.978  0.1135  0.1509  0.6413
 1842SOL     ow 7365   6.395   4.920   5.855 -0.0577  0.0932 -0.2664
 1842SOL     hw 7366   6.345   4.938   5.934  1.0678 -2.0009  1.0181
 1842SOL     hw 7367   6.486   4.927   5.882  0.3613  0.3571 -1.6552
 1842SOL     vw 7368   6.400   4.923   5.869  0.1459 -0.1483 -0.2799
 1843SOL     ow 7369   1.097   1.071   5.736  0.1319 -0.2174 -0.2439
 1843SOL     hw 7370   1.056   1.136   5.679  0.4836  0.3115  0.0945
 1843SOL     hw 7371   1.061   1.089   5.823  0.8455  0.0695  0.0034
 1843SOL     vw 7372   1.087   1.082   5.740  0.2724 -0.1098 -0.1669
 1844SOL     ow 7373   2.983   7.350   1.536 -0.0442  0.3444  0.6738
 1844SOL     hw 7374   3.071   7.381   1.518 -0.1704  0.4029  0.1587
 1844SOL     hw 7375   2.932   7.430   1.550 -0.5199  0.4404 -1.3218
 1844SOL     vw 7376   2.988   7.365   1.536 -0.1236  0.3648  0.3425
 1845SOL     ow 7377   7.062   4.887   5.625  0.1337  0.4497  0.3774
 1845SOL     hw 7378   7.138   4.886   5.567 -1.4144 -1.8289 -1.7871
 1845SOL     hw 7379   7.044   4.795   5.643 -1.8352  0.9623  1.2398
 1845SOL     vw 7380   7.070   4.875   5.620 -0.3304  0.2167  0.2055
 1846SOL     ow 7381   1.736   7.204   0.014  0.1447  0.7040 -0.3400
 1846SOL     hw 7382   1.664   7.267   0.001  0.5169  1.0651 -0.7029
 1846SOL     hw 7383   1.754   7.170  -0.074  0.3239  0.5107 -0.2302
 1846SOL     vw 7384   1.729   7.208   0.001  0.2175  0.7262 -0.3734
 1847SOL     ow 7385   6.532   1.553   1.243  0.5493 -0.0469 -0.3416
 1847SOL     hw 7386   6.571   1.621   1.298 -2.9860  0.9717  1.2038
 1847SOL     hw 7387   6.550   1.471   1.291 -1.3234  0.6895  1.8360
 1847SOL     vw 7388   6.540   1.551   1.257 -0.1645  0.1847  0.1495
 1848SOL     ow 7389   1.135   3.104   4.562  0.5243  0.0687 -0.2132
 1848SOL     hw 7390   1.219   3.097   4.608 -1.1059 -1.7669  2.8352
 1848SOL     hw 7391   1.133   3.194   4.530  2.6563  0.9332  1.7628
 1848SOL     vw 7392   1.146   3.115   4.564  0.5904 -0.0595  0.4497
 1849SOL     ow 7393   4.052   2.184   0.748  0.4564 -0.0502 -0.0398
 1849SOL     hw 7394   4.095   2.216   0.827 -1.7708  3.7902 -0.1423
 1849SOL     hw 7395   4.098   2.228   0.676  1.2973 -2.1120 -0.8456
 1849SOL     vw 7396   4.064   2.194   0.749  0.2735  0.1844 -0.1597
 1850SOL     ow 7397   3.261   4.548   0.187  0.3521 -0.3704  0.5363
 1850SOL     hw 7398   3.268   4.558   0.282 -1.3844  1.5997  0.5108
 1850SOL     hw 7399   3.169   4.528   0.171 -0.0397  2.1673 -0.8794
 1850SOL     vw 7400   3.250   4.547   0.198  0.0712  0.2244  0.3462
 1851SOL     ow 7401   5.455   3.083   6.908 -0.3687 -0.0600 -0.2113
 1851SOL     hw 7402   5.450   3.094   6.813 -0.4777 -0.1930 -0.2211
 1851SOL     hw 7403   5.383   3.136   6.942  1.2355  2.1215 -0.0319
 1851SOL     vw 7404   5.445   3.092   6.900 -0.1717  0.2102 -0.1888
 1852SOL     ow 7405   6.301   2.181   6.013  0.1937  0.4088 -0.0566
 1852SOL     hw 7406   6.386   2.207   6.046  0.0217  0.8456  0.0515
 1852SOL     hw 7407   6.263   2.261   5.978 -0.6840  0.4774  1.0221
 1852SOL     vw 7408   6.307   2.195   6.013  0.0553  0.4754  0.1001
 1853SOL     ow 7409   4.479   0.854   5.353 -0.1561 -0.1501  0.2947
 1853SOL     hw 7410   4.521   0.788   5.298 -0.8178 -0.8977  0.6568
 1853SOL     hw 7411   4.447   0.804   5.429 -0.4576  0.6314  0.6907
 1853SOL     vw 7412   4.480   0.838   5.356 -0.2832 -0.1456  0.3946
 1854SOL     ow 7413   4.530   1.738   0.117  0.2717 -0.8253 -0.2246
 1854SOL     hw 7414   4.603   1.685   0.149  1.4655  1.5230  1.1695
 1854SOL     hw 7415   4.452   1.696   0.153  1.3154 -0.4580  2.7474
 1854SOL     vw 7416   4.530   1.726   0.126  0.5670 -0.4671  0.3514
 1855SOL     ow 7417   4.091   6.856   6.784 -0.5565 -0.2379 -0.9907
 1855SOL     hw 7418   4.034   6.858   6.861 -0.6052 -0.5238 -1.0180
 1855SOL     hw 7419   4.082   6.767   6.750  0.0430 -0.3418 -0.8949
 1855SOL     vw 7420   4.082   6.845   6.790 -0.4838 -0.2892 -0.9816
 1856SOL     ow 7421   2.972   2.121   6.717  0.0030  0.2442 -0.2456
 1856SOL     hw 7422   2.945   2.040   6.673 -0.3054  0.1626  0.0858
 1856SOL     hw 7423   3.038   2.092   6.781 -0.1354  0.2499 -0.1011
 1856SOL     vw 7424   2.977   2.106   6.719 -0.0559  0.2341 -0.1829
 1857SOL     ow 7425   6.495   0.704   2.370 -1.0795  0.0133  0.1733
 1857SOL     hw 7426   6.569   0.750   2.411  0.4719 -0.3129 -2.0773
 1857SOL     hw 7427   6.428   0.702   2.438  0.6129  1.1919  2.0065
 1857SOL     vw 7428   6.496   0.709   2.385 -0.6514  0.1258  0.1183
 1858SOL     ow 7429   6.253   7.131   5.867 -0.5311 -0.1964  0.0806
 1858SOL     hw 7430   6.315   7.186   5.913 -0.7541 -0.3913  0.6182
 1858SOL     hw 7431   6.290   7.122   5.779 -0.2437  0.3974  0.1345
 1858SOL     vw 7432   6.266   7.137   5.861 -0.5226 -0.1438  0.1588
 1859SOL     ow 7433   3.813   6.787   6.283 -0.2950 -0.0905  0.1286
 1859SOL     hw 7434   3.783   6.712   6.233 -1.5649  0.4951 -0.0118
 1859SOL     hw 7435   3.751   6.795   6.355  0.0986  0.5420  0.4106
 1859SOL     vw 7436   3.801   6.778   6.286 -0.4106  0.0703  0.1476
 1860SOL     ow 7437   1.484   3.321   1.067 -0.3712  0.0320 -0.0333
 1860SOL     hw 7438   1.525   3.407   1.073 -0.5219  0.1900 -1.1496
 1860SOL     hw 7439   1.470   3.295   1.158 -1.9435  1.9718  0.3416
 1860SOL     vw 7440   1.487   3.329   1.080 -0.5984  0.3086 -0.1311
 1861SOL     ow 7441   5.133   0.120   0.045 -0.5795  0.5015  0.2805
 1861SOL     hw 7442   5.082   0.201   0.048 -1.0520  0.3181 -1.6254
 1861SOL     hw 7443   5.069   0.050   0.061 -1.4125  0.1447 -3.7200
 1861SOL     vw 7444   5.118   0.121   0.048 -0.7520  0.4302 -0.4987
 1862SOL     ow 7445   1.636   2.564   4.762 -0.4697 -0.2944 -0.1497
 1862SOL     hw 7446   1.564   2.604   4.810  0.8910  0.4894  1.3214
 1862SOL     hw 7447   1.704   2.631   4.759  0.2522 -1.0251 -1.4462
 1862SOL     vw 7448   1.636   2.578   4.768 -0.1949 -0.2875 -0.1266
 1863SOL     ow 7449   2.307   0.025   2.977  0.3229  0.5729  0.3357
 1863SOL     hw 7450   2.371  -0.040   2.950 -0.9004  0.1234 -1.7318
 1863SOL     hw 7451   2.255  -0.019   3.044 -1.4222 -1.2763 -2.0347
 1863SOL     vw 7452   2.308   0.011   2.982 -0.0688  0.2696 -0.2499
 1864SOL     ow 7453   2.114   0.037   4.904  0.4602  0.3355  0.0676
 1864SOL     hw 7454   2.139  -0.045   4.948  1.2155 -0.3659 -1.5727
 1864SOL     hw 7455   2.137   0.022   4.812 -3.5318  0.6384 -1.1838
 1864SOL     vw 7456   2.120   0.024   4.897  0.0331  0.2828 -0.3138
 1865SOL     ow 7457   5.122   6.293   3.668 -0.0985 -0.5771  0.1351
 1865SOL     hw 7458   5.103   6.201   3.680  1.8472 -0.8419  1.6730
 1865SOL     hw 7459   5.044   6.339   3.700 -1.0326 -1.6477 -0.5527
 1865SOL     vw 7460   5.109   6.287   3.674  0.0350 -0.7534  0.2471
 1866SOL     ow 7461   5.295   5.077   4.562 -0.4135  0.3728  0.2193
 1866SOL     hw 7462   5.229   5.079   4.631 -0.5646 -0.6787  0.1189
 1866SOL     hw 7463   5.378   5.070   4.609 -0.3627  1.6247  0.3437
 1866SOL     vw 7464   5.297   5.077   4.578 -0.4268  0.3994  0.2224
 1867SOL     ow 7465   4.842   2.501   5.349 -0.1965 -0.0891  0.6433
 1867SOL     hw 7466   4.801   2.456   5.276  0.5897 -1.3825  0.9648
 1867SOL     hw 7467   4.896   2.434   5.392 -0.7763  0.5768  2.5143
 1867SOL     vw 7468   4.844   2.486   5.345 -0.1693 -0.1719  0.9322
 1868SOL     ow 7469   1.796   1.066   2.061  0.3491 -0.1327 -0.1444
 1868SOL     hw 7470   1.888   1.092   2.060  0.0589  0.9811  0.5736
 1868SOL     hw 7471   1.797   0.976   2.096  0.9969  0.8205  2.5645
 1868SOL     vw 7472   1.808   1.057   2.066  0.3963  0.1400  0.3076
 1869SOL     ow 7473   1.414   0.928   3.865 -0.5520  0.4060 -0.1193
 1869SOL     hw 7474   1.336   0.983   3.871 -0.9778 -0.1169 -0.6436
 1869SOL     hw 7475   1.401   0.879   3.783  1.4539  2.0429 -1.5197
 1869SOL     vw 7476   1.402   0.929   3.855 -0.3435  0.5530 -0.3732
 1870SOL     ow 7477   2.484   1.829   2.428 -0.5334 -0.5457 -0.0329
 1870SOL     hw 7478   2.474   1.883   2.506  2.6924 -0.4818  0.4884
 1870SOL     hw 7479   2.489   1.739   2.461  0.4062 -0.5572 -0.1598
 1870SOL     vw 7480   2.483   1.824   2.442  0.0162 -0.5388  0.0192
 1871SOL     ow 7481   2.970   3.678   4.095 -0.0795 -0.2383 -0.8860
 1871SOL     hw 7482   2.924   3.658   4.014  2.5852  0.1257 -2.6255
 1871SOL     hw 7483   3.009   3.764   4.080  1.2661 -0.5888  0.3770
 1871SOL     vw 7484   2.969   3.686   4.083  0.4495 -0.2365 -0.9489
 1872SOL     ow 7485   3.274   1.284   0.623  0.0194  0.0267 -0.9027
 1872SOL     hw 7486   3.180   1.269   0.610  0.0136 -1.1130  0.2081
 1872SOL     hw 7487   3.315   1.251   0.543 -0.4570 -0.5817 -0.9047
 1872SOL     vw 7488   3.267   1.278   0.611 -0.0440 -0.2040 -0.7564
 1873SOL     ow 7489   1.397   1.414   6.515  0.5299 -0.2380 -0.0680
 1873SOL     hw 7490   1.386   1.335   6.568  2.8309  0.0698  1.0154
 1873SOL     hw 7491   1.351   1.395   6.433 -1.0697 -1.6966  1.0992
 1873SOL     vw 7492   1.389   1.401   6.511  0.6224 -0.3898  0.2289
 1874SOL     ow 7493   6.513   1.235   4.166 -0.7670 -0.3311 -0.6318
 1874SOL     hw 7494   6.541   1.290   4.093  1.6618  0.6056  0.8967
 1874SOL     hw 7495   6.543   1.282   4.244 -2.6976 -1.6062  0.9864
 1874SOL     vw 7496   6.520   1.248   4.167 -0.7014 -0.3757 -0.2165
 1875SOL     ow 7497   3.002   7.403   4.758 -0.5643  0.5151 -0.4685
 1875SOL     hw 7498   3.002   7.385   4.664 -1.8790  1.5120 -0.6927
 1875SOL     hw 7499   2.974   7.494   4.765  0.5386  0.7843  0.8549
 1875SOL     vw 7500   2.998   7.412   4.747 -0.5922  0.6824 -0.3235
 1876SOL     ow 7501   5.968   1.409   3.775 -0.8333  0.0733 -0.3867
 1876SOL     hw 7502   6.045   1.439   3.726  0.0648  1.0062  1.5061
 1876SOL     hw 7503   5.968   1.314   3.762  0.6643  0.0520 -0.4150
 1876SOL     vw 7504   5.978   1.400   3.767 -0.5174  0.1936 -0.1408
 1877SOL     ow 7505   0.409   3.865   2.899  0.0583 -0.0206 -0.1380
 1877SOL     hw 7506   0.352   3.866   2.822  0.7412 -2.5157 -0.7629
 1877SOL     hw 7507   0.468   3.791   2.884  0.3626 -0.4425  2.6807
 1877SOL     vw 7508   0.409   3.856   2.887  0.1885 -0.4055  0.1515
 1878SOL     ow 7509   3.049   3.635   4.768 -0.0816 -0.0218  0.4908
 1878SOL     hw 7510   3.090   3.675   4.691  1.1482 -2.2034 -0.0682
 1878SOL     hw 7511   3.026   3.709   4.824  2.5653  1.4709 -0.2267
 1878SOL     vw 7512   3.052   3.650   4.765  0.4299 -0.1125  0.3221
 1879SOL     ow 7513   3.445   4.098   2.039 -0.3274 -0.0204 -0.3655
 1879SOL     hw 7514   3.393   4.018   2.044  0.2862 -0.3466  1.7438
 1879SOL     hw 7515   3.515   4.078   1.977 -0.5188 -0.9276 -0.2906
 1879SOL     vw 7516   3.447   4.085   2.032 -0.2718 -0.1831 -0.0774
 1880SOL     ow 7517   3.029   1.040   7.211  0.6063 -0.1580  0.2199
 1880SOL     hw 7518   3.007   1.000   7.127  1.1873 -0.3416  0.1517
 1880SOL     hw 7519   2.991   0.982   7.277 -0.6313  0.4624  0.0706
 1880SOL     vw 7520   3.021   1.027   7.209  0.5196 -0.1004  0.1910
 1881SOL     ow 7521   6.369   4.108   6.679  0.6148  0.0372  0.8830
 1881SOL     hw 7522   6.401   4.151   6.758 -2.6813  0.8878  1.9065
 1881SOL     hw 7523   6.366   4.015   6.703  3.6416 -0.3476  0.1637
 1881SOL     vw 7524   6.373   4.101   6.693  0.5794  0.0987  0.9232
 1882SOL     ow 7525   6.495   5.020   0.448  0.4869  0.1302  0.4284
 1882SOL     hw 7526   6.541   5.086   0.499  0.4599  1.5787 -1.3171
 1882SOL     hw 7527   6.511   5.045   0.357  0.3343 -2.1996 -0.2956
 1882SOL     vw 7528   6.503   5.032   0.443  0.4632  0.0138  0.1026
 1883SOL     ow 7529   6.648   2.904   5.260  0.1279  0.5590  0.4851
 1883SOL     hw 7530   6.731   2.858   5.267  0.4461  1.0035 -0.2591
 1883SOL     hw 7531   6.671   2.997   5.266 -0.3204  0.6810  0.3678
 1883SOL     vw 7532   6.662   2.910   5.262  0.1106  0.6337  0.3715
 1884SOL     ow 7533   5.903   2.753   4.522  0.4374 -0.0178 -0.2688
 1884SOL     hw 7534   5.946   2.772   4.438  1.8660 -1.3998  0.0864
 1884SOL     hw 7535   5.954   2.680   4.558 -0.5805  0.0957  1.4888
 1884SOL     vw 7536   5.916   2.746   4.515  0.4916 -0.1853  0.0100
 1885SOL     ow 7537   2.803   3.469   3.442 -0.3311 -0.3535  0.4589
 1885SOL     hw 7538   2.840   3.549   3.478  0.2382 -0.1501 -0.5409
 1885SOL     hw 7539   2.715   3.494   3.413  0.5862  0.5076 -1.7984
 1885SOL     vw 7540   2.796   3.483   3.443 -0.1349 -0.2131  0.0292
 1886SOL     ow 7541   0.758   5.027   1.399  0.3183  0.1176 -0.9024
 1886SOL     hw 7542   0.674   5.044   1.442  0.2603  1.0396 -1.3484
 1886SOL     hw 7543   0.756   4.934   1.377  0.0431 -0.2221  0.4164
 1886SOL     vw 7544   0.747   5.017   1.402  0.2744  0.1943 -0.7873
 1887SOL     ow 7545   7.395   4.188   2.263 -0.2678 -0.5252 -0.6911
 1887SOL     hw 7546   7.437   4.137   2.194 -0.4611 -0.7146 -0.6688
 1887SOL     hw 7547   7.400   4.132   2.341  1.9570  0.5609  0.0307
 1887SOL     vw 7548   7.401   4.174   2.264  0.0002 -0.4070 -0.5929
 1888SOL     ow 7549   2.245   5.341   1.153 -0.3695  0.2836 -0.2606
 1888SOL     hw 7550   2.275   5.315   1.066  0.4508  0.5114 -0.0599
 1888SOL     hw 7551   2.286   5.278   1.212 -0.9319  0.1213 -0.0355
 1888SOL     vw 7552   2.255   5.329   1.149 -0.3356  0.2923 -0.2044
 1889SOL     ow 7553   2.531   6.444   2.762 -0.3383  0.6301  0.5198
 1889SOL     hw 7554   2.449   6.484   2.790 -0.3272  0.9855  0.0578
 1889SOL     hw 7555   2.588   6.518   2.742 -1.1118  0.4553 -2.7472
 1889SOL     vw 7556   2.528   6.459   2.763 -0.4389  0.6540  0.0278
 1890SOL     ow 7557   4.997   2.579   4.252  0.6464  0.6697 -0.2192
 1890SOL     hw 7558   5.036   2.567   4.339 -1.1214  0.0241  0.5328
 1890SOL     hw 7559   5.071   2.602   4.196  1.8417  1.1305  1.4495
 1890SOL     vw 7560   5.012   2.581   4.256  0.5708  0.6453  0.1001
 1891SOL     ow 7561   3.163   4.924   5.956  0.3379  0.2408  0.2561
 1891SOL     hw 7562   3.143   4.973   5.876  0.2588  1.1755  0.8283
 1891SOL     hw 7563   3.089   4.864   5.967  0.2468  0.2563 -0.2567
 1891SOL     vw 7564   3.150   4.923   5.947  0.3155  0.3660  0.2642
 1892SOL     ow 7565   3.223   2.457   6.942  0.4626 -0.1016  0.2319
 1892SOL     hw 7566   3.310   2.494   6.957 -0.1735  1.0984  1.2049
 1892SOL     hw 7567   3.193   2.430   7.028  1.0019 -3.2893 -0.4763
 1892SOL     vw 7568   3.230   2.459   6.955  0.4498 -0.3638  0.2670
 1893SOL     ow 7569   4.769   2.613   3.865 -0.3898 -0.2449 -0.2130
 1893SOL     hw 7570   4.698   2.625   3.928  0.6125 -0.0438  0.9030
 1893SOL     hw 7571   4.783   2.518   3.863 -0.6765 -0.2833 -0.4187
 1893SOL     vw 7572   4.762   2.602   3.873 -0.2954 -0.2234 -0.0927
 1894SOL     ow 7573   6.962   3.663   1.085 -0.3450  0.3729 -0.4022
 1894SOL     hw 7574   6.903   3.587   1.084 -0.1505  0.2049  0.2427
 1894SOL     hw 7575   6.904   3.738   1.071 -0.6282  0.1601 -0.3937
 1894SOL     vw 7576   6.946   3.663   1.083 -0.3567  0.3226 -0.3160
 1895SOL     ow 7577   7.118   1.104   5.313  0.2348  0.5938  0.2887
 1895SOL     hw 7578   7.045   1.135   5.366  1.0043  1.5984  0.7816
 1895SOL     hw 7579   7.123   1.167   5.241 -0.9583 -0.8892 -1.1815
 1895SOL     vw 7580   7.109   1.116   5.310  0.1788  0.5307  0.1597
 1896SOL     ow 7581   6.317   2.699   4.897 -0.4160  0.7658  0.0066
 1896SOL     hw 7582   6.318   2.637   4.824 -0.8719 -0.7277  1.2256
 1896SOL     hw 7583   6.409   2.716   4.916 -0.2914  0.6965 -0.5198
 1896SOL     vw 7584   6.329   2.693   4.890 -0.4599  0.5597  0.0980
 1897SOL     ow 7585   7.453   5.053   4.891 -0.4780  0.2038 -0.3310
 1897SOL     hw 7586   7.440   5.116   4.962 -1.3134 -1.5952  1.2092
 1897SOL     hw 7587   7.512   4.987   4.928 -2.7770 -2.0430 -0.3620
 1897SOL     vw 7588   7.459   5.053   4.905 -0.8914 -0.3302 -0.1318
 1898SOL     ow 7589   4.934   4.417   0.834  0.1153  0.1141  0.6865
 1898SOL     hw 7590   4.990   4.361   0.888 -0.1200 -0.3402  0.4656
 1898SOL     hw 7591   4.892   4.357   0.773  0.0108  0.5614  0.3129
 1898SOL     vw 7592   4.936   4.402   0.833  0.0703  0.1130  0.6081
 1899SOL     ow 7593   0.592   5.086   1.627  0.1072 -0.6763  0.1232
 1899SOL     hw 7594   0.637   5.079   1.712 -1.6328 -0.2173  1.1257
 1899SOL     hw 7595   0.513   5.136   1.646  0.4641  0.8675 -2.1044
 1899SOL     vw 7596   0.588   5.092   1.641 -0.0753 -0.4122 -0.0384
 1900SOL     ow 7597   2.151   4.705   0.487  0.2198  0.3223  0.3357
 1900SOL     hw 7598   2.125   4.613   0.496 -0.5698  0.4054 -0.8080
 1900SOL     hw 7599   2.224   4.716   0.548  1.8576 -1.6739 -1.1374
 1900SOL     vw 7600   2.157   4.694   0.496  0.3318  0.0699 -0.0095
 1901SOL     ow 7601   6.279   3.413   2.124  0.6347  0.1435 -0.2229
 1901SOL     hw 7602   6.230   3.402   2.205  0.9889 -1.5859 -0.1951
 1901SOL     hw 7603   6.268   3.505   2.101 -0.7489  0.3086  0.9585
 1901SOL     vw 7604   6.271   3.424   2.132  0.4990 -0.0629 -0.0633
 1902SOL     ow 7605   4.231   4.519   7.057 -0.7532 -0.2279 -0.1798
 1902SOL     hw 7606   4.185   4.453   7.109  0.5187 -0.4079  0.7712
 1902SOL     hw 7607   4.275   4.470   6.988  1.0998 -0.5955  1.1707
 1902SOL     vw 7608   4.231   4.504   7.055 -0.3407 -0.3004  0.1240
 1903SOL     ow 7609   0.848   5.175   2.642  0.0329 -0.5969  0.2526
 1903SOL     hw 7610   0.894   5.245   2.688 -2.4091  0.4225  1.3681
 1903SOL     hw 7611   0.902   5.097   2.655  1.8114  0.6530  0.7260
 1903SOL     vw 7612   0.861   5.174   2.650 -0.0546 -0.2973  0.4622
 1904SOL     ow 7613   0.898   1.202   4.729 -0.6044 -0.4600 -0.2855
 1904SOL     hw 7614   0.835   1.178   4.661 -1.6284 -1.1844  0.8725
 1904SOL     hw 7615   0.924   1.119   4.768  0.1470 -0.0705  0.0588
 1904SOL     vw 7616   0.893   1.188   4.725 -0.6404 -0.5043 -0.0873
 1905SOL     ow 7617   6.458   5.483   2.685  0.2399 -0.0387  0.5338
 1905SOL     hw 7618   6.411   5.566   2.684  2.5425  1.4200 -2.5703
 1905SOL     hw 7619   6.534   5.499   2.741  1.1697  0.3321 -0.7865
 1905SOL     vw 7620   6.462   5.496   2.692  0.6664  0.2027 -0.0498
 1906SOL     ow 7621   4.556   6.542   6.517  0.6826 -0.2189 -0.3340
 1906SOL     hw 7622   4.543   6.492   6.436 -0.2433 -1.1563  0.3741
 1906SOL     hw 7623   4.483   6.604   6.518 -0.0619 -1.0811  0.4041
 1906SOL     vw 7624   4.544   6.543   6.506  0.4623 -0.4563 -0.1433
 1907SOL     ow 7625   3.468   6.192   1.532 -0.3036  0.7270  0.2852
 1907SOL     hw 7626   3.427   6.244   1.463  0.0287  1.6983  0.8006
 1907SOL     hw 7627   3.562   6.210   1.523 -0.2533  0.8183  0.9536
 1907SOL     vw 7628   3.475   6.201   1.522 -0.2531  0.8669  0.4414
 1908SOL     ow 7629   6.414   7.029   1.756  0.0259 -0.3020 -0.0758
 1908SOL     hw 7630   6.430   7.102   1.696 -0.8023 -0.5759 -0.6485
 1908SOL     hw 7631   6.476   6.961   1.729  1.8377  0.6581  1.3816
 1908SOL     vw 7632   6.424   7.030   1.745  0.1557 -0.2115  0.0409
 1909SOL     ow 7633   0.577   7.264   0.869  0.9763  0.2096 -0.4582
 1909SOL     hw 7634   0.661   7.234   0.906  0.5434  0.0474  0.4290
 1909SOL     hw 7635   0.550   7.335   0.927 -0.1203 -0.5838  0.0295
 1909SOL     vw 7636   0.585   7.269   0.882  0.7745  0.0834 -0.2768
 1910SOL     ow 7637   0.736   1.207   5.590 -0.2529  0.3913  0.2783
 1910SOL     hw 7638   0.736   1.130   5.648  0.2953  0.9370  1.0198
 1910SOL     hw 7639   0.829   1.230   5.581 -0.2596 -0.1773 -1.5027
 1910SOL     vw 7640   0.748   1.200   5.597 -0.1814  0.3883  0.1411
 1911SOL     ow 7641   1.102   3.217   1.242 -0.3230  0.1120 -0.4227
 1911SOL     hw 7642   1.009   3.205   1.264 -0.5101  0.5765 -0.9179
 1911SOL     hw 7643   1.148   3.213   1.326 -0.9905  1.6705  0.0528
 1911SOL     vw 7644   1.096   3.215   1.256 -0.4357  0.3788 -0.4252
 1912SOL     ow 7645   3.147   4.106   4.133 -0.4999 -0.4851  0.0459
 1912SOL     hw 7646   3.141   4.195   4.098  1.1401 -1.0642 -1.9457
 1912SOL     hw 7647   3.100   4.051   4.069 -0.5631 -1.1661  0.6659
 1912SOL     vw 7648   3.140   4.110   4.120 -0.2918 -0.6514 -0.1349
 1913SOL     ow 7649   4.715   6.788   6.840 -0.2001 -0.0232 -0.2215
 1913SOL     hw 7650   4.732   6.753   6.753 -0.3448  0.9539 -0.6595
 1913SOL     hw 7651   4.790   6.846   6.857  0.0851 -0.5993  0.5165
 1913SOL     vw 7652   4.727   6.791   6.831 -0.1814  0.0296 -0.1819
 1914SOL     ow 7653   6.001   3.497   7.024  0.0250 -0.3052  0.2133
 1914SOL     hw 7654   5.946   3.551   6.967  0.7132 -0.3626 -0.5412
 1914SOL     hw 7655   6.062   3.455   6.963  2.4132  1.5127  1.1854
 1914SOL     vw 7656   6.002   3.499   7.008  0.4311 -0.0730  0.2422
 1915SOL     ow 7657   0.744   2.988   1.119  0.2335  0.1402  0.4404
 1915SOL     hw 7658   0.707   3.023   1.039  0.5343  1.3479  0.8056
 1915SOL     hw 7659   0.830   2.954   1.093 -0.2736 -0.8407 -0.0152
 1915SOL     vw 7660   0.751   2.988   1.105  0.2063  0.1701  0.4284
 1916SOL     ow 7661   4.652   0.075   3.223  1.2872 -0.5672 -0.1492
 1916SOL     hw 7662   4.681   0.119   3.303  0.1810 -0.2408  0.1005
 1916SOL     hw 7663   4.711   0.107   3.155  1.1231  0.5659  0.2145
 1916SOL     vw 7664   4.663   0.085   3.225  1.1196 -0.3746 -0.0683
 1917SOL     ow 7665   4.828   5.544   6.495  0.0864  0.1161  0.1848
 1917SOL     hw 7666   4.882   5.622   6.499 -1.4428  1.1870  2.0239
 1917SOL     hw 7667   4.889   5.472   6.477  1.5751  1.6407 -1.1433
 1917SOL     vw 7668   4.843   5.545   6.493  0.0811  0.4587  0.2522
 1918SOL     ow 7669   5.985   6.822   3.202 -0.1585 -0.4251 -0.6983
 1918SOL     hw 7670   5.897   6.813   3.236 -0.0501  1.0306  0.0031
 1918SOL     hw 7671   6.039   6.770   3.261 -0.2166  0.6941  0.3826
 1918SOL     vw 7672   5.981   6.814   3.214 -0.1521 -0.0856 -0.4632
 1919SOL     ow 7673   3.040   4.516   4.670 -0.2506  0.3192  0.0768
 1919SOL     hw 7674   2.981   4.540   4.741  0.3326  0.6756  0.4420
 1919SOL     hw 7675   3.081   4.434   4.699 -2.7964 -1.6821 -1.4815
 1919SOL     vw 7676   3.038   4.508   4.683 -0.5096  0.1023 -0.0803
 1920SOL     ow 7677   7.447   1.299   5.906 -0.1639 -0.4144  0.2997
 1920SOL     hw 7678   7.353   1.313   5.893 -0.1291 -0.8023 -0.4347
 1920SOL     hw 7679   7.485   1.307   5.818  0.5772  0.3514  0.6703
 1920SOL     vw 7680   7.440   1.302   5.893 -0.0618 -0.3645  0.2518
 1921SOL     ow 7681   0.709   4.488   1.468 -0.0180  0.1399  0.0866
 1921SOL     hw 7682   0.680   4.451   1.551 -1.0737 -1.0372 -0.7631
 1921SOL     hw 7683   0.796   4.451   1.454  0.3860  0.7433  0.8740
 1921SOL     vw 7684   0.717   4.478   1.477 -0.1040  0.0641  0.0783
 1922SOL     ow 7685   7.328   2.687   3.825 -0.4042 -0.4572  0.5106
 1922SOL     hw 7686   7.305   2.594   3.832  1.8912 -1.1458 -0.3459
 1922SOL     hw 7687   7.254   2.726   3.778 -0.8260 -2.1220 -0.2994
 1922SOL     vw 7688   7.315   2.680   3.820 -0.1571 -0.7677  0.2908
 1923SOL     ow 7689   0.417   3.075   6.651 -0.1432 -0.2123  0.3073
 1923SOL     hw 7690   0.327   3.085   6.683 -1.2717  1.3354 -2.8670
 1923SOL     hw 7691   0.455   3.163   6.658 -0.3824  0.1677 -2.0592
 1923SOL     vw 7692   0.410   3.088   6.656 -0.3237  0.0421 -0.4237
 1924SOL     ow 7693   0.235   0.180   1.309 -0.3810  0.2240 -0.3360
 1924SOL     hw 7694   0.324   0.209   1.325 -0.3052 -0.3379  0.3202
 1924SOL     hw 7695   0.231   0.092   1.347 -1.7480  0.9562  1.3651
 1924SOL     vw 7696   0.246   0.172   1.316 -0.5514  0.2465 -0.0250
 1925SOL     ow 7697   0.925   3.369   2.047 -0.1825  0.2391  0.5305
 1925SOL     hw 7698   1.019   3.387   2.046 -0.3479  1.2052  1.2554
 1925SOL     hw 7699   0.890   3.428   2.114 -1.4489  0.5918 -0.4131
 1925SOL     vw 7700   0.933   3.379   2.056 -0.3714  0.4131  0.5016
 1926SOL     ow 7701   5.964   1.100   3.114  0.1218  0.0297 -0.2104
 1926SOL     hw 7702   5.961   1.036   3.043  0.3065  0.7818 -0.9168
 1926SOL     hw 7703   5.960   1.185   3.070  0.7611  0.5253  0.6454
 1926SOL     vw 7704   5.964   1.103   3.099  0.2306  0.1943 -0.1906
 1927SOL     ow 7705   2.945   4.781   5.987 -0.1029  0.3793  0.0025
 1927SOL     hw 7706   2.947   4.820   5.899  1.5584  0.2945 -0.0377
 1927SOL     hw 7707   2.898   4.845   6.040  1.0031  1.6262 -0.4476
 1927SOL     vw 7708   2.939   4.794   5.982  0.2623  0.5326 -0.0622
 1928SOL     ow 7709   3.987   7.356   6.059 -0.2139  0.3384  0.0655
 1928SOL     hw 7710   3.897   7.372   6.030 -0.3943  1.7320  1.2639
 1928SOL     hw 7711   4.037   7.350   5.978 -1.5374 -1.8213 -0.6945
 1928SOL     vw 7712   3.981   7.357   6.045 -0.4122  0.2372  0.1233
 1929SOL     ow 7713   0.557   7.412   1.930  0.3853  0.0392  0.1652
 1929SOL     hw 7714   0.540   7.324   1.894 -0.6625  0.0478  0.6118
 1929SOL     hw 7715   0.641   7.403   1.975  0.4477 -0.6533 -0.0718
 1929SOL     vw 7716   0.566   7.399   1.931  0.2553 -0.0513  0.1928
 1930SOL     ow 7717   7.522   5.060   5.777  0.5661 -0.0911 -0.1634
 1930SOL     hw 7718   7.511   5.155   5.769  2.7843  0.3041  0.7633
 1930SOL     hw 7719   7.500   5.026   5.691 -1.2275  1.1218 -0.2421
 1930SOL     vw 7720   7.518   5.068   5.765  0.6223  0.1211 -0.0515
 1931SOL     ow 7721   0.848   3.529   4.464  0.2287 -1.0399  0.9046
 1931SOL     hw 7722   0.807   3.476   4.532  0.8517 -1.6389  0.8199
 1931SOL     hw 7723   0.941   3.506   4.469  0.3064 -0.9384 -0.0190
 1931SOL     vw 7724   0.855   3.519   4.474  0.3211 -1.1055  0.7718
 1932SOL     ow 7725   5.874   1.250   1.290 -0.2939 -0.1628  0.1540
 1932SOL     hw 7726   5.964   1.279   1.300  0.1769 -1.5749  0.2609
 1932SOL     hw 7727   5.879   1.154   1.291 -1.8486 -0.2748  0.6441
 1932SOL     vw 7728   5.886   1.241   1.291 -0.4368 -0.3639  0.2328
 1933SOL     ow 7729   0.334   7.317   3.365 -0.3558  0.1307  0.0092
 1933SOL     hw 7730   0.262   7.344   3.309 -0.3320  1.6738  0.6746
 1933SOL     hw 7731   0.412   7.332   3.311 -0.4558 -0.4863 -0.3156
 1933SOL     vw 7732   0.335   7.323   3.350 -0.3658  0.2527  0.0541
 1934SOL     ow 7733   1.258   6.718   0.970 -0.1029  0.3032 -0.1413
 1934SOL     hw 7734   1.245   6.709   0.875 -2.2743  1.9933 -0.0749
 1934SOL     hw 7735   1.170   6.729   1.006  0.6964 -0.0159  2.0608
 1934SOL     vw 7736   1.245   6.718   0.962 -0.2840  0.4842  0.1580
 1935SOL     ow 7737   3.305   0.366   2.388 -0.3880 -0.6062  0.6199
 1935SOL     hw 7738   3.266   0.432   2.331 -1.5103  0.1562  2.1678
 1935SOL     hw 7739   3.316   0.289   2.333 -1.0196  0.2151 -0.7019
 1935SOL     vw 7740   3.301   0.365   2.373 -0.6194 -0.3972  0.6496
 1936SOL     ow 7741   1.328   2.556   5.297 -0.4237  0.0646  0.4549
 1936SOL     hw 7742   1.353   2.498   5.368  1.0367  0.3825  0.2511
 1936SOL     hw 7743   1.325   2.643   5.336 -1.6407 -0.0034  0.5493
 1936SOL     vw 7744   1.331   2.560   5.311 -0.3915  0.0975  0.4404
 1937SOL     ow 7745   6.155   5.549   1.368 -0.0400  0.1457  0.0676
 1937SOL     hw 7746   6.155   5.639   1.336 -1.4250  0.5650  1.1316
 1937SOL     hw 7747   6.113   5.499   1.298  0.5266  0.3593 -0.4308
 1937SOL     vw 7748   6.149   5.554   1.355 -0.1481  0.2294  0.1423
 1938SOL     ow 7749   6.080   2.920   5.378  0.1092  0.1480 -0.0294
 1938SOL     hw 7750   6.016   2.970   5.429  1.1965  0.5960  0.9220
 1938SOL     hw 7751   6.157   2.976   5.374  2.0335 -2.0738  2.5889
 1938SOL     vw 7752   6.082   2.934   5.384  0.5066 -0.0859  0.4418
 1939SOL     ow 7753   6.365   0.576   6.746  0.0660 -0.3492  0.0370
 1939SOL     hw 7754   6.282   0.541   6.777  0.9943 -1.7117  1.1310
 1939SOL     hw 7755   6.368   0.551   6.653 -0.7373 -0.2729 -0.0172
 1939SOL     vw 7756   6.355   0.568   6.737  0.0827 -0.5189  0.1740
 1940SOL     ow 7757   7.123   4.738   5.270  0.0840 -0.6598  0.4793
 1940SOL     hw 7758   7.075   4.660   5.298 -1.3437 -0.1971 -0.5201
 1940SOL     hw 7759   7.113   4.739   5.174  1.4127 -0.0816  0.3202
 1940SOL     vw 7760   7.115   4.728   5.261  0.0706 -0.5224  0.3264
 1941SOL     ow 7761   0.870   6.747   0.783  0.1337  0.7741 -0.0736
 1941SOL     hw 7762   0.785   6.731   0.824 -0.2580  1.4035 -0.6283
 1941SOL     hw 7763   0.901   6.660   0.758 -0.0255  0.4707  0.7459
 1941SOL     vw 7764   0.863   6.734   0.785  0.0610  0.8171 -0.0387
 1942SOL     ow 7765   6.878   5.039   5.470  0.0710  0.0580  0.6470
 1942SOL     hw 7766   6.930   4.984   5.529  0.6251 -0.5523 -0.3763
 1942SOL     hw 7767   6.850   4.979   5.400 -1.8959  0.4013  1.0755
 1942SOL     vw 7768   6.881   5.024   5.469 -0.1154  0.0229  0.5684
 1943SOL     ow 7769   0.155   2.820   7.252  0.0855  0.5168 -0.8764
 1943SOL     hw 7770   0.231   2.853   7.299 -0.4509  1.0877 -0.3857
 1943SOL     hw 7771   0.176   2.729   7.233  0.9300  0.6981 -0.8366
 1943SOL     vw 7772   0.168   2.812   7.256  0.1261  0.6161 -0.8066
 1944SOL     ow 7773   2.369   1.464   3.736  0.0771 -0.1226  0.1463
 1944SOL     hw 7774   2.377   1.374   3.703  2.7319  0.1548 -0.2441
 1944SOL     hw 7775   2.450   1.507   3.707 -0.5813  2.0676  1.3308
 1944SOL     vw 7776   2.381   1.458   3.728  0.3405  0.2030  0.2511
 1945SOL     ow 7777   3.395   1.928   7.276  0.2319  0.4334  0.1045
 1945SOL     hw 7778   3.312   1.976   7.275  0.0537  0.2269  1.8082
 1945SOL     hw 7779   3.381   1.859   7.341  0.6387 -1.6688 -1.9184
 1945SOL     vw 7780   3.382   1.925   7.284  0.2620  0.1287  0.0620
 1946SOL     ow 7781   5.975   2.409   1.129 -0.4586 -0.8277 -0.1232
 1946SOL     hw 7782   6.006   2.457   1.052 -1.0637  0.9240  0.6700
 1946SOL     hw 7783   6.015   2.455   1.204 -1.6505 -1.0770  0.7003
 1946SOL     vw 7784   5.985   2.421   1.129 -0.6957 -0.6294  0.0901
 1947SOL     ow 7785   0.787   3.829   1.089 -0.1246  0.3444  0.1650
 1947SOL     hw 7786   0.761   3.921   1.080 -0.2877  0.3857  1.0391
 1947SOL     hw 7787   0.802   3.800   0.999 -0.5484  1.0901 -0.1569
 1947SOL     vw 7788   0.785   3.837   1.076 -0.2020  0.4482  0.2378
 1948SOL     ow 7789   6.853   3.793   6.934 -0.1164 -1.1248 -0.0443
 1948SOL     hw 7790   6.942   3.758   6.940  0.5448  0.0683 -1.9904
 1948SOL     hw 7791   6.799   3.728   6.979  1.4850 -2.8749 -0.4960
 1948SOL     vw 7792   6.858   3.780   6.941  0.1822 -1.1983 -0.3605
 1949SOL     ow 7793   6.977   2.735   6.433  0.1214  0.1893  0.0478
 1949SOL     hw 7794   6.916   2.757   6.503  1.5646 -0.8320  1.7131
 1949SOL     hw 7795   6.970   2.640   6.423  3.4487 -0.4971  2.4381
 1949SOL     vw 7796   6.968   2.725   6.441  0.7508 -0.0361  0.5829
 1950SOL     ow 7797   1.868   6.944   1.590  0.0004 -0.1844  0.3371
 1950SOL     hw 7798   1.846   6.951   1.497  2.6598  1.2736 -0.2690
 1950SOL     hw 7799   1.962   6.929   1.592  0.0659  0.0731  2.8199
 1950SOL     vw 7800   1.878   6.943   1.578  0.3599  0.0420  0.5848
 1951SOL     ow 7801   5.856   2.910   0.350 -0.5619 -0.1794  0.1119
 1951SOL     hw 7802   5.869   2.992   0.303  0.9201 -0.0657  0.6686
 1951SOL     hw 7803   5.906   2.845   0.301 -0.0314 -0.3130  0.8060
 1951SOL     vw 7804   5.864   2.912   0.337 -0.2964 -0.1820  0.2769
 1952SOL     ow 7805   1.178   0.636   5.604 -0.0169 -1.0465 -0.3466
 1952SOL     hw 7806   1.228   0.635   5.522 -0.0227 -0.8931 -0.3529
 1952SOL     hw 7807   1.097   0.591   5.583  0.8245 -2.8690  0.1211
 1952SOL     vw 7808   1.174   0.630   5.590  0.0934 -1.2667 -0.2856
 1953SOL     ow 7809   2.694   5.733   6.860 -0.2096 -0.3043  0.9333
 1953SOL     hw 7810   2.639   5.770   6.929 -0.5064  1.4617 -0.2030
 1953SOL     hw 7811   2.634   5.718   6.787  0.3905 -0.6688  0.5048
 1953SOL     vw 7812   2.679   5.736   6.860 -0.1695 -0.1192  0.7269
 1954SOL     ow 7813   0.018   6.994   5.199 -0.1851  0.0565  0.7192
 1954SOL     hw 7814   0.025   6.901   5.175  2.0723  0.1684  0.7898
 1954SOL     hw 7815  -0.062   6.998   5.251 -2.0022 -1.2633 -1.7516
 1954SOL     vw 7816   0.008   6.982   5.203 -0.1268 -0.1028  0.4025
 1955SOL     ow 7817   0.218   0.241   4.705  0.0416 -0.2642  0.1907
 1955SOL     hw 7818   0.308   0.216   4.685  0.3314  1.5954 -1.1406
 1955SOL     hw 7819   0.165   0.193   4.641  0.5813  2.0963 -2.2530
 1955SOL     vw 7820   0.223   0.232   4.694  0.1510  0.2926 -0.3076
 1956SOL     ow 7821   0.232   5.293   6.370  0.4306  0.1340 -0.8951
 1956SOL     hw 7822   0.293   5.365   6.384  2.2147 -1.6133  0.9520
 1956SOL     hw 7823   0.209   5.263   6.459 -2.0007 -0.2319 -1.5592
 1956SOL     vw 7824   0.237   5.298   6.384  0.3452 -0.1450 -0.7389
 1957SOL     ow 7825   4.564   2.923   4.794 -0.1735 -0.3495  0.0633
 1957SOL     hw 7826   4.618   2.976   4.853  0.9067 -1.2546 -0.0703
 1957SOL     hw 7827   4.492   2.892   4.848 -0.3269  0.4955  0.3676
 1957SOL     vw 7828   4.562   2.926   4.809 -0.0513 -0.3574  0.0858
 1958SOL     ow 7829   2.707   7.230   6.990  0.5969 -0.0357  0.4206
 1958SOL     hw 7830   2.638   7.168   6.967  0.0928 -0.2373  2.3340
 1958SOL     hw 7831   2.670   7.316   6.968  0.0911 -0.2026  0.6110
 1958SOL     vw 7832   2.693   7.234   6.984  0.4636 -0.0844  0.6983
 1959SOL     ow 7833   5.346   0.220   0.175 -0.3030  0.0719  0.5888
 1959SOL     hw 7834   5.290   0.203   0.099 -0.5219  1.0821  0.5068
 1959SOL     hw 7835   5.310   0.165   0.244 -0.2667 -0.6588  0.0386
 1959SOL     vw 7836   5.334   0.210   0.174 -0.3273  0.1088  0.5054
 1960SOL     ow 7837   1.555   6.942   1.664 -0.2301  0.1197 -0.1725
 1960SOL     hw 7838   1.514   6.881   1.725  0.9661 -0.6586 -0.1096
 1960SOL     hw 7839   1.483   6.993   1.629 -1.0041  0.3521  1.6244
 1960SOL     vw 7840   1.540   6.941   1.668 -0.1744  0.0477  0.0728
 1961SOL     ow 7841   7.453   3.024   4.645  0.3975 -0.0051 -0.4753
 1961SOL     hw 7842   7.438   3.084   4.718  0.0624  0.2941 -0.7860
 1961SOL     hw 7843   7.369   2.980   4.634  1.1765 -2.0428  1.0759
 1961SOL     vw 7844   7.440   3.026   4.653  0.4561 -0.2346 -0.3116
 1962SOL     ow 7845   1.880   6.288   4.410 -0.4271  0.3827 -0.3510
 1962SOL     hw 7846   1.902   6.282   4.317  0.4864  0.6180 -0.1582
 1962SOL     hw 7847   1.964   6.294   4.455 -0.8574  0.2908  0.4962
 1962SOL     vw 7848   1.894   6.288   4.404 -0.3633  0.4020 -0.2141
 1963SOL     ow 7849   0.451   2.597   7.023  0.3293 -0.8948 -0.1899
 1963SOL     hw 7850   0.473   2.510   6.990  0.1653 -1.5463  1.3080
 1963SOL     hw 7851   0.526   2.621   7.078 -0.4741 -0.9553  0.9625
 1963SOL     vw 7852   0.464   2.589   7.026  0.2017 -0.9887  0.1600
 1964SOL     ow 7853   3.117   3.186   4.422 -0.4903 -0.3984  0.2805
 1964SOL     hw 7854   3.085   3.130   4.351  2.8483 -0.2423 -1.5709
 1964SOL     hw 7855   3.203   3.150   4.444 -0.2952  1.1975  2.3877
 1964SOL     vw 7856   3.124   3.174   4.415 -0.0241 -0.1673  0.3142
 1965SOL     ow 7857   6.279   5.440   0.777  0.5730  0.9129 -0.3797
 1965SOL     hw 7858   6.262   5.355   0.818  1.7036  1.3655  1.1296
 1965SOL     hw 7859   6.359   5.426   0.727 -0.4605  0.5344 -2.0172
 1965SOL     vw 7860   6.287   5.427   0.776  0.5858  0.9224 -0.3966
 1966SOL     ow 7861   2.717   3.435   1.734  0.6190  0.6724  0.0089
 1966SOL     hw 7862   2.801   3.397   1.710  0.8924  0.7972  0.7374
 1966SOL     hw 7863   2.677   3.371   1.793 -0.2500  0.1512 -1.0903
 1966SOL     vw 7864   2.723   3.422   1.739  0.5404  0.6201 -0.0399
 1967SOL     ow 7865   5.425   6.977   0.644 -0.3775  0.2719  0.7850
 1967SOL     hw 7866   5.485   7.051   0.637 -1.5121  1.2212  0.6403
 1967SOL     hw 7867   5.481   6.902   0.665  1.2638  0.4509 -2.3943
 1967SOL     vw 7868   5.440   6.977   0.646 -0.3109  0.4208  0.3465
 1968SOL     ow 7869   6.454   6.852   4.737  0.6024 -0.9101  0.2216
 1968SOL     hw 7870   6.427   6.892   4.655 -0.8390 -0.7165  0.7523
 1968SOL     hw 7871   6.539   6.892   4.757  1.5151 -1.7753 -1.6931
 1968SOL     vw 7872   6.462   6.863   4.729  0.5324 -0.9990  0.0391
 1969SOL     ow 7873   7.256   5.755   3.072 -0.1994 -0.2573 -0.1165
 1969SOL     hw 7874   7.300   5.761   2.988  2.3025 -1.0048  1.0313
 1969SOL     hw 7875   7.202   5.676   3.066  1.3726 -1.3586 -0.4661
 1969SOL     vw 7876   7.255   5.745   3.060  0.3381 -0.5014 -0.0112
 1970SOL     ow 7877   6.331   3.129   2.118  0.1494 -0.6045 -0.3630
 1970SOL     hw 7878   6.242   3.160   2.132  0.5908  1.3694 -1.5041
 1970SOL     hw 7879   6.320   3.039   2.088 -1.4560 -0.4455 -0.3541
 1970SOL     vw 7880   6.318   3.121   2.116 -0.0043 -0.3232 -0.5124
 1971SOL     ow 7881   5.491   2.400   1.305 -0.0543 -0.4900 -0.5737
 1971SOL     hw 7882   5.411   2.439   1.270  1.3208  3.0088 -0.2093
 1971SOL     hw 7883   5.557   2.412   1.237  1.3627  1.5597  1.0403
 1971SOL     vw 7884   5.489   2.406   1.292  0.3142  0.2420 -0.3126
 1972SOL     ow 7885   1.129   1.478   2.655  0.3484  0.0864 -0.3611
 1972SOL     hw 7886   1.100   1.390   2.680 -1.0087  0.7910  0.7361
 1972SOL     hw 7887   1.221   1.481   2.678  0.2614 -0.8650  0.1598
 1972SOL     vw 7888   1.137   1.467   2.662  0.1578  0.0539 -0.1476
 1973SOL     ow 7889   3.932   1.380   0.129 -0.3169 -0.0450  0.3563
 1973SOL     hw 7890   3.866   1.317   0.100 -0.3445  0.0262  0.2639
 1973SOL     hw 7891   3.903   1.464   0.092 -0.1292 -0.0288  0.2427
 1973SOL     vw 7892   3.920   1.383   0.120 -0.2958 -0.0334  0.3291
 1974SOL     ow 7893   0.493   6.807   0.659  0.3247  0.3600 -0.1245
 1974SOL     hw 7894   0.416   6.856   0.687 -0.2473 -0.0424 -0.9750
 1974SOL     hw 7895   0.459   6.733   0.609  1.2402 -0.1197 -0.0749
 1974SOL     vw 7896   0.479   6.804   0.656  0.3700  0.2439 -0.2302
 1975SOL     ow 7897   7.460   5.870   6.602 -0.2846  0.4820  0.0016
 1975SOL     hw 7898   7.481   5.788   6.557  0.7908 -0.1867  1.6363
 1975SOL     hw 7899   7.371   5.858   6.634 -0.1788 -0.0043  0.1182
 1975SOL     vw 7900   7.451   5.858   6.600 -0.1285  0.3297  0.2327
 1976SOL     ow 7901   7.553   0.299   1.263  0.4671 -0.7146 -0.2073
 1976SOL     hw 7902   7.497   0.245   1.319 -0.8396 -0.2475 -1.0088
 1976SOL     hw 7903   7.634   0.249   1.254 -0.1726 -1.8678  0.2111
 1976SOL     vw 7904   7.556   0.285   1.270  0.2103 -0.8051 -0.2578
 1977SOL     ow 7905   1.177   5.802   1.389  0.4276 -1.1684  0.2931
 1977SOL     hw 7906   1.169   5.764   1.301 -3.7543  1.4789 -0.7548
 1977SOL     hw 7907   1.109   5.758   1.440  0.4520 -0.2118  1.1788
 1977SOL     vw 7908   1.167   5.791   1.384 -0.1209 -0.6931  0.2717
 1978SOL     ow 7909   2.180   1.227   1.581  0.2144 -0.6810  0.3502
 1978SOL     hw 7910   2.193   1.238   1.675  0.0271 -0.1819  0.3177
 1978SOL     hw 7911   2.268   1.210   1.547  0.2185 -1.3820  0.6779
 1978SOL     vw 7912   2.193   1.226   1.589  0.1903 -0.7077  0.3892
 1979SOL     ow 7913   7.223   4.555   1.963 -0.0844  0.3730  0.2048
 1979SOL     hw 7914   7.310   4.531   1.932  0.2919  0.1439  1.4045
 1979SOL     hw 7915   7.183   4.471   1.988  0.3926  0.7188  2.2702
 1979SOL     vw 7916   7.229   4.540   1.962  0.0284  0.3881  0.6356
 1980SOL     ow 7917   5.917   4.483   5.178  0.5580  0.4663  0.2878
 1980SOL     hw 7918   5.991   4.533   5.213  2.3674 -1.0714 -1.0962
 1980SOL     hw 7919   5.958   4.419   5.119 -1.7891 -1.2665  0.4037
 1980SOL     vw 7920   5.932   4.481   5.175  0.4869  0.0348  0.1206
 1981SOL     ow 7921   0.586   1.527   3.242  0.7512  0.0909 -0.3257
 1981SOL     hw 7922   0.628   1.520   3.156  0.4226 -0.6555 -0.4394
 1981SOL     hw 7923   0.631   1.461   3.295  1.6233  1.2214  0.3762
 1981SOL     vw 7924   0.597   1.517   3.237  0.8229  0.1416 -0.2481
 1982SOL     ow 7925   1.033   1.852   2.350  0.4559 -0.8059 -0.1616
 1982SOL     hw 7926   0.960   1.795   2.370  0.6136 -1.0126 -0.1664
 1982SOL     hw 7927   1.033   1.918   2.419  0.7624 -1.2858  0.3008
 1982SOL     vw 7928   1.024   1.853   2.362  0.5171 -0.8965 -0.1012
 1983SOL     ow 7929   7.106   0.879   1.028  0.1799  0.0718  0.0073
 1983SOL     hw 7930   7.038   0.812   1.030 -0.5127  0.7574 -0.0371
 1983SOL     hw 7931   7.110   0.912   1.118  2.5836 -2.0063  0.7951
 1983SOL     vw 7932   7.098   0.875   1.040  0.4058 -0.1119  0.1054
 1984SOL     ow 7933   1.224   4.195   4.258 -0.2359  0.5200 -0.0388
 1984SOL     hw 7934   1.253   4.127   4.198  1.7238  0.0335  1.3433
 1984SOL     hw 7935   1.245   4.277   4.213 -1.9143  0.2805 -1.3849
 1984SOL     vw 7936   1.231   4.197   4.244 -0.1989  0.4246 -0.0341
 1985SOL     ow 7937   3.247   7.047   3.998  0.3117 -0.0451  0.2140
 1985SOL     hw 7938   3.221   7.122   4.052  1.4931 -0.3976  1.3207
 1985SOL     hw 7939   3.200   6.973   4.035  2.2996 -0.5881  1.8904
 1985SOL     vw 7940   3.238   7.047   4.010  0.7297 -0.1633  0.5810
 1986SOL     ow 7941   2.521   0.207   5.385  0.1288 -0.1252 -0.1494
 1986SOL     hw 7942   2.430   0.192   5.357  0.0504 -1.4567  0.6931
 1986SOL     hw 7943   2.517   0.289   5.435 -0.3498  0.5099 -1.2095
 1986SOL     vw 7944   2.508   0.216   5.388  0.0554 -0.2171 -0.1781
 1987SOL     ow 7945   5.342   2.212   1.525 -0.3444 -0.1040  0.0501
 1987SOL     hw 7946   5.343   2.164   1.608 -0.1254 -1.4048 -0.6830
 1987SOL     hw 7947   5.261   2.183   1.482 -0.9396  1.2641  0.1787
 1987SOL     vw 7948   5.331   2.202   1.531 -0.3939 -0.0950 -0.0296
 1988SOL     ow 7949   3.171   0.548   5.166  0.2529  0.1406  0.3327
 1988SOL     hw 7950   3.235   0.482   5.193 -0.2515  0.2468  1.8440
 1988SOL     hw 7951   3.224   0.615   5.121  0.8437 -0.9837 -0.7346
 1988SOL     vw 7952   3.187   0.548   5.163  0.2643  0.0063  0.3915
 1989SOL     ow 7953   1.722   4.268   6.762 -0.1681  0.4118  0.3303
 1989SOL     hw 7954   1.737   4.314   6.680 -0.8083  2.5084  1.3259
 1989SOL     hw 7955   1.661   4.198   6.740 -0.8292  1.3345 -0.8604
 1989SOL     vw 7956   1.716   4.265   6.749 -0.3398  0.8099  0.3045
 1990SOL     ow 7957   2.876   5.642   5.854 -0.0333 -0.1740  0.6897
 1990SOL     hw 7958   2.793   5.670   5.818  1.0090 -0.5352 -2.2224
 1990SOL     hw 7959   2.854   5.601   5.938 -2.3385  2.7988  1.6990
 1990SOL     vw 7960   2.862   5.640   5.861 -0.1999  0.1705  0.4385
 1991SOL     ow 7961   3.818   1.526   0.573 -0.1921  0.1278  0.9629
 1991SOL     hw 7962   3.765   1.591   0.526 -0.6952 -0.4397  0.7372
 1991SOL     hw 7963   3.832   1.456   0.510  3.1309  1.4042  0.0740
 1991SOL     vw 7964   3.813   1.526   0.558  0.1799  0.2214  0.8158
 1992SOL     ow 7965   1.117   2.428   5.087  0.3804 -0.5591 -0.3724
 1992SOL     hw 7966   1.158   2.462   5.167 -1.8253 -1.0912  1.0849
 1992SOL     hw 7967   1.103   2.335   5.106 -2.0715 -0.2706 -0.4495
 1992SOL     vw 7968   1.120   2.420   5.100 -0.2341 -0.5913 -0.1903
 1993SOL     ow 7969   2.534   6.166   2.649  0.0150 -0.2185  0.0541
 1993SOL     hw 7970   2.477   6.096   2.619  2.1255 -1.0949 -2.2579
 1993SOL     hw 7971   2.580   6.130   2.724  0.3770 -0.9964 -0.5291
 1993SOL     vw 7972   2.533   6.152   2.655  0.3412 -0.4368 -0.3279
 1994SOL     ow 7973   4.371   3.325   6.827 -0.2147 -0.7203  0.2338
 1994SOL     hw 7974   4.339   3.243   6.864  1.2872 -0.6250  1.8378
 1994SOL     hw 7975   4.466   3.314   6.821 -0.2750 -0.6479 -3.5333
 1994SOL     vw 7976   4.379   3.313   6.831 -0.0248 -0.6981 -0.0517
 1995SOL     ow 7977   1.986   5.371   1.090  0.2193  0.2561  0.4084
 1995SOL     hw 7978   2.065   5.324   1.118 -0.2322 -3.0446 -3.0063
 1995SOL     hw 7979   1.926   5.364   1.165  1.3996 -1.8252  1.2362
 1995SOL     vw 7980   1.988   5.364   1.104  0.3155 -0.4539  0.0671
 1996SOL     ow 7981   5.065   0.689   2.326  0.5940 -0.2823 -0.2187
 1996SOL     hw 7982   5.062   0.601   2.366 -0.7918 -1.0727 -1.9155
 1996SOL     hw 7983   5.016   0.679   2.245  0.6137  2.0429 -0.5618
 1996SOL     vw 7984   5.058   0.676   2.321  0.4137 -0.0798 -0.4878
 1997SOL     ow 7985   2.079   4.402   7.523  0.1466 -0.3956  0.0074
 1997SOL     hw 7986   2.043   4.424   7.609  1.0849 -2.5330  1.0501
 1997SOL     hw 7987   2.038   4.463   7.463 -1.1710  0.6530  1.8603
 1997SOL     vw 7988   2.069   4.413   7.527  0.0968 -0.5391  0.3893
 1998SOL     ow 7989   1.950   6.217   4.167  0.4025  0.3866 -0.4429
 1998SOL     hw 7990   1.953   6.250   4.077  0.6819  0.8466 -0.2709
 1998SOL     hw 7991   2.034   6.243   4.205 -0.2063  1.3411  0.3302
 1998SOL     vw 7992   1.961   6.225   4.160  0.3590  0.5732 -0.3183
 1999SOL     ow 7993   0.808   6.097   0.997 -0.3915 -0.3797  0.0305
 1999SOL     hw 7994   0.785   6.030   1.060 -0.8637 -0.7254 -0.4996
 1999SOL     hw 7995   0.881   6.144   1.037  0.1206 -1.3737  0.2943
 1999SOL     vw 7996   0.815   6.094   1.010 -0.3863 -0.5567 -0.0046
 2000SOL     ow 7997   3.365   5.283   6.577 -0.0949 -0.2362  0.2047
 2000SOL     hw 7998   3.401   5.202   6.542  0.6881  0.4051 -0.5062
 2000SOL     hw 7999   3.435   5.347   6.566  0.2371  0.0170  2.9728
 2000SOL     vw 8000   3.379   5.281   6.571  0.0521 -0.1183  0.4761
 2001SOL     ow 8001   1.178   3.640   2.941 -0.1578  0.5296  0.5257
 2001SOL     hw 8002   1.085   3.636   2.919 -0.1439  1.4229  0.2802
 2001SOL     hw 8003   1.221   3.654   2.857  0.1458  0.8030  0.7278
 2001SOL     vw 8004   1.171   3.641   2.927 -0.1159  0.6835  0.5198
 2002SOL     ow 8005   6.291   3.182   4.730 -0.6292 -1.0016  0.0080
 2002SOL     hw 8006   6.301   3.223   4.816 -1.9243 -0.6201 -0.0060
 2002SOL     hw 8007   6.300   3.254   4.668 -0.4460 -1.1503 -0.1366
 2002SOL     vw 8008   6.294   3.197   4.733 -0.7761 -0.9710 -0.0131
 2003SOL     ow 8009   6.047   5.773   1.034  0.4239  0.1089  0.5239
 2003SOL     hw 8010   6.075   5.684   1.013 -0.4565  0.6231 -3.7676
 2003SOL     hw 8011   5.961   5.763   1.075  0.6821 -0.9881  0.8288
 2003SOL     vw 8012   6.039   5.760   1.037  0.3417  0.0319 -0.0020
 2004SOL     ow 8013   6.421   5.272   5.722 -0.6889  0.1083 -0.2135
 2004SOL     hw 8014   6.372   5.352   5.704 -1.1779 -0.0468  0.3535
 2004SOL     hw 8015   6.455   5.285   5.811  0.1515  0.1364 -0.5366
 2004SOL     vw 8016   6.419   5.284   5.731 -0.6425  0.0918 -0.1814
 2005SOL     ow 8017   3.526   4.329   5.928  0.3323 -0.0353  0.1904
 2005SOL     hw 8018   3.499   4.237   5.923  4.3804 -1.3297 -2.3161
 2005SOL     hw 8019   3.478   4.371   5.856 -0.9107 -0.3036  0.8249
 2005SOL     vw 8020   3.516   4.322   5.918  0.7026 -0.2413 -0.0565
 2006SOL     ow 8021   3.264   5.052   7.411 -0.1774  0.2311 -0.1326
 2006SOL     hw 8022   3.241   5.010   7.494  0.4039  0.2240  0.0328
 2006SOL     hw 8023   3.359   5.042   7.406  0.4389  3.8262  1.1920
 2006SOL     vw 8024   3.274   5.045   7.422 -0.0193  0.7043  0.0641
 2007SOL     ow 8025   6.906   5.293   5.674  0.1059 -0.3479 -0.2719
 2007SOL     hw 8026   6.948   5.247   5.747 -1.3351 -1.8882 -0.3451
 2007SOL     hw 8027   6.856   5.364   5.715  0.0920 -0.5984  0.1519
 2007SOL     vw 8028   6.905   5.296   5.689 -0.0863 -0.5841 -0.2253
 2008SOL     ow 8029   2.177   7.214   6.567  0.1994  0.6734  0.5083
 2008SOL     hw 8030   2.224   7.247   6.644  0.7578  0.9190  0.0691
 2008SOL     hw 8031   2.242   7.160   6.521 -0.9232 -1.9140  1.7175
 2008SOL     vw 8032   2.192   7.211   6.571  0.1251  0.3643  0.6099
 2009SOL     ow 8033   3.413   5.706   6.401 -0.5211  0.0752  0.0357
 2009SOL     hw 8034   3.340   5.700   6.463  0.1343  1.2925  0.9871
 2009SOL     hw 8035   3.386   5.774   6.339 -0.7041 -0.3422 -0.3432
 2009SOL     vw 8036   3.400   5.714   6.401 -0.4587  0.1807  0.1113
 2010SOL     ow 8037   4.558   3.917   1.527 -0.2295  0.0463  0.3898
 2010SOL     hw 8038   4.609   3.896   1.605  0.3754  0.2952  0.0714
 2010SOL     hw 8039   4.557   3.835   1.476 -0.0489  0.0676  0.3488
 2010SOL     vw 8040   4.565   3.903   1.530 -0.1259  0.0819  0.3424
 2011SOL     ow 8041   3.302   7.037   4.351  0.1464 -0.2379 -0.3398
 2011SOL     hw 8042   3.297   7.132   4.344 -0.9509 -0.3396 -1.1945
 2011SOL     hw 8043   3.354   7.022   4.431  0.7110  1.0557 -0.4298
 2011SOL     vw 8044   3.308   7.047   4.361  0.0761 -0.0806 -0.4644
 2012SOL     ow 8045   0.759   6.833   4.850 -0.5062  0.2717 -0.6353
 2012SOL     hw 8046   0.753   6.837   4.946 -0.5034 -0.0118 -0.6218
 2012SOL     hw 8047   0.732   6.744   4.829  1.3089 -0.2891 -0.7535
 2012SOL     vw 8048   0.755   6.822   4.860 -0.2664  0.1605 -0.6490
 2013SOL     ow 8049   1.311   6.289   7.148  0.2924  0.2721 -0.1082
 2013SOL     hw 8050   1.335   6.319   7.236 -0.8388  0.1467  0.2636
 2013SOL     hw 8051   1.220   6.260   7.157 -0.6977  2.4921 -1.8176
 2013SOL     vw 8052   1.302   6.289   7.161  0.0125  0.5481 -0.2847
 2014SOL     ow 8053   0.945   0.369   1.180 -0.5582 -0.2709  0.6101
 2014SOL     hw 8054   0.963   0.333   1.267  0.5819  0.9833  0.9361
 2014SOL     hw 8055   1.021   0.343   1.127 -1.0056 -0.6024  0.1236
 2014SOL     vw 8056   0.958   0.361   1.185 -0.4668 -0.1492  0.5890
 2015SOL     ow 8057   3.723   5.741   6.454  0.7802  0.5101  0.0818
 2015SOL     hw 8058   3.792   5.800   6.424  1.1368 -1.5444 -3.5847
 2015SOL     hw 8059   3.769   5.671   6.500  0.9989  0.0188 -0.8691
 2015SOL     vw 8060   3.738   5.740   6.456  0.8560  0.1745 -0.5274
 2016SOL     ow 8061   6.060   5.201   0.488  0.0626  0.0930  0.0086
 2016SOL     hw 8062   6.080   5.294   0.492 -0.1454  0.2443 -1.6609
 2016SOL     hw 8063   6.041   5.184   0.396 -0.3834 -1.5082  0.3497
 2016SOL     vw 8064   6.060   5.211   0.476 -0.0241 -0.0982 -0.1667
 2017SOL     ow 8065   4.570   6.202   7.101 -0.2304  0.2840 -0.1762
 2017SOL     hw 8066   4.602   6.290   7.121  1.0495 -0.4298  1.1262
 2017SOL     hw 8067   4.535   6.170   7.184  2.5327 -1.6974  0.3686
 2017SOL     vw 8068   4.570   6.210   7.115  0.3030 -0.0715  0.0675
 2018SOL     ow 8069   5.825   3.153   2.473 -0.5343  0.3607 -0.8784
 2018SOL     hw 8070   5.864   3.066   2.465  1.8012  0.9721  2.0159
 2018SOL     hw 8071   5.785   3.154   2.560  0.1275  2.3679 -0.5291
 2018SOL     vw 8072   5.825   3.142   2.484 -0.1388  0.7061 -0.4504
 2019SOL     ow 8073   4.571   6.415   6.287  0.1712  0.2390  0.2029
 2019SOL     hw 8074   4.551   6.323   6.301 -1.0847  0.4725  0.0653
 2019SOL     hw 8075   4.526   6.437   6.205  0.4666  0.9673  0.2268
 2019SOL     vw 8076   4.562   6.406   6.278  0.0446  0.3660  0.1879
 2020SOL     ow 8077   7.333   0.286   1.528 -0.4652 -0.3802 -0.4870
 2020SOL     hw 8078   7.254   0.242   1.498  0.3999 -2.9442  0.6652
 2020SOL     hw 8079   7.307   0.330   1.609 -0.9421 -0.3885 -0.6361
 2020SOL     vw 8080   7.319   0.286   1.535 -0.4139 -0.7196 -0.3546
 2021SOL     ow 8081   4.752   3.028   1.276 -0.4693  0.1081 -0.7002
 2021SOL     hw 8082   4.759   3.067   1.364 -2.3049  0.6003 -0.7449
 2021SOL     hw 8083   4.833   2.978   1.266 -1.0305 -1.5570  2.0541
 2021SOL     vw 8084   4.764   3.027   1.286 -0.7856 -0.0466 -0.3427
 2022SOL     ow 8085   6.142   0.549   4.640  0.1562  0.0124 -0.1309
 2022SOL     hw 8086   6.065   0.502   4.607  0.2981 -0.2430 -0.1058
 2022SOL     hw 8087   6.108   0.633   4.669 -0.1738 -0.2271  0.1954
 2022SOL     vw 8088   6.127   0.554   4.639  0.1314 -0.0529 -0.0844
 2023SOL     ow 8089   0.351   2.369   2.986 -0.0608  0.1618 -0.2235
 2023SOL     hw 8090   0.397   2.430   3.043 -1.4618  1.0449  0.0275
 2023SOL     hw 8091   0.293   2.321   3.044 -1.5791  1.1402 -0.8616
 2023SOL     vw 8092   0.349   2.371   3.001 -0.4459  0.4075 -0.2744
 2024SOL     ow 8093   2.581   5.139   2.955 -0.4116 -0.3888  0.6465
 2024SOL     hw 8094   2.526   5.061   2.963 -0.1295 -0.5828  0.7011
 2024SOL     hw 8095   2.650   5.113   2.894  0.4831 -0.6373  1.7397
 2024SOL     vw 8096   2.583   5.125   2.948 -0.2564 -0.4470  0.7979
 2025SOL     ow 8097   1.581   0.134   0.493 -0.1533  0.4078 -0.2941
 2025SOL     hw 8098   1.565   0.097   0.406  0.9424  0.7014 -0.6473
 2025SOL     hw 8099   1.605   0.225   0.476 -1.7184  1.0003  0.4803
 2025SOL     vw 8100   1.582   0.141   0.479 -0.2152  0.5247 -0.2385
 2026SOL     ow 8101   0.941   6.858   4.550 -0.9466 -0.3863  0.7456
 2026SOL     hw 8102   1.024   6.896   4.522 -1.8412 -0.0864 -1.7222
 2026SOL     hw 8103   0.936   6.774   4.504 -2.9220  0.5489 -0.8911
 2026SOL     vw 8104   0.951   6.852   4.540 -1.3253 -0.2234  0.2041
 2027SOL     ow 8105   0.828   0.022   6.324 -0.7243 -0.4977  0.2240
 2027SOL     hw 8106   0.795  -0.005   6.409  0.3155  0.7515  1.0522
 2027SOL     hw 8107   0.766   0.087   6.293  0.6284  1.5855  1.6203
 2027SOL     vw 8108   0.816   0.027   6.331 -0.4086 -0.0580  0.5176
 2028SOL     ow 8109   6.452   5.754   6.858 -0.0962  0.2143 -0.6413
 2028SOL     hw 8110   6.395   5.720   6.927  0.3201  1.0989  0.1571
 2028SOL     hw 8111   6.437   5.848   6.859  2.1423  0.6126  0.3276
 2028SOL     vw 8112   6.442   5.762   6.868  0.2539  0.3836 -0.4082
 2029SOL     ow 8113   7.214   4.701   4.397 -0.5757  0.2072 -0.6537
 2029SOL     hw 8114   7.202   4.664   4.484  1.1423  0.1414 -0.4160
 2029SOL     hw 8115   7.151   4.773   4.394  0.2898  1.1280  1.2123
 2029SOL     vw 8116   7.204   4.706   4.408 -0.2351  0.3202 -0.3760
 2030SOL     ow 8117   0.157   5.000   3.160 -0.4538  0.0149 -0.1993
 2030SOL     hw 8118   0.139   5.081   3.209 -1.5426 -0.5639  0.3826
 2030SOL     hw 8119   0.191   5.031   3.076 -3.7118  1.2568 -1.2266
 2030SOL     vw 8120   0.159   5.015   3.155 -1.0273  0.1020 -0.2581
 2031SOL     ow 8121   2.030   1.222   1.345  0.3692  0.4736  0.3561
 2031SOL     hw 8122   1.953   1.218   1.288  0.1188  2.7366  0.4468
 2031SOL     hw 8123   2.070   1.135   1.338 -0.6198  0.1407 -1.8993
 2031SOL     vw 8124   2.026   1.210   1.337  0.2056  0.7282  0.0705
 2032SOL     ow 8125   2.211   5.744   6.804 -0.3534  0.8982  0.0795
 2032SOL     hw 8126   2.282   5.788   6.758 -0.0656 -1.6746 -2.1630
 2032SOL     hw 8127   2.131   5.777   6.762 -0.1891  0.0664 -0.9222
 2032SOL     vw 8128   2.210   5.754   6.793 -0.2937  0.4489 -0.3483
 2033SOL     ow 8129   1.254   2.911   1.736 -0.0672  0.7626  0.5114
 2033SOL     hw 8130   1.211   2.987   1.775  0.3372  1.3237 -0.1090
 2033SOL     hw 8131   1.185   2.868   1.684 -0.9122 -0.6144  2.6175
 2033SOL     vw 8132   1.239   2.915   1.735 -0.1253  0.6551  0.7074
 2034SOL     ow 8133   6.316   7.358   0.767 -0.0294  0.1876  0.3347
 2034SOL     hw 8134   6.298   7.408   0.847  0.0365  1.6632 -0.5338
 2034SOL     hw 8135   6.263   7.401   0.699  1.1930  0.0451 -0.7572
 2034SOL     vw 8136   6.307   7.370   0.768  0.1404  0.3633  0.0761
 2035SOL     ow 8137   5.161   0.107   5.292 -0.3239 -0.5660  0.7333
 2035SOL     hw 8138   5.223   0.154   5.237 -0.6143 -0.0720  0.8244
 2035SOL     hw 8139   5.166   0.150   5.377 -0.0791 -1.1483  1.0233
 2035SOL     vw 8140   5.170   0.119   5.296 -0.3297 -0.5777  0.7834
 2036SOL     ow 8141   5.628   1.627   7.385 -0.1015  0.1205 -0.6281
 2036SOL     hw 8142   5.694   1.671   7.332  0.7438  1.6979  1.6161
 2036SOL     hw 8143   5.676   1.590   7.459 -1.5667  0.2512  0.4343
 2036SOL     vw 8144   5.643   1.628   7.388 -0.1831  0.3458 -0.1919
 2037SOL     ow 8145   4.808   4.929   1.688 -0.1883 -0.0709 -0.5664
 2037SOL     hw 8146   4.800   5.015   1.646  1.6286  0.4998  0.1464
 2037SOL     hw 8147   4.718   4.900   1.699 -0.7739  0.4053 -3.4359
 2037SOL     vw 8148   4.795   4.937   1.684 -0.0260  0.0668 -0.8510
 2038SOL     ow 8149   5.352   6.614   3.452  0.4574 -0.1416 -0.4231
 2038SOL     hw 8150   5.333   6.628   3.544  0.4860  1.0115 -0.5701
 2038SOL     hw 8151   5.425   6.673   3.433  1.9813 -2.0076 -0.6662
 2038SOL     vw 8152   5.359   6.624   3.461  0.6623 -0.2360 -0.4746
 2039SOL     ow 8153   7.010   4.949   2.320 -0.6441  0.3929  0.1279
 2039SOL     hw 8154   7.053   4.871   2.357  1.3397  1.0348 -0.6790
 2039SOL     hw 8155   7.009   4.933   2.226 -0.8459  1.0483  0.0142
 2039SOL     vw 8156   7.016   4.936   2.313 -0.4089  0.5641  0.0064
 2040SOL     ow 8157   6.613   7.000   0.724 -0.8460 -0.1544  0.0381
 2040SOL     hw 8158   6.599   6.997   0.819  0.5854  0.5072  0.2863
 2040SOL     hw 8159   6.538   7.049   0.690 -2.1267 -1.5993  0.6385
 2040SOL     vw 8160   6.601   7.006   0.732 -0.8261 -0.2575  0.1501
 2041SOL     ow 8161   1.838   3.676   0.999  0.2320  0.7243  0.4742
 2041SOL     hw 8162   1.748   3.644   1.000  0.2521  0.4529 -1.6325
 2041SOL     hw 8163   1.842   3.733   0.922  1.7518  1.0598  0.7735
 2041SOL     vw 8164   1.827   3.679   0.989  0.4352  0.7327  0.2358
 2042SOL     ow 8165   7.441   0.862   0.521  0.0994 -0.0771  0.1024
 2042SOL     hw 8166   7.471   0.946   0.487  0.4965 -1.0513 -2.1242
 2042SOL     hw 8167   7.519   0.806   0.520 -0.4861 -0.9082  0.0573
 2042SOL     vw 8168   7.455   0.866   0.516  0.0746 -0.3152 -0.1974
 2043SOL     ow 8169   1.333   4.317   2.964  0.1606 -0.1152 -0.6042
 2043SOL     hw 8170   1.352   4.365   3.044  0.3143 -2.0412  0.5670
 2043SOL     hw 8171   1.322   4.385   2.897  0.4641  1.5112  0.9378
 2043SOL     vw 8172   1.334   4.332   2.966  0.2210 -0.1547 -0.2463
 2044SOL     ow 8173   6.267   1.449   1.552  0.5086 -0.2804 -0.0686
 2044SOL     hw 8174   6.205   1.398   1.605 -0.1508 -0.2117 -0.7504
 2044SOL     hw 8175   6.325   1.383   1.513  1.1770 -0.3067  0.9560
 2044SOL     vw 8176   6.266   1.433   1.554  0.5097 -0.2748 -0.0234
 2045SOL     ow 8177   5.279   3.821   1.352  0.3182 -0.1230  0.0110
 2045SOL     hw 8178   5.371   3.847   1.344  0.3858 -0.5714 -0.7348
 2045SOL     hw 8179   5.238   3.893   1.400  0.8125  0.6538 -0.6983
 2045SOL     vw 8180   5.286   3.834   1.357  0.3924 -0.0796 -0.1810
 2046SOL     ow 8181   6.978   5.143   5.142  0.3942 -0.2017 -0.1870
 2046SOL     hw 8182   7.022   5.170   5.222 -1.4030  0.3347  0.6822
 2046SOL     hw 8183   6.917   5.074   5.169 -1.1682  0.8714 -0.8014
 2046SOL     vw 8184   6.975   5.137   5.156 -0.0489  0.0107 -0.1533
 2047SOL     ow 8185   5.670   2.484   1.151 -0.4869 -0.4336  0.1549
 2047SOL     hw 8186   5.659   2.562   1.096 -0.7544 -0.6847 -0.1440
 2047SOL     hw 8187   5.759   2.454   1.133  0.2153  0.7163  1.4494
 2047SOL     vw 8188   5.680   2.491   1.141 -0.4296 -0.3150  0.2862
 2048SOL     ow 8189   1.951   3.482   1.312  0.1274  0.6596  0.2073
 2048SOL     hw 8190   1.969   3.545   1.241  1.5863  0.3026  0.2187
 2048SOL     hw 8191   2.024   3.420   1.308 -0.6176 -0.3034  1.0119
 2048SOL     vw 8192   1.963   3.482   1.302  0.2216  0.4855  0.3149
 2049SOL     ow 8193   3.976   1.387   0.745  0.1339 -0.5840  0.7454
 2049SOL     hw 8194   3.911   1.333   0.791 -1.9484 -0.8841 -2.2701
 2049SOL     hw 8195   4.039   1.325   0.710 -1.0316 -0.9190 -0.8554
 2049SOL     vw 8196   3.975   1.372   0.746 -0.2947 -0.6678  0.1363
 2050SOL     ow 8197   1.190   2.648   2.059  0.2981 -0.3104 -0.3050
 2050SOL     hw 8198   1.257   2.673   1.994  0.7508  1.7875  0.8772
 2050SOL     hw 8199   1.124   2.716   2.051  1.1992  1.0582  2.5583
 2050SOL     vw 8200   1.190   2.661   2.049  0.4767  0.1470  0.2289
 2051SOL     ow 8201   1.615   2.103   6.368  0.0459  0.0454  0.3524
 2051SOL     hw 8202   1.551   2.086   6.437 -0.7061  1.8318  0.1472
 2051SOL     hw 8203   1.584   2.183   6.325 -0.6487 -2.0095 -3.3892
 2051SOL     vw 8204   1.603   2.111   6.371 -0.1449  0.0099 -0.1686
 2052SOL     ow 8205   3.217   4.225   7.320  0.4597 -0.3316  0.8870
 2052SOL     hw 8206   3.139   4.172   7.305  0.6994 -0.8206  1.3272
 2052SOL     hw 8207   3.281   4.192   7.257  0.6536 -0.6635  1.2557
 2052SOL     vw 8208   3.215   4.214   7.310  0.5168 -0.4399  0.9935
 2053SOL     ow 8209   1.615   6.195   4.507 -0.4332 -0.4748 -0.0844
 2053SOL     hw 8210   1.707   6.203   4.482 -0.4992 -0.6312 -0.3833
 2053SOL     hw 8211   1.592   6.282   4.541 -0.4347 -0.1520 -0.8840
 2053SOL     vw 8212   1.624   6.208   4.508 -0.4421 -0.4530 -0.2294
 2054SOL     ow 8213   3.489   5.874   1.655 -0.1682  0.0352 -0.3053
 2054SOL     hw 8214   3.450   5.788   1.668 -0.9067  0.3781 -0.2340
 2054SOL     hw 8215   3.578   5.856   1.626 -0.3623 -0.7528 -0.4141
 2054SOL     vw 8216   3.496   5.860   1.653 -0.2912 -0.0238 -0.3102
 2055SOL     ow 8217   2.958   4.925   5.719 -0.0687  0.6212 -0.4472
 2055SOL     hw 8218   3.037   4.878   5.693  0.0789  0.4794  0.2610
 2055SOL     hw 8219   2.912   4.942   5.636  0.0672 -0.4226 -0.7450
 2055SOL     vw 8220   2.962   4.921   5.704 -0.0312  0.4649 -0.3929
 2056SOL     ow 8221   3.294   5.814   3.967  0.1925  0.1238 -0.2513
 2056SOL     hw 8222   3.323   5.723   3.959 -0.5124 -0.3883  2.2789
 2056SOL     hw 8223   3.366   5.866   3.930  2.5936 -1.2635  2.1825
 2056SOL     vw 8224   3.307   5.809   3.961  0.4163 -0.1266  0.4035
 2057SOL     ow 8225   4.938   4.650   1.117 -0.4162  0.3865  0.4629
 2057SOL     hw 8226   4.985   4.731   1.095  0.0397 -0.0272 -0.1102
 2057SOL     hw 8227   4.999   4.601   1.172  1.0588 -1.4125 -2.5076
 2057SOL     vw 8228   4.952   4.654   1.121 -0.1612  0.0944 -0.0046
 2058SOL     ow 8229   5.688   4.881   6.897 -0.1889  0.4576 -0.3153
 2058SOL     hw 8230   5.703   4.817   6.828 -0.0763  1.3253 -1.1100
 2058SOL     hw 8231   5.761   4.942   6.890 -1.1129  1.5512 -0.5854
 2058SOL     vw 8232   5.700   4.880   6.887 -0.2964  0.7162 -0.4559
 2059SOL     ow 8233   3.155   3.884   6.931  0.2460 -0.0539 -0.1827
 2059SOL     hw 8234   3.143   3.976   6.906  1.3605  0.5466  1.3223
 2059SOL     hw 8235   3.132   3.882   7.024 -1.4893 -1.6997 -0.5839
 2059SOL     vw 8236   3.150   3.896   6.940  0.1640 -0.1919 -0.0372
 2060SOL     ow 8237   7.087   6.521   2.651  0.2322 -0.0501 -0.5248
 2060SOL     hw 8238   7.014   6.458   2.650 -0.1655  0.3567  0.6474
 2060SOL     hw 8239   7.044   6.606   2.648  0.5333  0.2387  1.7465
 2060SOL     vw 8240   7.072   6.524   2.650  0.2193  0.0417 -0.0705
 2061SOL     ow 8241   5.224   2.785   7.228  0.1408  0.1231  0.7453
 2061SOL     hw 8242   5.132   2.808   7.241 -0.0127 -0.2352  0.2909
 2061SOL     hw 8243   5.272   2.854   7.274 -0.3446  0.6714  0.4479
 2061SOL     vw 8244   5.218   2.797   7.236  0.0565  0.1482  0.6459
 2062SOL     ow 8245   2.244   4.154   7.125  0.0351  0.4774  0.0762
 2062SOL     hw 8246   2.205   4.242   7.126  0.5881  0.7251  1.0428
 2062SOL     hw 8247   2.317   4.160   7.187 -0.8201 -1.0617  1.2907
 2062SOL     vw 8248   2.248   4.167   7.133 -0.0048  0.3068  0.3643
 2063SOL     ow 8249   7.335   5.426   1.150 -0.0026 -0.4111 -0.2307
 2063SOL     hw 8250   7.269   5.374   1.104  0.7515 -1.0796 -0.5861
 2063SOL     hw 8251   7.396   5.452   1.082 -1.3865  2.7067 -0.4569
 2063SOL     vw 8252   7.334   5.422   1.135 -0.0856 -0.0880 -0.3074
 2064SOL     ow 8253   6.699   7.022   6.260  0.1281 -0.8860  0.5337
 2064SOL     hw 8254   6.614   7.019   6.216 -0.8580 -2.1099  2.3721
 2064SOL     hw 8255   6.696   7.103   6.312 -0.2420 -1.3134  1.1861
 2064SOL     vw 8256   6.687   7.032   6.261 -0.0508 -1.1036  0.8624
 2065SOL     ow 8257   6.094   4.674   3.649  0.5299  0.1423 -0.1344
 2065SOL     hw 8258   6.073   4.707   3.561  2.5892  1.0492 -0.3423
 2065SOL     hw 8259   6.009   4.668   3.693 -0.4684  0.4701 -1.8922
 2065SOL     vw 8260   6.080   4.677   3.643  0.6697  0.3052 -0.3936
 2066SOL     ow 8261   3.285   6.538   6.374  0.0162  1.1113 -0.2579
 2066SOL     hw 8262   3.375   6.508   6.363 -0.1617  0.2863  0.4736
 2066SOL     hw 8263   3.231   6.469   6.335 -0.4979 -0.6183  3.1292
 2066SOL     vw 8264   3.289   6.525   6.367 -0.0751  0.7744  0.2854
 2067SOL     ow 8265   1.027   0.701   0.416 -0.0628 -0.4158 -0.1729
 2067SOL     hw 8266   1.111   0.676   0.379  0.2068 -2.5881  1.6494
 2067SOL     hw 8267   0.964   0.642   0.375 -0.0184 -1.6211  1.3948
 2067SOL     vw 8268   1.030   0.690   0.406 -0.0214 -0.8615  0.2744
 2068SOL     ow 8269   7.282   6.811   3.552 -0.1635 -0.3043  0.0307
 2068SOL     hw 8270   7.204   6.866   3.539  0.3401  0.4212 -0.0200
 2068SOL     hw 8271   7.342   6.867   3.602  1.3363  0.1376 -2.1052
 2068SOL     vw 8272   7.280   6.826   3.557  0.1009 -0.1502 -0.2578
 2069SOL     ow 8273   7.325   1.257   1.085  0.4997 -0.3782 -0.0036
 2069SOL     hw 8274   7.411   1.263   1.126  0.5221 -1.1477  0.0890
 2069SOL     hw 8275   7.265   1.296   1.148  0.2656 -3.2179  1.6964
 2069SOL     vw 8276   7.328   1.263   1.099  0.4718 -0.8543  0.2330
 2070SOL     ow 8277   4.399   6.362   5.148  0.1052  0.3824  0.1286
 2070SOL     hw 8278   4.491   6.368   5.123  0.2006 -2.1204 -0.4167
 2070SOL     hw 8279   4.351   6.369   5.065  0.0103 -0.8990  0.0441
 2070SOL     vw 8280   4.405   6.363   5.134  0.1051 -0.1171  0.0458
 2071SOL     ow 8281   1.820   1.441   4.248  0.3346  0.3583  0.9186
 2071SOL     hw 8282   1.778   1.424   4.332  0.3777 -2.4693  0.4494
 2071SOL     hw 8283   1.755   1.416   4.182 -0.4026  4.1733 -0.0840
 2071SOL     vw 8284   1.806   1.436   4.250  0.2429  0.4886  0.7246
 2072SOL     ow 8285   7.511   4.064   2.050 -0.3474  0.1496  0.1138
 2072SOL     hw 8286   7.446   4.016   1.999  0.3661  2.8385 -3.7265
 2072SOL     hw 8287   7.581   4.000   2.064 -1.7292 -1.4476  0.1896
 2072SOL     vw 8288   7.511   4.049   2.045 -0.4356  0.2935 -0.3829
 2073SOL     ow 8289   4.375   1.921   7.464 -0.1980  0.0846 -0.4749
 2073SOL     hw 8290   4.292   1.931   7.511 -1.5476 -2.8420 -1.9567
 2073SOL     hw 8291   4.360   1.965   7.380 -0.1058 -0.0854 -0.5816
 2073SOL     vw 8292   4.362   1.928   7.459 -0.3641 -0.3239 -0.6845
 2074SOL     ow 8293   4.684   1.266   5.590 -0.2732 -0.2420  0.2565
 2074SOL     hw 8294   4.667   1.254   5.496  1.0431 -2.0519  0.1836
 2074SOL     hw 8295   4.725   1.352   5.596 -0.5610 -0.0165 -0.8134
 2074SOL     vw 8296   4.687   1.276   5.578 -0.1376 -0.4510  0.1059
 2075SOL     ow 8297   1.709   1.382   2.752  0.0328  0.1654 -0.2334
 2075SOL     hw 8298   1.750   1.420   2.830 -0.5747  0.7479 -0.1912
 2075SOL     hw 8299   1.764   1.307   2.730  2.0087  1.7384 -1.0098
 2075SOL     vw 8300   1.722   1.377   2.759  0.2134  0.4498 -0.3302
 2076SOL     ow 8301   2.512   2.300   5.323  0.0917 -0.1223  0.3000
 2076SOL     hw 8302   2.570   2.281   5.397 -0.4928 -0.5277  0.6739
 2076SOL     hw 8303   2.437   2.242   5.338 -0.3937  0.3820 -0.1754
 2076SOL     vw 8304   2.510   2.290   5.335 -0.0495 -0.1091  0.2866
 2077SOL     ow 8305   1.144   5.662   5.252  0.2252  0.2205  0.8117
 2077SOL     hw 8306   1.176   5.658   5.342  1.6412  0.0919  0.3359
 2077SOL     hw 8307   1.130   5.755   5.236  0.8659  0.3331  0.8785
 2077SOL     vw 8308   1.146   5.674   5.262  0.4966  0.2182  0.7577
 2078SOL     ow 8309   5.493   0.686   4.880 -0.0051 -0.1546 -0.3953
 2078SOL     hw 8310   5.426   0.634   4.836 -0.4709  1.2139 -1.3856
 2078SOL     hw 8311   5.519   0.751   4.815  1.6589 -0.1080  0.2799
 2078SOL     vw 8312   5.487   0.688   4.866  0.1528  0.0321 -0.4368
 2079SOL     ow 8313   7.238   6.685   6.723 -0.6853  0.9046 -0.2053
 2079SOL     hw 8314   7.321   6.733   6.720 -0.1266  0.9144  5.1510
 2079SOL     hw 8315   7.254   6.605   6.673  3.6946 -0.2766  2.4757
 2079SOL     vw 8316   7.251   6.681   6.716 -0.0336  0.7498  0.8552
 2080SOL     ow 8317   5.794   4.837   2.211  0.8921 -0.2078  0.4146
 2080SOL     hw 8318   5.810   4.831   2.306  1.6649 -0.8566  0.2578
 2080SOL     hw 8319   5.867   4.889   2.178  2.1359 -2.1885 -0.1542
 2080SOL     vw 8320   5.806   4.843   2.219  1.1582 -0.5548  0.3190
 2081SOL     ow 8321   2.079   2.822   6.047  0.3563  0.1513  0.8411
 2081SOL     hw 8322   2.095   2.901   5.995  1.9117 -0.6018  0.1115
 2081SOL     hw 8323   2.164   2.802   6.086 -0.3548 -0.3830  2.1556
 2081SOL     vw 8324   2.093   2.830   6.045  0.4675 -0.0185  0.9184
 2082SOL     ow 8325   0.759   7.215   2.100  0.0904  0.3428 -0.6626
 2082SOL     hw 8326   0.789   7.132   2.138 -0.4943 -0.3964 -1.7488
 2082SOL     hw 8327   0.730   7.191   2.012 -2.2909  1.2417 -0.2142
 2082SOL     vw 8328   0.759   7.201   2.093 -0.3010  0.3638 -0.7468
 2083SOL     ow 8329   3.750   1.149   3.836 -0.7312 -0.0377 -0.0607
 2083SOL     hw 8330   3.711   1.220   3.886  0.5093  0.9138 -0.3985
 2083SOL     hw 8331   3.758   1.183   3.747 -2.6051 -1.5933 -0.8854
 2083SOL     vw 8332   3.746   1.163   3.831 -0.8148 -0.1174 -0.2139
 2084SOL     ow 8333   6.762   6.279   0.691  0.0928 -0.3458 -0.6267
 2084SOL     hw 8334   6.764   6.202   0.748  0.5092  0.5570  0.6379
 2084SOL     hw 8335   6.686   6.329   0.722 -0.6502 -0.6087 -1.9637
 2084SOL     vw 8336   6.752   6.276   0.703  0.0498 -0.2611 -0.6362
 2085SOL     ow 8337   6.981   6.951   6.964 -0.2524  0.2422 -0.1719
 2085SOL     hw 8338   7.068   6.979   6.937  0.1306 -1.3448 -0.7205
 2085SOL     hw 8339   6.968   6.867   6.919 -0.4742 -1.4657  2.8248
 2085SOL     vw 8340   6.990   6.943   6.955 -0.2310 -0.1924  0.1509
 2086SOL     ow 8341   4.316   1.093   3.605 -0.6947  0.3231 -0.3399
 2086SOL     hw 8342   4.398   1.117   3.562 -0.3744  0.8624  0.5467
 2086SOL     hw 8343   4.271   1.176   3.620 -0.4977  0.2200  0.9400
 2086SOL     vw 8344   4.321   1.107   3.601 -0.6263  0.3807 -0.0541
 2087SOL     ow 8345   2.273   3.479   4.128  0.4755 -0.8911 -0.0556
 2087SOL     hw 8346   2.233   3.529   4.057  0.7509  0.7047  0.8696
 2087SOL     hw 8347   2.343   3.430   4.086 -0.2806 -1.0936 -1.1193
 2087SOL     vw 8348   2.277   3.479   4.113  0.4121 -0.7074 -0.0739
 2088SOL     ow 8349   3.984   0.779   3.950  0.0516  0.1042 -0.1153
 2088SOL     hw 8350   3.984   0.759   4.044  1.3131 -1.9988 -0.5139
 2088SOL     hw 8351   4.061   0.733   3.916  0.5398  2.1316 -1.9396
 2088SOL     vw 8352   3.994   0.771   3.958  0.2825  0.0943 -0.4084
 2089SOL     ow 8353   4.217   1.556   7.037  0.0415 -0.0773 -0.2697
 2089SOL     hw 8354   4.175   1.502   6.970 -0.3364  0.4624 -0.4789
 2089SOL     hw 8355   4.260   1.626   6.988 -2.6567  2.0110  0.1298
 2089SOL     vw 8356   4.217   1.558   7.021 -0.3643  0.2694 -0.2446
 2090SOL     ow 8357   2.715   2.855   0.068  0.1822 -0.5386  0.0330
 2090SOL     hw 8358   2.643   2.915   0.047  1.5381  0.6871 -1.3260
 2090SOL     hw 8359   2.679   2.798   0.136 -1.3751  1.4095  0.9579
 2090SOL     vw 8360   2.701   2.855   0.075  0.1556 -0.1200 -0.0243
 2091SOL     ow 8361   2.878   1.182   6.459  0.1105  0.3478  0.2266
 2091SOL     hw 8362   2.867   1.234   6.539 -1.3183  0.3558  0.0565
 2091SOL     hw 8363   2.829   1.230   6.392  0.8703  0.0796 -0.5327
 2091SOL     vw 8364   2.870   1.195   6.461  0.0224  0.3135  0.1040
 2092SOL     ow 8365   2.309   6.403   6.833  0.1010  0.0052 -0.8085
 2092SOL     hw 8366   2.375   6.367   6.893 -0.9176 -0.4863  0.0625
 2092SOL     hw 8367   2.333   6.494   6.822 -0.0512  0.2798  0.9024
 2092SOL     vw 8368   2.321   6.410   6.840 -0.0534 -0.0236 -0.4678
 2093SOL     ow 8369   5.392   3.089   6.655 -0.0618 -0.1627 -0.2309
 2093SOL     hw 8370   5.435   3.004   6.653  2.0889  0.7115  2.5048
 2093SOL     hw 8371   5.299   3.068   6.663  0.4465 -2.3043  0.9028
 2093SOL     vw 8372   5.385   3.075   6.656  0.2890 -0.3300  0.2797
 2094SOL     ow 8373   0.326   2.691   6.305 -0.2477 -0.0355  0.1008
 2094SOL     hw 8374   0.392   2.759   6.320 -0.3532  0.0495  0.1727
 2094SOL     hw 8375   0.321   2.684   6.210  0.5288 -0.6791  0.0891
 2094SOL     vw 8376   0.334   2.699   6.294 -0.1591 -0.1091  0.1085
 2095SOL     ow 8377   0.133   0.505   0.870 -0.6219  0.2025 -0.7033
 2095SOL     hw 8378   0.072   0.528   0.799 -0.9074  0.6314 -0.3276
 2095SOL     hw 8379   0.183   0.585   0.885  0.3077 -0.2557 -1.2611
 2095SOL     vw 8380   0.131   0.519   0.862 -0.5369  0.1986 -0.7273
 2096SOL     ow 8381   4.192   3.465   2.037  0.0799  0.4975 -0.1275
 2096SOL     hw 8382   4.147   3.531   2.089 -0.3331  1.8718 -2.1272
 2096SOL     hw 8383   4.122   3.409   2.003 -0.2375  2.3227 -2.8062
 2096SOL     vw 8384   4.177   3.466   2.039 -0.0165  0.9197 -0.7448
 2097SOL     ow 8385   4.243   6.271   2.296  0.2689  0.1939 -0.0481
 2097SOL     hw 8386   4.226   6.188   2.252 -0.6817  0.5472 -0.3836
 2097SOL     hw 8387   4.338   6.280   2.294  0.2891  0.0336 -1.7770
 2097SOL     vw 8388   4.253   6.261   2.290  0.1462  0.2193 -0.3204
 2098SOL     ow 8389   4.986   0.996   2.755 -0.1090 -0.4136 -0.7320
 2098SOL     hw 8390   4.997   1.084   2.791 -2.0776 -0.7687  0.9491
 2098SOL     hw 8391   5.004   0.938   2.829  2.4031 -1.5427 -2.1383
 2098SOL     vw 8392   4.990   1.000   2.770 -0.0372 -0.6094 -0.6958
 2099SOL     ow 8393   1.391   1.662   0.868 -0.7364 -0.3070 -0.1592
 2099SOL     hw 8394   1.323   1.638   0.806 -0.6397 -1.8403  0.2952
 2099SOL     hw 8395   1.440   1.732   0.825 -0.3442 -1.6789 -2.0381
 2099SOL     vw 8396   1.389   1.668   0.854 -0.6719 -0.6903 -0.3472
 2100SOL     ow 8397   5.194   3.574   3.484  0.5940  0.1889  0.3783
 2100SOL     hw 8398   5.108   3.540   3.506  0.3161  1.0382  0.6387
 2100SOL     hw 8399   5.208   3.547   3.393 -0.1798  0.5267  0.1542
 2100SOL     vw 8400   5.185   3.566   3.475  0.4554  0.3455  0.3831
 2101SOL     ow 8401   3.828   5.555   1.021 -0.1735 -0.3712  0.3462
 2101SOL     hw 8402   3.875   5.612   1.082  0.3043 -0.6554  0.2478
 2101SOL     hw 8403   3.818   5.607   0.942  0.5561 -0.5279  0.1404
 2101SOL     vw 8404   3.833   5.569   1.019 -0.0142 -0.4292  0.3061
 2102SOL     ow 8405   0.550   4.668   4.793 -0.4031 -0.0236  1.0716
 2102SOL     hw 8406   0.545   4.683   4.698 -0.4266  2.0782  1.3471
 2102SOL     hw 8407   0.628   4.613   4.804  0.9004  1.4815 -0.0372
 2102SOL     vw 8408   0.560   4.663   4.782 -0.2342  0.4523  0.9615
 2103SOL     ow 8409   2.854   1.899   1.883  0.4573  0.4181 -0.8198
 2103SOL     hw 8410   2.926   1.853   1.924  1.2146  2.1792 -0.0794
 2103SOL     hw 8411   2.879   1.906   1.791 -0.3903 -1.9102 -1.3036
 2103SOL     vw 8412   2.867   1.894   1.876  0.4455  0.3432 -0.7859
 2104SOL     ow 8413   6.647   5.388   1.061  0.7553 -0.5497 -0.6098
 2104SOL     hw 8414   6.676   5.298   1.075 -1.9642 -1.0170  4.1795
 2104SOL     hw 8415   6.728   5.436   1.041  2.6122 -3.6341 -1.2181
 2104SOL     vw 8416   6.662   5.383   1.061  0.6413 -1.0183 -0.0581
 2105SOL     ow 8417   7.356   4.931   6.411  0.4786  0.3400 -0.1570
 2105SOL     hw 8418   7.366   5.012   6.361 -1.3056  1.2853  0.9076
 2105SOL     hw 8419   7.366   4.861   6.347  0.1962  1.4628 -1.4637
 2105SOL     vw 8420   7.358   4.933   6.396  0.2060  0.6130 -0.1888
 2106SOL     ow 8421   7.140   3.137   2.996  0.5789 -0.8538 -0.4287
 2106SOL     hw 8422   7.074   3.124   2.928  0.2805 -1.1743 -0.0722
 2106SOL     hw 8423   7.161   3.049   3.027 -0.5994 -0.6186  1.1585
 2106SOL     vw 8424   7.134   3.124   2.991  0.3841 -0.8651 -0.1724
 2107SOL     ow 8425   2.907   7.445   2.048  0.1258 -0.1776 -0.2736
 2107SOL     hw 8426   2.918   7.352   2.066 -1.8064 -0.5063 -0.6288
 2107SOL     hw 8427   2.884   7.448   1.955 -1.2706  0.5035  0.0715
 2107SOL     vw 8428   2.906   7.433   2.038 -0.3133 -0.1311 -0.2749
 2108SOL     ow 8429   0.701   1.785   3.464 -0.7754  0.1525  0.4047
 2108SOL     hw 8430   0.742   1.780   3.551 -1.7930  0.5336  0.9273
 2108SOL     hw 8431   0.734   1.708   3.418  0.2908  0.2862  0.8914
 2108SOL     vw 8432   0.711   1.774   3.470 -0.7690  0.2204  0.5379
 2109SOL     ow 8433   5.083   4.323   1.035  0.3673 -0.3568 -0.1381
 2109SOL     hw 8434   5.046   4.244   1.075  1.2734 -0.7218 -0.0037
 2109SOL     hw 8435   5.170   4.331   1.073  1.1076 -0.4996 -1.7005
 2109SOL     vw 8436   5.090   4.313   1.045  0.5844 -0.4237 -0.3265
 2110SOL     ow 8437   6.007   1.671   1.688 -0.6076 -0.3518  0.1413
 2110SOL     hw 8438   6.098   1.661   1.715 -0.1857  1.4653 -0.5119
 2110SOL     hw 8439   5.967   1.587   1.710  0.8281 -0.6383  1.9162
 2110SOL     vw 8440   6.014   1.658   1.695 -0.3626 -0.1498  0.2893
 2111SOL     ow 8441   0.109   3.954   5.864 -0.3248 -0.6103 -0.3158
 2111SOL     hw 8442   0.087   4.040   5.829 -1.2750 -0.7172 -0.0214
 2111SOL     hw 8443   0.117   3.897   5.788  0.7960 -0.1627 -0.5418
 2111SOL     vw 8444   0.107   3.958   5.850 -0.3023 -0.5654 -0.3068
 2112SOL     ow 8445   5.093   0.420   7.359  0.2631 -0.0934 -0.0696
 2112SOL     hw 8446   5.114   0.329   7.375 -1.5210 -0.2163  2.1661
 2112SOL     hw 8447   5.049   0.449   7.440 -2.5672  1.6417 -2.0462
 2112SOL     vw 8448   5.090   0.412   7.372 -0.3457  0.1193 -0.0350
 2113SOL     ow 8449   6.649   3.220   7.110 -0.1174 -0.5355 -0.2912
 2113SOL     hw 8450   6.713   3.278   7.068  0.1928 -2.1687 -2.2429
 2113SOL     hw 8451   6.678   3.214   7.201  1.9878 -0.5063 -0.9084
 2113SOL     vw 8452   6.661   3.227   7.117  0.2015 -0.7471 -0.6301
 2114SOL     ow 8453   6.190   0.660   2.051 -0.2906 -0.1386  0.3591
 2114SOL     hw 8454   6.099   0.653   2.081 -0.2884 -1.7057  0.0908
 2114SOL     hw 8455   6.197   0.748   2.014 -1.9284 -0.2661 -0.3363
 2114SOL     vw 8456   6.179   0.671   2.050 -0.5064 -0.3622  0.2319
 2115SOL     ow 8457   6.375   4.232   2.098 -0.1403  0.3632 -0.5763
 2115SOL     hw 8458   6.402   4.144   2.072  1.8756  1.3619 -2.0844
 2115SOL     hw 8459   6.284   4.221   2.129 -0.0735 -2.1423 -1.0800
 2115SOL     vw 8460   6.366   4.219   2.099  0.1345  0.1645 -0.8417
 2116SOL     ow 8461   2.001   4.949   0.598  0.8371 -0.8134  0.0483
 2116SOL     hw 8462   1.938   5.020   0.608  1.4027 -0.5500  2.2030
 2116SOL     hw 8463   2.086   4.993   0.600  1.1889 -1.5092  1.3640
 2116SOL     vw 8464   2.004   4.965   0.600  0.9580 -0.8702  0.5062
 2117SOL     ow 8465   3.388   6.391   5.533 -0.6658 -0.0435  0.0300
 2117SOL     hw 8466   3.389   6.297   5.515 -0.4308  0.1689 -1.1801
 2117SOL     hw 8467   3.301   6.420   5.505 -0.6931  0.1182  0.2830
 2117SOL     vw 8468   3.377   6.383   5.527 -0.6384  0.0060 -0.0963
 2118SOL     ow 8469   7.347   5.273   2.434  0.4140 -0.1260 -0.0566
 2118SOL     hw 8470   7.323   5.319   2.354 -1.1010  0.8746  0.9163
 2118SOL     hw 8471   7.361   5.342   2.498 -1.7640 -0.9307  1.4068
 2118SOL     vw 8472   7.345   5.288   2.432 -0.0732 -0.0999  0.2648
 2119SOL     ow 8473   7.351   6.960   3.349  0.1466 -0.2244 -0.0606
 2119SOL     hw 8474   7.437   6.944   3.311  1.4069  2.0793  1.5715
 2119SOL     hw 8475   7.349   6.905   3.427 -1.2128 -2.6180 -1.6420
 2119SOL     vw 8476   7.362   6.950   3.354  0.1335 -0.2363 -0.0539
 2120SOL     ow 8477   3.485   6.883   3.959  0.2262 -0.1954  0.0574
 2120SOL     hw 8478   3.505   6.930   4.040  0.1445  1.0445 -0.6141
 2120SOL     hw 8479   3.565   6.891   3.906 -0.3951  0.7650 -0.7789
 2120SOL     vw 8480   3.498   6.890   3.962  0.1335  0.0951 -0.1415
 2121SOL     ow 8481   1.973   2.445   1.430  0.3006 -0.2074 -0.1133
 2121SOL     hw 8482   1.898   2.502   1.415  0.2242 -0.7166 -1.8919
 2121SOL     hw 8483   1.984   2.397   1.348  2.1899 -0.5956  0.3119
 2121SOL     vw 8484   1.965   2.446   1.417  0.5398 -0.3257 -0.2919
 2122SOL     ow 8485   0.036   4.780   1.395 -0.5297  0.1796 -0.1065
 2122SOL     hw 8486  -0.004   4.827   1.322 -1.7627  0.9723  1.0388
 2122SOL     hw 8487   0.127   4.768   1.368 -0.6225  1.6271 -1.2252
 2122SOL     vw 8488   0.043   4.785   1.382 -0.7046  0.4752 -0.1031
 2123SOL     ow 8489   4.693   4.572   4.682  0.0351  0.0681  0.6296
 2123SOL     hw 8490   4.719   4.492   4.637 -0.3878 -1.1243  2.3869
 2123SOL     hw 8491   4.771   4.627   4.683  0.6541 -0.8022  0.3659
 2123SOL     vw 8492   4.706   4.569   4.676  0.0608 -0.2041  0.8266
 2124SOL     ow 8493   2.909   1.761   0.746 -0.4575  0.1442 -0.2569
 2124SOL     hw 8494   2.921   1.732   0.836  0.8012  1.1795 -0.0596
 2124SOL     hw 8495   2.829   1.717   0.717 -2.2019  1.5371  2.1093
 2124SOL     vw 8496   2.900   1.751   0.754 -0.5215  0.4646  0.0814
 2125SOL     ow 8497   6.655   2.952   5.574 -0.1289  0.0152 -0.6664
 2125SOL     hw 8498   6.670   3.002   5.655  3.1161 -1.7734  0.0181
 2125SOL     hw 8499   6.681   3.012   5.504 -1.3449  1.0163 -0.2890
 2125SOL     vw 8500   6.661   2.966   5.576  0.1388 -0.0887 -0.5262
 2126SOL     ow 8501   4.805   2.762   4.237 -0.4444 -0.0397  0.2416
 2126SOL     hw 8502   4.856   2.809   4.172  1.0881  0.5070  1.7477
 2126SOL     hw 8503   4.866   2.696   4.272 -1.2935 -0.4724  0.9383
 2126SOL     vw 8504   4.820   2.760   4.233 -0.3541 -0.0247  0.5322
 2127SOL     ow 8505   0.485   4.432   4.078 -0.1277  0.3287  0.6152
 2127SOL     hw 8506   0.471   4.466   3.990 -0.7116  1.1246  1.0007
 2127SOL     hw 8507   0.455   4.341   4.074 -2.3313  1.0128  0.5490
 2127SOL     vw 8508   0.479   4.424   4.066 -0.4955  0.5240  0.6573
 2128SOL     ow 8509   3.342   7.054   6.137  0.2506  0.5367 -0.1139
 2128SOL     hw 8510   3.356   6.960   6.145 -0.7822  0.4749  1.4949
 2128SOL     hw 8511   3.419   7.094   6.178  1.3376  0.4598 -1.9789
 2128SOL     vw 8512   3.354   7.047   6.143  0.2577  0.5186 -0.1478
 2129SOL     ow 8513   3.089   6.826   4.598 -0.0355  1.0284  0.0686
 2129SOL     hw 8514   3.154   6.756   4.608  1.5955  2.4278 -0.1945
 2129SOL     hw 8515   3.090   6.872   4.682 -0.8816  0.9309  0.1412
 2129SOL     vw 8516   3.098   6.823   4.610  0.0679  1.2002  0.0432
 2130SOL     ow 8517   3.578   1.664   2.327  0.7212 -0.2360 -0.1356
 2130SOL     hw 8518   3.578   1.688   2.234 -0.9326  0.9438  0.1268
 2130SOL     hw 8519   3.505   1.604   2.337 -0.9262  1.8184  0.8638
 2130SOL     vw 8520   3.569   1.659   2.316  0.2857  0.1907  0.0308
 2131SOL     ow 8521   1.068   2.564   2.328  0.0246 -0.3864 -0.4475
 2131SOL     hw 8522   1.041   2.570   2.419  1.6337  1.1699 -0.0263
 2131SOL     hw 8523   0.986   2.561   2.279 -0.9026 -2.8273  1.0715
 2131SOL     vw 8524   1.054   2.564   2.333  0.1146 -0.5031 -0.1913
 2132SOL     ow 8525   3.610   2.890   1.941  0.3047  0.1801 -0.1608
 2132SOL     hw 8526   3.605   2.915   1.849 -0.5372  0.6434 -0.0066
 2132SOL     hw 8527   3.703   2.879   1.959  0.4367 -0.4912 -1.2114
 2132SOL     vw 8528   3.621   2.892   1.931  0.2110  0.1526 -0.2791
 2133SOL     ow 8529   6.809   3.754   6.291 -0.3355  0.1851  0.4484
 2133SOL     hw 8530   6.844   3.842   6.303 -0.8808  0.7405 -1.6629
 2133SOL     hw 8531   6.763   3.735   6.373  0.7701  1.3675  1.3827
 2133SOL     vw 8532   6.808   3.763   6.303 -0.2613  0.4143  0.2930
 2134SOL     ow 8533   2.105   7.233   4.411 -0.1567  0.6206 -0.6490
 2134SOL     hw 8534   2.154   7.190   4.482 -0.5430 -0.2026 -0.8631
 2134SOL     hw 8535   2.172   7.258   4.348  0.1953  1.3653 -0.0083
 2134SOL     vw 8536   2.121   7.231   4.412 -0.1613  0.6101 -0.5927
 2135SOL     ow 8537   6.153   1.127   3.325 -0.0574 -0.0823  0.2114
 2135SOL     hw 8538   6.086   1.119   3.257  0.1964  0.7446 -0.1476
 2135SOL     hw 8539   6.235   1.133   3.277  0.5315 -3.0613  0.6892
 2135SOL     vw 8540   6.155   1.127   3.309  0.0536 -0.3662  0.2271
 2136SOL     ow 8541   2.203   4.350   4.672 -0.2516  0.5174 -0.1932
 2136SOL     hw 8542   2.209   4.446   4.679 -2.2949  1.0025 -3.3724
 2136SOL     hw 8543   2.113   4.333   4.644 -0.2518 -2.4898  1.2208
 2136SOL     vw 8544   2.192   4.361   4.669 -0.5212  0.1845 -0.4261
 2137SOL     ow 8545   5.714   4.442   2.260 -0.2430 -0.0283  0.1668
 2137SOL     hw 8546   5.782   4.410   2.320  0.0913 -0.6518 -0.5387
 2137SOL     hw 8547   5.640   4.382   2.274  0.2854 -0.9815 -0.9515
 2137SOL     vw 8548   5.713   4.430   2.270 -0.1290 -0.2363 -0.0739
 2138SOL     ow 8549   6.758   0.720   1.997 -0.1995  0.3741 -0.0799
 2138SOL     hw 8550   6.723   0.654   2.056  0.6656 -0.7982 -0.8281
 2138SOL     hw 8551   6.828   0.762   2.046 -0.6759  0.6718  0.3577
 2138SOL     vw 8552   6.762   0.717   2.011 -0.1481  0.2587 -0.1208
 2139SOL     ow 8553   0.595   2.264   3.597 -0.4334 -0.1514  0.2488
 2139SOL     hw 8554   0.545   2.183   3.600 -0.1605 -0.3771 -0.8616
 2139SOL     hw 8555   0.685   2.237   3.576 -0.7819  0.5469 -2.5626
 2139SOL     vw 8556   0.601   2.250   3.595 -0.4434 -0.0890 -0.2687
 2140SOL     ow 8557   5.481   6.038   6.741 -0.4913  0.4844  0.7795
 2140SOL     hw 8558   5.432   5.978   6.685 -0.3584  2.2373 -1.3678
 2140SOL     hw 8559   5.416   6.070   6.804 -1.5954  1.0649 -0.5913
 2140SOL     vw 8560   5.466   6.035   6.742 -0.6196  0.7925  0.3152
 2141SOL     ow 8561   5.465   4.203   0.892  0.0396 -0.1336 -0.2128
 2141SOL     hw 8562   5.424   4.190   0.806  1.8183  1.8553 -1.4441
 2141SOL     hw 8563   5.398   4.249   0.943 -0.4400  0.1702 -1.0912
 2141SOL     vw 8564   5.451   4.207   0.888  0.2110  0.1690 -0.4911
 2142SOL     ow 8565   5.663   1.807   6.853  0.1082 -0.2800  0.3548
 2142SOL     hw 8566   5.595   1.784   6.916  0.2845 -0.9825  0.3027
 2142SOL     hw 8567   5.743   1.771   6.890  0.2513 -0.4844 -0.1491
 2142SOL     vw 8568   5.665   1.799   6.866  0.1504 -0.3996  0.2813
 2143SOL     ow 8569   0.852   5.296   1.549  0.5008 -0.2578  0.2764
 2143SOL     hw 8570   0.767   5.297   1.592 -0.5365  2.0515 -1.5859
 2143SOL     hw 8571   0.909   5.344   1.609 -0.6884  2.1028 -0.3597
 2143SOL     vw 8572   0.849   5.303   1.562  0.2071  0.3586 -0.0532
 2144SOL     ow 8573   5.004   3.613   1.113 -0.5134 -0.4521  0.2071
 2144SOL     hw 8574   4.926   3.578   1.070 -1.7409  0.8781  1.2199
 2144SOL     hw 8575   5.034   3.683   1.055 -2.4586  1.6758  1.5531
 2144SOL     vw 8576   4.998   3.618   1.100 -0.9322  0.0042  0.5183
 2145SOL     ow 8577   6.747   0.127   2.294 -0.0028  0.8726  0.6555
 2145SOL     hw 8578   6.830   0.089   2.322 -0.7930 -1.3565  0.1416
 2145SOL     hw 8579   6.770   0.181   2.218  0.6873 -2.1096 -1.4175
 2145SOL     vw 8580   6.761   0.129   2.288 -0.0160  0.1850  0.3142
 2146SOL     ow 8581   5.122   0.692   7.271  0.0003  0.1022  0.5062
 2146SOL     hw 8582   5.078   0.703   7.356 -0.5638 -0.8949  0.3580
 2146SOL     hw 8583   5.212   0.723   7.287 -0.3567  0.8481  1.1901
 2146SOL     vw 8584   5.128   0.698   7.285 -0.1214  0.0691  0.5765
 2147SOL     ow 8585   6.963   2.904   2.257 -0.2070  0.2564  0.2934
 2147SOL     hw 8586   7.006   2.839   2.202 -0.1149  1.2599 -0.8663
 2147SOL     hw 8587   6.938   2.856   2.336 -0.5678 -1.2806 -0.7206
 2147SOL     vw 8588   6.966   2.890   2.260 -0.2425  0.1861  0.0067
 2148SOL     ow 8589   3.748   5.711   0.832  0.3999  0.3175  0.1194
 2148SOL     hw 8590   3.714   5.732   0.919 -0.4184 -0.4466  0.0002
 2148SOL     hw 8591   3.671   5.710   0.776  0.9041  0.6647 -0.5988
 2148SOL     vw 8592   3.733   5.714   0.836  0.3583  0.2625  0.0089
 2149SOL     ow 8593   5.771   5.121   2.578 -0.0164  0.8010  0.3647
 2149SOL     hw 8594   5.707   5.138   2.646 -0.9175 -0.1021 -0.2300
 2149SOL     hw 8595   5.734   5.161   2.499 -1.8206 -2.8860 -0.8940
 2149SOL     vw 8596   5.758   5.128   2.576 -0.3734  0.1950  0.1202
 2150SOL     ow 8597   3.050   3.013   4.232 -0.4719 -0.2207 -0.0515
 2150SOL     hw 8598   3.128   3.030   4.178  0.4197  2.6206  1.9084
 2150SOL     hw 8599   2.977   3.024   4.172  0.5495 -0.8813 -1.4788
 2150SOL     vw 8600   3.051   3.017   4.217 -0.2193  0.0670  0.0186
 2151SOL     ow 8601   5.959   2.115   1.121 -0.2753 -0.2390 -0.0104
 2151SOL     hw 8602   5.946   2.208   1.100 -2.2074 -0.6266 -0.7406
 2151SOL     hw 8603   5.887   2.094   1.181 -0.5738 -1.5370 -0.7930
 2151SOL     vw 8604   5.948   2.125   1.126 -0.5696 -0.4615 -0.2099
 2152SOL     ow 8605   1.204   1.922   0.978 -0.1600 -0.1765  0.3187
 2152SOL     hw 8606   1.186   2.000   1.031 -2.6480 -0.3028 -0.2017
 2152SOL     hw 8607   1.244   1.861   1.039  0.7961  1.0978  1.0155
 2152SOL     vw 8608   1.207   1.924   0.993 -0.3621 -0.0250  0.3420
 2153SOL     ow 8609   7.043   5.934   3.143 -0.6803  0.3795  0.3589
 2153SOL     hw 8610   7.112   5.872   3.119  0.2347  1.9298 -1.2605
 2153SOL     hw 8611   6.994   5.889   3.211 -0.7807 -2.6009 -1.4875
 2153SOL     vw 8612   7.046   5.920   3.149 -0.5727  0.1905 -0.0985
 2154SOL     ow 8613   1.608   7.198   4.148  0.0754  0.2641  0.0408
 2154SOL     hw 8614   1.528   7.175   4.101  0.1669 -0.3611  0.1786
 2154SOL     hw 8615   1.581   7.264   4.211 -0.5317 -0.6305  0.7345
 2154SOL     vw 8616   1.594   7.203   4.150  0.0075  0.0637  0.1504
 2155SOL     ow 8617   0.906   1.546   7.228  0.4014 -0.2599  0.3722
 2155SOL     hw 8618   0.981   1.603   7.243  1.4801 -1.1115 -1.4083
 2155SOL     hw 8619   0.907   1.486   7.302  0.6635  0.5656  1.0505
 2155SOL     vw 8620   0.916   1.545   7.240  0.5783 -0.2633  0.2265
 2156SOL     ow 8621   3.641   5.020   0.616 -0.7206  0.9035 -0.1220
 2156SOL     hw 8622   3.642   5.098   0.560 -0.8305  0.5165 -0.6751
 2156SOL     hw 8623   3.588   4.957   0.568  1.0541 -0.2451 -0.6947
 2156SOL     vw 8624   3.634   5.022   0.602 -0.5009  0.7010 -0.2705
 2157SOL     ow 8625   1.950   1.510   6.937  0.6791 -0.6931 -0.2520
 2157SOL     hw 8626   1.985   1.425   6.912 -0.6300 -0.5397 -2.8615
 2157SOL     hw 8627   1.989   1.571   6.874 -0.2560  0.2739  0.0834
 2157SOL     vw 8628   1.960   1.507   6.926  0.3830 -0.5453 -0.5522
 2158SOL     ow 8629   0.119   5.722   1.277 -0.3375 -0.4992 -0.3187
 2158SOL     hw 8630   0.131   5.680   1.192 -0.4620 -1.2337  0.0097
 2158SOL     hw 8631   0.132   5.650   1.340 -3.3562 -0.7291  0.1851
 2158SOL     vw 8632   0.122   5.707   1.274 -0.7522 -0.6261 -0.2089
 2159SOL     ow 8633   4.368   7.138   0.069 -0.1335  0.0091 -0.3025
 2159SOL     hw 8634   4.366   7.142  -0.026  0.9967 -1.3406 -0.4104
 2159SOL     hw 8635   4.363   7.230   0.097 -2.6005  0.3441 -1.5584
 2159SOL     vw 8636   4.367   7.151   0.060 -0.3099 -0.1247 -0.4825
 2160SOL     ow 8637   2.898   5.174   5.844 -0.0027  0.2232 -0.1948
 2160SOL     hw 8638   2.973   5.190   5.901  0.0117  0.5384 -0.2972
 2160SOL     hw 8639   2.925   5.101   5.788  0.9887  1.5429 -1.5352
 2160SOL     vw 8640   2.911   5.166   5.844  0.1301  0.4389 -0.3853
 2161SOL     ow 8641   1.482   2.079   4.634 -0.1578  0.2130 -0.0330
 2161SOL     hw 8642   1.416   2.107   4.570  0.7467  0.8102 -0.7224
 2161SOL     hw 8643   1.465   1.986   4.647 -0.0800 -0.0265 -1.5000
 2161SOL     vw 8644   1.471   2.070   4.627 -0.0283  0.2601 -0.3176
 2162SOL     ow 8645   5.012   3.554   0.106  0.2878  0.2530 -0.7110
 2162SOL     hw 8646   5.102   3.556   0.072  0.4201  0.4616 -0.3588
 2162SOL     hw 8647   4.971   3.633   0.070  0.1697  0.0318 -1.0680
 2162SOL     vw 8648   5.019   3.565   0.097  0.2897  0.2514 -0.7117
 2163SOL     ow 8649   2.770   4.600   1.728 -0.0697 -0.1967  0.2585
 2163SOL     hw 8650   2.821   4.525   1.697  1.0230  0.2762  0.8290
 2163SOL     hw 8651   2.694   4.561   1.771 -0.3946 -0.9137 -0.9138
 2163SOL     vw 8652   2.767   4.585   1.730  0.0316 -0.2289  0.1792
 2164SOL     ow 8653   7.090   0.377   3.187 -0.2994  0.8013 -0.2177
 2164SOL     hw 8654   7.117   0.316   3.256  0.3049 -1.7888 -2.5527
 2164SOL     hw 8655   7.118   0.463   3.219  1.7527 -0.5093  1.8796
 2164SOL     vw 8656   7.097   0.380   3.201  0.0510  0.2867 -0.2490
 2165SOL     ow 8657   5.831   6.732   7.001 -0.4304  0.2528 -0.1077
 2165SOL     hw 8658   5.925   6.716   7.007 -0.5751 -0.2494  0.9943
 2165SOL     hw 8659   5.792   6.646   7.016 -1.0546  0.2156 -1.7417
 2165SOL     vw 8660   5.838   6.719   7.004 -0.5322  0.1819 -0.1776
 2166SOL     ow 8661   0.509   5.872   3.854 -0.4624  0.0723 -0.5784
 2166SOL     hw 8662   0.589   5.922   3.866 -0.7599  0.5747 -0.6974
 2166SOL     hw 8663   0.451   5.902   3.924 -1.0048  0.6245 -1.2537
 2166SOL     vw 8664   0.512   5.882   3.865 -0.5732  0.2115 -0.6832
 2167SOL     ow 8665   0.705   2.103   7.300  0.1008  0.1487  0.5058
 2167SOL     hw 8666   0.716   2.015   7.334 -0.4220 -0.0307  0.2134
 2167SOL     hw 8667   0.779   2.152   7.337  1.2909 -0.7718 -0.5464
 2167SOL     vw 8668   0.716   2.098   7.309  0.1889  0.0037  0.3285
 2168SOL     ow 8669   1.007   7.514   4.539 -0.1676 -0.9670 -0.1984
 2168SOL     hw 8670   1.005   7.586   4.603 -2.0421  0.4110 -1.7170
 2168SOL     hw 8671   1.095   7.518   4.502  0.3468 -0.6264  0.9964
 2168SOL     vw 8672   1.019   7.524   4.543 -0.3471 -0.7401 -0.2410
 2169SOL     ow 8673   1.446   5.921   1.555  0.0011  0.4199 -0.2604
 2169SOL     hw 8674   1.381   5.986   1.530 -1.6303 -0.6172  1.0137
 2169SOL     hw 8675   1.530   5.965   1.547 -0.9513  2.2157 -0.7805
 2169SOL     vw 8676   1.448   5.935   1.551 -0.3399  0.5200 -0.1609
 2170SOL     ow 8677   3.427   2.359   4.345 -0.2197  0.5666 -0.0540
 2170SOL     hw 8678   3.337   2.388   4.330 -0.3859  0.1074  0.0372
 2170SOL     hw 8679   3.439   2.285   4.284 -0.4427 -0.4222  1.0717
 2170SOL     vw 8680   3.417   2.353   4.335 -0.2711  0.3756  0.1066
 2171SOL     ow 8681   0.656   5.693   0.505 -1.4377  0.5192 -0.4032
 2171SOL     hw 8682   0.661   5.740   0.422  1.4281  1.2485  0.0781
 2171SOL     hw 8683   0.564   5.666   0.512 -1.7726  0.2835 -3.8454
 2171SOL     vw 8684   0.645   5.695   0.495 -1.1038  0.5844 -0.7939
 2172SOL     ow 8685   6.030   2.973   5.098 -0.1915  0.2519 -0.4370
 2172SOL     hw 8686   6.031   2.967   5.193 -3.6098 -1.4196 -0.3269
 2172SOL     hw 8687   6.023   3.066   5.079  1.1343  0.6472  0.8596
 2172SOL     vw 8688   6.029   2.984   5.108 -0.4675  0.0834 -0.2513
 2173SOL     ow 8689   0.435   2.480   7.515 -0.3129  0.2769 -0.3549
 2173SOL     hw 8690   0.438   2.474   7.611  0.2455 -3.6616 -0.4503
 2173SOL     hw 8691   0.526   2.498   7.490 -0.1123 -0.4219 -0.1561
 2173SOL     vw 8692   0.448   2.482   7.525 -0.2128 -0.3350 -0.3414
 2174SOL     ow 8693   2.581   3.247   1.194  0.3617  0.3826  0.6316
 2174SOL     hw 8694   2.619   3.181   1.252 -0.0440  0.1599  0.6467
 2174SOL     hw 8695   2.650   3.313   1.185  0.4779  0.3571  1.2603
 2174SOL     vw 8696   2.595   3.247   1.201  0.3235  0.3498  0.7164
 2175SOL     ow 8697   7.406   7.052   3.682 -1.2371  0.4790  0.1617
 2175SOL     hw 8698   7.371   7.114   3.618  0.1865  1.6334  0.4342
 2175SOL     hw 8699   7.500   7.046   3.660 -1.1126 -0.6573  0.9074
 2175SOL     vw 8700   7.414   7.059   3.670 -1.0328  0.4816  0.2961
 2176SOL     ow 8701   7.084   6.537   1.987  0.4434  0.2057  0.0741
 2176SOL     hw 8702   6.996   6.540   2.024  1.3176 -1.4549  2.5692
 2176SOL     hw 8703   7.127   6.616   2.020  0.4916 -0.0233  0.5596
 2176SOL     vw 8704   7.078   6.548   1.996  0.5651 -0.0439  0.4674
 2177SOL     ow 8705   3.718   5.948   3.055  0.5758  1.0854  0.5631
 2177SOL     hw 8706   3.776   5.873   3.042 -0.7725  0.2660 -1.2356
 2177SOL     hw 8707   3.733   6.003   2.978  0.1306  1.6819  0.8943
 2177SOL     vw 8708   3.727   5.946   3.043  0.3392  1.0564  0.3693
 2178SOL     ow 8709   3.040   7.256   6.568 -0.5886  0.1786 -0.5095
 2178SOL     hw 8710   2.991   7.174   6.575 -2.4818  1.1729 -1.2520
 2178SOL     hw 8711   3.074   7.257   6.478  0.6497 -0.4088 -0.0636
 2178SOL     vw 8712   3.038   7.246   6.557 -0.6750  0.2322 -0.5484
 2179SOL     ow 8713   0.361   7.352   6.903  0.1018  0.6104  0.1685
 2179SOL     hw 8714   0.442   7.303   6.914 -0.2890  0.0707  0.6792
 2179SOL     hw 8715   0.350   7.399   6.986 -0.7022 -0.2308  0.5581
 2179SOL     vw 8716   0.370   7.352   6.915 -0.0558  0.4284  0.2873
 2180SOL     ow 8717   6.984   2.271   5.741  0.4363  0.3299  0.3804
 2180SOL     hw 8718   6.985   2.185   5.700 -0.5829  0.9314 -0.9948
 2180SOL     hw 8719   7.069   2.309   5.717  0.1535  0.3877 -0.5999
 2180SOL     vw 8720   6.996   2.265   5.732  0.2646  0.4170  0.0699
 2181SOL     ow 8721   7.240   4.997   1.436  0.1329 -0.0871 -0.0237
 2181SOL     hw 8722   7.281   5.043   1.363 -0.8884  0.2966 -0.3807
 2181SOL     hw 8723   7.163   4.954   1.398  0.6548 -1.5076  0.4495
 2181SOL     vw 8724   7.235   4.997   1.422  0.0668 -0.2236 -0.0084
 2182SOL     ow 8725   0.560   0.246   6.539  0.7022  0.2588 -0.0368
 2182SOL     hw 8726   0.479   0.298   6.545 -0.2248 -1.0768 -0.4797
 2182SOL     hw 8727   0.599   0.273   6.456  0.0074 -0.0207 -0.4701
 2182SOL     vw 8728   0.554   0.257   6.529  0.4882  0.0457 -0.1523
 2183SOL     ow 8729   6.804   0.669   6.803 -0.4194 -0.6105  0.6054
 2183SOL     hw 8730   6.731   0.609   6.819 -0.0175 -1.4125 -0.4796
 2183SOL     hw 8731   6.865   0.652   6.874 -1.0396 -0.2959  1.2313
 2183SOL     vw 8732   6.802   0.659   6.815 -0.4485 -0.6749  0.5448
 2184SOL     ow 8733   1.593   2.374   1.485 -0.3972 -0.1386  0.0747
 2184SOL     hw 8734   1.592   2.334   1.398 -1.1668  1.0895 -0.5094
 2184SOL     hw 8735   1.684   2.363   1.514  0.1534  0.3672 -1.3402
 2184SOL     vw 8736   1.605   2.367   1.477 -0.4261  0.0904 -0.1891
 2185SOL     ow 8737   2.958   4.099   7.269  0.4242 -0.0018  0.0747
 2185SOL     hw 8738   2.962   4.007   7.245  0.7063 -0.0649  0.3503
 2185SOL     hw 8739   2.867   4.114   7.294  0.3148 -0.1334 -0.2513
 2185SOL     vw 8740   2.947   4.089   7.269  0.4470 -0.0277  0.0679
 2186SOL     ow 8741   2.199   5.136   5.097 -0.0197 -0.7378  0.2852
 2186SOL     hw 8742   2.199   5.204   5.030  3.1788  2.2590  2.9429
 2186SOL     hw 8743   2.127   5.160   5.156  0.2231 -0.5083  0.4864
 2186SOL     vw 8744   2.189   5.148   5.096  0.4343 -0.3119  0.6623
 2187SOL     ow 8745   4.306   6.412   5.407 -0.3801  0.2904 -0.1855
 2187SOL     hw 8746   4.212   6.404   5.425 -0.4759 -1.1689 -1.1726
 2187SOL     hw 8747   4.317   6.380   5.317  1.4723 -3.1551  1.0472
 2187SOL     vw 8748   4.295   6.407   5.398 -0.1483 -0.3569 -0.1531
 2188SOL     ow 8749   5.441   2.885   4.703  0.8221 -0.9366  0.2434
 2188SOL     hw 8750   5.398   2.940   4.769  1.4531 -1.4194  1.0620
 2188SOL     hw 8751   5.422   2.930   4.620 -1.0326 -0.9893  0.5874
 2188SOL     vw 8752   5.433   2.898   4.700  0.6609 -1.0072  0.3967
 2189SOL     ow 8753   7.246   6.456   2.913  0.3256  0.3639  0.0878
 2189SOL     hw 8754   7.295   6.375   2.925  0.4636  0.5525  0.8818
 2189SOL     hw 8755   7.263   6.506   2.993 -0.2516  0.9120 -0.1228
 2189SOL     vw 8756   7.255   6.452   2.925  0.2675  0.4609  0.1649
 2190SOL     ow 8757   0.855   3.753   0.121  0.2094 -0.3126 -0.0891
 2190SOL     hw 8758   0.813   3.721   0.200  0.9631 -0.5938  0.2028
 2190SOL     hw 8759   0.939   3.788   0.150  1.4247 -2.2593 -0.9798
 2190SOL     vw 8760   0.861   3.753   0.135  0.4692 -0.6065 -0.1681
 2191SOL     ow 8761   0.559   5.832   7.412 -0.6154  0.3559  0.2781
 2191SOL     hw 8762   0.613   5.910   7.397 -0.2409 -0.1487 -1.1288
 2191SOL     hw 8763   0.477   5.866   7.449 -0.3745  1.3981 -0.1196
 2191SOL     vw 8764   0.555   5.847   7.415 -0.5341  0.4268  0.0398
 2192SOL     ow 8765   0.780   4.931   5.993  0.4312  0.0721 -0.0931
 2192SOL     hw 8766   0.739   4.849   6.019 -0.5455  0.5324 -0.1394
 2192SOL     hw 8767   0.849   4.946   6.058  1.2476 -1.2336 -0.6105
 2192SOL     vw 8768   0.784   4.922   6.005  0.4101 -0.0393 -0.1674
 2193SOL     ow 8769   2.944   6.266   1.089  0.2381  0.3679 -0.1400
 2193SOL     hw 8770   2.994   6.216   1.024 -0.5309 -0.9685  0.2490
 2193SOL     hw 8771   2.915   6.200   1.152 -1.1443  1.2656  0.1928
 2193SOL     vw 8772   2.947   6.250   1.089 -0.0458  0.3102 -0.0448
 2194SOL     ow 8773   0.572   3.894   1.830  0.4049  0.5960 -0.7267
 2194SOL     hw 8774   0.558   3.824   1.893  1.3502  1.3481  0.3618
 2194SOL     hw 8775   0.499   3.954   1.844 -1.7390 -1.1628 -3.2288
 2194SOL     vw 8776   0.560   3.893   1.840  0.2467  0.4634 -0.9132
 2195SOL     ow 8777   0.926   5.475   0.571  0.1786  0.1049  0.3328
 2195SOL     hw 8778   0.890   5.398   0.614 -0.9479  1.0272  1.1252
 2195SOL     hw 8779   1.012   5.487   0.610  0.5227 -0.9562 -0.0822
 2195SOL     vw 8780   0.932   5.467   0.582  0.0753  0.0868  0.3826
 2196SOL     ow 8781   2.201   4.228   3.880  0.9678 -0.1548 -0.0202
 2196SOL     hw 8782   2.246   4.147   3.906  0.8244 -0.1002  0.3995
 2196SOL     hw 8783   2.206   4.284   3.957  2.0411  0.6786 -0.6586
 2196SOL     vw 8784   2.208   4.224   3.894  1.0904 -0.0377 -0.0491
 2197SOL     ow 8785   1.860   2.639   6.933  0.3345  0.7581  0.0376
 2197SOL     hw 8786   1.841   2.573   6.867  0.3971 -0.3631  1.1006
 2197SOL     hw 8787   1.803   2.615   7.007  2.3749  0.1771  1.5104
 2197SOL     vw 8788   1.850   2.627   6.934  0.6119  0.5336  0.3724
 2198SOL     ow 8789   5.780   3.105   2.765  0.0306  0.4403 -0.2559
 2198SOL     hw 8790   5.844   3.033   2.769  0.6379  0.7098 -3.3034
 2198SOL     hw 8791   5.804   3.162   2.838  2.3714 -0.2049 -0.4551
 2198SOL     vw 8792   5.792   3.103   2.775  0.4199  0.3906 -0.6844
 2199SOL     ow 8793   3.503   7.237   5.936 -0.5438 -0.0482  0.0677
 2199SOL     hw 8794   3.560   7.313   5.948 -0.3379 -0.3503  1.1187
 2199SOL     hw 8795   3.491   7.230   5.841 -2.6176  2.7956 -0.0057
 2199SOL     vw 8796   3.509   7.246   5.925 -0.7901  0.2871  0.1967
 2200SOL     ow 8797   6.727   3.146   5.253  0.0384  0.0563  0.5243
 2200SOL     hw 8798   6.816   3.165   5.283 -0.0083  0.0063  0.6953
 2200SOL     hw 8799   6.699   3.228   5.211 -0.0592  0.2816  1.0163
 2200SOL     vw 8800   6.735   3.160   5.251  0.0196  0.0794  0.6120
 2201SOL     ow 8801   3.135   4.135   6.853  0.1419 -0.3794 -0.1604
 2201SOL     hw 8802   3.137   4.217   6.902 -2.9304  0.8154 -1.7797
 2201SOL     hw 8803   3.045   4.127   6.824  1.1935 -2.3920 -3.3040
 2201SOL     vw 8804   3.124   4.145   6.856 -0.1246 -0.4871 -0.7887
 2202SOL     ow 8805   3.479   4.504   0.645  0.3606 -0.4568 -0.3125
 2202SOL     hw 8806   3.549   4.441   0.627  0.7256  0.3589 -1.8699
 2202SOL     hw 8807   3.400   4.450   0.652  0.4242 -1.0299 -2.9996
 2202SOL     vw 8808   3.478   4.488   0.644  0.4171 -0.4251 -0.8725
 2203SOL     ow 8809   7.072   7.499   2.882  0.0756 -0.5695 -0.8441
 2203SOL     hw 8810   7.050   7.410   2.855  1.8159 -0.5172 -2.7696
 2203SOL     hw 8811   7.068   7.550   2.801  1.3227  0.5985 -0.2170
 2203SOL     vw 8812   7.069   7.494   2.868  0.4697 -0.4084 -1.0155
 2204SOL     ow 8813   2.866   0.525   3.900 -0.3991  0.2167  0.6716
 2204SOL     hw 8814   2.811   0.598   3.872 -0.3238  0.2572  0.6323
 2204SOL     hw 8815   2.925   0.562   3.965  1.4880  0.8222 -1.2763
 2204SOL     vw 8816   2.866   0.539   3.905 -0.1402  0.3019  0.4095
 2205SOL     ow 8817   3.893   1.937   0.797 -0.4731  0.4415  0.1252
 2205SOL     hw 8818   3.835   1.948   0.873  0.5033 -0.3936  1.0219
 2205SOL     hw 8819   3.934   2.022   0.787 -3.1518  1.6644 -1.7013
 2205SOL     vw 8820   3.891   1.949   0.806 -0.6976  0.4926  0.0025
 2206SOL     ow 8821   7.135   0.026   3.790  0.5820 -0.4465  0.2993
 2206SOL     hw 8822   7.098  -0.006   3.872 -0.1345 -0.4131 -0.0081
 2206SOL     hw 8823   7.205  -0.036   3.770  0.5768 -0.6148  0.7843
 2206SOL     vw 8824   7.140   0.014   3.798  0.4869 -0.4643  0.3228
 2207SOL     ow 8825   5.188   4.807   1.999 -0.1069 -0.6820  0.4271
 2207SOL     hw 8826   5.132   4.775   1.929 -0.4173 -2.3870  1.3991
 2207SOL     hw 8827   5.255   4.859   1.954 -2.0021  0.8239 -0.8163
 2207SOL     vw 8828   5.190   4.810   1.984 -0.3982 -0.7081  0.3912
 2208SOL     ow 8829   1.114   1.352   4.621  0.2015 -0.8914  0.5666
 2208SOL     hw 8830   1.208   1.368   4.631  0.1340  0.5755 -0.7231
 2208SOL     hw 8831   1.108   1.299   4.541 -0.1066  0.1815 -0.1551
 2208SOL     vw 8832   1.125   1.347   4.612  0.1519 -0.5562  0.3011
 2209SOL     ow 8833   5.971   2.627   0.937  0.2712 -0.9274 -0.1540
 2209SOL     hw 8834   5.919   2.658   1.011  1.2698 -0.8636  0.5417
 2209SOL     hw 8835   6.015   2.705   0.903 -0.7141 -0.8348 -1.2692
 2209SOL     vw 8836   5.970   2.641   0.943  0.2730 -0.9067 -0.2093
 2210SOL     ow 8837   1.021   7.378   5.101 -0.2081  0.1830 -0.4103
 2210SOL     hw 8838   0.986   7.464   5.123  0.4207  0.7653 -1.6087
 2210SOL     hw 8839   1.103   7.396   5.055  0.1621 -1.0757 -0.2871
 2210SOL     vw 8840   1.027   7.392   5.098 -0.0763  0.0937 -0.5522
 2211SOL     ow 8841   0.593   6.482   1.090 -0.7000  0.5715 -0.0258
 2211SOL     hw 8842   0.636   6.546   1.033 -0.4662  0.6816  0.2718
 2211SOL     hw 8843   0.502   6.512   1.096 -0.1188  2.1606  1.8840
 2211SOL     vw 8844   0.586   6.494   1.084 -0.5925  0.7958  0.2654
 2212SOL     ow 8845   4.812   7.177   6.683 -0.1745 -0.1728  0.0142
 2212SOL     hw 8846   4.823   7.122   6.760  3.0690  0.3777  0.0902
 2212SOL     hw 8847   4.879   7.146   6.621  0.0971  2.0344 -0.8916
 2212SOL     vw 8848   4.822   7.166   6.685  0.2894  0.1912 -0.0954
 2213SOL     ow 8849   7.329   1.601   4.235  0.1875  0.0438 -0.1211
 2213SOL     hw 8850   7.362   1.684   4.268 -0.2955  0.7657 -1.3717
 2213SOL     hw 8851   7.234   1.605   4.251  0.3033 -0.7879  0.8709
 2213SOL     vw 8852   7.321   1.612   4.242  0.1392  0.0293 -0.1552
 2214SOL     ow 8853   5.079   6.405   3.152 -0.3421 -0.1281  0.4010
 2214SOL     hw 8854   5.045   6.315   3.158 -0.6163 -0.0491  0.0535
 2214SOL     hw 8855   5.045   6.438   3.068  1.8269 -0.5696 -0.7196
 2214SOL     vw 8856   5.070   6.397   3.142 -0.0920 -0.1760  0.2074
 2215SOL     ow 8857   2.153   7.440   3.166 -0.1281 -0.7066  0.5579
 2215SOL     hw 8858   2.121   7.484   3.244 -0.0185 -1.2893  0.9365
 2215SOL     hw 8859   2.076   7.396   3.129 -0.0370 -1.0298  0.7452
 2215SOL     vw 8860   2.139   7.440   3.171 -0.1017 -0.8261  0.6325
 2216SOL     ow 8861   5.484   0.576   3.183 -0.4950 -0.7642  0.1128
 2216SOL     hw 8862   5.488   0.585   3.088 -0.0416 -1.0134  0.1060
 2216SOL     hw 8863   5.470   0.482   3.198 -0.2349 -0.7760  0.2974
 2216SOL     vw 8864   5.482   0.565   3.173 -0.4008 -0.7986  0.1363
 2217SOL     ow 8865   7.181   3.053   6.862 -0.1460 -0.1289 -0.2196
 2217SOL     hw 8866   7.159   2.981   6.923  0.8912  0.2747  0.6588
 2217SOL     hw 8867   7.275   3.065   6.872 -0.2829  1.2936 -0.4226
 2217SOL     vw 8868   7.190   3.045   6.871 -0.0274  0.1121 -0.1307
 2218SOL     ow 8869   1.843   2.827   1.653  0.4254  0.5842  0.0271
 2218SOL     hw 8870   1.887   2.888   1.711  1.2841  0.0098 -0.0003
 2218SOL     hw 8871   1.789   2.772   1.711 -2.4451  2.9545 -0.1505
 2218SOL     vw 8872   1.841   2.828   1.668  0.1600  0.8211  0.0001
 2219SOL     ow 8873   4.310   0.932   2.512  0.1171  0.7045 -0.3667
 2219SOL     hw 8874   4.256   0.915   2.434  0.2297  0.9768 -0.5044
 2219SOL     hw 8875   4.301   1.026   2.526 -1.1665  0.4277  0.8757
 2219SOL     vw 8876   4.302   0.942   2.503 -0.0372  0.7039 -0.2209
 2220SOL     ow 8877   6.971   5.326   7.409 -0.5007 -0.7201 -0.4682
 2220SOL     hw 8878   6.929   5.402   7.369  0.0151  0.5361  1.2900
 2220SOL     hw 8879   6.968   5.259   7.340  1.9086  1.8255 -3.3749
 2220SOL     vw 8880   6.965   5.327   7.394 -0.1147 -0.2184 -0.6196
 2221SOL     ow 8881   5.903   1.032   3.945 -0.1743 -0.1534  0.1555
 2221SOL     hw 8882   5.899   0.937   3.947  0.5520 -0.1814  0.8359
 2221SOL     hw 8883   5.812   1.060   3.936 -0.6037 -0.8898  1.7294
 2221SOL     vw 8884   5.890   1.023   3.944 -0.1352 -0.2542  0.4528
 2222SOL     ow 8885   4.082   3.398   6.807 -0.2294 -0.5843 -0.1847
 2222SOL     hw 8886   4.027   3.424   6.733  1.4462  1.2746 -0.8671
 2222SOL     hw 8887   4.053   3.453   6.879  0.2229 -0.1307 -0.3436
 2222SOL     vw 8888   4.071   3.409   6.807  0.0513 -0.2792 -0.2956
 2223SOL     ow 8889   0.693   4.696   6.051  0.0192 -0.6139  0.5395
 2223SOL     hw 8890   0.744   4.637   5.996  1.0391 -0.8391  1.6798
 2223SOL     hw 8891   0.604   4.692   6.016  0.9725  0.7427 -2.3046
 2223SOL     vw 8892   0.688   4.688   6.039  0.2795 -0.4647  0.3147
 2224SOL     ow 8893   2.434   2.624   5.240 -0.0974  0.1501  0.3171
 2224SOL     hw 8894   2.387   2.679   5.302  0.1293  0.3008  0.3534
 2224SOL     hw 8895   2.407   2.657   5.154 -0.0396  0.2530  0.3383
 2224SOL     vw 8896   2.424   2.636   5.237 -0.0598  0.1837  0.3245
 2225SOL     ow 8897   6.668   0.943   6.865  0.9256  0.1523  0.1214
 2225SOL     hw 8898   6.597   1.004   6.846 -0.9000 -1.7908  0.3990
 2225SOL     hw 8899   6.665   0.931   6.960 -0.2785 -2.0267 -0.1203
 2225SOL     vw 8900   6.658   0.949   6.875  0.5260 -0.3915  0.1261
 2226SOL     ow 8901   4.359   6.019   4.085  0.7991 -0.0566  0.7346
 2226SOL     hw 8902   4.285   6.068   4.119  1.7512  0.0852  2.7414
 2226SOL     hw 8903   4.416   6.085   4.046  0.7650  0.0748  0.9070
 2226SOL     vw 8904   4.357   6.034   4.085  0.9198 -0.0205  1.0221
 2227SOL     ow 8905   0.954   0.234   1.429  0.0181  0.4867  1.0806
 2227SOL     hw 8906   1.032   0.265   1.475  2.4776  1.5337 -3.1960
 2227SOL     hw 8907   0.961   0.138   1.434  1.2204  0.5658  1.3318
 2227SOL     vw 8908   0.965   0.225   1.436  0.5012  0.6353  0.5495
 2228SOL     ow 8909   2.766   6.740   3.459 -0.4703 -0.2784 -0.3138
 2228SOL     hw 8910   2.718   6.784   3.389  1.4315  0.4818 -1.2159
 2228SOL     hw 8911   2.730   6.777   3.540 -0.8805  0.7931 -0.9690
 2228SOL     vw 8912   2.755   6.751   3.460 -0.2735 -0.0365 -0.5193
 2229SOL     ow 8913   7.007   4.033   2.392  0.1348  0.2221  0.4922
 2229SOL     hw 8914   7.069   4.057   2.324  0.5758 -1.4979  0.2427
 2229SOL     hw 8915   6.921   4.050   2.353  0.3961  1.8818  0.5638
 2229SOL     vw 8916   7.004   4.039   2.378  0.2275  0.2139  0.4689
 2230SOL     ow 8917   7.163   3.319   6.783 -0.3281 -0.4624 -0.0683
 2230SOL     hw 8918   7.187   3.359   6.866 -1.5904  1.5811 -0.6213
 2230SOL     hw 8919   7.131   3.232   6.807 -2.8744  0.8954  1.9237
 2230SOL     vw 8920   7.162   3.313   6.797 -0.8307 -0.0136  0.1214
 2231SOL     ow 8921   0.081   0.834   4.091  0.3149  0.2842 -0.0161
 2231SOL     hw 8922  -0.004   0.878   4.097 -0.5445 -1.1495 -1.1298
 2231SOL     hw 8923   0.121   0.847   4.177 -0.5033  1.9931  0.1406
 2231SOL     vw 8924   0.075   0.841   4.103  0.0936  0.3206 -0.1423
 2232SOL     ow 8925   1.191   3.193   6.537  0.1878  0.0594  0.0662
 2232SOL     hw 8926   1.234   3.273   6.506 -0.2922  0.3477  0.1418
 2232SOL     hw 8927   1.102   3.198   6.502  0.9187 -1.8017 -2.3248
 2232SOL     vw 8928   1.185   3.204   6.528  0.2209 -0.1482 -0.2391
 2233SOL     ow 8929   3.920   4.332   4.849 -0.6471  0.7522 -0.4336
 2233SOL     hw 8930   3.849   4.302   4.907 -0.3546  1.4269  0.2903
 2233SOL     hw 8931   3.940   4.421   4.880 -0.5996  1.1914 -1.6872
 2233SOL     vw 8932   3.913   4.340   4.861 -0.6024  0.8991 -0.5033
 2234SOL     ow 8933   6.762   0.745   0.702 -0.0439  0.3376  0.2442
 2234SOL     hw 8934   6.767   0.840   0.692 -0.3294  0.2694 -0.6252
 2234SOL     hw 8935   6.727   0.714   0.618  2.0235 -0.7312 -0.2841
 2234SOL     vw 8936   6.758   0.753   0.689  0.1910  0.1876  0.0598
 2235SOL     ow 8937   4.058   3.946   0.092  0.1750 -0.5738  1.0147
 2235SOL     hw 8938   4.056   3.878   0.025  0.5876 -0.3450  0.7675
 2235SOL     hw 8939   4.004   4.017   0.056  2.2638  0.5274 -0.1579
 2235SOL     vw 8940   4.050   3.947   0.079  0.5050 -0.3984  0.8274
 2236SOL     ow 8941   1.933   1.456   1.564  0.4931 -0.4782 -0.4604
 2236SOL     hw 8942   1.849   1.456   1.518  1.5101  0.2900 -2.3987
 2236SOL     hw 8943   1.939   1.543   1.603  0.0814 -0.7958  0.3531
 2236SOL     vw 8944   1.923   1.467   1.563  0.5730 -0.4188 -0.6089
 2237SOL     ow 8945   3.070   5.791   5.369 -0.0866 -0.1580 -0.1760
 2237SOL     hw 8946   3.100   5.740   5.294 -1.0684  2.4658 -2.5232
 2237SOL     hw 8947   3.147   5.840   5.397  0.2551 -1.0606  0.4984
 2237SOL     vw 8948   3.084   5.790   5.363 -0.1711  0.0691 -0.3967
 2238SOL     ow 8949   3.071   5.525   2.548 -0.0184 -0.3073  0.0665
 2238SOL     hw 8950   3.085   5.443   2.594 -1.1701 -1.4218 -1.4640
 2238SOL     hw 8951   3.064   5.591   2.618  2.4241 -1.2050  1.2602
 2238SOL     vw 8952   3.072   5.523   2.563  0.1519 -0.5729  0.0222
 2239SOL     ow 8953   3.354   6.370   5.084  0.3870  0.0033 -0.2895
 2239SOL     hw 8954   3.321   6.323   5.008 -2.2550  0.6094  0.3922
 2239SOL     hw 8955   3.288   6.436   5.103  0.3536 -0.8152  3.1643
 2239SOL     vw 8956   3.341   6.372   5.077  0.0340 -0.0248  0.2561
 2240SOL     ow 8957   1.660   2.043   5.610  0.1246 -0.6301  0.2382
 2240SOL     hw 8958   1.665   1.975   5.543 -1.6842 -1.7014  1.1467
 2240SOL     hw 8959   1.726   2.107   5.583  0.7818 -1.9607 -1.4963
 2240SOL     vw 8960   1.670   2.043   5.597 -0.0273 -0.9470  0.1290
 2241SOL     ow 8961   3.002   1.285   7.028  0.2392  0.1597 -0.4251
 2241SOL     hw 8962   3.088   1.249   7.006 -0.3405  0.3879 -3.4038
 2241SOL     hw 8963   3.004   1.374   6.993 -1.6502 -0.2979 -1.8301
 2241SOL     vw 8964   3.014   1.292   7.021 -0.0864  0.1294 -1.0033
 2242SOL     ow 8965   7.361   7.416   3.765  0.2498 -0.0905  0.0285
 2242SOL     hw 8966   7.403   7.419   3.679  0.7453 -0.8944  0.2344
 2242SOL     hw 8967   7.301   7.341   3.760 -0.0063  0.0962  0.2590
 2242SOL     vw 8968   7.359   7.407   3.753  0.2813 -0.1721  0.0862
 2243SOL     ow 8969   0.755   2.744   5.044 -0.2276 -0.8628 -0.3677
 2243SOL     hw 8970   0.691   2.734   4.974 -2.9216 -0.3887  1.8322
 2243SOL     hw 8971   0.762   2.839   5.056 -2.8233 -0.8599  2.3608
 2243SOL     vw 8972   0.747   2.756   5.037 -0.9255 -0.7999  0.2823
 2244SOL     ow 8973   3.492   3.709   7.177 -0.5442 -0.0472 -0.0271
 2244SOL     hw 8974   3.513   3.758   7.098 -0.3934  1.8569  1.1262
 2244SOL     hw 8975   3.396   3.712   7.182 -0.5075  0.7221  0.3701
 2244SOL     vw 8976   3.482   3.716   7.168 -0.5196  0.3055  0.1771
 2245SOL     ow 8977   2.124   7.074   0.131 -0.0785  0.0445 -0.1559
 2245SOL     hw 8978   2.162   6.994   0.167 -0.8412 -0.7177 -1.0478
 2245SOL     hw 8979   2.185   7.143   0.160  1.2867 -0.9898 -0.4626
 2245SOL     vw 8980   2.137   7.073   0.140  0.0010 -0.1926 -0.3140
 2246SOL     ow 8981   5.828   3.606   7.257 -0.0349  0.4291  0.0374
 2246SOL     hw 8982   5.850   3.700   7.255 -0.5168  0.5328 -0.5891
 2246SOL     hw 8983   5.804   3.589   7.348 -0.5299  1.0537  0.0289
 2246SOL     vw 8984   5.828   3.616   7.269 -0.1640  0.5252 -0.0463
 2247SOL     ow 8985   7.429   4.016   2.455 -0.0909  0.0165  0.8093
 2247SOL     hw 8986   7.479   3.940   2.425 -0.4658  0.0465  0.0756
 2247SOL     hw 8987   7.366   3.980   2.518 -1.4342 -0.5967 -0.7994
 2247SOL     vw 8988   7.428   4.001   2.459 -0.3173 -0.0603  0.5001
 2248SOL     ow 8989   1.503   4.906   0.387 -0.6944  0.0412 -0.1102
 2248SOL     hw 8990   1.436   4.974   0.399  0.6226  1.1215  1.6845
 2248SOL     hw 8991   1.488   4.845   0.459  0.2339  0.3154  0.3316
 2248SOL     vw 8992   1.492   4.907   0.398 -0.3982  0.2196  0.1849
 2249SOL     ow 8993   5.991   0.389   2.432  0.2674  0.6825  0.1437
 2249SOL     hw 8994   6.017   0.358   2.519  0.1608  2.4861  0.8603
 2249SOL     hw 8995   5.896   0.398   2.436 -0.0671 -1.6513 -1.0332
 2249SOL     vw 8996   5.982   0.386   2.444  0.2091  0.6125  0.0829
 2250SOL     ow 8997   2.289   0.328   3.062  0.1297  0.1457  0.9399
 2250SOL     hw 8998   2.254   0.412   3.092  2.3367  1.4926 -0.0266
 2250SOL     hw 8999   2.340   0.295   3.136  0.2804  0.2642  0.8880
 2250SOL     vw 9000   2.291   0.335   3.076  0.4407  0.3390  0.8056
 2251SOL     ow 9001   4.455   0.824   4.978 -0.0648  0.1935  0.1074
 2251SOL     hw 9002   4.530   0.883   4.989  0.5469 -0.4118 -0.7012
 2251SOL     hw 9003   4.378   0.880   4.987  0.4959  0.9470  0.2599
 2251SOL     vw 9004   4.455   0.839   4.981  0.0899  0.2131  0.0205
 2252SOL     ow 9005   4.855   2.079   4.229 -0.4417 -0.3315  0.2582
 2252SOL     hw 9006   4.889   1.990   4.234  1.6968  0.4612  1.2432
 2252SOL     hw 9007   4.868   2.115   4.317  1.6563  1.8691 -0.8159
 2252SOL     vw 9008   4.862   2.072   4.241  0.1173  0.0635  0.2468
 2253SOL     ow 9009   3.425   2.007   6.227  0.1578 -0.1634  0.2124
 2253SOL     hw 9010   3.488   2.000   6.155  0.3553 -4.2222  0.5513
 2253SOL     hw 9011   3.470   1.968   6.302 -0.8973  1.8499  1.9898
 2253SOL     vw 9012   3.440   2.001   6.227  0.0446 -0.4333  0.4919
 2254SOL     ow 9013   1.871   2.257   5.622  0.0914 -0.4037  0.5127
 2254SOL     hw 9014   1.912   2.337   5.587  2.6615 -1.3421  1.2080
 2254SOL     hw 9015   1.818   2.288   5.695 -0.5882  0.8786 -0.4715
 2254SOL     vw 9016   1.869   2.272   5.627  0.3408 -0.3582  0.4747
 2255SOL     ow 9017   2.864   2.789   4.401 -0.1688  0.1629 -0.3026
 2255SOL     hw 9018   2.845   2.746   4.484  0.4844 -0.2105 -0.3421
 2255SOL     hw 9019   2.806   2.866   4.400 -0.3488  0.0417  0.3854
 2255SOL     vw 9020   2.854   2.794   4.412 -0.1063  0.0978 -0.2172
 2256SOL     ow 9021   3.139   2.892   1.312 -0.4713 -0.1846 -0.7028
 2256SOL     hw 9022   3.186   2.831   1.369 -0.7590  0.2818  0.0371
 2256SOL     hw 9023   3.188   2.890   1.229  1.4873  1.0652  0.3582
 2256SOL     vw 9024   3.152   2.883   1.308 -0.2507  0.0418 -0.4652
 2257SOL     ow 9025   6.852   5.083   0.448 -1.0156  0.2284 -0.2755
 2257SOL     hw 9026   6.825   4.992   0.440  2.1890 -0.7353 -1.2231
 2257SOL     hw 9027   6.774   5.128   0.483 -3.2966 -2.4597 -1.5554
 2257SOL     vw 9028   6.838   5.077   0.452 -0.8936 -0.2534 -0.5694
 2258SOL     ow 9029   4.411   2.744   7.089  0.4741 -0.8540  0.2314
 2258SOL     hw 9030   4.399   2.735   7.184  1.4063 -1.6130  0.2920
 2258SOL     hw 9031   4.497   2.705   7.072  0.9373  0.5067 -0.7309
 2258SOL     vw 9032   4.421   2.738   7.100  0.6583 -0.7746  0.1123
 2259SOL     ow 9033   3.983   0.713   4.220 -0.9084  0.0449 -0.0777
 2259SOL     hw 9034   3.990   0.804   4.250 -2.5834  1.1467 -2.6397
 2259SOL     hw 9035   3.893   0.688   4.240  0.0503 -1.8696  2.3779
 2259SOL     vw 9036   3.972   0.722   4.226 -1.0030 -0.0624 -0.0918
 2260SOL     ow 9037   1.039   5.495   5.697 -0.0626 -0.2724  0.2864
 2260SOL     hw 9038   0.953   5.529   5.720  0.1679  1.1088 -0.7329
 2260SOL     hw 9039   1.081   5.477   5.781 -1.2819 -0.8427  0.7981
 2260SOL     vw 9040   1.033   5.497   5.711 -0.1931 -0.1652  0.2196
 2261SOL     ow 9041   4.746   6.980   7.516 -0.6003  0.6643  0.0412
 2261SOL     hw 9042   4.828   6.931   7.509 -0.9426  0.1148 -0.2361
 2261SOL     hw 9043   4.731   6.990   7.610 -0.0625  1.0334  0.0893
 2261SOL     vw 9044   4.754   6.975   7.528 -0.5744  0.6402  0.0107
 2262SOL     ow 9045   2.094   6.695   3.721  0.4878  0.5736  0.1763
 2262SOL     hw 9046   2.089   6.693   3.817  1.7045 -1.0821  0.2604
 2262SOL     hw 9047   2.155   6.766   3.702  1.3463  0.0052  0.7320
 2262SOL     vw 9048   2.102   6.704   3.731  0.7616  0.2801  0.2606
 2263SOL     ow 9049   1.875   7.535   0.329 -0.6268  0.0616 -0.3455
 2263SOL     hw 9050   1.788   7.524   0.291 -0.7531 -2.9929  0.5107
 2263SOL     hw 9051   1.929   7.472   0.281  0.7425  0.7806  0.2211
 2263SOL     vw 9052   1.870   7.525   0.317 -0.4628 -0.2465 -0.1578
 2264SOL     ow 9053   3.589   3.538   7.382  0.0763  0.1723 -0.3755
 2264SOL     hw 9054   3.552   3.597   7.317 -0.3155  0.5706  0.2040
 2264SOL     hw 9055   3.683   3.539   7.365 -0.2272 -1.6998 -2.5781
 2264SOL     vw 9056   3.596   3.546   7.372 -0.0155 -0.0222 -0.5896
 2265SOL     ow 9057   3.372   1.027   6.398 -0.0312  0.7186 -0.1022
 2265SOL     hw 9058   3.411   0.958   6.344  1.1340  0.6521  0.7952
 2265SOL     hw 9059   3.399   1.006   6.487 -3.5986 -0.3548  0.8842
 2265SOL     vw 9060   3.380   1.015   6.403 -0.3480  0.5682  0.1462
 2266SOL     ow 9061   0.648   1.984   3.019  0.6200 -0.8937  0.1692
 2266SOL     hw 9062   0.610   1.904   3.055  2.2386 -2.6606 -1.7903
 2266SOL     hw 9063   0.610   1.993   2.932  1.3221 -0.2043 -0.0854
 2266SOL     vw 9064   0.638   1.975   3.013  0.9262 -1.0359 -0.1229
 2267SOL     ow 9065   7.159   3.281   0.125 -0.2471 -0.4818 -0.2234
 2267SOL     hw 9066   7.078   3.290   0.176  0.0233 -0.3566  0.1903
 2267SOL     hw 9067   7.151   3.196   0.082  1.0602 -2.3819  2.8726
 2267SOL     vw 9068   7.147   3.271   0.126 -0.0393 -0.7161  0.2396
 2268SOL     ow 9069   5.558   4.579   4.575 -0.5627  0.4221  0.2480
 2268SOL     hw 9070   5.493   4.629   4.624  0.4051  1.5904  0.3972
 2268SOL     hw 9071   5.624   4.644   4.550 -0.5568 -0.3187 -1.7952
 2268SOL     vw 9072   5.558   4.594   4.578 -0.4344  0.4783 -0.0019
 2269SOL     ow 9073   3.615   1.871   4.067 -0.0971  0.5034  0.1846
 2269SOL     hw 9074   3.582   1.927   4.137 -0.3271  0.9076 -0.2425
 2269SOL     hw 9075   3.608   1.925   3.988 -1.0644 -0.4111 -0.3703
 2269SOL     vw 9076   3.610   1.886   4.066 -0.2551  0.4361  0.0551
 2270SOL     ow 9077   3.402   7.241   1.451  0.7408 -0.3556  0.2324
 2270SOL     hw 9078   3.480   7.297   1.457  0.2902  0.1713  1.4175
 2270SOL     hw 9079   3.331   7.301   1.428  0.3801 -0.5397  0.8373
 2270SOL     vw 9080   3.403   7.256   1.449  0.6338 -0.3104  0.4686
 2271SOL     ow 9081   1.554   0.715   4.504  0.0635 -0.1274 -0.3498
 2271SOL     hw 9082   1.557   0.764   4.422 -2.1077  1.6532  0.5372
 2271SOL     hw 9083   1.472   0.666   4.500  0.6978 -1.2770  0.1345
 2271SOL     vw 9084   1.543   0.715   4.493 -0.1392 -0.0442 -0.1690
 2272SOL     ow 9085   5.023   5.183   1.987  0.0326 -0.4205 -0.4510
 2272SOL     hw 9086   4.950   5.122   1.979  0.0125 -0.3370 -0.9906
 2272SOL     hw 9087   4.996   5.244   2.055  0.2488 -1.2689  0.4163
 2272SOL     vw 9088   5.010   5.183   1.995  0.0587 -0.5217 -0.4078
 2273SOL     ow 9089   0.649   2.281   3.135  0.3469 -0.3314 -0.2724
 2273SOL     hw 9090   0.569   2.333   3.148 -1.2182 -2.7509  0.4894
 2273SOL     hw 9091   0.707   2.339   3.086 -1.2701  2.0869  0.4563
 2273SOL     vw 9092   0.646   2.296   3.131 -0.0730 -0.3316 -0.0756
 2274SOL     ow 9093   3.527   6.462   5.303  0.1221 -0.0589 -0.7883
 2274SOL     hw 9094   3.482   6.409   5.237 -0.5318 -0.5999  0.0676
 2274SOL     hw 9095   3.488   6.435   5.386  1.0349  0.4980 -0.1582
 2274SOL     vw 9096   3.516   6.451   5.305  0.1562 -0.0570 -0.5922
 2275SOL     ow 9097   2.032   4.140   3.616 -0.6659  0.2525 -0.1827
 2275SOL     hw 9098   1.994   4.058   3.583 -0.6175  0.7116 -1.4705
 2275SOL     hw 9099   2.075   4.179   3.539 -0.8840  1.5868  0.3337
 2275SOL     vw 9100   2.033   4.135   3.601 -0.6882  0.4892 -0.2844
 2276SOL     ow 9101   3.591   4.354   7.141 -0.0135  0.1128 -0.4945
 2276SOL     hw 9102   3.576   4.407   7.219 -2.3732 -0.9689 -0.1340
 2276SOL     hw 9103   3.543   4.399   7.071 -1.6454 -1.2103 -0.2875
 2276SOL     vw 9104   3.583   4.367   7.142 -0.5400 -0.2046 -0.4199
 2277SOL     ow 9105   7.065   6.163   4.045  0.0614 -0.9590  0.1898
 2277SOL     hw 9106   7.106   6.249   4.037 -0.7812 -0.4501  1.0264
 2277SOL     hw 9107   7.055   6.132   3.955 -2.1831  1.1002 -0.3809
 2277SOL     vw 9108   7.069   6.170   4.032 -0.3459 -0.6201  0.2248
 2278SOL     ow 9109   5.884   2.121   5.099  0.5783 -0.2353 -0.2324
 2278SOL     hw 9110   5.823   2.049   5.111  0.1257  0.3120  0.8610
 2278SOL     hw 9111   5.956   2.102   5.160  0.7885 -0.1206 -0.4418
 2278SOL     vw 9112   5.886   2.109   5.109  0.5462 -0.1481 -0.1156
 2279SOL     ow 9113   3.383   6.140   0.922  0.1355  0.0082 -0.0629
 2279SOL     hw 9114   3.405   6.207   0.858 -2.7231 -0.5544 -1.7997
 2279SOL     hw 9115   3.461   6.133   0.977  2.5062  1.0200 -3.0245
 2279SOL     vw 9116   3.396   6.148   0.921  0.0710  0.0675 -0.6828
 2280SOL     ow 9117   6.441   6.320   6.755  0.6682  0.6714  0.0045
 2280SOL     hw 9118   6.369   6.338   6.695 -1.3913  1.1739  2.5017
 2280SOL     hw 9119   6.483   6.405   6.769  1.0183  0.5894 -0.4862
 2280SOL     vw 9120   6.437   6.334   6.749  0.4425  0.7269  0.2692
 2281SOL     ow 9121   0.229   1.073   4.023  0.1606 -0.1354  0.4014
 2281SOL     hw 9122   0.165   1.004   4.003 -2.3085  2.5054 -1.8747
 2281SOL     hw 9123   0.267   1.095   3.938  1.7343  0.5346  1.2450
 2281SOL     vw 9124   0.225   1.067   4.009  0.0424  0.3014  0.2122
 2282SOL     ow 9125   1.743   0.953   3.887  0.4127 -0.2034  0.3728
 2282SOL     hw 9126   1.658   0.916   3.863  1.1709 -2.7542  1.2650
 2282SOL     hw 9127   1.806   0.902   3.835  1.5616 -0.5300  2.0140
 2282SOL     vw 9128   1.740   0.941   3.877  0.6644 -0.5831  0.7070
 2283SOL     ow 9129   3.417   4.106   6.943 -0.4787 -0.2350  0.5643
 2283SOL     hw 9130   3.467   4.185   6.922 -0.8298 -0.3755 -0.9123
 2283SOL     hw 9131   3.346   4.104   6.879 -1.1233 -1.1745  1.2742
 2283SOL     vw 9132   3.415   4.116   6.932 -0.6101 -0.3774  0.4632
 2284SOL     ow 9133   2.458   5.950   0.944  0.0319 -0.0106 -0.2069
 2284SOL     hw 9134   2.470   6.034   0.988 -0.6105  0.3140 -0.6343
 2284SOL     hw 9135   2.431   5.973   0.855 -0.6259 -0.6662 -0.1863
 2284SOL     vw 9136   2.456   5.964   0.938 -0.1396 -0.0544 -0.2606
 2285SOL     ow 9137   4.862   7.503   6.950  0.3231 -0.4234 -0.3529
 2285SOL     hw 9138   4.892   7.468   6.866  0.7104  0.7236 -0.7124
 2285SOL     hw 9139   4.768   7.515   6.938  0.5612  0.8723 -1.0640
 2285SOL     vw 9140   4.853   7.500   6.937  0.4058 -0.1011 -0.4942
 2286SOL     ow 9141   3.966   4.520   2.094 -0.2593  0.4372  0.1347
 2286SOL     hw 9142   4.044   4.535   2.041  0.3594  0.7921  1.0981
 2286SOL     hw 9143   3.933   4.435   2.066 -0.3249  0.8919 -1.2348
 2286SOL     vw 9144   3.972   4.511   2.084 -0.1862  0.5441  0.0812
 2287SOL     ow 9145   4.232   1.933   1.235  0.0092 -0.5446 -0.2754
 2287SOL     hw 9146   4.190   1.994   1.295  0.4940  0.4671 -0.9504
 2287SOL     hw 9147   4.311   1.905   1.281  0.1508 -0.1196 -0.2640
 2287SOL     vw 9148   4.237   1.937   1.249  0.0918 -0.3551 -0.3630
 2288SOL     ow 9149   6.329   0.914   2.567 -0.3013 -0.4078 -0.1928
 2288SOL     hw 9150   6.244   0.926   2.610 -0.5766  0.4411 -0.9447
 2288SOL     hw 9151   6.342   0.820   2.566  0.7149 -0.4632  3.6246
 2288SOL     vw 9152   6.319   0.903   2.572 -0.2034 -0.3031  0.2116
 2289SOL     ow 9153   0.130   4.399   5.906 -0.1620 -0.7748 -0.8033
 2289SOL     hw 9154   0.067   4.462   5.870 -1.8389 -2.1766 -0.4616
 2289SOL     hw 9155   0.108   4.393   5.999  1.3774 -0.3351 -0.3693
 2289SOL     vw 9156   0.119   4.406   5.914 -0.1802 -0.9017 -0.7010
 2290SOL     ow 9157   1.425   7.062   3.164  0.0679  0.5930 -0.1494
 2290SOL     hw 9158   1.433   6.970   3.188 -1.7456 -0.2418 -2.3180
 2290SOL     hw 9159   1.500   7.079   3.106  0.4960  0.5486  0.3868
 2290SOL     vw 9160   1.436   7.052   3.159 -0.1149  0.4771 -0.3647
 2291SOL     ow 9161   6.446   6.794   2.162  0.5666  0.3448 -0.0471
 2291SOL     hw 9162   6.472   6.744   2.239 -1.4438  0.0489  0.4979
 2291SOL     hw 9163   6.413   6.877   2.196 -1.6786 -0.3315 -0.3767
 2291SOL     vw 9164   6.445   6.798   2.176  0.0048  0.2165 -0.0186
 2292SOL     ow 9165   3.708   6.647   5.844  0.3847  0.0449 -0.3086
 2292SOL     hw 9166   3.703   6.725   5.900 -0.1323 -0.8122  0.8950
 2292SOL     hw 9167   3.634   6.656   5.783 -0.1130  0.1574  0.2995
 2292SOL     vw 9168   3.697   6.658   5.844  0.2509 -0.0534 -0.0696
 2293SOL     ow 9169   0.734   1.726   0.050 -0.4201  0.0228 -0.0557
 2293SOL     hw 9170   0.770   1.669   0.118  0.5973 -0.0262 -0.6266
 2293SOL     hw 9171   0.694   1.798   0.099 -1.2328 -0.8647  0.6536
 2293SOL     vw 9172   0.733   1.728   0.066 -0.3931 -0.1009 -0.0374
 2294SOL     ow 9173   6.959   3.158   7.358  0.3776  0.0389 -1.3262
 2294SOL     hw 9174   6.995   3.148   7.269  1.9603 -1.5524 -0.5742
 2294SOL     hw 9175   7.035   3.148   7.415 -0.6073  1.1207  0.2348
 2294SOL     vw 9176   6.974   3.156   7.354  0.4563 -0.0284 -1.0207
 2295SOL     ow 9177   1.647   3.308   0.809 -0.4665  0.3532 -0.4346
 2295SOL     hw 9178   1.599   3.376   0.761  0.4078  2.0008  0.9282
 2295SOL     hw 9179   1.709   3.356   0.864  2.6736 -1.6404 -1.9205
 2295SOL     vw 9180   1.649   3.323   0.810  0.0631  0.3076 -0.4508
 2296SOL     ow 9181   2.861   3.722   4.363  0.2809  0.1314  0.9011
 2296SOL     hw 9182   2.773   3.708   4.330  0.3324  1.4408  0.1244
 2296SOL     hw 9183   2.918   3.690   4.293  0.4060  0.8437  0.6730
 2296SOL     vw 9184   2.857   3.716   4.349  0.3042  0.3980  0.7684
 2297SOL     ow 9185   3.968   1.424   2.006  0.4566 -0.0921 -0.2452
 2297SOL     hw 9186   3.876   1.453   2.004  0.5296  0.1804  0.1917
 2297SOL     hw 9187   3.964   1.331   1.986  0.2089  0.2020 -1.6671
 2297SOL     vw 9188   3.955   1.416   2.003  0.4336 -0.0173 -0.3750
 2298SOL     ow 9189   1.456   5.906   7.281  0.7518 -0.3634  0.0983
 2298SOL     hw 9190   1.474   5.900   7.375  2.6404  0.7235 -0.1430
 2298SOL     hw 9191   1.440   5.815   7.254  1.1624 -0.8105  1.2974
 2298SOL     vw 9192   1.456   5.893   7.290  1.0551 -0.2787  0.2248
 2299SOL     ow 9193   2.783   0.031   5.408  0.0152  0.4881 -0.0584
 2299SOL     hw 9194   2.733   0.034   5.489 -0.3645 -1.6103 -0.1684
 2299SOL     hw 9195   2.848   0.101   5.418  0.8155 -0.5098  2.6204
 2299SOL     vw 9196   2.785   0.041   5.420  0.0707  0.0796  0.2804
 2300SOL     ow 9197   4.613   2.534   4.478 -0.0349  0.4660 -0.4704
 2300SOL     hw 9198   4.652   2.593   4.542  0.6547 -0.2600 -0.2025
 2300SOL     hw 9199   4.651   2.448   4.498 -2.9733 -0.6465  0.8276
 2300SOL     vw 9200   4.623   2.530   4.489 -0.3316  0.2234 -0.2639
 2301SOL     ow 9201   3.496   1.971   7.528 -0.2739  0.0072  0.4250
 2301SOL     hw 9202   3.568   2.020   7.569 -0.3079  0.8921 -0.5501
 2301SOL     hw 9203   3.444   2.037   7.483 -1.1675 -0.7508  0.3118
 2301SOL     vw 9204   3.499   1.986   7.528 -0.3961  0.0240  0.2814
 2302SOL     ow 9205   0.783   5.225   5.811  0.0432  0.1173 -0.2091
 2302SOL     hw 9206   0.813   5.272   5.888  0.0645 -0.0723 -0.1015
 2302SOL     hw 9207   0.761   5.294   5.748  0.8882  0.2559 -0.3642
 2302SOL     vw 9208   0.784   5.240   5.813  0.1574  0.1106 -0.2153
 2303SOL     ow 9209   7.241   6.650   7.042  0.0909 -0.0965 -0.3412
 2303SOL     hw 9210   7.309   6.656   7.108  0.8360  0.2781 -1.1229
 2303SOL     hw 9211   7.238   6.557   7.019 -2.5756 -0.9246  2.6257
 2303SOL     vw 9212   7.249   6.638   7.047 -0.1626 -0.1564 -0.0532
 2304SOL     ow 9213   3.715   0.897   3.771  0.8414  0.1649  0.1699
 2304SOL     hw 9214   3.711   0.900   3.676  0.2129  0.1982  0.1968
 2304SOL     hw 9215   3.695   0.987   3.798 -1.4335 -0.3568  0.4088
 2304SOL     vw 9216   3.712   0.910   3.762  0.4585  0.1005  0.2050
 2305SOL     ow 9217   4.375   6.914   6.623  0.2461  0.0002 -0.3009
 2305SOL     hw 9218   4.330   6.993   6.653  1.3906  0.2524  0.8131
 2305SOL     hw 9219   4.461   6.945   6.593  1.6750 -1.0411  2.3958
 2305SOL     vw 9220   4.380   6.929   6.623  0.5856 -0.1040  0.2019
 2306SOL     ow 9221   4.333   5.689   5.579  0.2255 -0.3616  0.6800
 2306SOL     hw 9222   4.383   5.744   5.639  1.4931 -1.3669  0.5762
 2306SOL     hw 9223   4.323   5.605   5.625  0.2931 -0.7918 -0.0720
 2306SOL     vw 9224   4.338   5.685   5.593  0.4017 -0.5510  0.5670
 2307SOL     ow 9225   0.817   1.324   6.779 -0.0748  0.5117  0.0199
 2307SOL     hw 9226   0.851   1.263   6.845  0.8701  1.8498  0.8137
 2307SOL     hw 9227   0.747   1.371   6.825 -0.3008  0.5391 -0.3550
 2307SOL     vw 9228   0.812   1.322   6.794  0.0201  0.6919  0.0753
 2308SOL     ow 9229   6.797   0.380   3.068 -0.7287 -0.1511  0.2877
 2308SOL     hw 9230   6.810   0.460   3.118  1.6661  0.8291 -1.6541
 2308SOL     hw 9231   6.734   0.403   3.000  0.9093  0.5852 -1.0609
 2308SOL     vw 9232   6.791   0.393   3.065 -0.1965  0.0754 -0.1465
 2309SOL     ow 9233   6.085   5.913   1.936 -0.6672  0.5506 -0.5312
 2309SOL     hw 9234   6.096   5.924   2.030  0.7810  2.3775 -0.8613
 2309SOL     hw 9235   6.118   5.825   1.918 -0.9496  0.1858  0.6487
 2309SOL     vw 9236   6.091   5.902   1.946 -0.5133  0.7434 -0.4191
 2310SOL     ow 9237   6.584   2.829   4.991  0.0919 -0.2136 -0.1178
 2310SOL     hw 9238   6.605   2.877   5.071  1.6580  0.9492 -1.1815
 2310SOL     hw 9239   6.580   2.895   4.923  1.0415 -1.4356 -1.4082
 2310SOL     vw 9240   6.586   2.844   4.993  0.4241 -0.2214 -0.4284
 2311SOL     ow 9241   5.633   4.787   2.769 -0.0283  0.6767 -0.3445
 2311SOL     hw 9242   5.630   4.701   2.728 -2.0913  1.3821 -1.8816
 2311SOL     hw 9243   5.684   4.774   2.849 -0.6280 -2.0568 -0.2972
 2311SOL     vw 9244   5.639   4.774   2.774 -0.3793  0.4091 -0.5410
 2312SOL     ow 9245   0.640   7.145   5.091  0.7512 -0.4629  0.4854
 2312SOL     hw 9246   0.704   7.204   5.131  0.7938 -0.0760 -0.1319
 2312SOL     hw 9247   0.634   7.175   5.000  0.2770 -0.9950  0.3363
 2312SOL     vw 9248   0.648   7.157   5.084  0.6943 -0.4821  0.3846
 2313SOL     ow 9249   3.810   1.664   1.724  0.3047 -0.5175 -0.5490
 2313SOL     hw 9250   3.782   1.640   1.635 -0.7087 -0.9870 -0.1238
 2313SOL     hw 9251   3.767   1.748   1.740 -1.5286 -1.5669  0.3649
 2313SOL     vw 9252   3.801   1.672   1.714 -0.0708 -0.7179 -0.3723
 2314SOL     ow 9253   7.220   3.666   1.261 -0.1666 -0.5430 -0.1446
 2314SOL     hw 9254   7.312   3.660   1.236 -0.7329 -0.1926 -2.5793
 2314SOL     hw 9255   7.191   3.576   1.273 -0.0153 -0.7992 -1.5602
 2314SOL     vw 9256   7.228   3.654   1.260 -0.2215 -0.5306 -0.6527
 2315SOL     ow 9257   5.432   4.670   1.640  0.5748  0.0037 -0.3952
 2315SOL     hw 9258   5.475   4.685   1.724 -0.7413  1.7959  0.0288
 2315SOL     hw 9259   5.364   4.737   1.636 -1.3853 -1.9236 -1.5677
 2315SOL     vw 9260   5.429   4.681   1.650  0.1423 -0.0143 -0.4939
 2316SOL     ow 9261   2.257   4.844   5.322 -0.6955  0.4415  0.3075
 2316SOL     hw 9262   2.168   4.816   5.301 -0.2629 -0.5083 -0.3159
 2316SOL     hw 9263   2.246   4.904   5.397 -1.9728  1.4647 -0.6467
 2316SOL     vw 9264   2.243   4.849   5.329 -0.8069  0.4511  0.0994
 2317SOL     ow 9265   4.646   6.053   6.916  0.7855  0.5097  0.0275
 2317SOL     hw 9266   4.579   6.055   6.847 -0.0319  0.1432  0.7967
 2317SOL     hw 9267   4.609   6.106   6.987  0.7565 -0.6959  0.9446
 2317SOL     vw 9268   4.632   6.060   6.916  0.6735  0.3021  0.2499
 2318SOL     ow 9269   2.292   5.105   4.199 -0.4215  0.2075 -0.5360
 2318SOL     hw 9270   2.310   5.015   4.226 -0.6274  0.2611 -0.2077
 2318SOL     hw 9271   2.365   5.156   4.234 -0.5933  0.2500 -0.2396
 2318SOL     vw 9272   2.304   5.100   4.207 -0.4715  0.2203 -0.4535
 2319SOL     ow 9273   3.241   3.164   6.619  0.0829  0.5068 -0.5324
 2319SOL     hw 9274   3.175   3.138   6.556 -0.4088  0.9899 -0.2314
 2319SOL     hw 9275   3.211   3.249   6.652 -1.5181 -1.1326  2.8017
 2319SOL     vw 9276   3.228   3.172   6.615 -0.1932  0.3543 -0.0527
 2320SOL     ow 9277   4.431   3.113   0.222  0.0697 -0.2182  0.2119
 2320SOL     hw 9278   4.441   3.197   0.266  0.3910 -0.5681  0.8229
 2320SOL     hw 9279   4.492   3.055   0.267  0.8463 -0.4449 -1.0775
 2320SOL     vw 9280   4.441   3.117   0.233  0.2143 -0.2941  0.1224
 2321SOL     ow 9281   0.855   2.286   1.335 -0.7024 -0.7025 -0.1044
 2321SOL     hw 9282   0.893   2.361   1.382  2.4717 -1.4276 -1.2355
 2321SOL     hw 9283   0.860   2.214   1.397 -2.1520 -0.3864  0.4054
 2321SOL     vw 9284   0.861   2.286   1.349 -0.4748 -0.7564 -0.1864
 2322SOL     ow 9285   3.402   4.444   1.692 -0.1316  0.4093  0.3359
 2322SOL     hw 9286   3.463   4.394   1.637  1.8659  3.2786 -0.3031
 2322SOL     hw 9287   3.385   4.386   1.767  2.0786 -1.1907 -0.2807
 2322SOL     vw 9288   3.408   4.429   1.695  0.4236  0.5770  0.1702
 2323SOL     ow 9289   1.854   3.183   2.996  0.5693  0.7475 -0.6592
 2323SOL     hw 9290   1.833   3.247   3.064  2.3589  2.1388 -1.3154
 2323SOL     hw 9291   1.950   3.175   3.000  0.4787 -1.1357 -1.2898
 2323SOL     vw 9292   1.864   3.191   3.005  0.7935  0.6827 -0.8289
 2324SOL     ow 9293   1.484   4.363   7.417 -0.1656 -0.0411 -0.6955
 2324SOL     hw 9294   1.440   4.278   7.421  0.2483 -0.2197  2.5252
 2324SOL     hw 9295   1.564   4.346   7.367 -0.2185 -1.4720 -0.3219
 2324SOL     vw 9296   1.489   4.350   7.411 -0.1180 -0.2532 -0.2213
 2325SOL     ow 9297   6.326   5.513   5.672 -0.3201  0.0878 -0.4417
 2325SOL     hw 9298   6.292   5.517   5.582 -0.0956  1.4743 -0.4888
 2325SOL     hw 9299   6.249   5.523   5.727 -0.4824 -0.9543 -0.4632
 2325SOL     vw 9300   6.311   5.515   5.667 -0.3119  0.1335 -0.4508
 2326SOL     ow 9301   1.371   3.164   6.904 -0.0193  0.2971 -0.0651
 2326SOL     hw 9302   1.304   3.117   6.855 -1.2340 -0.4325  2.1658
 2326SOL     hw 9303   1.433   3.096   6.930 -2.1353 -0.4671  3.7589
 2326SOL     vw 9304   1.370   3.149   6.901 -0.4588  0.1000  0.7339
 2327SOL     ow 9305   4.087   5.519   6.202  0.3334  0.2959  0.2697
 2327SOL     hw 9306   4.009   5.552   6.157  0.5416  0.9420  0.3645
 2327SOL     hw 9307   4.159   5.540   6.144  0.6270  1.3153  0.9655
 2327SOL     vw 9308   4.086   5.526   6.189  0.3996  0.5159  0.3741
 2328SOL     ow 9309   5.260   7.221   5.581 -0.2132 -0.6153 -0.4949
 2328SOL     hw 9310   5.280   7.164   5.655 -0.0776 -0.3102 -0.2958
 2328SOL     hw 9311   5.259   7.162   5.505 -1.5028 -1.1386 -0.1026
 2328SOL     vw 9312   5.262   7.205   5.580 -0.3650 -0.6440 -0.4170
 2329SOL     ow 9313   5.179   5.055   1.444  0.1949  0.1300 -0.0888
 2329SOL     hw 9314   5.189   4.973   1.395 -1.3368  0.4054 -0.9374
 2329SOL     hw 9315   5.226   5.120   1.392 -1.9548  0.5500 -1.6453
 2329SOL     vw 9316   5.187   5.053   1.431 -0.2909  0.2217 -0.4061
 2330SOL     ow 9317   5.116   5.011   2.967 -1.0255  0.0125  0.0166
 2330SOL     hw 9318   5.047   4.946   2.976 -0.4791 -0.2946  2.7298
 2330SOL     hw 9319   5.182   4.968   2.912 -0.9886 -1.4925  1.1790
 2330SOL     vw 9320   5.116   4.997   2.961 -0.9489 -0.2265  0.5279
 2331SOL     ow 9321   5.711   5.486   2.582  0.4453 -0.0928  0.0628
 2331SOL     hw 9322   5.632   5.491   2.636  0.2726 -1.8768  0.0154
 2331SOL     hw 9323   5.679   5.464   2.495  1.0530 -2.3661  0.3597
 2331SOL     vw 9324   5.697   5.484   2.578  0.5031 -0.6282  0.0957
 2332SOL     ow 9325   7.158   1.660   2.310 -0.5080 -0.6627  0.2282
 2332SOL     hw 9326   7.128   1.583   2.261  0.5324 -1.6976  1.1477
 2332SOL     hw 9327   7.249   1.639   2.333  0.1652  1.3164 -0.4098
 2332SOL     vw 9328   7.166   1.647   2.307 -0.2818 -0.5381  0.2654
 2333SOL     ow 9329   3.070   1.010   6.353 -0.1875  0.2488 -0.0073
 2333SOL     hw 9330   3.158   1.036   6.378  0.7040 -2.9803  0.7658
 2333SOL     hw 9331   3.012   1.065   6.406  1.3963  1.4104  0.5755
 2333SOL     vw 9332   3.074   1.020   6.363  0.1391 -0.0240  0.1717
 2334SOL     ow 9333   7.269   0.811   5.505 -0.4564 -0.4125 -0.0814
 2334SOL     hw 9334   7.281   0.842   5.415 -1.4611  0.5022  0.0863
 2334SOL     hw 9335   7.323   0.731   5.510  1.5228  0.8125 -0.7646
 2334SOL     vw 9336   7.278   0.804   5.494 -0.3278 -0.1302 -0.1493
 2335SOL     ow 9337   7.030   6.243   1.992 -0.5065 -0.1407 -0.2744
 2335SOL     hw 9338   7.020   6.200   1.908 -1.3658  2.3140 -1.5211
 2335SOL     hw 9339   6.978   6.190   2.053  0.6001 -2.2835 -1.0823
 2335SOL     vw 9340   7.022   6.231   1.989 -0.4740 -0.0994 -0.5455
 2336SOL     ow 9341   3.182   5.308   7.426 -0.2498  0.8725  0.3691
 2336SOL     hw 9342   3.088   5.316   7.411 -0.7926  0.5911  3.1140
 2336SOL     hw 9343   3.201   5.216   7.409  0.0983  1.3689 -2.4938
 2336SOL     vw 9344   3.172   5.297   7.421 -0.2756  0.9010  0.3536
 2337SOL     ow 9345   0.172   2.829   6.920  0.1879 -0.7697  0.6707
 2337SOL     hw 9346   0.133   2.742   6.928 -0.0073 -0.8786 -1.0269
 2337SOL     hw 9347   0.259   2.812   6.884  0.1512 -0.2773  0.3461
 2337SOL     vw 9348   0.178   2.815   6.916  0.1573 -0.7192  0.4039
 2338SOL     ow 9349   7.029   0.329   2.876  0.3968 -0.5451 -0.2503
 2338SOL     hw 9350   7.025   0.257   2.813 -0.6130 -1.2012  0.5426
 2338SOL     hw 9351   7.028   0.408   2.822  1.1685 -1.1047 -1.1211
 2338SOL     vw 9352   7.029   0.330   2.860  0.3655 -0.7055 -0.2606
 2339SOL     ow 9353   1.805   0.460   4.550 -0.1093 -0.3121 -0.2256
 2339SOL     hw 9354   1.726   0.449   4.496 -0.4719  1.3755 -0.0723
 2339SOL     hw 9355   1.877   0.462   4.487 -0.2011 -1.3944 -0.3978
 2339SOL     vw 9356   1.804   0.459   4.534 -0.1693 -0.2323 -0.2279
 2340SOL     ow 9357   4.139   6.687   5.659 -0.7026  0.9459  0.0983
 2340SOL     hw 9358   4.138   6.674   5.564 -0.3780 -2.0516  0.4231
 2340SOL     hw 9359   4.230   6.709   5.679 -1.0596  3.0524 -0.3816
 2340SOL     vw 9360   4.151   6.688   5.649 -0.7069  0.8283  0.0777
 2341SOL     ow 9361   7.106   3.698   0.389 -0.0021 -0.1470 -0.0532
 2341SOL     hw 9362   7.014   3.682   0.367 -0.4973  1.7631  0.4765
 2341SOL     hw 9363   7.149   3.715   0.306  0.2685 -2.5517 -0.4942
 2341SOL     vw 9364   7.099   3.698   0.375 -0.0317 -0.2122 -0.0415
 2342SOL     ow 9365   3.948   1.580   2.619 -0.3590  0.2388 -0.1357
 2342SOL     hw 9366   4.031   1.614   2.651 -0.4920 -0.5133  1.0853
 2342SOL     hw 9367   3.881   1.630   2.666 -0.7303  2.6266 -2.9347
 2342SOL     vw 9368   3.950   1.591   2.629 -0.4256  0.4546 -0.3438
 2343SOL     ow 9369   4.961   2.083   3.189 -0.2179  0.0939  0.0380
 2343SOL     hw 9370   4.996   1.994   3.199 -1.0441 -0.4538 -1.6162
 2343SOL     hw 9371   4.976   2.124   3.274  0.4283 -1.5357  0.7547
 2343SOL     vw 9372   4.967   2.077   3.202 -0.2418 -0.1934 -0.0857
 2344SOL     ow 9373   3.152   5.013   1.615 -0.0581  0.0605 -0.3841
 2344SOL     hw 9374   3.200   4.949   1.667  0.4864  1.7328  1.2561
 2344SOL     hw 9375   3.066   5.018   1.657  0.0038  0.6222 -0.3221
 2344SOL     vw 9376   3.147   5.005   1.628  0.0218  0.3555 -0.1595
 2345SOL     ow 9377   3.095   2.781   7.216 -0.0957 -0.4401 -0.0222
 2345SOL     hw 9378   3.164   2.723   7.247  1.8639  0.8365 -1.7196
 2345SOL     hw 9379   3.027   2.722   7.183  0.1582 -1.7296  1.6644
 2345SOL     vw 9380   3.095   2.766   7.216  0.1962 -0.4418 -0.0236
 2346SOL     ow 9381   1.676   2.272   1.252 -0.1423 -0.2953  0.0984
 2346SOL     hw 9382   1.750   2.212   1.262 -0.6485 -0.8790  0.4305
 2346SOL     hw 9383   1.705   2.336   1.188  0.8098 -0.2666  0.5433
 2346SOL     vw 9384   1.689   2.273   1.245 -0.0835 -0.3685  0.2009
 2347SOL     ow 9385   4.439   4.622   0.896  0.5122  0.2447 -0.0277
 2347SOL     hw 9386   4.473   4.704   0.933  1.9048 -0.7731  1.0761
 2347SOL     hw 9387   4.369   4.596   0.956  1.3391 -0.3050  0.7350
 2347SOL     vw 9388   4.435   4.629   0.909  0.8049  0.0379  0.2185
 2348SOL     ow 9389   6.999   0.533   2.095 -0.5594  0.1947 -0.0299
 2348SOL     hw 9390   7.071   0.483   2.133  0.4810  1.0569 -0.8188
 2348SOL     hw 9391   6.976   0.486   2.016 -2.4169 -1.3407  1.3317
 2348SOL     vw 9392   7.005   0.520   2.090 -0.6671  0.1059  0.0457
 2349SOL     ow 9393   3.445   5.952   2.951 -0.1999  0.5705 -0.3400
 2349SOL     hw 9394   3.420   5.866   2.918 -1.7475 -0.1522  2.4496
 2349SOL     hw 9395   3.417   6.013   2.883 -2.6428 -0.8563 -0.7208
 2349SOL     vw 9396   3.438   5.949   2.938 -0.7263  0.2868 -0.0221
 2350SOL     ow 9397   5.859   1.891   1.617 -0.5221 -0.3749 -0.0999
 2350SOL     hw 9398   5.898   1.809   1.646  0.3455  0.5947  1.6422
 2350SOL     hw 9399   5.916   1.959   1.653 -2.8796  1.0578  1.2178
 2350SOL     vw 9400   5.871   1.889   1.626 -0.7186 -0.0580  0.3039
 2351SOL     ow 9401   1.393   6.462   2.544 -0.3392  0.4645 -0.6021
 2351SOL     hw 9402   1.418   6.476   2.453  0.5180 -0.7344 -0.5691
 2351SOL     hw 9403   1.465   6.499   2.595  0.7670 -1.6931 -0.4869
 2351SOL     vw 9404   1.406   6.469   2.539 -0.0802  0.0215 -0.5826
 2352SOL     ow 9405   3.654   5.233   0.424 -0.1837  0.4171  0.1375
 2352SOL     hw 9406   3.571   5.280   0.417 -0.9600 -0.7905  0.7786
 2352SOL     hw 9407   3.665   5.190   0.340 -1.0987 -0.7811  0.5976
 2352SOL     vw 9408   3.645   5.233   0.412 -0.4067  0.0997  0.2828
 2353SOL     ow 9409   3.610   7.066   1.552  0.0654  0.2369 -0.0474
 2353SOL     hw 9410   3.620   6.981   1.596 -0.8043  1.1302  2.0071
 2353SOL     hw 9411   3.649   7.129   1.612 -0.1333  1.4085 -1.1144
 2353SOL     vw 9412   3.616   7.063   1.566 -0.0755  0.5095  0.0829
 2354SOL     ow 9413   2.031   6.269   6.723 -0.3546 -0.1894  0.6237
 2354SOL     hw 9414   2.041   6.188   6.773 -1.0837 -1.6783 -1.4959
 2354SOL     hw 9415   1.949   6.258   6.676  1.2097  0.1808 -2.4259
 2354SOL     vw 9416   2.022   6.257   6.723 -0.2445 -0.3371 -0.0584
 2355SOL     ow 9417   1.550   4.576   6.690 -0.3314 -0.4814  0.6806
 2355SOL     hw 9418   1.563   4.536   6.775 -0.4612 -1.3721  0.2889
 2355SOL     hw 9419   1.619   4.540   6.635  1.7962  2.5154  1.1697
 2355SOL     vw 9420   1.561   4.566   6.694 -0.0678 -0.2034  0.6933
 2356SOL     ow 9421   5.077   6.462   6.266  0.0071  0.4371 -0.6222
 2356SOL     hw 9422   5.102   6.374   6.295  1.9892  1.2122  0.2291
 2356SOL     hw 9423   5.028   6.498   6.340  1.5567  0.9763  0.1800
 2356SOL     vw 9424   5.074   6.455   6.280  0.4733  0.6101 -0.4041
 2357SOL     ow 9425   4.128   6.008   0.997 -0.2934  0.0399 -0.1003
 2357SOL     hw 9426   4.086   6.072   1.053  0.7443 -0.7413  1.6594
 2357SOL     hw 9427   4.059   5.978   0.938 -1.9458 -0.3696  1.9130
 2357SOL     vw 9428   4.113   6.012   0.997 -0.3743 -0.1173  0.3975
 2358SOL     ow 9429   4.094   6.039   0.672 -0.3110  0.0839 -0.4691
 2358SOL     hw 9430   4.163   5.973   0.659  1.7878  1.8973  0.7678
 2358SOL     hw 9431   4.080   6.076   0.585  2.7295  1.8739 -0.3474
 2358SOL     vw 9432   4.101   6.035   0.659  0.3672  0.5591 -0.2898
 2359SOL     ow 9433   5.239   4.608   5.261  0.1061 -0.0474  0.5844
 2359SOL     hw 9434   5.185   4.535   5.293  0.7977 -1.0500 -0.4262
 2359SOL     hw 9435   5.233   4.601   5.165 -2.9110  3.5885  0.3093
 2359SOL     vw 9436   5.231   4.597   5.252 -0.2007  0.3002  0.4146
 2360SOL     ow 9437   4.048   1.716   0.718  0.1975 -0.0593 -0.2632
 2360SOL     hw 9438   3.989   1.780   0.758  1.3367  1.0267 -0.2241
 2360SOL     hw 9439   4.130   1.764   0.707  0.8682 -1.3126 -0.9403
 2360SOL     vw 9440   4.051   1.731   0.722  0.4361 -0.0814 -0.3474
 2361SOL     ow 9441   7.101   5.970   0.024 -0.0607 -0.1240 -0.2439
 2361SOL     hw 9442   7.067   5.905  -0.037 -0.6843 -0.2324  0.2005
 2361SOL     hw 9443   7.023   6.004   0.068  0.2391  1.0474 -0.5855
 2361SOL     vw 9444   7.086   5.966   0.022 -0.1035  0.0162 -0.2303
 2362SOL     ow 9445   4.249   5.017   6.830 -0.1503  0.2946  0.5407
 2362SOL     hw 9446   4.280   4.945   6.885  2.4396  1.1352  0.2813
 2362SOL     hw 9447   4.253   4.982   6.741  1.4380  0.8312  0.3833
 2362SOL     vw 9448   4.253   5.003   6.826  0.4010  0.4764  0.4857
 2363SOL     ow 9449   0.513   4.943   5.294  0.4444  0.7377  0.3190
 2363SOL     hw 9450   0.422   4.951   5.263  0.0479  2.0081  1.7217
 2363SOL     hw 9451   0.550   5.029   5.280  1.6453  0.0789 -0.7561
 2363SOL     vw 9452   0.506   4.955   5.288  0.5505  0.8185  0.3622
 2364SOL     ow 9453   1.701   2.965   1.476 -0.0715 -0.5779  0.7734
 2364SOL     hw 9454   1.730   3.054   1.458  0.9861 -1.4536 -2.4208
 2364SOL     hw 9455   1.769   2.929   1.532  0.0613  0.2620  1.1753
 2364SOL     vw 9456   1.714   2.972   1.481  0.0855 -0.5826  0.4050
 2365SOL     ow 9457   0.128   2.854   4.772  0.0872 -0.7189  0.5367
 2365SOL     hw 9458   0.141   2.846   4.866  0.5575  0.0623  0.5450
 2365SOL     hw 9459   0.130   2.764   4.740  1.6092 -0.9040  1.0562
 2365SOL     vw 9460   0.130   2.841   4.780  0.3501 -0.6403  0.6063
 2366SOL     ow 9461   0.388   6.647   1.147  0.3501 -0.2349 -0.2714
 2366SOL     hw 9462   0.319   6.669   1.209  0.8919  0.7613 -0.0006
 2366SOL     hw 9463   0.470   6.668   1.192  0.7847 -0.3032 -0.9997
 2366SOL     vw 9464   0.390   6.653   1.161  0.4789 -0.1123 -0.3318
 2367SOL     ow 9465   6.487   4.164   4.245 -0.5528  0.1034 -0.4441
 2367SOL     hw 9466   6.423   4.114   4.296  1.2108 -1.1989  0.6278
 2367SOL     hw 9467   6.498   4.245   4.294 -2.9765  1.3913 -1.8599
 2367SOL     vw 9468   6.480   4.168   4.258 -0.6399  0.1016 -0.4892
 2368SOL     ow 9469   7.244   1.619   4.586  0.2269 -0.0267 -0.0365
 2368SOL     hw 9470   7.214   1.594   4.673 -0.4113 -0.7883 -0.4728
 2368SOL     hw 9471   7.257   1.714   4.592 -1.5252  0.2080  0.3791
 2368SOL     vw 9472   7.242   1.628   4.599 -0.0882 -0.0963 -0.0391
 2369SOL     ow 9473   3.853   0.510   0.025  0.0384  0.0057 -0.1539
 2369SOL     hw 9474   3.782   0.521   0.088 -0.9317 -1.1191 -1.0054
 2369SOL     hw 9475   3.843   0.583  -0.036 -0.0500  0.1574  0.0417
 2369SOL     vw 9476   3.842   0.521   0.025 -0.1013 -0.1227 -0.2408
 2370SOL     ow 9477   3.131   6.520   5.489 -0.2278 -0.9976  0.0505
 2370SOL     hw 9478   3.111   6.487   5.576 -0.8590  2.1228  1.2507
 2370SOL     hw 9479   3.058   6.578   5.468  1.7077  1.3082 -0.8042
 2370SOL     vw 9480   3.119   6.524   5.498 -0.0557 -0.2816  0.0961
 2371SOL     ow 9481   0.841   2.179   3.528  0.3373  0.1999 -0.8730
 2371SOL     hw 9482   0.837   2.140   3.615  0.3828 -1.3356 -1.5404
 2371SOL     hw 9483   0.934   2.199   3.514  0.2531  1.0407 -0.3478
 2371SOL     vw 9484   0.853   2.177   3.538  0.3322  0.1081 -0.8918
 2372SOL     ow 9485   0.935   3.846   7.405  0.0627 -0.2536  0.4340
 2372SOL     hw 9486   1.003   3.779   7.400  0.2183 -0.1446  1.0240
 2372SOL     hw 9487   0.935   3.887   7.318 -0.3111 -1.2829 -0.0697
 2372SOL     vw 9488   0.944   3.843   7.393  0.0339 -0.3749  0.4454
 2373SOL     ow 9489   1.792   5.280   6.357  0.3472 -0.1914 -0.1944
 2373SOL     hw 9490   1.697   5.271   6.346  0.4633 -3.3088  0.5897
 2373SOL     hw 9491   1.822   5.194   6.386  3.0345  1.5072  2.7076
 2373SOL     vw 9492   1.783   5.268   6.359  0.7171 -0.3786  0.2921
 2374SOL     ow 9493   2.362   3.858   3.160  0.2102 -0.7432 -1.2716
 2374SOL     hw 9494   2.329   3.859   3.071  1.3701  1.0403 -1.7367
 2374SOL     hw 9495   2.287   3.830   3.214 -0.3385 -2.4450 -2.8049
 2374SOL     vw 9496   2.348   3.854   3.156  0.2910 -0.7324 -1.5353
 2375SOL     ow 9497   1.117   0.094   2.485 -0.8304 -0.0235  0.0987
 2375SOL     hw 9498   1.075   0.172   2.450  0.8813  1.3661  0.9436
 2375SOL     hw 9499   1.054   0.023   2.472 -2.4435  1.5059 -0.6672
 2375SOL     vw 9500   1.103   0.095   2.479 -0.8173  0.3616  0.1091
 2376SOL     ow 9501   4.526   6.575   3.993 -0.8298  0.1755  0.1274
 2376SOL     hw 9502   4.433   6.563   3.975 -0.8894 -0.1899  0.6717
 2376SOL     hw 9503   4.529   6.612   4.082 -0.4464 -0.0175  0.1955
 2376SOL     vw 9504   4.514   6.579   4.003 -0.7870  0.1018  0.2079
 2377SOL     ow 9505   7.082   1.835   7.456  0.4938  0.1678  0.2321
 2377SOL     hw 9506   7.039   1.909   7.499 -0.5202 -0.6413  0.6310
 2377SOL     hw 9507   7.175   1.860   7.453  0.2577  1.1832  0.8969
 2377SOL     vw 9508   7.089   1.848   7.461  0.3288  0.1950  0.3724
 2378SOL     ow 9509   6.746   7.518   5.734 -0.2045 -0.3450 -0.2175
 2378SOL     hw 9510   6.811   7.499   5.802  0.5093  3.6728  0.5292
 2378SOL     hw 9511   6.796   7.563   5.666 -1.2815 -2.4573 -2.5262
 2378SOL     vw 9512   6.761   7.522   5.734 -0.2525 -0.0937 -0.4237
 2379SOL     ow 9513   2.779   6.812   1.076 -0.0542 -0.5694 -0.9715
 2379SOL     hw 9514   2.705   6.873   1.079 -0.3230 -0.8627  2.1726
 2379SOL     hw 9515   2.853   6.864   1.046 -0.3600  1.3272  1.2707
 2379SOL     vw 9516   2.779   6.827   1.072 -0.1299 -0.3583 -0.2608
 2380SOL     ow 9517   2.962   5.195   5.487 -0.4693  0.7516 -0.5284
 2380SOL     hw 9518   2.893   5.128   5.479 -1.0411  1.2614  0.0469
 2380SOL     hw 9519   2.984   5.217   5.396 -1.3263  0.8432 -0.7242
 2380SOL     vw 9520   2.955   5.189   5.474 -0.6579  0.8311 -0.4783
 2381SOL     ow 9521   6.810   7.533   5.078 -0.0746  0.9707 -0.4608
 2381SOL     hw 9522   6.841   7.595   5.013 -2.9914  0.3177 -2.6963
 2381SOL     hw 9523   6.808   7.449   5.033  2.2974 -0.5667  2.0127
 2381SOL     vw 9524   6.814   7.530   5.064 -0.1464  0.6816 -0.4296
 2382SOL     ow 9525   1.888   4.224   3.877  0.2759 -0.0987  0.3646
 2382SOL     hw 9526   1.845   4.233   3.963  0.0421 -0.7588  0.3270
 2382SOL     hw 9527   1.849   4.294   3.824  1.3603  1.1372  1.1496
 2382SOL     vw 9528   1.877   4.235   3.881  0.3881 -0.0226  0.4631
 2383SOL     ow 9529   0.332   3.794   4.199  0.0398  0.5207  0.2784
 2383SOL     hw 9530   0.304   3.872   4.245 -0.6877  0.1205  0.5268
 2383SOL     hw 9531   0.291   3.721   4.246 -0.8261  0.1063 -1.0602
 2383SOL     vw 9532   0.323   3.794   4.211 -0.1704  0.4131  0.1345
 2384SOL     ow 9533   6.229   2.238   6.363  0.5017  0.2447  0.1930
 2384SOL     hw 9534   6.217   2.143   6.362  0.8217  0.0090 -4.6671
 2384SOL     hw 9535   6.140   2.273   6.375  0.2618 -0.6223  1.1360
 2384SOL     vw 9536   6.215   2.230   6.364  0.5121  0.0991 -0.3238
 2385SOL     ow 9537   6.509   5.148   2.231 -0.4862  0.3092  0.5534
 2385SOL     hw 9538   6.479   5.171   2.319  2.7480 -0.3368  1.9490
 2385SOL     hw 9539   6.567   5.219   2.206  0.6656 -0.7676  0.0902
 2385SOL     vw 9540   6.512   5.160   2.240  0.0923  0.0820  0.6765
 2386SOL     ow 9541   0.353   4.785   0.341  0.4666 -0.7337 -0.2910
 2386SOL     hw 9542   0.370   4.795   0.435 -0.5312  1.1449 -0.2644
 2386SOL     hw 9543   0.293   4.711   0.335 -3.5620  2.0265  1.1845
 2386SOL     vw 9544   0.347   4.777   0.353 -0.1966 -0.1221 -0.0928
 2387SOL     ow 9545   4.024   3.510   6.558 -0.7714 -0.2509  0.1914
 2387SOL     hw 9546   4.093   3.541   6.500 -1.0708  1.1752  0.5485
 2387SOL     hw 9547   3.946   3.559   6.531 -1.4039 -1.1063  0.4349
 2387SOL     vw 9548   4.023   3.521   6.547 -0.8943 -0.1756  0.2708
 2388SOL     ow 9549   0.176   3.641   5.737 -0.4910 -0.6232  0.2436
 2388SOL     hw 9550   0.139   3.615   5.652  0.9736  1.1313 -1.0153
 2388SOL     hw 9551   0.259   3.593   5.742  0.9273  1.5426 -0.8489
 2388SOL     vw 9552   0.182   3.631   5.726 -0.1106 -0.1059 -0.0668
 2389SOL     ow 9553   6.482   2.427   1.096 -0.3390  0.0098 -0.5099
 2389SOL     hw 9554   6.505   2.456   1.007 -0.4176  3.2691  0.4102
 2389SOL     hw 9555   6.417   2.490   1.126 -0.4424 -1.0936  1.8250
 2389SOL     vw 9556   6.477   2.439   1.088 -0.3626  0.2943 -0.0804
 2390SOL     ow 9557   0.602   6.935   0.971  0.3992 -0.0640 -0.4522
 2390SOL     hw 9558   0.673   6.996   0.949  0.9132 -0.7075 -0.6245
 2390SOL     hw 9559   0.549   6.982   1.036  1.7164 -0.0579  0.6581
 2390SOL     vw 9560   0.605   6.950   0.977  0.6408 -0.1481 -0.3284
 2391SOL     ow 9561   6.936   5.561   7.134 -0.2526  0.3303 -0.1105
 2391SOL     hw 9562   7.011   5.512   7.100  0.9054 -0.2460  2.9388
 2391SOL     hw 9563   6.971   5.649   7.151  0.0273 -0.1609  2.0706
 2391SOL     vw 9564   6.950   5.566   7.131 -0.0627  0.1893  0.5794
 2392SOL     ow 9565   7.364   4.538   2.883  1.3349  0.7007 -0.2223
 2392SOL     hw 9566   7.271   4.554   2.864  1.1079 -1.9124 -1.6670
 2392SOL     hw 9567   7.364   4.491   2.966  1.4015  0.9411 -0.0845
 2392SOL     vw 9568   7.352   4.534   2.891  1.3137  0.3877 -0.3947
 2393SOL     ow 9569   7.382   2.575   4.098 -0.3845 -0.4543 -0.2880
 2393SOL     hw 9570   7.340   2.493   4.072 -0.2579 -0.4607 -0.4690
 2393SOL     hw 9571   7.450   2.548   4.160  0.8506 -0.6609 -1.6997
 2393SOL     vw 9572   7.385   2.561   4.103 -0.2050 -0.4823 -0.4983
 2394SOL     ow 9573   6.673   4.840   3.742  0.3576 -0.3784  0.0992
 2394SOL     hw 9574   6.647   4.902   3.673  0.9300 -0.3918 -0.1406
 2394SOL     hw 9575   6.768   4.853   3.750 -0.0398  1.6083  2.8203
 2394SOL     vw 9576   6.682   4.850   3.734  0.3808 -0.1183  0.4267
 2395SOL     ow 9577   4.730   3.860   7.030  0.2058 -0.2840 -0.3766
 2395SOL     hw 9578   4.642   3.825   7.032  0.7792 -2.0863 -2.5341
 2395SOL     hw 9579   4.768   3.836   7.115 -1.3751  0.6687  0.6411
 2395SOL     vw 9580   4.724   3.852   7.042  0.0730 -0.3961 -0.5269
 2396SOL     ow 9581   5.541   0.913   3.025 -0.1438  0.1999 -0.3943
 2396SOL     hw 9582   5.450   0.936   3.043  0.1464 -0.2816  2.0202
 2396SOL     hw 9583   5.538   0.822   2.996 -0.2873 -0.6730  2.1525
 2396SOL     vw 9584   5.528   0.904   3.023 -0.1245  0.0212  0.2602
 2397SOL     ow 9585   3.437   3.441   0.024 -0.1236  0.9999 -0.3826
 2397SOL     hw 9586   3.477   3.480  -0.053  1.0792  1.0039  0.2281
 2397SOL     hw 9587   3.474   3.491   0.098 -0.8760  0.6763  0.2290
 2397SOL     vw 9588   3.447   3.453   0.024 -0.0641  0.9577 -0.2213
 2398SOL     ow 9589   4.711   5.961   7.345  0.3249 -0.9239  0.1076
 2398SOL     hw 9590   4.620   5.977   7.320  0.2973 -0.6083  0.4033
 2398SOL     hw 9591   4.751   5.923   7.266 -0.3763 -2.2823  0.3858
 2398SOL     vw 9592   4.704   5.958   7.331  0.2286 -1.0617  0.1833
 2399SOL     ow 9593   0.424   1.719   4.193 -1.1675 -0.4566 -0.5159
 2399SOL     hw 9594   0.395   1.629   4.205 -1.6773 -0.0802  1.4822
 2399SOL     hw 9595   0.381   1.747   4.112 -4.6904 -0.6762  1.0663
 2399SOL     vw 9596   0.414   1.711   4.184 -1.6996 -0.4359 -0.0436
 2400SOL     ow 9597   6.424   4.241   0.552 -0.7898 -0.5239  0.4583
 2400SOL     hw 9598   6.357   4.190   0.508  0.6186 -2.6736  0.6481
 2400SOL     hw 9599   6.502   4.233   0.497  0.2063 -0.8786  1.8370
 2400SOL     vw 9600   6.426   4.233   0.539 -0.4725 -0.8543  0.6652
 2401SOL     ow 9601   2.932   1.719   3.276 -0.5379  0.5897 -0.6615
 2401SOL     hw 9602   2.943   1.624   3.269 -2.2833  0.4440 -2.4319
 2401SOL     hw 9603   2.888   1.743   3.195 -1.4788  2.6953  0.4035
 2401SOL     vw 9604   2.927   1.709   3.265 -0.8922  0.8482 -0.7545
 2402SOL     ow 9605   3.481   0.475   1.219 -0.2082 -0.2637 -0.1327
 2402SOL     hw 9606   3.393   0.457   1.185 -1.5050 -0.3553  2.9200
 2402SOL     hw 9607   3.532   0.399   1.192 -1.8487 -1.6373  0.4040
 2402SOL     vw 9608   3.476   0.462   1.211 -0.5958 -0.4570  0.3409
 2403SOL     ow 9609   3.282   5.946   7.029 -0.0674 -0.2460  0.2220
 2403SOL     hw 9610   3.261   6.033   6.995  0.9722  0.6510  1.7354
 2403SOL     hw 9611   3.346   5.963   7.099  0.1581 -2.2323  0.5469
 2403SOL     vw 9612   3.288   5.960   7.034  0.0995 -0.3896  0.4644
 2404SOL     ow 9613   1.867   7.130   2.101  0.2668  0.2614  0.0039
 2404SOL     hw 9614   1.829   7.087   2.024 -0.6514  0.3584  0.3893
 2404SOL     hw 9615   1.818   7.212   2.109  1.1381  0.7829  0.0271
 2404SOL     vw 9616   1.855   7.135   2.092  0.2607  0.3428  0.0577
 2405SOL     ow 9617   0.194   4.792   3.374  0.5418 -0.0782  0.7738
 2405SOL     hw 9618   0.265   4.828   3.427  0.1860 -0.5309  1.5705
 2405SOL     hw 9619   0.146   4.735   3.433 -0.7500  0.5489  0.3825
 2405SOL     vw 9620   0.197   4.789   3.388  0.3244 -0.0551  0.8273
 2406SOL     ow 9621   4.475   1.026   5.736 -0.2076 -0.7451 -0.1710
 2406SOL     hw 9622   4.386   0.999   5.712 -0.6609  0.0287  0.5667
 2406SOL     hw 9623   4.485   0.998   5.827  0.8201 -2.0278 -0.6448
 2406SOL     vw 9624   4.464   1.019   5.745 -0.1318 -0.8122 -0.1361
 2407SOL     ow 9625   1.180   7.507   1.668  0.1163  0.5031  0.0249
 2407SOL     hw 9626   1.097   7.508   1.716  0.1485  0.0103  0.0957
 2407SOL     hw 9627   1.242   7.466   1.728  0.2654  0.2976 -0.2661
 2407SOL     vw 9628   1.177   7.502   1.682  0.1403  0.4113 -0.0041
 2408SOL     ow 9629   2.483   6.557   7.044 -0.3885  0.5059  0.2281
 2408SOL     hw 9630   2.439   6.596   6.968 -4.2115 -2.7126  0.4251
 2408SOL     hw 9631   2.496   6.465   7.019  1.5605  0.1663  2.2416
 2408SOL     vw 9632   2.479   6.550   7.030 -0.6359  0.0365  0.5198
 2409SOL     ow 9633   0.512   5.871   2.644  0.0835  0.6427 -0.5181
 2409SOL     hw 9634   0.475   5.951   2.680  0.6545  0.4265  0.5588
 2409SOL     hw 9635   0.597   5.861   2.687  1.0771  0.6967 -2.3569
 2409SOL     vw 9636   0.518   5.880   2.654  0.2899  0.6216 -0.6186
 2410SOL     ow 9637   1.808   2.014   1.601 -0.1848  0.2311 -0.1460
 2410SOL     hw 9638   1.829   1.974   1.685  0.0645  1.6734  0.5063
 2410SOL     hw 9639   1.728   2.064   1.618 -1.9685 -1.9255 -1.5770
 2410SOL     vw 9640   1.800   2.015   1.614 -0.3872  0.1369 -0.2488
 2411SOL     ow 9641   2.638   2.881   1.140 -0.0068  0.1958  0.4604
 2411SOL     hw 9642   2.563   2.906   1.085  1.6194 -0.7930 -2.3977
 2411SOL     hw 9643   2.631   2.785   1.147  1.3164  0.0308 -0.3609
 2411SOL     vw 9644   2.627   2.871   1.134  0.3823  0.0436 -0.0250
 2412SOL     ow 9645   4.632   2.766   6.786  0.7158 -0.2899 -0.2472
 2412SOL     hw 9646   4.692   2.838   6.766  0.3596  0.1504  0.2350
 2412SOL     hw 9647   4.640   2.753   6.881 -2.0636  1.7684  0.4150
 2412SOL     vw 9648   4.641   2.774   6.796  0.3021  0.0398 -0.0963
 2413SOL     ow 9649   2.111   3.926   2.429 -0.2508 -0.2056 -0.1936
 2413SOL     hw 9650   2.099   3.914   2.523 -0.8556 -1.2565 -0.3927
 2413SOL     hw 9651   2.194   3.884   2.410 -0.1347 -0.0045 -0.1329
 2413SOL     vw 9652   2.120   3.919   2.439 -0.3152 -0.3177 -0.2118
 2414SOL     ow 9653   4.033   0.902   5.519  0.5277 -0.4151  0.1668
 2414SOL     hw 9654   3.962   0.957   5.485  0.4620  0.3447  1.4285
 2414SOL     hw 9655   4.102   0.907   5.454  0.2476  0.6322 -0.0616
 2414SOL     vw 9656   4.033   0.910   5.506  0.4821 -0.1767  0.3030
 2415SOL     ow 9657   7.427   3.116   6.884 -0.0650 -0.2509 -0.1413
 2415SOL     hw 9658   7.461   3.120   6.794  2.0836  1.3142  0.6576
 2415SOL     hw 9659   7.403   3.206   6.904 -1.6179 -0.7806  0.4980
 2415SOL     vw 9660   7.428   3.128   6.874  0.0136 -0.1142  0.0484
 2416SOL     ow 9661   0.055   1.095   2.138 -0.0387 -0.7969  0.2011
 2416SOL     hw 9662   0.088   1.121   2.052 -0.7400 -1.4483 -0.2795
 2416SOL     hw 9663  -0.040   1.103   2.132 -0.1168 -1.1443  0.8165
 2416SOL     vw 9664   0.047   1.099   2.126 -0.1416 -0.9287  0.2189
 2417SOL     ow 9665   5.340   5.263   6.728  0.0649 -0.3454 -0.9201
 2417SOL     hw 9666   5.342   5.358   6.719 -1.3494 -0.4683 -3.2932
 2417SOL     hw 9667   5.307   5.231   6.644 -3.9781 -2.6533  1.2018
 2417SOL     vw 9668   5.336   5.271   6.716 -0.6549 -0.6661 -0.9530
 2418SOL     ow 9669   6.776   5.091   2.437 -0.6468 -0.0347  0.2932
 2418SOL     hw 9670   6.775   5.018   2.499  0.1227  0.1661  0.5513
 2418SOL     hw 9671   6.842   5.066   2.372 -1.1987 -0.0834 -0.2574
 2418SOL     vw 9672   6.785   5.078   2.436 -0.6180 -0.0148  0.2546
 2419SOL     ow 9673   7.006   2.023   2.105  0.3044 -0.2693  0.2673
 2419SOL     hw 9674   6.963   2.093   2.154 -0.4504  0.5850 -1.4891
 2419SOL     hw 9675   6.972   1.942   2.142 -2.7348  0.3607 -0.8517
 2419SOL     vw 9676   6.996   2.022   2.116 -0.1965 -0.0733 -0.1119
 2420SOL     ow 9677   5.064   3.053   2.804 -0.2257 -0.1920  0.1871
 2420SOL     hw 9678   5.028   3.077   2.889  0.0015 -2.4937  0.9830
 2420SOL     hw 9679   5.149   3.014   2.823  0.6881  0.9489 -1.2878
 2420SOL     vw 9680   5.070   3.051   2.818 -0.0751 -0.3450  0.0975
 2421SOL     ow 9681   0.553   4.824   1.556 -0.0970  0.5745 -0.0681
 2421SOL     hw 9682   0.590   4.777   1.481 -0.9928  0.8481 -0.6955
 2421SOL     hw 9683   0.608   4.901   1.566  0.6564  0.0140  0.2193
 2421SOL     vw 9684   0.565   4.828   1.547 -0.1158  0.5367 -0.1130
 2422SOL     ow 9685   3.134   4.372   5.794  0.6221  0.7836  0.1975
 2422SOL     hw 9686   3.052   4.422   5.796  0.1694  0.1507 -1.1440
 2422SOL     hw 9687   3.138   4.329   5.879 -0.5539  0.6697  0.2116
 2422SOL     vw 9688   3.123   4.373   5.805  0.4071  0.6852  0.0222
 2423SOL     ow 9689   4.762   5.799   3.075  0.5653 -0.0617 -0.3085
 2423SOL     hw 9690   4.741   5.816   2.983 -0.1709 -1.1986 -0.3670
 2423SOL     hw 9691   4.758   5.885   3.117  1.5235  0.5684 -1.4456
 2423SOL     vw 9692   4.759   5.813   3.068  0.5944 -0.1285 -0.4662
 2424SOL     ow 9693   5.578   5.357   0.058 -0.3486  0.5000 -0.4330
 2424SOL     hw 9694   5.515   5.312   0.114  0.0940 -1.1575 -1.1965
 2424SOL     hw 9695   5.527   5.423   0.012 -0.8028  1.5901  1.5366
 2424SOL     vw 9696   5.563   5.359   0.059 -0.3502  0.4251 -0.2739
 2425SOL     ow 9697   5.274   6.331   3.347  0.1095 -0.2371 -0.0308
 2425SOL     hw 9698   5.216   6.349   3.272 -0.7555 -0.8533  0.4742
 2425SOL     hw 9699   5.287   6.236   3.345  1.9979 -0.0174 -0.7579
 2425SOL     vw 9700   5.268   6.321   3.337  0.2446 -0.2892 -0.0601
 2426SOL     ow 9701   2.855   3.378   6.753  0.5187 -0.2553 -0.6393
 2426SOL     hw 9702   2.834   3.470   6.766  1.1522 -0.0247 -1.1746
 2426SOL     hw 9703   2.771   3.336   6.734 -0.0844 -0.1619  1.5599
 2426SOL     vw 9704   2.841   3.385   6.752  0.5226 -0.2126 -0.4199
 2427SOL     ow 9705   2.710   4.455   7.311  0.2080  0.1965 -0.4227
 2427SOL     hw 9706   2.719   4.362   7.333 -2.3016 -0.2641 -0.9325
 2427SOL     hw 9707   2.697   4.456   7.216  2.0703  1.3024 -0.7140
 2427SOL     vw 9708   2.709   4.443   7.301  0.1227  0.2818 -0.5283
 2428SOL     ow 9709   6.752   5.172   1.831 -0.0818 -0.2216 -0.3043
 2428SOL     hw 9710   6.807   5.186   1.754  2.7799  0.1696  1.6754
 2428SOL     hw 9711   6.753   5.257   1.876 -0.2867 -0.8900  1.0026
 2428SOL     vw 9712   6.759   5.185   1.827  0.2685 -0.2582  0.1293
 2429SOL     ow 9713   4.366   4.767   6.957 -0.4601 -0.6000 -0.5193
 2429SOL     hw 9714   4.332   4.725   6.879 -1.0368  1.4549 -1.4453
 2429SOL     hw 9715   4.453   4.798   6.932 -1.0285  0.9312 -0.7228
 2429SOL     vw 9716   4.373   4.766   6.944 -0.6113 -0.1271 -0.6680
 2430SOL     ow 9717   3.584   6.792   6.427 -0.1544 -0.0794 -0.1028
 2430SOL     hw 9718   3.535   6.774   6.347 -0.2526 -0.2471 -0.0067
 2430SOL     hw 9719   3.527   6.852   6.476  0.5861  1.2757 -0.8413
 2430SOL     vw 9720   3.570   6.798   6.423 -0.0697  0.0775 -0.1876
 2431SOL     ow 9721   5.687   6.862   3.221 -0.2786  0.1965  0.6103
 2431SOL     hw 9722   5.680   6.958   3.217 -2.5827  0.1470  1.5515
 2431SOL     hw 9723   5.632   6.831   3.149  0.5068 -0.4366  0.2763
 2431SOL     vw 9724   5.678   6.871   3.211 -0.4790  0.1066  0.6906
 2432SOL     ow 9725   7.135   5.674   1.189  0.3429  0.0712  0.3873
 2432SOL     hw 9726   7.130   5.678   1.093 -1.0948  0.4223  0.4481
 2432SOL     hw 9727   7.070   5.737   1.218  0.3395 -0.4745  1.6063
 2432SOL     vw 9728   7.126   5.683   1.180  0.1528  0.0453  0.5562
 2433SOL     ow 9729   2.558   7.501   3.305 -0.1872  0.3562 -0.7387
 2433SOL     hw 9730   2.557   7.489   3.400 -1.0796 -1.3551 -0.9275
 2433SOL     hw 9731   2.644   7.536   3.286  0.2617  0.0531  0.6422
 2433SOL     vw 9732   2.569   7.504   3.315 -0.2457  0.0904 -0.5815
 2434SOL     ow 9733   6.955   4.871   2.060  0.8736 -0.0646 -0.1057
 2434SOL     hw 9734   6.866   4.904   2.074  0.9984 -0.5119  2.1913
 2434SOL     hw 9735   6.990   4.924   1.989 -1.3733 -0.2170 -1.4118
 2434SOL     vw 9736   6.948   4.882   2.053  0.5937 -0.1440  0.0250
 2435SOL     ow 9737   1.805   7.363   4.419  0.5456  0.4755  0.1854
 2435SOL     hw 9738   1.780   7.354   4.510 -2.0404 -3.1001 -0.6759
 2435SOL     hw 9739   1.751   7.435   4.386 -0.9722 -0.3733  0.7555
 2435SOL     vw 9740   1.795   7.372   4.426  0.0041 -0.1085  0.1469
 2436SOL     ow 9741   2.307   6.881   7.006  0.0888  0.2281  0.0154
 2436SOL     hw 9742   2.304   6.878   7.102  1.4633  1.2161  0.1091
 2436SOL     hw 9743   2.243   6.815   6.978  1.6671 -2.1686  1.6232
 2436SOL     vw 9744   2.298   6.872   7.015  0.4784  0.0422  0.2401
 2437SOL     ow 9745   7.003   2.447   6.470 -0.0423  0.0638 -0.3227
 2437SOL     hw 9746   7.035   2.463   6.559  2.4844  2.5361 -1.5262
 2437SOL     hw 9747   7.048   2.366   6.443  1.1310  0.6419 -0.1591
 2437SOL     vw 9748   7.013   2.438   6.478  0.4461  0.4662 -0.4599
 2438SOL     ow 9749   5.074   4.882   0.595  0.3358 -0.3746  0.2015
 2438SOL     hw 9750   5.076   4.941   0.520  0.7076  0.6249  0.9703
 2438SOL     hw 9751   5.001   4.822   0.578  0.4118 -0.1606 -0.9356
 2438SOL     vw 9752   5.065   4.882   0.583  0.3948 -0.2146  0.1529
 2439SOL     ow 9753   2.384   0.167   6.484  0.1670 -0.5929 -0.3557
 2439SOL     hw 9754   2.328   0.174   6.562  0.5233  0.6268 -0.1837
 2439SOL     hw 9755   2.333   0.210   6.415  1.1223  1.1305 -0.0434
 2439SOL     vw 9756   2.370   0.173   6.486  0.3400 -0.2046 -0.2918
 2440SOL     ow 9757   3.429   4.954   6.697  0.3991  0.1285 -0.0117
 2440SOL     hw 9758   3.373   4.943   6.620 -0.5169  3.5190  0.0087
 2440SOL     hw 9759   3.517   4.966   6.662  0.7322 -2.3814 -0.2043
 2440SOL     vw 9760   3.433   4.954   6.682  0.3222  0.2449 -0.0346
 2441SOL     ow 9761   0.065   5.642   3.732 -0.6299 -0.6085  0.2607
 2441SOL     hw 9762   0.013   5.722   3.741 -0.1892 -0.4150  1.1782
 2441SOL     hw 9763   0.150   5.672   3.699 -0.2247 -0.6049  1.2880
 2441SOL     vw 9764   0.069   5.656   3.729 -0.5183 -0.5825  0.5174
 2442SOL     ow 9765   4.569   0.670   1.533 -0.1824 -0.0351 -0.3003
 2442SOL     hw 9766   4.478   0.688   1.512  0.2907  0.2687 -2.2964
 2442SOL     hw 9767   4.570   0.578   1.560 -1.3656  0.5279  1.8575
 2442SOL     vw 9768   4.557   0.660   1.534 -0.2761  0.0793 -0.2790
 2443SOL     ow 9769   1.171   0.783   1.515 -0.2852 -0.0176 -0.2537
 2443SOL     hw 9770   1.083   0.764   1.484  0.1424 -1.1742 -0.7776
 2443SOL     hw 9771   1.223   0.706   1.493  0.7865  0.4895  0.3735
 2443SOL     vw 9772   1.167   0.771   1.508 -0.0874 -0.1033 -0.2401
 2444SOL     ow 9773   2.688   5.296   7.373  0.6614  0.0269  0.2799
 2444SOL     hw 9774   2.691   5.367   7.438 -0.9172  0.1525  0.2542
 2444SOL     hw 9775   2.595   5.290   7.349  0.7427 -2.1186  0.3564
 2444SOL     vw 9776   2.676   5.305   7.379  0.4638 -0.2396  0.2866
 2445SOL     ow 9777   7.335   2.422   0.049  0.1757  0.1845  0.1854
 2445SOL     hw 9778   7.288   2.441  -0.031  1.9742  2.1057 -0.5009
 2445SOL     hw 9779   7.272   2.441   0.119 -1.1818 -0.8396 -0.7061
 2445SOL     vw 9780   7.320   2.427   0.048  0.2339  0.3027 -0.0227
 2446SOL     ow 9781   2.555   4.769   5.875 -0.3545  0.4816 -0.1049
 2446SOL     hw 9782   2.583   4.827   5.946  1.6163  0.0746 -0.4885
 2446SOL     hw 9783   2.587   4.812   5.795  0.3998 -0.7037 -0.4619
 2446SOL     vw 9784   2.563   4.782   5.874  0.0050  0.2716 -0.2024
 2447SOL     ow 9785   3.500   5.738   6.691 -0.7051 -0.2406 -0.0083
 2447SOL     hw 9786   3.431   5.783   6.739 -1.3250 -1.8060  0.6132
 2447SOL     hw 9787   3.528   5.667   6.749 -0.2296 -1.0711 -1.2136
 2447SOL     vw 9788   3.495   5.735   6.705 -0.7242 -0.5567 -0.0854
 2448SOL     ow 9789   2.166   0.562   7.154 -0.1401  0.0657  0.3464
 2448SOL     hw 9790   2.214   0.498   7.103  0.3488 -1.2524  2.3421
 2448SOL     hw 9791   2.097   0.512   7.197  0.2685  0.8486  1.9838
 2448SOL     vw 9792   2.163   0.547   7.153 -0.0218 -0.0049  0.8259
 2449SOL     ow 9793   1.602   4.558   2.673 -0.3699  0.1598  0.5316
 2449SOL     hw 9794   1.632   4.486   2.617 -1.4835  0.7203 -0.8506
 2449SOL     hw 9795   1.630   4.534   2.761 -1.1845 -2.2404  0.2005
 2449SOL     vw 9796   1.610   4.545   2.677 -0.6244 -0.0832  0.3054
 2450SOL     ow 9797   3.260   0.670   7.305 -0.1205 -0.2914  0.5070
 2450SOL     hw 9798   3.275   0.678   7.399  0.5951  0.7223  0.3211
 2450SOL     hw 9799   3.277   0.577   7.286  3.4382  0.1656  0.7774
 2450SOL     vw 9800   3.264   0.659   7.315  0.4433 -0.0973  0.5183
 2451SOL     ow 9801   4.558   0.937   1.714 -0.4012 -0.0803 -0.0088
 2451SOL     hw 9802   4.464   0.948   1.732 -0.5657  1.4161 -1.5509
 2451SOL     hw 9803   4.598   1.020   1.739  0.2463 -0.1101 -0.8947
 2451SOL     vw 9804   4.551   0.949   1.720 -0.3376  0.1132 -0.3292
 2452SOL     ow 9805   2.437   1.911   3.668 -0.2916  0.2722 -0.1614
 2452SOL     hw 9806   2.519   1.870   3.697 -0.5827  0.0777  0.4106
 2452SOL     hw 9807   2.416   1.869   3.585 -0.8403 -1.1184  0.6521
 2452SOL     vw 9808   2.445   1.900   3.661 -0.4023  0.0631  0.0213
 2453SOL     ow 9809   0.920   2.563   4.949  0.1429 -0.3835 -0.6490
 2453SOL     hw 9810   0.971   2.512   5.011 -0.4525 -1.3328 -0.9067
 2453SOL     hw 9811   0.861   2.615   5.003  0.9833  0.2888 -0.3716
 2453SOL     vw 9812   0.919   2.563   4.964  0.1752 -0.4201 -0.6461
 2454SOL     ow 9813   0.637   6.698   0.867  0.2911  0.3655  0.5853
 2454SOL     hw 9814   0.628   6.784   0.908  0.5944  0.6560  0.0430
 2454SOL     hw 9815   0.583   6.702   0.788 -2.6010 -1.1132  2.2948
 2454SOL     vw 9816   0.628   6.710   0.862 -0.0505  0.2089  0.7393
 2455SOL     ow 9817   7.157   1.001   1.257 -0.1729 -0.5607  0.5302
 2455SOL     hw 9818   7.247   0.969   1.251  0.4307  0.9446  1.1116
 2455SOL     hw 9819   7.166   1.091   1.287 -1.8495 -0.1458 -0.1410
 2455SOL     vw 9820   7.170   1.008   1.260 -0.3145 -0.3074  0.5183
 2456SOL     ow 9821   5.146   7.514   3.683 -0.4938 -0.1186 -0.1553
 2456SOL     hw 9822   5.171   7.593   3.732  1.0859 -0.6466 -0.0690
 2456SOL     hw 9823   5.051   7.523   3.671 -0.6098  0.9756  1.2946
 2456SOL     vw 9824   5.137   7.526   3.688 -0.3004 -0.0441  0.0473
 2457SOL     ow 9825   6.556   1.654   1.011 -0.2846  0.4040  0.5818
 2457SOL     hw 9826   6.533   1.605   1.091 -0.6109 -1.4234 -0.5817
 2457SOL     hw 9827   6.652   1.653   1.010 -0.2540  1.1038  1.3176
 2457SOL     vw 9828   6.566   1.647   1.022 -0.3235  0.2552  0.5253
 2458SOL     ow 9829   3.183   6.963   2.925  0.5259 -0.1070 -0.0660
 2458SOL     hw 9830   3.088   6.962   2.931  0.4781  0.7123 -0.5813
 2458SOL     hw 9831   3.207   7.056   2.930  1.1137 -0.0635 -2.5415
 2458SOL     vw 9832   3.174   6.975   2.926  0.5971  0.0069 -0.4605
 2459SOL     ow 9833   1.305   1.920   2.963  0.2345  0.2111  0.6034
 2459SOL     hw 9834   1.301   1.982   2.890 -3.1190 -0.5970 -0.0916
 2459SOL     hw 9835   1.396   1.924   2.994  0.9507  2.9818 -1.4903
 2459SOL     vw 9836   1.317   1.928   2.957 -0.1135  0.4701  0.2354
 2460SOL     ow 9837   1.268   6.987   0.902 -0.0690  0.7809  0.0534
 2460SOL     hw 9838   1.267   6.897   0.937  0.0303  0.5266 -0.5919
 2460SOL     hw 9839   1.180   7.000   0.868  0.4623  0.2130 -1.6251
 2460SOL     vw 9840   1.256   6.977   0.902  0.0142  0.6723 -0.2532
 2461SOL     ow 9841   6.556   3.763   4.200 -0.1879  0.2063 -0.1217
 2461SOL     hw 9842   6.476   3.764   4.149  1.2292 -4.0914 -2.9624
 2461SOL     hw 9843   6.551   3.682   4.251  0.7558  1.8275  2.7799
 2461SOL     vw 9844   6.545   3.753   4.200  0.1235 -0.1469 -0.1137
 2462SOL     ow 9845   2.279   4.324   0.172  0.3003 -0.6828 -0.4700
 2462SOL     hw 9846   2.362   4.282   0.194  1.1566  2.0454  2.2982
 2462SOL     hw 9847   2.215   4.285   0.231  1.0958  1.5805  2.1015
 2462SOL     vw 9848   2.281   4.313   0.183  0.5183 -0.0241  0.2345
 2463SOL     ow 9849   4.296   4.365   0.409  0.0760  0.2372  0.0430
 2463SOL     hw 9850   4.280   4.272   0.393 -0.7854  0.5411 -1.0111
 2463SOL     hw 9851   4.374   4.385   0.357 -0.8019  0.4856 -1.2289
 2463SOL     vw 9852   4.304   4.356   0.400 -0.1535  0.3104 -0.2639
 2464SOL     ow 9853   6.839   2.772   6.175 -0.8447 -0.1268 -0.2031
 2464SOL     hw 9854   6.802   2.810   6.095  0.9385  0.6973 -0.6817
 2464SOL     hw 9855   6.855   2.680   6.153 -0.7536 -0.0057 -0.6544
 2464SOL     vw 9856   6.836   2.765   6.161 -0.5975 -0.0020 -0.3259
 2465SOL     ow 9857   5.782   5.906   3.248  0.4583 -0.0883 -0.2074
 2465SOL     hw 9858   5.834   5.968   3.300  0.4120  0.4962 -0.8486
 2465SOL     hw 9859   5.804   5.926   3.157  0.8108 -1.3388 -0.4247
 2465SOL     vw 9860   5.792   5.916   3.243  0.4985 -0.1762 -0.3206
 2466SOL     ow 9861   7.079   5.021   6.570  0.6024  0.5773 -0.0934
 2466SOL     hw 9862   7.044   4.987   6.652  0.2349 -0.4738 -0.6588
 2466SOL     hw 9863   7.012   5.081   6.538 -1.3383 -2.1903 -1.6883
 2466SOL     vw 9864   7.066   5.024   6.576  0.2978  0.0737 -0.3784
 2467SOL     ow 9865   7.053   1.484   2.149  0.4341 -0.4019 -0.1245
 2467SOL     hw 9866   6.963   1.464   2.176 -0.6464  2.0984 -1.5310
 2467SOL     hw 9867   7.102   1.404   2.168 -0.9879 -0.4031  5.0104
 2467SOL     vw 9868   7.047   1.471   2.155  0.1040 -0.0722  0.3673
 2468SOL     ow 9869   5.917   2.889   2.457  0.6346 -0.3125 -0.2057
 2468SOL     hw 9870   5.929   2.909   2.550  3.4536 -2.0850 -0.0874
 2468SOL     hw 9871   5.878   2.802   2.456  1.4539 -0.6833 -0.6578
 2468SOL     vw 9872   5.913   2.880   2.470  1.1148 -0.5953 -0.2497
 2469SOL     ow 9873   1.228   3.237   1.482 -0.3759  0.2343  0.0160
 2469SOL     hw 9874   1.179   3.163   1.518  0.7994 -0.4316  0.2947
 2469SOL     hw 9875   1.267   3.279   1.559  0.1466  0.2727 -0.2675
 2469SOL     vw 9876   1.227   3.233   1.497 -0.1519  0.1514  0.0154
 2470SOL     ow 9877   3.553   5.915   3.904 -0.2637 -0.0743  1.0008
 2470SOL     hw 9878   3.601   5.870   3.973 -0.7073 -1.1980  0.6192
 2470SOL     hw 9879   3.620   5.953   3.848  0.2409 -1.9568  0.2543
 2470SOL     vw 9880   3.568   5.914   3.905 -0.2557 -0.4706  0.8519
 2471SOL     ow 9881   6.790   6.060   0.514 -0.5606 -0.3316 -0.0528
 2471SOL     hw 9882   6.879   6.056   0.479  1.0308  0.6660  3.3553
 2471SOL     hw 9883   6.783   5.982   0.569 -1.1472  0.4021  0.9511
 2471SOL     vw 9884   6.801   6.049   0.517 -0.4280 -0.1030  0.5293
 2472SOL     ow 9885   1.336   4.491   2.773 -0.6039  0.1549  0.1551
 2472SOL     hw 9886   1.332   4.583   2.801 -0.5954 -0.4149  2.1393
 2472SOL     hw 9887   1.429   4.472   2.769 -0.6175 -0.2494  1.4831
 2472SOL     vw 9888   1.348   4.501   2.776 -0.6045  0.0267  0.5920
 2473SOL     ow 9889   0.446   3.292   1.609 -0.2788 -1.1458 -0.7507
 2473SOL     hw 9890   0.472   3.381   1.631 -1.5951 -0.8341 -0.3168
 2473SOL     hw 9891   0.432   3.293   1.515 -0.2861 -0.8875 -0.7458
 2473SOL     vw 9892   0.447   3.304   1.600 -0.4534 -1.0706 -0.6928
 2474SOL     ow 9893   1.596   0.358   6.649 -0.1187  0.0816  0.6154
 2474SOL     hw 9894   1.634   0.279   6.611  1.0470 -0.0692  1.9962
 2474SOL     hw 9895   1.505   0.336   6.665  0.3562 -1.2740  1.6443
 2474SOL     vw 9896   1.589   0.345   6.646  0.0978 -0.1171  0.9332
 2475SOL     ow 9897   5.758   4.563   1.259  0.3678 -0.0875  0.0633
 2475SOL     hw 9898   5.732   4.633   1.199 -1.0736 -1.3347 -0.8287
 2475SOL     hw 9899   5.836   4.598   1.304 -0.3784  2.1182 -0.2397
 2475SOL     vw 9900   5.765   4.577   1.257  0.0792  0.0391 -0.0944
 2476SOL     ow 9901   5.207   7.142   4.119 -0.2225 -0.6282 -0.5719
 2476SOL     hw 9902   5.135   7.126   4.058 -0.0476 -0.1719 -0.9046
 2476SOL     hw 9903   5.187   7.087   4.194 -0.1921 -1.5864 -1.2397
 2476SOL     vw 9904   5.195   7.132   4.121 -0.1953 -0.6943 -0.7038
 2477SOL     ow 9905   6.810   4.310   3.355 -0.0092  0.1688  0.7836
 2477SOL     hw 9906   6.782   4.225   3.320 -1.4831  0.6796  0.6860
 2477SOL     hw 9907   6.842   4.358   3.279 -0.5567  0.2346  0.5918
 2477SOL     vw 9908   6.811   4.305   3.340 -0.2759  0.2446  0.7454
 2478SOL     ow 9909   4.514   5.184   4.357  0.1734 -0.2930  0.2972
 2478SOL     hw 9910   4.552   5.223   4.436  0.8291  0.2345 -0.2681
 2478SOL     hw 9911   4.420   5.183   4.374  0.0232  2.3093  0.0313
 2478SOL     vw 9912   4.506   5.189   4.370  0.2401  0.1199  0.1874
 2479SOL     ow 9913   3.546   6.602   6.592 -0.2561 -0.3411  0.2313
 2479SOL     hw 9914   3.531   6.513   6.559 -1.4184 -0.6517  1.4932
 2479SOL     hw 9915   3.574   6.652   6.515  0.3655 -1.7799 -0.5100
 2479SOL     vw 9916   3.548   6.597   6.577 -0.3275 -0.5720  0.2997
 2480SOL     ow 9917   1.076   0.192   0.827 -0.3564  0.0100  0.3874
 2480SOL     hw 9918   1.130   0.205   0.905 -0.7052 -0.0937  0.6425
 2480SOL     hw 9919   1.128   0.133   0.772  0.9700  1.8753 -0.5086
 2480SOL     vw 9920   1.090   0.186   0.830 -0.2275  0.2424  0.3028
 2481SOL     ow 9921   3.501   2.190   4.132  0.4833 -0.2175  0.0686
 2481SOL     hw 9922   3.432   2.244   4.094 -0.2344 -1.1884 -0.0483
 2481SOL     hw 9923   3.582   2.228   4.100 -0.0672 -0.2732 -1.4741
 2481SOL     vw 9924   3.503   2.202   4.123  0.3159 -0.3530 -0.1507
 2482SOL     ow 9925   7.261   6.837   4.305  0.0539  0.0652  0.1595
 2482SOL     hw 9926   7.171   6.822   4.333 -0.5188 -0.2463 -1.6903
 2482SOL     hw 9927   7.314   6.782   4.363 -0.4739  2.8525  3.6668
 2482SOL     vw 9928   7.256   6.828   4.316 -0.0911  0.3917  0.3781
 2483SOL     ow 9929   6.472   0.988   4.089 -0.2430 -0.3385 -0.7270
 2483SOL     hw 9930   6.564   0.971   4.069 -0.3902 -0.0591 -1.7071
 2483SOL     hw 9931   6.473   1.075   4.131 -0.2058  0.4025 -2.2067
 2483SOL     vw 9932   6.484   0.997   4.092 -0.2575 -0.2039 -1.0514
 2484SOL     ow 9933   3.898   1.242   5.180 -0.4124 -0.5237 -0.1592
 2484SOL     hw 9934   3.847   1.195   5.115 -1.2132 -2.0845  1.5086
 2484SOL     hw 9935   3.988   1.213   5.167 -0.9347 -2.8770  1.0514
 2484SOL     vw 9936   3.903   1.232   5.170 -0.5870 -1.0401  0.2205
 2485SOL     ow 9937   3.816   5.225   6.459  0.0233 -0.0287 -0.3314
 2485SOL     hw 9938   3.768   5.142   6.459 -2.5129  1.3061  2.0616
 2485SOL     hw 9939   3.763   5.283   6.406 -0.2569  1.0669  1.0999
 2485SOL     vw 9940   3.803   5.221   6.452 -0.3482  0.2921  0.1731
 2486SOL     ow 9941   3.929   0.680   5.402 -0.1740  0.3089  0.6591
 2486SOL     hw 9942   3.951   0.761   5.447 -0.7585  0.7037  0.2580
 2486SOL     hw 9943   3.838   0.693   5.374 -0.4071 -0.6419  0.9363
 2486SOL     vw 9944   3.920   0.693   5.404 -0.2818  0.2356  0.6430
 2487SOL     ow 9945   5.789   1.558   0.043  0.6643 -0.0775 -0.2742
 2487SOL     hw 9946   5.816   1.643   0.078  2.1231 -0.0775 -1.2924
 2487SOL     hw 9947   5.871   1.517   0.014  0.1247 -2.2756  1.0854
 2487SOL     vw 9948   5.803   1.564   0.044  0.7856 -0.3675 -0.2291
 2488SOL     ow 9949   0.789   4.062   0.082  0.2598 -0.1397 -0.7171
 2488SOL     hw 9950   0.698   4.084   0.102  0.8398 -0.8267  3.6980
 2488SOL     hw 9951   0.824   4.141   0.040 -2.1786  0.2711 -2.1552
 2488SOL     vw 9952   0.782   4.075   0.079  0.0147 -0.1762 -0.3243
 2489SOL     ow 9953   1.972   0.580   6.980  0.3928  0.3162  0.3086
 2489SOL     hw 9954   2.048   0.562   7.035  0.1313  1.1062  0.9623
 2489SOL     hw 9955   1.987   0.669   6.947  0.7774 -0.3237 -1.3081
 2489SOL     vw 9956   1.984   0.589   6.983  0.4091  0.3360  0.1814
 2490SOL     ow 9957   6.652   7.291   0.260 -0.9279 -0.1853  0.2448
 2490SOL     hw 9958   6.702   7.216   0.293  0.0902  0.2660 -0.2064
 2490SOL     hw 9959   6.672   7.293   0.166  0.0677  1.3514  0.4435
 2490SOL     vw 9960   6.661   7.281   0.252 -0.6621  0.0768  0.2115
 2491SOL     ow 9961   0.116   4.508   5.053  0.1823  0.4003  0.0238
 2491SOL     hw 9962   0.049   4.573   5.077 -0.8341 -0.4544 -0.4278
 2491SOL     hw 9963   0.081   4.425   5.084  2.1364  0.1943  1.9330
 2491SOL     vw 9964   0.102   4.506   5.060  0.3060  0.2604  0.2160
 2492SOL     ow 9965   5.336   6.205   0.328 -1.2864  0.0681  0.8374
 2492SOL     hw 9966   5.363   6.281   0.379  1.2231 -1.0540  1.3239
 2492SOL     hw 9967   5.279   6.241   0.260 -0.6813  2.2826  1.4244
 2492SOL     vw 9968   5.332   6.220   0.325 -0.8755  0.2122  0.9790
 2493SOL     ow 9969   1.925   1.650   5.246  0.7166 -0.2818 -0.2882
 2493SOL     hw 9970   1.860   1.720   5.244 -1.6879 -2.4013 -2.1983
 2493SOL     hw 9971   2.009   1.695   5.238 -0.4963  2.4990  1.2311
 2493SOL     vw 9972   1.928   1.665   5.245  0.2393 -0.1946 -0.3397
 2494SOL     ow 9973   0.842   6.347   2.082  0.7630 -0.2132 -0.1805
 2494SOL     hw 9974   0.773   6.323   2.019  0.4610  2.0338 -0.7820
 2494SOL     hw 9975   0.875   6.431   2.050  0.1724  1.3413  2.9787
 2494SOL     vw 9976   0.837   6.355   2.069  0.6452  0.2882  0.1569
 2495SOL     ow 9977   3.895   0.899   0.446  0.1431  0.3965 -0.9364
 2495SOL     hw 9978   3.937   0.875   0.364 -1.1359 -1.2466 -1.1529
 2495SOL     hw 9979   3.944   0.853   0.514  0.4805  0.8356 -0.8729
 2495SOL     vw 9980   3.907   0.890   0.444  0.0190  0.2377 -0.9566
 2496SOL     ow 9981   2.780   5.622   3.933  0.7569  0.3686  0.3090
 2496SOL     hw 9982   2.819   5.585   4.012 -1.6212  1.5995  2.2051
 2496SOL     hw 9983   2.723   5.691   3.965 -2.4233 -0.8343 -2.2341
 2496SOL     vw 9984   2.778   5.626   3.947  0.0235  0.3724  0.2236
 2497SOL     ow 9985   3.749   4.030   2.978  0.3426  0.1924  0.1396
 2497SOL     hw 9986   3.672   3.977   2.999 -1.5052  2.7982  0.4473
 2497SOL     hw 9987   3.772   4.004   2.888 -1.7508  0.2368 -0.4681
 2497SOL     vw 9988   3.742   4.020   2.969 -0.1773  0.5417  0.0999
 2498SOL     ow 9989   6.904   3.231   5.584  0.3313 -0.0837 -0.0720
 2498SOL     hw 9990   6.835   3.295   5.565 -0.5100 -1.0470 -0.3047
 2498SOL     hw 9991   6.983   3.284   5.594 -0.2218  0.9372 -0.9280
 2498SOL     vw 9992   6.906   3.247   5.583  0.1473 -0.0761 -0.2155
 2499SOL     ow 9993   5.564   5.707   2.902 -0.0823  0.0168 -0.2212
 2499SOL     hw 9994   5.554   5.719   2.996  2.6665  1.1262  0.0466
 2499SOL     hw 9995   5.543   5.793   2.865 -0.5341 -0.2332 -0.5430
 2499SOL     vw 9996   5.560   5.720   2.910  0.2208  0.1302 -0.2284
 2500SOL     ow 9997   4.833   5.335   0.673 -0.2271 -0.2882 -0.5266
 2500SOL     hw 9998   4.876   5.420   0.682  0.0680 -0.5007  0.1488
 2500SOL     hw 9999   4.897   5.272   0.706 -0.8168 -0.6677 -0.0814
 2500SOL     vw10000   4.847   5.338   0.679 -0.2661 -0.3662 -0.3788
 2501SOL     ow10001   2.140   0.130   0.284  0.3707  0.4477  0.0127
 2501SOL     hw10002   2.201   0.070   0.327 -0.4258  1.1608  2.2786
 2501SOL     hw10003   2.191   0.210   0.269  0.9529 -0.1596 -1.4559
 2501SOL     vw10004   2.155   0.133   0.288  0.3425  0.4617  0.1179
 2502SOL     ow10005   4.874   6.250   6.870 -0.0369 -0.0078 -0.2335
 2502SOL     hw10006   4.953   6.234   6.923  0.1274  2.5972  0.4612
 2502SOL     hw10007   4.816   6.177   6.891  0.8372 -0.1561  1.9943
 2502SOL     vw10008   4.877   6.238   6.880  0.0999  0.3161  0.1521
 2503SOL     ow10009   4.508   6.466   7.222  0.5563  0.0587  0.2523
 2503SOL     hw10010   4.546   6.470   7.310  0.1726 -0.1175  0.4305
 2503SOL     hw10011   4.417   6.438   7.236  0.6652 -0.5762 -0.2469
 2503SOL     vw10012   4.501   6.463   7.235  0.5202 -0.0479  0.2096
 2504SOL     ow10013   5.844   4.160   4.378  0.1121  0.0036  0.1138
 2504SOL     hw10014   5.939   4.155   4.373  0.2493 -0.5623  2.4196
 2504SOL     hw10015   5.815   4.069   4.378 -0.3462  0.1466  0.6063
 2504SOL     vw10016   5.853   4.147   4.377  0.0699 -0.0522  0.4833
 2505SOL     ow10017   4.434   3.008   1.291  0.1712  0.4340 -0.2921
 2505SOL     hw10018   4.401   2.921   1.314  1.8202  0.0672  0.8450
 2505SOL     hw10019   4.418   3.061   1.369  0.3061  0.8166 -0.5230
 2505SOL     vw10020   4.427   3.004   1.304  0.4067  0.4361 -0.1725
 2506SOL     ow10021   4.347   2.424   4.449 -0.0843 -0.1229 -0.5121
 2506SOL     hw10022   4.412   2.468   4.503  0.6723 -2.9810  1.1580
 2506SOL     hw10023   4.328   2.485   4.378  3.8538  1.1821 -0.6732
 2506SOL     vw10024   4.353   2.438   4.447  0.5352 -0.3278 -0.3130
 2507SOL     ow10025   3.563   3.061   4.535 -0.1161  0.3356  0.6797
 2507SOL     hw10026   3.640   3.110   4.507 -0.5919  0.3308 -0.7064
 2507SOL     hw10027   3.595   3.004   4.605  0.6239  1.9951  1.7614
 2507SOL     vw10028   3.577   3.060   4.541 -0.0812  0.5541  0.6392
 2508SOL     ow10029   4.275   0.215   4.009 -0.1288  0.1800  0.2822
 2508SOL     hw10030   4.264   0.184   4.099  1.5787  0.0631  0.4859
 2508SOL     hw10031   4.205   0.172   3.960 -1.5549  0.8242  1.6633
 2508SOL     vw10032   4.264   0.205   4.015 -0.0916  0.2496  0.4914
 2509SOL     ow10033   7.244   1.793   3.265 -0.0947  0.2644 -0.6871
 2509SOL     hw10034   7.285   1.707   3.274  0.6491  0.5377 -1.3485
 2509SOL     hw10035   7.311   1.848   3.223 -0.5483  1.1721 -0.2627
 2509SOL     vw10036   7.258   1.789   3.260 -0.0565  0.4202 -0.7184
 2510SOL     ow10037   2.932   0.308   4.131  0.6494 -0.1243 -0.6746
 2510SOL     hw10038   2.882   0.378   4.172 -0.5261 -1.3509  0.0817
 2510SOL     hw10039   3.006   0.294   4.190  0.0957 -0.4764 -0.0489
 2510SOL     vw10040   2.935   0.315   4.144  0.4212 -0.3326 -0.4923
 2511SOL     ow10041   5.602   0.304   1.458  0.4906  0.5761  0.2989
 2511SOL     hw10042   5.540   0.253   1.509 -1.9182  1.5428 -1.4318
 2511SOL     hw10043   5.668   0.332   1.521 -0.4471 -1.0616  2.1219
 2511SOL     vw10044   5.602   0.301   1.473  0.0491  0.4876  0.3111
 2512SOL     ow10045   2.540   0.425   3.241 -0.2604 -0.3581  0.2505
 2512SOL     hw10046   2.535   0.334   3.270  0.0042 -0.0735  1.2273
 2512SOL     hw10047   2.587   0.421   3.158 -0.8883 -1.1824 -0.0749
 2512SOL     vw10048   2.545   0.412   3.234 -0.3084 -0.4293  0.3365
 2513SOL     ow10049   4.258   2.119   0.431  0.3682 -0.6797  0.6113
 2513SOL     hw10050   4.313   2.136   0.355 -0.1429  0.0374  0.3863
 2513SOL     hw10051   4.265   2.198   0.484 -0.4791 -0.5448  0.5453
 2513SOL     vw10052   4.266   2.131   0.428  0.1891 -0.5673  0.5729
 2514SOL     ow10053   1.896   5.460   4.272 -0.1419 -0.4437  0.3278
 2514SOL     hw10054   1.935   5.508   4.345  0.7829  0.2863 -0.6079
 2514SOL     hw10055   1.848   5.526   4.222 -0.3254 -0.8301 -0.0156
 2514SOL     vw10056   1.895   5.475   4.275 -0.0442 -0.3982  0.1593
 2515SOL     ow10057   0.329   1.208   3.806  0.1501  0.3134 -0.2321
 2515SOL     hw10058   0.312   1.176   3.717 -2.9657 -0.7922  0.6109
 2515SOL     hw10059   0.300   1.299   3.805  0.0360  0.2760 -0.3333
 2515SOL     vw10060   0.323   1.216   3.794 -0.2760  0.1626 -0.1342
 2516SOL     ow10061   3.547   4.644   3.576  0.2420  0.0664  0.2251
 2516SOL     hw10062   3.511   4.732   3.580  0.0667 -0.0229  0.7497
 2516SOL     hw10063   3.507   4.604   3.499  1.4795  0.9385 -0.9291
 2516SOL     vw10064   3.537   4.650   3.567  0.3822  0.1698  0.1421
 2517SOL     ow10065   7.170   2.988   7.547  0.8562 -0.3257  0.2425
 2517SOL     hw10066   7.085   2.947   7.560  0.4133  0.5708  0.2047
 2517SOL     hw10067   7.231   2.929   7.592  0.3569 -1.4556 -0.5077
 2517SOL     vw10068   7.167   2.975   7.555  0.7319 -0.3564  0.1385
 2518SOL     ow10069   6.278   4.520   3.855  0.3870  0.1235 -0.4928
 2518SOL     hw10070   6.242   4.432   3.865  1.8475 -0.3463  1.1266
 2518SOL     hw10071   6.242   4.569   3.929  1.1054  0.3396 -0.2814
 2518SOL     vw10072   6.268   4.515   3.866  0.6745  0.0899 -0.2513
 2519SOL     ow10073   3.048   1.640   5.571 -0.5579  0.1520  0.3988
 2519SOL     hw10074   3.002   1.625   5.488 -0.1831  1.6091 -0.0844
 2519SOL     hw10075   2.998   1.709   5.615 -0.6414 -0.4663  1.3151
 2519SOL     vw10076   3.035   1.647   5.566 -0.5194  0.2627  0.4559
 2520SOL     ow10077   5.437   4.216   2.538 -0.0876 -0.3418  0.2535
 2520SOL     hw10078   5.430   4.149   2.606  0.2759 -0.9390 -0.2917
 2520SOL     hw10079   5.402   4.295   2.579  0.9006 -0.4799  1.4378
 2520SOL     vw10080   5.432   4.218   2.552  0.0908 -0.4385  0.3377
 2521SOL     ow10081   6.713   1.487   1.960  0.0293  0.1408 -0.0360
 2521SOL     hw10082   6.686   1.401   1.929  1.6437  0.1963 -1.8654
 2521SOL     hw10083   6.808   1.489   1.944 -0.0504  2.4213 -0.5489
 2521SOL     vw10084   6.722   1.476   1.954  0.2320  0.4490 -0.3450
 2522SOL     ow10085   5.741   4.611   2.013 -0.4847  0.3472  0.5263
 2522SOL     hw10086   5.727   4.632   1.921  0.7152 -0.5455  0.1189
 2522SOL     hw10087   5.788   4.686   2.048 -0.5296  0.4848  0.2935
 2522SOL     vw10088   5.745   4.624   2.005 -0.3321  0.2477  0.4418
 2523SOL     ow10089   4.876   2.877   5.088 -0.1263 -0.2907  0.5411
 2523SOL     hw10090   4.898   2.803   5.145 -1.2006 -0.1950  1.1265
 2523SOL     hw10091   4.948   2.883   5.026  2.6608  1.3998  3.6086
 2523SOL     vw10092   4.888   2.868   5.088  0.0999 -0.0551  1.0231
 2524SOL     ow10093   2.239   2.286   1.428  0.1429  0.5716  0.9087
 2524SOL     hw10094   2.286   2.273   1.346 -1.1673  0.9543  0.0622
 2524SOL     hw10095   2.184   2.209   1.437  0.1196  0.6331  1.3258
 2524SOL     vw10096   2.238   2.274   1.418 -0.0329  0.6303  0.8521
 2525SOL     ow10097   5.443   1.975   6.502 -0.4972  0.8522 -0.8043
 2525SOL     hw10098   5.398   1.945   6.581  0.5107  0.6317 -0.2979
 2525SOL     hw10099   5.397   1.931   6.430 -1.5104  1.1562 -0.3669
 2525SOL     vw10100   5.431   1.966   6.503 -0.4981  0.8633 -0.6797
 2526SOL     ow10101   7.203   2.960   5.702  0.2672 -0.0092 -0.4169
 2526SOL     hw10102   7.245   3.045   5.713 -0.0732  0.4787 -2.4444
 2526SOL     hw10103   7.275   2.898   5.692  0.5803  0.5659 -2.1484
 2526SOL     vw10104   7.218   2.963   5.702  0.2635  0.1311 -0.9129
 2527SOL     ow10105   3.247   4.996   0.117  0.4483 -0.9003 -0.2029
 2527SOL     hw10106   3.207   4.970   0.200  2.1486  0.6011  1.1597
 2527SOL     hw10107   3.341   4.991   0.133  0.8131  0.3629 -1.7085
 2527SOL     vw10108   3.254   4.992   0.130  0.7209 -0.5355 -0.2217
 2528SOL     ow10109   5.065   7.068   2.329 -0.0367  0.1678 -0.2264
 2528SOL     hw10110   5.115   7.029   2.401 -1.0163  1.8288  1.4548
 2528SOL     hw10111   5.014   6.995   2.294  0.6868 -0.7511  0.5465
 2528SOL     vw10112   5.065   7.053   2.334 -0.0703  0.2656  0.0972
 2529SOL     ow10113   3.444   5.246   1.953  0.3809  0.0001 -0.2944
 2529SOL     hw10114   3.371   5.305   1.933 -0.3660 -1.2216 -1.3202
 2529SOL     hw10115   3.516   5.276   1.898  0.0836  0.1240 -0.6166
 2529SOL     vw10116   3.444   5.257   1.943  0.2432 -0.1447 -0.4722
 2530SOL     ow10117   6.787   0.677   1.594 -0.3671 -0.3860 -0.8260
 2530SOL     hw10118   6.856   0.743   1.591 -1.5878  0.9922  0.0665
 2530SOL     hw10119   6.748   0.680   1.507 -1.6412  1.5106 -0.2574
 2530SOL     vw10120   6.791   0.686   1.582 -0.6964  0.0460 -0.6332
 2531SOL     ow10121   4.749   2.186   4.474  0.3959 -0.0214 -0.1474
 2531SOL     hw10122   4.737   2.238   4.554 -3.6609 -0.8639  0.0225
 2531SOL     hw10123   4.706   2.103   4.494  3.7836 -2.3259 -1.5611
 2531SOL     vw10124   4.742   2.182   4.487  0.3073 -0.4365 -0.3116
 2532SOL     ow10125   2.338   1.871   3.984  0.8278 -0.6862  0.7207
 2532SOL     hw10126   2.343   1.891   4.077  0.9527 -1.6288  0.9319
 2532SOL     hw10127   2.303   1.782   3.980 -2.2242  0.4273 -0.2671
 2532SOL     vw10128   2.334   1.862   3.995  0.4417 -0.6636  0.6182
 2533SOL     ow10129   6.910   1.737   7.231 -0.1421 -0.1911  0.1016
 2533SOL     hw10130   6.967   1.712   7.158  0.4890 -0.8101  0.7976
 2533SOL     hw10131   6.969   1.774   7.297  0.1992 -4.4958  2.5692
 2533SOL     vw10132   6.925   1.739   7.230 -0.0138 -0.8407  0.5188
 2534SOL     ow10133   5.616   5.430   2.336 -0.4206  0.3718 -0.2247
 2534SOL     hw10134   5.592   5.479   2.258  0.1067 -0.2861 -0.8238
 2534SOL     hw10135   5.533   5.396   2.370 -0.5392 -0.5596 -1.3565
 2534SOL     vw10136   5.602   5.432   2.330 -0.3667  0.1621 -0.4530
 2535SOL     ow10137   2.322   3.963   4.340 -0.0184 -0.1398  0.3700
 2535SOL     hw10138   2.344   4.026   4.271  0.7663  0.0213  0.7525
 2535SOL     hw10139   2.406   3.945   4.383 -0.1380 -1.8396 -0.0573
 2535SOL     vw10140   2.336   3.969   4.336  0.0693 -0.3430  0.3643
 2536SOL     ow10141   6.722   3.179   6.361  0.4461  0.5101 -0.6901
 2536SOL     hw10142   6.673   3.253   6.323 -0.7857  0.0935  0.0137
 2536SOL     hw10143   6.767   3.217   6.437 -0.2627  0.5532 -0.2721
 2536SOL     vw10144   6.721   3.194   6.366  0.1900  0.4609 -0.5422
 2537SOL     ow10145   3.895   2.404   1.825  0.5789  0.5389 -0.1890
 2537SOL     hw10146   3.954   2.379   1.896  1.3170  0.4595 -0.8085
 2537SOL     hw10147   3.950   2.455   1.766  0.9154 -2.0849 -2.3490
 2537SOL     vw10148   3.910   2.407   1.827  0.7207  0.1824 -0.5556
 2538SOL     ow10149   5.805   3.302   7.151 -0.5959 -0.0625 -0.0516
 2538SOL     hw10150   5.865   3.229   7.164 -1.2306 -0.3497  1.5387
 2538SOL     hw10151   5.810   3.321   7.057  0.2632 -1.5382 -0.3404
 2538SOL     vw10152   5.813   3.295   7.140 -0.5660 -0.2950  0.1202
 2539SOL     ow10153   0.727   6.523   2.438  0.0493 -0.1223  0.7873
 2539SOL     hw10154   0.754   6.575   2.362 -1.1150  1.6433  1.5047
 2539SOL     hw10155   0.685   6.446   2.401  1.0071 -0.1281 -0.3336
 2539SOL     vw10156   0.725   6.520   2.423  0.0221  0.1099  0.7340
 2540SOL     ow10157   7.414   4.882   4.526 -0.5517  0.0835  0.2098
 2540SOL     hw10158   7.439   4.835   4.606 -1.1482  1.8159  1.4867
 2540SOL     hw10159   7.396   4.813   4.462  0.5685 -1.3526  1.3537
 2540SOL     vw10160   7.415   4.867   4.528 -0.4828  0.1223  0.5291
 2541SOL     ow10161   7.167   4.109   0.327 -0.7971  0.0302 -0.2435
 2541SOL     hw10162   7.209   4.152   0.253 -0.8368  1.4496  0.5185
 2541SOL     hw10163   7.235   4.106   0.394 -1.1727  0.0802  0.1414
 2541SOL     vw10164   7.181   4.115   0.326 -0.8519  0.2244 -0.0921
 2542SOL     ow10165   6.687   0.666   0.265  0.1694 -0.1524  0.0023
 2542SOL     hw10166   6.629   0.598   0.231 -0.0844  0.3625 -0.6077
 2542SOL     hw10167   6.679   0.659   0.361 -1.5919  0.4939 -0.0599
 2542SOL     vw10168   6.679   0.656   0.273 -0.0968  0.0009 -0.0864
 2543SOL     ow10169   6.030   2.505   0.701 -0.2687  0.4159  0.1809
 2543SOL     hw10170   6.020   2.533   0.792 -0.2766  0.9677  0.0158
 2543SOL     hw10171   6.112   2.457   0.699 -1.1699 -1.2583  0.8659
 2543SOL     vw10172   6.039   2.502   0.713 -0.3884  0.2677  0.2495
 2544SOL     ow10173   1.608   6.648   0.820  0.3778 -0.5346 -0.0642
 2544SOL     hw10174   1.604   6.744   0.814 -0.2856 -0.5454  0.1563
 2544SOL     hw10175   1.552   6.617   0.749  0.0283 -0.7502  0.3008
 2544SOL     vw10176   1.600   6.657   0.810  0.2441 -0.5643  0.0131
 2545SOL     ow10177   2.501   2.502   2.042  0.0126  0.5027  0.2211
 2545SOL     hw10178   2.484   2.417   2.084  1.2093  0.0028 -0.2660
 2545SOL     hw10179   2.424   2.555   2.065 -1.0241 -0.8679  0.1085
 2545SOL     vw10180   2.488   2.498   2.051  0.0336  0.2559  0.1420
 2546SOL     ow10181   7.406   0.680   2.502  0.7585  0.5234  0.3751
 2546SOL     hw10182   7.392   0.770   2.531  0.6800  0.2893  1.1013
 2546SOL     hw10183   7.323   0.636   2.521  0.5712  0.4459 -0.5858
 2546SOL     vw10184   7.393   0.686   2.508  0.7234  0.4823  0.3442
 2547SOL     ow10185   3.854   6.600   5.597 -0.8305  0.1610  0.3308
 2547SOL     hw10186   3.761   6.579   5.603 -0.7160 -0.7339 -0.8115
 2547SOL     hw10187   3.863   6.646   5.514 -0.4298  1.3430  0.9989
 2547SOL     vw10188   3.843   6.603   5.587 -0.7625  0.1988  0.2680
 2548SOL     ow10189   3.759   3.002   7.442 -0.6459 -0.1328  0.2276
 2548SOL     hw10190   3.829   2.944   7.474 -1.4947 -1.0357  0.4900
 2548SOL     hw10191   3.748   2.978   7.350 -1.4500 -0.8693  0.5055
 2548SOL     vw10192   3.767   2.991   7.434 -0.8640 -0.3490  0.2992
 2549SOL     ow10193   1.228   1.044   1.377 -0.1261 -0.0795  0.0792
 2549SOL     hw10194   1.184   0.967   1.413  0.9359  1.0913  4.3604
 2549SOL     hw10195   1.313   1.012   1.347  0.0724 -0.6820  1.2736
 2549SOL     vw10196   1.233   1.030   1.378  0.0402 -0.0045  0.8017
 2550SOL     ow10197   4.806   7.408   2.036 -0.3948 -0.3258  0.6185
 2550SOL     hw10198   4.822   7.491   2.080 -4.2285  1.8477 -1.5462
 2550SOL     hw10199   4.839   7.420   1.947 -2.7540 -0.1968 -0.3200
 2550SOL     vw10200   4.812   7.421   2.030 -1.2119 -0.0219  0.2091
 2551SOL     ow10201   2.001   3.102   4.405 -0.5734 -0.1543 -0.1406
 2551SOL     hw10202   1.992   3.019   4.452 -0.1716 -0.2396 -0.2140
 2551SOL     hw10203   1.926   3.154   4.434 -0.5264 -0.3396  0.3187
 2551SOL     vw10204   1.990   3.098   4.415 -0.5142 -0.1900 -0.0896
 2552SOL     ow10205   3.111   2.573   0.043 -0.0668  0.5478 -0.3462
 2552SOL     hw10206   3.139   2.486   0.015  1.6406  0.7950  0.4574
 2552SOL     hw10207   3.178   2.600   0.106 -0.8786  2.2131 -0.1558
 2552SOL     vw10208   3.124   2.565   0.048  0.0514  0.8001 -0.2150
 2553SOL     ow10209   5.579   1.130   3.239  0.0776  0.8527 -0.3964
 2553SOL     hw10210   5.603   1.184   3.315 -1.1019 -0.7258  1.1854
 2553SOL     hw10211   5.556   1.193   3.171  2.7893  2.3626 -0.0753
 2553SOL     vw10212   5.579   1.145   3.240  0.2799  0.8436 -0.1454
 2554SOL     ow10213   2.649   4.093   5.978 -0.1554  0.0622 -1.0218
 2554SOL     hw10214   2.681   4.133   5.897 -1.4881  1.6329 -0.8410
 2554SOL     hw10215   2.618   4.006   5.952 -1.7424  1.0134 -2.5150
 2554SOL     vw10216   2.649   4.087   5.964 -0.5406  0.3951 -1.1947
 2555SOL     ow10217   5.508   7.036   5.356  0.0055 -0.2639  0.0393
 2555SOL     hw10218   5.513   6.943   5.376 -1.6043 -0.9211 -2.2344
 2555SOL     hw10219   5.599   7.062   5.339  0.2951 -1.9320 -1.2231
 2555SOL     vw10220   5.521   7.027   5.356 -0.1686 -0.5705 -0.4272
 2556SOL     ow10221   1.767   3.306   1.434  0.2876 -0.5627  0.1589
 2556SOL     hw10222   1.829   3.375   1.412  0.8255 -0.8101  0.8333
 2556SOL     hw10223   1.725   3.336   1.515  0.6539 -1.0842  0.5562
 2556SOL     vw10224   1.770   3.319   1.442  0.4069 -0.6641  0.3003
 2557SOL     ow10225   6.885   3.484   6.315 -0.1729 -0.2422  0.2810
 2557SOL     hw10226   6.838   3.564   6.293  0.0374  0.1457  1.2067
 2557SOL     hw10227   6.862   3.423   6.245 -1.0097  0.3552  0.0144
 2557SOL     vw10228   6.875   3.486   6.303 -0.2553 -0.1123  0.3681
 2558SOL     ow10229   5.469   4.177   3.019 -0.2005 -0.0455 -1.0517
 2558SOL     hw10230   5.414   4.248   3.051 -0.2333 -0.4623 -0.1498
 2558SOL     hw10231   5.559   4.205   3.036 -0.2454 -0.7764  0.5894
 2558SOL     vw10232   5.473   4.190   3.025 -0.2108 -0.1965 -0.7163
 2559SOL     ow10233   0.224   1.321   4.134 -0.6004 -0.0718 -0.0465
 2559SOL     hw10234   0.212   1.363   4.049 -0.4084  1.3298  0.5815
 2559SOL     hw10235   0.238   1.229   4.114 -1.0197  0.1563 -1.4953
 2559SOL     vw10236   0.225   1.314   4.120 -0.6303  0.1432 -0.1550
 2560SOL     ow10237   5.655   7.276   7.065  0.0481 -0.2253  0.1316
 2560SOL     hw10238   5.683   7.254   7.154 -0.2203 -1.7121 -0.1306
 2560SOL     hw10239   5.567   7.240   7.058 -0.1977  0.4756 -0.5313
 2560SOL     vw10240   5.647   7.269   7.076 -0.0196 -0.3290  0.0098
 2561SOL     ow10241   3.538   4.390   4.046  0.2994  0.0612  0.7393
 2561SOL     hw10242   3.466   4.428   3.994  1.2085  0.6869 -0.0902
 2561SOL     hw10243   3.507   4.302   4.068 -0.2671 -0.0944 -0.5680
 2561SOL     vw10244   3.524   4.383   4.042  0.3445  0.1235  0.4575
 2562SOL     ow10245   5.337   7.351   3.857  0.0244  0.0365 -0.1518
 2562SOL     hw10246   5.401   7.297   3.903 -0.4247 -0.8069 -0.4899
 2562SOL     hw10247   5.285   7.392   3.927  0.4602  0.1496  0.1094
 2562SOL     vw10248   5.338   7.349   3.872  0.0224 -0.0601 -0.1620
 2563SOL     ow10249   6.153   0.500   4.910  1.0898 -0.6944 -0.3896
 2563SOL     hw10250   6.210   0.424   4.917 -0.0206 -1.6534 -1.3377
 2563SOL     hw10251   6.143   0.515   4.816  0.0001 -0.3893 -0.2437
 2563SOL     vw10252   6.159   0.492   4.899  0.7999 -0.7807 -0.4952
 2564SOL     ow10253   4.319   1.729   0.464 -0.1193  0.8884  0.1510
 2564SOL     hw10254   4.261   1.801   0.489 -0.0410  0.9569  0.1336
 2564SOL     hw10255   4.397   1.741   0.517  0.2541  1.3279 -0.4906
 2564SOL     vw10256   4.321   1.740   0.474 -0.0596  0.9553  0.0640
 2565SOL     ow10257   6.897   5.207   6.575 -0.2884 -0.3188 -0.7756
 2565SOL     hw10258   6.836   5.253   6.517  0.4309  0.2424 -1.1057
 2565SOL     hw10259   6.959   5.274   6.601 -2.2655  0.2654  3.1138
 2565SOL     vw10260   6.897   5.222   6.571 -0.4544 -0.1678 -0.3061
 2566SOL     ow10261   0.905   0.250   5.958  0.4019  0.2407 -0.3106
 2566SOL     hw10262   0.848   0.318   5.992  1.5406  1.1730 -0.1948
 2566SOL     hw10263   0.951   0.216   6.034 -0.5723 -1.0930 -0.2856
 2566SOL     vw10264   0.904   0.255   5.972  0.4236  0.1878 -0.2921
 2567SOL     ow10265   6.678   4.604   3.578  0.0009  0.6279 -0.1164
 2567SOL     hw10266   6.714   4.681   3.621 -1.8735  1.3917  0.1984
 2567SOL     hw10267   6.704   4.613   3.486  0.8819  0.9440  0.1573
 2567SOL     vw10268   6.686   4.615   3.571 -0.1299  0.7706 -0.0389
 2568SOL     ow10269   6.838   7.102   0.547  0.5549 -0.2697  0.1546
 2568SOL     hw10270   6.915   7.156   0.529 -0.6671  1.3271 -0.5733
 2568SOL     hw10271   6.799   7.086   0.461 -0.1027 -0.7889  0.5441
 2568SOL     vw10272   6.843   7.107   0.533  0.3068 -0.1278  0.1099
 2569SOL     ow10273   3.892   5.521   5.087  0.0206 -0.2050 -0.1051
 2569SOL     hw10274   3.892   5.495   5.179 -0.2420  0.0553 -0.0294
 2569SOL     hw10275   3.820   5.471   5.048 -0.9434  0.9061  0.1913
 2569SOL     vw10276   3.882   5.511   5.094 -0.1413 -0.0241 -0.0560
 2570SOL     ow10277   2.884   0.564   4.196 -0.0200 -0.4073  0.5815
 2570SOL     hw10278   2.956   0.581   4.257  0.9269 -0.6198 -0.4439
 2570SOL     hw10279   2.847   0.651   4.179 -0.7278 -0.4219  1.9539
 2570SOL     vw10280   2.889   0.578   4.202  0.0114 -0.4372  0.6278
 2571SOL     ow10281   0.583   1.629   2.777  0.1165 -0.5364 -0.3284
 2571SOL     hw10282   0.593   1.599   2.687  0.9200  1.3810 -0.9291
 2571SOL     hw10283   0.624   1.715   2.778  0.9126 -0.8760  2.0997
 2571SOL     vw10284   0.589   1.636   2.765  0.3275 -0.3282 -0.0874
 2572SOL     ow10285   6.483   5.675   6.589  0.0268  0.0451  0.0887
 2572SOL     hw10286   6.461   5.700   6.679  1.3947 -2.1066  1.1063
 2572SOL     hw10287   6.520   5.755   6.550  0.2465  0.7819  1.7221
 2572SOL     vw10288   6.485   5.689   6.596  0.2365 -0.1419  0.4387
 2573SOL     ow10289   7.114   5.691   1.600  0.2381 -0.4518 -0.2110
 2573SOL     hw10290   7.066   5.761   1.556 -0.0302 -0.4173  0.1324
 2573SOL     hw10291   7.123   5.721   1.690  1.7722 -0.0043 -0.4747
 2573SOL     vw10292   7.109   5.705   1.606  0.4051 -0.3881 -0.2005
 2574SOL     ow10293   0.517   3.886   6.070 -0.5307 -0.0505  0.1101
 2574SOL     hw10294   0.602   3.891   6.114  0.5985  2.6491 -2.0802
 2574SOL     hw10295   0.534   3.838   5.989 -0.5279  2.1011 -1.2547
 2574SOL     vw10296   0.530   3.881   6.065 -0.3814  0.5896 -0.3588
 2575SOL     ow10297   0.466   4.505   0.992 -0.3830 -0.1405  0.5898
 2575SOL     hw10298   0.495   4.595   0.979 -0.0180 -0.5343 -1.7458
 2575SOL     hw10299   0.547   4.454   0.999 -0.4859 -0.6949 -1.6291
 2575SOL     vw10300   0.480   4.510   0.991 -0.3484 -0.2656 -0.0111
 2576SOL     ow10301   4.984   5.225   5.451  0.2087  0.5208  0.5808
 2576SOL     hw10302   4.923   5.295   5.428  0.4678  0.7891  0.7079
 2576SOL     hw10303   5.052   5.230   5.383  0.3307  0.5205  0.7028
 2576SOL     vw10304   4.985   5.235   5.439  0.2592  0.5562  0.6137
 2577SOL     ow10305   3.470   6.498   4.832  0.5295 -0.5173 -0.3957
 2577SOL     hw10306   3.464   6.501   4.927  0.8125 -1.4568 -0.3410
 2577SOL     hw10307   3.385   6.466   4.803  0.1469  0.5538 -0.5267
 2577SOL     vw10308   3.458   6.494   4.841  0.5163 -0.4997 -0.4060
 2578SOL     ow10309   4.163   6.156   4.250  0.0328  0.1875  0.9412
 2578SOL     hw10310   4.211   6.108   4.317 -0.0054 -3.8296 -1.5270
 2578SOL     hw10311   4.223   6.225   4.221  2.3899 -1.5972  1.2851
 2578SOL     vw10312   4.177   6.159   4.255  0.3386 -0.5777  0.6611
 2579SOL     ow10313   2.477   1.791   5.666 -0.1855 -0.5224  0.0725
 2579SOL     hw10314   2.423   1.773   5.743  1.9194 -0.8422  1.5485
 2579SOL     hw10315   2.513   1.705   5.641  0.4642 -0.1749 -0.2173
 2579SOL     vw10316   2.475   1.777   5.673  0.1780 -0.5187  0.2289
 2580SOL     ow10317   3.035   7.052   4.381 -0.2350 -0.2981  0.1647
 2580SOL     hw10318   3.031   7.142   4.414 -0.4840 -0.4550  0.5681
 2580SOL     hw10319   3.125   7.042   4.349 -0.9251  0.9885 -2.4637
 2580SOL     vw10320   3.046   7.063   4.381 -0.3589 -0.1490 -0.1287
 2581SOL     ow10321   5.686   0.778   3.779 -0.0966  0.1043 -0.0423
 2581SOL     hw10322   5.713   0.777   3.871  1.2234 -1.4651 -0.4051
 2581SOL     hw10323   5.591   0.769   3.782 -0.0058 -0.6329  1.1523
 2581SOL     vw10324   5.677   0.777   3.791  0.0896 -0.2000  0.0675
 2582SOL     ow10325   0.851   6.638   6.390 -0.3883 -0.4996 -0.0920
 2582SOL     hw10326   0.887   6.726   6.397  1.2758 -1.1850  0.4601
 2582SOL     hw10327   0.823   6.616   6.479 -1.9788 -0.1080 -0.4481
 2582SOL     vw10328   0.852   6.647   6.403 -0.3786 -0.5386 -0.0663
 2583SOL     ow10329   6.245   0.905   1.930 -0.7098  0.0037  0.6652
 2583SOL     hw10330   6.202   0.883   1.848  1.9701  3.8082 -2.1180
 2583SOL     hw10331   6.176   0.939   1.986 -2.4344 -1.6518 -0.3443
 2583SOL     vw10332   6.230   0.906   1.927 -0.5839  0.2872  0.1649
 2584SOL     ow10333   5.549   0.261   0.365  0.2676  0.3721  0.1985
 2584SOL     hw10334   5.563   0.347   0.403 -0.9472  1.1045 -0.9107
 2584SOL     hw10335   5.505   0.211   0.434  2.2347  0.1461  1.3485
 2584SOL     vw10336   5.545   0.266   0.379  0.3667  0.4389  0.2039
 2585SOL     ow10337   4.251   0.990   5.363 -0.4251 -0.5249 -0.7568
 2585SOL     hw10338   4.337   0.950   5.348 -0.1767 -0.6992  0.8966
 2585SOL     hw10339   4.229   1.032   5.280  1.7912  0.5410 -0.8618
 2585SOL     vw10340   4.260   0.990   5.350 -0.0999 -0.4073 -0.5527
 2586SOL     ow10341   3.456   0.758   1.429  0.3041  0.2543 -0.5338
 2586SOL     hw10342   3.509   0.794   1.501 -0.1524 -0.0544 -0.0354
 2586SOL     hw10343   3.375   0.809   1.432 -0.4962 -1.0161  0.4009
 2586SOL     vw10344   3.452   0.770   1.439  0.1383  0.0460 -0.3447
 2587SOL     ow10345   3.859   5.347   1.995  0.0154 -0.2633 -0.1575
 2587SOL     hw10346   3.784   5.288   1.999  0.4206 -0.7887 -0.0887
 2587SOL     hw10347   3.841   5.404   1.921 -0.1508 -0.8183 -0.5552
 2587SOL     vw10348   3.847   5.347   1.986  0.0470 -0.4060 -0.2008
 2588SOL     ow10349   4.867   6.364   3.975  0.3562 -0.3066  0.4945
 2588SOL     hw10350   4.874   6.271   3.994  1.7764 -0.1556  0.8658
 2588SOL     hw10351   4.791   6.372   3.917  1.3788 -1.9709 -1.2062
 2588SOL     vw10352   4.858   6.353   3.970  0.6785 -0.5064  0.3191
 2589SOL     ow10353   2.617   6.840   3.666  0.4197  0.0986  0.3778
 2589SOL     hw10354   2.613   6.933   3.688  0.0543  0.1875 -0.0339
 2589SOL     hw10355   2.644   6.797   3.747  0.3241  0.5385  0.6477
 2589SOL     vw10356   2.620   6.846   3.680  0.3588  0.1683  0.3592
 2590SOL     ow10357   0.998   6.868   6.346  0.4271  0.1092  0.6017
 2590SOL     hw10358   0.994   6.939   6.281 -2.7669 -0.7425 -0.2819
 2590SOL     hw10359   0.959   6.905   6.425 -0.8006 -0.4812  0.2875
 2590SOL     vw10360   0.993   6.882   6.348 -0.1563 -0.0813  0.4435
 2591SOL     ow10361   4.583   0.896   4.718  0.0058 -0.0293  0.1731
 2591SOL     hw10362   4.508   0.855   4.763  0.8188  0.7351  2.3647
 2591SOL     hw10363   4.636   0.932   4.789  1.2893  1.4622 -1.4724
 2591SOL     vw10364   4.580   0.895   4.734  0.2823  0.2683  0.2451
 2592SOL     ow10365   5.533   5.174   2.716 -0.3923  0.0986  0.1690
 2592SOL     hw10366   5.482   5.217   2.784  1.7259 -0.0459  1.9434
 2592SOL     hw10367   5.513   5.223   2.636 -1.8664  1.1585  1.1376
 2592SOL     vw10368   5.523   5.186   2.714 -0.3073  0.2191  0.5308
 2593SOL     ow10369   6.396   0.832   6.925  0.0438 -0.7498  0.0430
 2593SOL     hw10370   6.443   0.793   6.999 -0.8356  1.1202  1.6861
 2593SOL     hw10371   6.306   0.839   6.956 -0.1268  1.0704 -0.7789
 2593SOL     vw10372   6.390   0.828   6.939 -0.0947 -0.2630  0.1514
 2594SOL     ow10373   0.579   1.775   0.902 -0.5445  0.2895 -0.0647
 2594SOL     hw10374   0.497   1.791   0.856 -1.9346 -3.7858  0.5752
 2594SOL     hw10375   0.643   1.759   0.832 -1.3706 -0.6882 -0.6258
 2594SOL     vw10376   0.577   1.775   0.887 -0.8370 -0.3771 -0.0543
 2595SOL     ow10377   0.134   7.480   6.848  0.4826 -0.1566 -0.1514
 2595SOL     hw10378   0.217   7.432   6.856  1.3500  1.4404  0.9562
 2595SOL     hw10379   0.131   7.534   6.927  0.4166  2.8907 -2.1076
 2595SOL     vw10380   0.145   7.481   6.860  0.5883  0.4563 -0.2632
 2596SOL     ow10381   0.185   7.074   4.983  0.4583  0.1268 -0.0764
 2596SOL     hw10382   0.132   7.001   4.951  0.9423 -1.3847  2.2898
 2596SOL     hw10383   0.224   7.112   4.904 -0.9509 -1.2481 -1.5119
 2596SOL     vw10384   0.183   7.070   4.969  0.3362 -0.2542  0.0467
 2597SOL     ow10385   1.936   3.025   0.074 -0.2255 -0.0462 -0.2955
 2597SOL     hw10386   1.987   3.089   0.124  0.3518 -0.7671  0.0627
 2597SOL     hw10387   1.999   2.955   0.053 -0.7783 -0.3771 -0.8934
 2597SOL     vw10388   1.951   3.024   0.078 -0.2223 -0.1849 -0.3271
 2598SOL     ow10389   6.418   6.806   5.627 -0.2014  0.5332  0.7426
 2598SOL     hw10390   6.497   6.859   5.637  1.1084 -1.4996  2.1327
 2598SOL     hw10391   6.393   6.783   5.717 -1.5976  0.0616  0.2576
 2598SOL     vw10392   6.425   6.810   5.640 -0.2127  0.2027  0.8624
 2599SOL     ow10393   4.614   0.861   4.073  0.5007  0.0064 -0.3809
 2599SOL     hw10394   4.591   0.778   4.030 -0.2064  0.9755 -1.9764
 2599SOL     hw10395   4.708   0.869   4.061  1.2489 -2.0837  2.7133
 2599SOL     vw10396   4.623   0.851   4.066  0.5062 -0.1415 -0.1831
 2600SOL     ow10397   6.667   0.024   5.305  0.0242 -1.0593 -0.2017
 2600SOL     hw10398   6.702   0.016   5.216  0.2347 -0.9771 -0.1280
 2600SOL     hw10399   6.700   0.108   5.336 -0.9643 -0.5645 -0.4444
 2600SOL     vw10400   6.676   0.034   5.298 -0.0787 -0.9832 -0.2241
 2601SOL     ow10401   0.802   1.014   4.031 -0.4953 -0.0835  0.0985
 2601SOL     hw10402   0.884   1.061   4.042  0.1123  0.0374 -3.5767
 2601SOL     hw10403   0.822   0.923   4.051  1.1548 -0.3775 -2.4201
 2601SOL     vw10404   0.815   1.008   4.035 -0.1974 -0.1063 -0.7186
 2602SOL     ow10405   5.842   0.929   1.960  0.4174  0.0112  0.3015
 2602SOL     hw10406   5.757   0.956   1.995 -0.0480  1.7729 -1.9524
 2602SOL     hw10407   5.847   0.835   1.978 -1.9313 -0.0895  0.6919
 2602SOL     vw10408   5.831   0.920   1.967  0.0463  0.2303  0.0557
 2603SOL     ow10409   5.161   6.146   4.351  0.0188  0.2477  0.6383
 2603SOL     hw10410   5.128   6.136   4.262 -0.9108  0.3710  0.9647
 2603SOL     hw10411   5.237   6.203   4.341  0.8131 -0.8924 -0.2527
 2603SOL     vw10412   5.167   6.152   4.338  0.0010  0.1137  0.5636
 2604SOL     ow10413   2.947   6.542   3.644  0.2402  0.3745 -1.0313
 2604SOL     hw10414   2.996   6.469   3.682 -3.4667 -1.3027  1.0999
 2604SOL     hw10415   2.967   6.616   3.701 -0.5934 -0.6045  0.6037
 2604SOL     vw10416   2.956   6.542   3.657 -0.3589  0.0243 -0.5343
 2605SOL     ow10417   6.416   4.203   3.986  0.0729 -0.0364  0.1798
 2605SOL     hw10418   6.430   4.194   4.081  0.4587 -1.2932  0.0249
 2605SOL     hw10419   6.470   4.278   3.961  0.7150 -0.2685  0.8081
 2605SOL     vw10420   6.425   4.211   3.995  0.2086 -0.2327  0.2424
 2606SOL     ow10421   6.312   3.607   2.486  0.1957  0.0290  0.7339
 2606SOL     hw10422   6.304   3.630   2.394 -0.7907 -1.3043  0.4515
 2606SOL     hw10423   6.257   3.530   2.496 -0.9599  1.0410  2.7788
 2606SOL     vw10424   6.304   3.600   2.476 -0.0870 -0.0135  0.9664
 2607SOL     ow10425   5.801   2.011   3.386  0.1684  0.0708  0.1488
 2607SOL     hw10426   5.882   2.054   3.356 -0.1700 -0.1127 -1.0938
 2607SOL     hw10427   5.763   1.975   3.306  0.8846 -3.3667  1.1934
 2607SOL     vw10428   5.807   2.012   3.371  0.2184 -0.4070  0.1227
 2608SOL     ow10429   5.613   2.187   6.577 -0.3625  0.0727  0.1860
 2608SOL     hw10430   5.605   2.167   6.670  1.0082 -4.1905 -0.3661
 2608SOL     hw10431   5.699   2.227   6.568  0.1007 -0.7803  0.6636
 2608SOL     vw10432   5.623   2.189   6.588 -0.1206 -0.6022  0.1764
 2609SOL     ow10433   3.180   4.401   6.994  0.7599 -0.1006  1.0402
 2609SOL     hw10434   3.102   4.370   7.040 -1.3369  0.5000 -1.8259
 2609SOL     hw10435   3.167   4.495   6.984  1.4158 -0.1172 -0.2104
 2609SOL     vw10436   3.168   4.409   6.999  0.5697 -0.0238  0.4971
 2610SOL     ow10437   6.311   1.409   3.928 -0.0941  0.0681  0.5192
 2610SOL     hw10438   6.306   1.315   3.941 -2.1395  0.1776  0.7760
 2610SOL     hw10439   6.275   1.424   3.841  1.4365  0.5361 -0.0803
 2610SOL     vw10440   6.306   1.399   3.919 -0.1616  0.1443  0.4740
 2611SOL     ow10441   0.376   0.088   1.056 -0.2050 -0.8178 -0.8617
 2611SOL     hw10442   0.437   0.015   1.045  0.4467 -0.0398 -2.8499
 2611SOL     hw10443   0.403   0.130   1.137 -0.4945 -2.6380  0.2463
 2611SOL     vw10444   0.387   0.084   1.065 -0.1572 -0.9553 -0.9778
 2612SOL     ow10445   3.077   4.801   7.107  0.3257  0.2772 -0.2921
 2612SOL     hw10446   3.005   4.762   7.057 -2.2099  3.1384  0.8077
 2612SOL     hw10447   3.135   4.837   7.040 -0.3119 -0.3810 -1.2259
 2612SOL     vw10448   3.075   4.801   7.092 -0.0930  0.5677 -0.2704
 2613SOL     ow10449   5.129   2.678   4.777 -0.2821 -0.4159  0.2536
 2613SOL     hw10450   5.092   2.612   4.837  2.3091 -4.2195 -1.8824
 2613SOL     hw10451   5.218   2.691   4.809 -0.1664  0.6183 -0.4736
 2613SOL     vw10452   5.135   2.671   4.789  0.0749 -0.7813 -0.1245
 2614SOL     ow10453   5.230   4.518   2.581 -0.2429 -0.1734 -0.0227
 2614SOL     hw10454   5.313   4.491   2.621 -0.7207 -0.2652  0.9148
 2614SOL     hw10455   5.163   4.476   2.634 -0.9231  0.5979 -0.2575
 2614SOL     vw10456   5.232   4.509   2.593 -0.3955 -0.0837  0.0701
 2615SOL     ow10457   0.635   3.836   7.468 -0.1098 -0.3172 -0.3891
 2615SOL     hw10458   0.562   3.884   7.428 -1.0069 -0.3713  1.0970
 2615SOL     hw10459   0.594   3.755   7.499  0.7555 -0.6826 -0.1940
 2615SOL     vw10460   0.620   3.831   7.467 -0.1141 -0.3726 -0.1671
 2616SOL     ow10461   6.979   3.833   3.813  0.1154 -0.6543  0.3063
 2616SOL     hw10462   7.016   3.781   3.885 -0.9158 -1.3321  0.3643
 2616SOL     hw10463   6.935   3.906   3.856  3.1179  1.4283  0.1711
 2616SOL     vw10464   6.978   3.835   3.828  0.3757 -0.4691  0.2962
 2617SOL     ow10465   0.265   7.165   5.249  0.0656 -0.2947 -0.3621
 2617SOL     hw10466   0.316   7.231   5.201 -1.2787  1.2319  0.2185
 2617SOL     hw10467   0.275   7.189   5.341 -0.2825 -1.0287 -0.1284
 2617SOL     vw10468   0.273   7.177   5.255 -0.1577 -0.1903 -0.2549
 2618SOL     ow10469   2.891   5.971   0.821 -0.3710 -0.0804 -0.0530
 2618SOL     hw10470   2.822   5.963   0.887 -1.0984 -0.5437 -0.8390
 2618SOL     hw10471   2.856   6.033   0.757 -0.6507 -1.3289 -1.1532
 2618SOL     vw10472   2.877   5.978   0.821 -0.5038 -0.3061 -0.3018
 2619SOL     ow10473   5.805   3.860   4.270  0.3678  0.0064  0.2046
 2619SOL     hw10474   5.715   3.831   4.283  0.4278  0.0365  0.7123
 2619SOL     hw10475   5.853   3.823   4.344 -0.0113  3.5185  2.4384
 2619SOL     vw10476   5.799   3.851   4.281  0.3257  0.4737  0.5660
 2620SOL     ow10477   6.312   0.989   3.696 -0.0411 -0.1645 -0.4280
 2620SOL     hw10478   6.238   1.000   3.636 -0.0393 -2.4225 -0.9128
 2620SOL     hw10479   6.387   1.025   3.648 -0.6431  1.3780 -0.2640
 2620SOL     vw10480   6.312   0.995   3.682 -0.1204 -0.2590 -0.4705
 2621SOL     ow10481   6.714   4.376   3.721  0.1887 -0.1957  0.3557
 2621SOL     hw10482   6.714   4.455   3.666  2.1319 -1.2065 -1.2464
 2621SOL     hw10483   6.657   4.315   3.675  2.3372 -1.2768 -1.0345
 2621SOL     vw10484   6.707   4.379   3.708  0.7284 -0.4716 -0.0390
 2622SOL     ow10485   1.636   0.886   5.625  0.0963 -0.3648  0.1160
 2622SOL     hw10486   1.675   0.900   5.538 -0.0421  1.2218  0.2698
 2622SOL     hw10487   1.701   0.921   5.686  0.4100 -1.9212  0.7138
 2622SOL     vw10488   1.649   0.893   5.621  0.1194 -0.3608  0.2153
 2623SOL     ow10489   5.735   3.058   2.202  0.1145 -0.2716  0.0794
 2623SOL     hw10490   5.647   3.024   2.183 -0.1393  0.3431  0.1208
 2623SOL     hw10491   5.792   3.012   2.141 -0.1449 -1.1191  0.4620
 2623SOL     vw10492   5.731   3.048   2.191  0.0465 -0.3022  0.1354
 2624SOL     ow10493   3.718   2.072   0.102 -0.0011  0.1726 -0.2983
 2624SOL     hw10494   3.756   2.074   0.014  1.6796  1.3565  0.3967
 2624SOL     hw10495   3.694   1.980   0.115  0.6815 -0.2223 -1.6058
 2624SOL     vw10496   3.720   2.060   0.092  0.3108  0.2766 -0.3791
 2625SOL     ow10497   4.148   0.526   5.598  0.9732  0.1443  0.5500
 2625SOL     hw10498   4.243   0.537   5.598  1.2086 -1.5356  1.4158
 2625SOL     hw10499   4.126   0.505   5.689  0.0285 -1.2603  0.0268
 2625SOL     vw10500   4.157   0.525   5.610  0.8798 -0.2626  0.5949
 2626SOL     ow10501   4.863   0.093   5.179 -0.4939 -0.1095 -0.4083
 2626SOL     hw10502   4.889   0.182   5.153  0.4682  0.0043  0.8728
 2626SOL     hw10503   4.786   0.075   5.125 -1.4416  1.9708  0.1253
 2626SOL     vw10504   4.856   0.103   5.168 -0.4919  0.1800 -0.1688
 2627SOL     ow10505   7.025   6.023   0.393  0.5118  0.0640  0.3086
 2627SOL     hw10506   7.108   6.040   0.348  0.0940 -0.5420 -0.7403
 2627SOL     hw10507   7.035   5.936   0.430 -0.8430 -1.6302 -2.8785
 2627SOL     vw10508   7.037   6.014   0.392  0.2780 -0.2391 -0.2503
 2628SOL     ow10509   1.933   7.366   0.118 -0.3138  0.1230 -0.1127
 2628SOL     hw10510   2.012   7.360   0.065 -0.8528  0.4614 -0.9866
 2628SOL     hw10511   1.880   7.290   0.091  0.3544 -1.0067  1.6040
 2628SOL     vw10512   1.936   7.355   0.107 -0.2968  0.0186 -0.0015
 2629SOL     ow10513   6.642   1.755   1.401  0.0395  0.0533 -0.1328
 2629SOL     hw10514   6.707   1.723   1.464  0.9494  0.0333 -1.0515
 2629SOL     hw10515   6.564   1.772   1.454  0.7691  0.0345  0.9958
 2629SOL     vw10516   6.640   1.753   1.416  0.2558  0.0482 -0.1051
 2630SOL     ow10517   3.433   4.618   1.377 -0.1888 -0.2037 -0.1514
 2630SOL     hw10518   3.428   4.647   1.468  1.4477 -3.2691  1.0573
 2630SOL     hw10519   3.502   4.671   1.339  0.3667 -0.1175  0.9409
 2630SOL     vw10520   3.441   4.629   1.384  0.1004 -0.5968  0.1522
 2631SOL     ow10521   0.862   2.074   1.082  0.1414 -0.1630  0.3406
 2631SOL     hw10522   0.854   2.090   0.988  0.6662 -2.7509 -0.2227
 2631SOL     hw10523   0.954   2.094   1.102  0.0927  0.1510  0.2507
 2631SOL     vw10524   0.873   2.078   1.072  0.2042 -0.4629  0.2544
 2632SOL     ow10525   6.556   4.243   6.283  0.3242 -0.1915 -0.4393
 2632SOL     hw10526   6.527   4.165   6.236  0.4141 -0.8706  0.6086
 2632SOL     hw10527   6.569   4.308   6.214 -0.1903 -0.9560 -1.2854
 2632SOL     vw10528   6.554   4.241   6.268  0.2682 -0.3819 -0.4127
 2633SOL     ow10529   2.954   4.790   0.110 -0.2617 -0.4386  0.0283
 2633SOL     hw10530   2.988   4.703   0.132  1.7829 -0.2060 -1.9361
 2633SOL     hw10531   3.003   4.850   0.166  1.9505 -0.2088 -1.9936
 2633SOL     vw10532   2.965   4.786   0.121  0.2999 -0.3777 -0.4977
 2634SOL     ow10533   4.555   7.067   4.203  0.4888  0.0600 -0.0781
 2634SOL     hw10534   4.637   7.110   4.229  0.6020  0.5950 -1.2214
 2634SOL     hw10535   4.511   7.047   4.285  1.4931  0.3109  0.5428
 2634SOL     vw10536   4.560   7.070   4.217  0.6363  0.1638 -0.1471
 2635SOL     ow10537   3.830   1.549   4.231 -0.4355 -0.1617  0.2740
 2635SOL     hw10538   3.844   1.458   4.257 -0.2789 -0.0372  0.6370
 2635SOL     hw10539   3.749   1.547   4.181 -1.0624 -0.3403  1.2543
 2635SOL     vw10540   3.821   1.536   4.228 -0.4975 -0.1689  0.4511
 2636SOL     ow10541   2.097   1.631   2.632  0.1420  0.3435  0.0496
 2636SOL     hw10542   2.171   1.584   2.670  0.4981  1.9038  1.3917
 2636SOL     hw10543   2.042   1.654   2.707 -1.2709 -0.0136 -0.8347
 2636SOL     vw10544   2.100   1.628   2.647  0.0025  0.5022  0.1099
 2637SOL     ow10545   1.803   1.003   0.721  0.8175 -0.1760 -0.0567
 2637SOL     hw10546   1.817   0.972   0.810  2.4907 -0.6648 -0.4535
 2637SOL     hw10547   1.805   0.924   0.667  1.8690  0.2829 -0.7268
 2637SOL     vw10548   1.805   0.988   0.726  1.1769 -0.1799 -0.1975
 2638SOL     ow10549   4.398   0.992   0.646  0.4861  0.4098  0.3146
 2638SOL     hw10550   4.352   0.919   0.687 -0.0879  1.3986  1.4872
 2638SOL     hw10551   4.422   0.960   0.559 -1.2829 -0.5668  0.1472
 2638SOL     vw10552   4.395   0.978   0.640  0.1769  0.4114  0.4472
 2639SOL     ow10553   0.834   6.947   0.362 -0.4131 -0.0493  0.1196
 2639SOL     hw10554   0.804   6.888   0.431 -1.7884 -0.3538 -0.7032
 2639SOL     hw10555   0.911   6.990   0.400 -0.8680 -0.5148  1.6690
 2639SOL     vw10556   0.840   6.945   0.376 -0.6546 -0.1507  0.2155
 2640SOL     ow10557   3.673   4.382   3.678 -0.7008 -0.2045 -0.2810
 2640SOL     hw10558   3.724   4.350   3.604 -0.6162  0.4980 -0.5355
 2640SOL     hw10559   3.621   4.307   3.706 -0.7135 -0.4848 -1.0378
 2640SOL     vw10560   3.673   4.368   3.672 -0.6913 -0.1488 -0.4144
 2641SOL     ow10561   3.259   6.744   2.796  0.4651  0.1330  0.1809
 2641SOL     hw10562   3.189   6.679   2.806  0.3812 -0.1845 -1.9167
 2641SOL     hw10563   3.224   6.822   2.838 -1.3080  0.0471 -0.9869
 2641SOL     vw10564   3.245   6.746   2.803  0.2202  0.0796 -0.2500
 2642SOL     ow10565   4.940   2.517   3.391 -0.1436 -0.2178  0.0471
 2642SOL     hw10566   4.866   2.518   3.452 -0.1157  1.2173  0.0921
 2642SOL     hw10567   5.008   2.566   3.436 -0.2219  1.1289 -1.2281
 2642SOL     vw10568   4.939   2.523   3.405 -0.1502  0.1493 -0.1154
 2643SOL     ow10569   6.666   7.247   4.658 -0.1895  0.3646 -0.3354
 2643SOL     hw10570   6.691   7.312   4.723 -0.9315  0.9985 -0.6638
 2643SOL     hw10571   6.717   7.269   4.581  0.1318  0.0748 -0.2086
 2643SOL     vw10572   6.676   7.259   4.656 -0.2451  0.4101 -0.3622
 2644SOL     ow10573   5.916   4.146   1.051 -0.2112  0.1241 -0.1970
 2644SOL     hw10574   5.940   4.058   1.023  0.8502  0.5900 -0.8145
 2644SOL     hw10575   5.967   4.204   0.994 -1.4919  1.1551 -0.3285
 2644SOL     vw10576   5.926   4.142   1.040 -0.2398  0.3216 -0.2959
 2645SOL     ow10577   1.093   1.980   2.592  0.1250 -0.0877 -0.3604
 2645SOL     hw10578   1.161   2.042   2.566 -0.2743  0.0333 -1.1238
 2645SOL     hw10579   1.061   2.014   2.675 -0.4265  1.0148 -0.9992
 2645SOL     vw10580   1.098   1.993   2.600 -0.0005  0.0737 -0.5455
 2646SOL     ow10581   5.200   5.390   2.583  0.3395 -0.1486 -0.0456
 2646SOL     hw10582   5.186   5.379   2.489  0.1237 -2.3333  0.1847
 2646SOL     hw10583   5.121   5.355   2.623  0.3796  0.8649  0.9708
 2646SOL     vw10584   5.188   5.384   2.576  0.3161 -0.3030  0.1187
 2647SOL     ow10585   5.837   4.892   2.463  0.0051 -0.2013  0.2588
 2647SOL     hw10586   5.819   4.968   2.518 -0.5705 -1.0711  1.2893
 2647SOL     hw10587   5.843   4.819   2.524  0.5669 -0.9926 -0.7207
 2647SOL     vw10588   5.836   4.893   2.478  0.0031 -0.4203  0.2656
 2648SOL     ow10589   5.999   0.730   2.525  0.6956  0.0255  0.5448
 2648SOL     hw10590   5.983   0.661   2.590  0.8327  0.4988  1.0953
 2648SOL     hw10591   5.912   0.750   2.490  0.8270 -1.4765 -0.7412
 2648SOL     vw10592   5.985   0.724   2.529  0.7310 -0.1102  0.4478
 2649SOL     ow10593   4.197   4.929   1.059  0.0444  0.5405 -0.4122
 2649SOL     hw10594   4.202   4.888   1.145 -0.1010  2.1237  0.4030
 2649SOL     hw10595   4.149   4.867   1.005  1.6179 -1.2376  0.1566
 2649SOL     vw10596   4.191   4.916   1.064  0.2329  0.5147 -0.2297
 2650SOL     ow10597   3.879   2.925   4.451 -0.3538 -0.5965 -0.5488
 2650SOL     hw10598   3.905   2.937   4.542 -1.4201 -2.3109  0.0552
 2650SOL     hw10599   3.956   2.888   4.408  0.0602 -0.0570 -0.2760
 2650SOL     vw10600   3.892   2.921   4.457 -0.4398 -0.7516 -0.4332
 2651SOL     ow10601   3.620   2.607   0.642 -0.0944 -0.5630 -0.1521
 2651SOL     hw10602   3.702   2.653   0.658  0.6561 -1.5932 -0.8930
 2651SOL     hw10603   3.585   2.648   0.563  1.5199 -2.3786 -1.9501
 2651SOL     vw10604   3.626   2.619   0.634  0.2177 -0.9385 -0.4871
 2652SOL     ow10605   6.274   5.089   5.565  0.2794 -0.1439  0.1352
 2652SOL     hw10606   6.287   5.134   5.481 -0.2538  2.0453  1.1686
 2652SOL     hw10607   6.305   5.151   5.631 -1.5011 -0.8335  1.7143
 2652SOL     vw10608   6.280   5.103   5.562 -0.0257  0.0541  0.4799
 2653SOL     ow10609   2.217   4.864   6.127  0.7580 -0.1213 -0.6587
 2653SOL     hw10610   2.270   4.840   6.203  1.4490  0.7853 -0.8404
 2653SOL     hw10611   2.129   4.879   6.163  0.7119 -1.1631 -0.2870
 2653SOL     vw10612   2.212   4.862   6.142  0.8432 -0.1392 -0.6337
 2654SOL     ow10613   4.294   0.916   4.401  0.3113  0.2045 -0.4336
 2654SOL     hw10614   4.217   0.970   4.384  0.4682  0.0306 -1.7986
 2654SOL     hw10615   4.351   0.932   4.326 -0.0653 -2.6258 -1.4414
 2654SOL     vw10616   4.291   0.925   4.389  0.2823 -0.1918 -0.7467
 2655SOL     ow10617   4.189   3.784   5.012  0.1330 -0.4405  0.0794
 2655SOL     hw10618   4.136   3.714   5.050 -0.8777  0.2248 -0.0544
 2655SOL     hw10619   4.173   3.778   4.918  1.6341 -1.2841 -0.1536
 2655SOL     vw10620   4.180   3.774   5.005  0.1976 -0.4640  0.0308
 2656SOL     ow10621   0.371   7.325   5.069  0.1940 -0.1077 -0.3268
 2656SOL     hw10622   0.410   7.406   5.103 -0.3857  0.3969 -0.8569
 2656SOL     hw10623   0.430   7.298   4.999  0.8847 -0.6495  0.4391
 2656SOL     vw10624   0.384   7.332   5.065  0.2086 -0.1125 -0.2956
 2657SOL     ow10625   3.105   0.059   0.393  0.1552  0.0162  0.0071
 2657SOL     hw10626   3.161   0.051   0.316 -1.0727 -0.3144 -0.8699
 2657SOL     hw10627   3.064   0.145   0.384 -0.2705 -0.1754  0.1056
 2657SOL     vw10628   3.107   0.069   0.382 -0.0631 -0.0527 -0.0956
 2658SOL     ow10629   5.561   0.479   0.146  0.4342  0.0632 -0.2373
 2658SOL     hw10630   5.645   0.504   0.183  1.1644 -2.1520 -0.2942
 2658SOL     hw10631   5.572   0.490   0.051  0.5816 -0.0015 -0.2280
 2658SOL     vw10632   5.573   0.484   0.138  0.5500 -0.2376 -0.2436
 2659SOL     ow10633   4.925   6.372   3.415  0.3459 -0.0840  0.4834
 2659SOL     hw10634   4.917   6.468   3.416  2.0009  0.0766  0.9595
 2659SOL     hw10635   5.018   6.356   3.429 -0.0452 -1.7932  1.3411
 2659SOL     vw10636   4.936   6.383   3.417  0.5126 -0.2885  0.6595
 2660SOL     ow10637   0.687   7.048   5.357 -0.8574 -0.4791 -0.4575
 2660SOL     hw10638   0.775   7.074   5.330 -1.2864 -0.4382 -1.8931
 2660SOL     hw10639   0.693   7.038   5.452 -0.1359  2.7924 -0.0638
 2660SOL     vw10640   0.699   7.050   5.366 -0.8188 -0.0422 -0.5951
 2661SOL     ow10641   3.089   4.535   1.319 -0.4289  0.5144  0.1948
 2661SOL     hw10642   3.031   4.471   1.278 -0.8589  1.1922 -0.2691
 2661SOL     hw10643   3.129   4.487   1.392  1.4154 -1.1851 -1.7693
 2661SOL     vw10644   3.087   4.520   1.323 -0.2424  0.3796 -0.1255
 2662SOL     ow10645   0.002   6.434   0.590 -0.8750  0.1960 -0.2506
 2662SOL     hw10646   0.050   6.504   0.547 -0.2848 -0.7388 -1.1668
 2662SOL     hw10647  -0.028   6.472   0.673 -0.7887  1.5865 -0.8354
 2662SOL     vw10648   0.004   6.448   0.595 -0.7857  0.2563 -0.4487
 2663SOL     ow10649   3.178   3.676   7.317 -0.1886  0.8335  0.2704
 2663SOL     hw10650   3.193   3.644   7.228  2.1031  3.2698 -0.3679
 2663SOL     hw10651   3.086   3.659   7.333 -1.0893  1.5538 -3.1609
 2663SOL     vw10652   3.168   3.669   7.307 -0.0051  1.2499 -0.2666
 2664SOL     ow10653   3.438   0.863   0.197 -0.3825  0.3864 -0.2241
 2664SOL     hw10654   3.510   0.845   0.259  1.0243 -1.8359 -2.3260
 2664SOL     hw10655   3.360   0.867   0.252  0.8362 -1.0506  1.7612
 2664SOL     vw10656   3.437   0.861   0.213 -0.0361 -0.0964 -0.2395
 2665SOL     ow10657   2.945   1.795   5.977 -0.2738  0.5092 -0.4841
 2665SOL     hw10658   2.865   1.751   6.007  0.2430 -1.1525 -1.4405
 2665SOL     hw10659   2.923   1.830   5.891 -0.4581  1.5690 -0.0315
 2665SOL     vw10660   2.931   1.794   5.970 -0.2300  0.4298 -0.5505
 2666SOL     ow10661   1.555   2.376   0.548  0.0251 -0.4015 -0.1160
 2666SOL     hw10662   1.514   2.460   0.567 -0.1901  0.1795 -2.7329
 2666SOL     hw10663   1.629   2.371   0.608 -0.1505  1.4881  0.3282
 2666SOL     vw10664   1.559   2.386   0.559 -0.0265 -0.0755 -0.4027
 2667SOL     ow10665   3.060   7.100   1.317 -0.0511 -0.2709  0.5111
 2667SOL     hw10666   3.064   7.009   1.287 -0.1887  0.4195 -1.7658
 2667SOL     hw10667   3.128   7.145   1.267 -3.2466  1.8628 -2.3477
 2667SOL     vw10668   3.070   7.094   1.307 -0.4908  0.1020 -0.1665
 2668SOL     ow10669   3.951   5.082   0.152 -0.0883 -0.4087  0.1754
 2668SOL     hw10670   4.022   5.072   0.215  1.2801 -1.4339 -1.4372
 2668SOL     hw10671   3.947   4.997   0.108 -2.4002 -0.4077  0.2511
 2668SOL     vw10672   3.960   5.069   0.155 -0.2127 -0.5438 -0.0274
 2669SOL     ow10673   1.411   2.533   2.277  0.9739  0.1598  1.0910
 2669SOL     hw10674   1.465   2.604   2.243  0.4997  0.2028  0.4002
 2669SOL     hw10675   1.472   2.477   2.325  1.6522  0.1550  0.2411
 2669SOL     vw10676   1.426   2.535   2.279  1.0008  0.1650  0.8876
 2670SOL     ow10677   2.776   3.342   0.637  0.2684  0.2776 -0.3187
 2670SOL     hw10678   2.681   3.356   0.642 -0.2152 -2.4672 -0.0057
 2670SOL     hw10679   2.805   3.343   0.728 -0.7401 -5.2019  0.4224
 2670SOL     vw10680   2.767   3.344   0.650  0.0715 -0.8074 -0.1796
 2671SOL     ow10681   5.611   6.199   3.831 -0.0956 -0.3938 -0.3271
 2671SOL     hw10682   5.561   6.259   3.776 -0.4119 -0.1671  0.2054
 2671SOL     hw10683   5.605   6.235   3.919 -0.5939 -1.3875  0.0686
 2671SOL     vw10684   5.603   6.211   3.835 -0.2031 -0.4952 -0.2046
 2672SOL     ow10685   4.850   4.943   3.996  0.3212 -0.1433 -0.6965
 2672SOL     hw10686   4.760   4.963   3.969  0.2187  3.5285  1.7374
 2672SOL     hw10687   4.904   4.979   3.926 -0.0659  0.1086 -0.8695
 2672SOL     vw10688   4.845   4.950   3.983  0.2565  0.3741 -0.3982
 2673SOL     ow10689   0.258   6.874   2.262 -0.0182 -0.2112  0.1656
 2673SOL     hw10690   0.268   6.798   2.319 -2.3568 -1.3383 -0.7774
 2673SOL     hw10691   0.236   6.946   2.320  1.3846 -0.4237  0.9953
 2673SOL     vw10692   0.257   6.873   2.277 -0.1417 -0.3881  0.1507
 2674SOL     ow10693   7.219   0.475   1.381 -0.4976  0.1761 -0.0310
 2674SOL     hw10694   7.287   0.423   1.423 -0.7383  1.2804  1.8384
 2674SOL     hw10695   7.265   0.553   1.349 -0.1875 -0.9344 -2.5753
 2674SOL     vw10696   7.234   0.479   1.382 -0.4883  0.1753 -0.1200
 2675SOL     ow10697   3.930   0.249   0.199  0.0408 -0.1840 -0.0221
 2675SOL     hw10698   3.840   0.265   0.227  0.5152  0.8651  0.9744
 2675SOL     hw10699   3.962   0.183   0.261  0.4787  0.7028  0.7154
 2675SOL     vw10700   3.922   0.242   0.211  0.1611  0.0714  0.2067
 2676SOL     ow10701   0.602   2.229   1.102 -0.1820 -0.0254 -0.2490
 2676SOL     hw10702   0.534   2.215   1.169 -0.9679  0.0784 -1.0100
 2676SOL     hw10703   0.581   2.165   1.034  1.7513 -1.4708  0.4344
 2676SOL     vw10704   0.590   2.218   1.102 -0.0306 -0.2024 -0.2592
 2677SOL     ow10705   6.052   3.386   7.307  0.1411 -0.3283  0.0331
 2677SOL     hw10706   6.050   3.333   7.386  0.5816 -0.0518  0.2370
 2677SOL     hw10707   6.116   3.455   7.327 -2.7434  2.2723  1.0747
 2677SOL     vw10708   6.060   3.388   7.320 -0.1812  0.0514  0.1972
 2678SOL     ow10709   6.767   4.135   2.328 -0.3730  0.0411 -0.2125
 2678SOL     hw10710   6.742   4.095   2.244 -1.7116  1.4438 -0.5207
 2678SOL     hw10711   6.700   4.200   2.345  0.7986  0.9712  1.1298
 2678SOL     vw10712   6.755   4.138   2.319 -0.3951  0.3490 -0.0761
 2679SOL     ow10713   0.700   5.789   4.147  0.0600 -0.0303  0.3953
 2679SOL     hw10714   0.675   5.875   4.179  1.7274  0.0505  1.6421
 2679SOL     hw10715   0.720   5.801   4.054  3.6977  1.8215  1.2462
 2679SOL     vw10716   0.699   5.802   4.139  0.7599  0.2248  0.6721
 2680SOL     ow10717   3.168   4.177   0.065  0.4273  0.2375 -0.3538
 2680SOL     hw10718   3.122   4.111   0.117  0.0872  2.1911  2.0093
 2680SOL     hw10719   3.099   4.236   0.035  1.0043  1.5995  0.8332
 2680SOL     vw10720   3.153   4.176   0.068  0.4585  0.6747  0.1146
 2681SOL     ow10721   4.510   5.719   3.175 -0.0667  0.0808 -0.3265
 2681SOL     hw10722   4.475   5.684   3.257  3.1121 -1.2552  0.6187
 2681SOL     hw10723   4.435   5.758   3.131 -2.2211 -0.6878  2.4208
 2681SOL     vw10724   4.496   5.720   3.180  0.0687 -0.1969  0.1606
 2682SOL     ow10725   6.995   0.573   2.730 -0.4939 -0.4658 -0.2153
 2682SOL     hw10726   6.983   0.668   2.731  2.0159 -0.0817  2.0973
 2682SOL     hw10727   7.041   0.556   2.648 -0.6195  0.3291 -0.4673
 2682SOL     vw10728   6.999   0.584   2.719 -0.1791 -0.3102  0.0564
 2683SOL     ow10729   0.353   5.769   3.652 -0.2724 -0.3707 -0.0493
 2683SOL     hw10730   0.426   5.778   3.590  0.0022  0.7993  0.4132
 2683SOL     hw10731   0.381   5.819   3.729 -1.1346 -0.7719  0.5395
 2683SOL     vw10732   0.367   5.777   3.654 -0.3499 -0.2694  0.0894
 2684SOL     ow10733   4.815   6.424   4.234 -0.1910  0.4834  0.2270
 2684SOL     hw10734   4.751   6.495   4.238  1.2935  1.9513 -0.4057
 2684SOL     hw10735   4.849   6.428   4.144  0.8574 -0.1520  0.5718
 2684SOL     vw10736   4.811   6.434   4.222  0.1433  0.5934  0.1888
 2685SOL     ow10737   6.556   2.256   1.365 -0.3171 -0.1448 -0.3502
 2685SOL     hw10738   6.545   2.170   1.406 -1.2748 -0.6232 -1.5353
 2685SOL     hw10739   6.490   2.312   1.406  0.9483  0.3198  1.1171
 2685SOL     vw10740   6.546   2.252   1.375 -0.2768 -0.1467 -0.3129
 2686SOL     ow10741   6.317   4.096   6.399  0.4191 -0.4621  0.1620
 2686SOL     hw10742   6.241   4.092   6.458 -0.4230 -1.2963 -0.9357
 2686SOL     hw10743   6.321   4.008   6.360  1.7601 -0.3265 -0.0482
 2686SOL     vw10744   6.308   4.084   6.402  0.4849 -0.5543 -0.0105
 2687SOL     ow10745   0.537   1.430   5.666  0.5284  0.4645  0.0790
 2687SOL     hw10746   0.527   1.397   5.755 -0.8220  1.5771  0.3749
 2687SOL     hw10747   0.496   1.516   5.668 -1.7422 -0.4597 -2.1911
 2687SOL     vw10748   0.530   1.437   5.678  0.0507  0.4892 -0.1817
 2688SOL     ow10749   3.809   5.496   7.552 -0.0502 -0.7407 -0.5108
 2688SOL     hw10750   3.858   5.557   7.607  1.0368 -2.5990  0.6606
 2688SOL     hw10751   3.872   5.468   7.486 -0.1688 -1.5315 -0.2911
 2688SOL     vw10752   3.824   5.501   7.551  0.0775 -1.0903 -0.3273
 2689SOL     ow10753   6.831   6.712   1.464  0.5747  1.1027  0.2845
 2689SOL     hw10754   6.806   6.804   1.471 -1.7384  0.5198  0.4384
 2689SOL     hw10755   6.757   6.669   1.421  1.2085 -0.8408  0.9894
 2689SOL     vw10756   6.818   6.718   1.460  0.3531  0.7694  0.3979
 2690SOL     ow10757   6.607   5.215   0.570  0.6247  0.0169 -0.2746
 2690SOL     hw10758   6.632   5.252   0.655 -0.1748  0.6019 -0.2892
 2690SOL     hw10759   6.562   5.286   0.525  0.1500 -0.6064 -0.7900
 2690SOL     vw10760   6.605   5.229   0.575  0.4563  0.0117 -0.3445
 2691SOL     ow10761   0.353   2.784   2.836  0.7924  0.6277  0.4690
 2691SOL     hw10762   0.384   2.807   2.923 -2.2007  1.6515  1.3840
 2691SOL     hw10763   0.268   2.828   2.828  0.7895  0.2808 -2.8382
 2691SOL     vw10764   0.346   2.793   2.846  0.3971  0.7169  0.1533
 2692SOL     ow10765   5.458   3.934   3.239 -0.1724  0.2007  0.6620
 2692SOL     hw10766   5.535   3.878   3.229 -0.1809  0.4629 -1.1855
 2692SOL     hw10767   5.473   4.006   3.177 -1.2099  1.0608  1.3747
 2692SOL     vw10768   5.470   3.936   3.229 -0.3104  0.3489  0.5122
 2693SOL     ow10769   5.798   4.270   6.587 -0.4048  0.6410 -0.2269
 2693SOL     hw10770   5.725   4.328   6.564  0.1137  0.8153 -1.4822
 2693SOL     hw10771   5.760   4.182   6.588 -0.6420  0.7346 -0.8420
 2693SOL     vw10772   5.783   4.266   6.584 -0.3679  0.6766 -0.4740
 2694SOL     ow10773   3.994   5.049   2.343 -0.2315 -0.2497  0.5081
 2694SOL     hw10774   4.008   4.959   2.316  0.3689 -0.4777  1.5361
 2694SOL     hw10775   3.899   5.056   2.354 -0.4628 -0.2578 -1.1616
 2694SOL     vw10776   3.983   5.038   2.341 -0.1829 -0.2809  0.4234
 2695SOL     ow10777   5.749   1.032   3.549 -0.4642 -0.0954  0.4597
 2695SOL     hw10778   5.717   1.015   3.637  2.1776 -0.7631  1.3644
 2695SOL     hw10779   5.836   1.069   3.561 -1.1506  2.6884 -1.8325
 2695SOL     vw10780   5.756   1.034   3.562 -0.2060  0.1838  0.2766
 2696SOL     ow10781   0.460   7.198   5.872  0.1016 -0.1900  0.1964
 2696SOL     hw10782   0.484   7.113   5.906  1.8979  0.1470 -0.1353
 2696SOL     hw10783   0.368   7.210   5.897  0.2595 -1.5721  1.5037
 2696SOL     vw10784   0.451   7.189   5.879  0.3594 -0.3278  0.3252
 2697SOL     ow10785   6.417   5.470   1.963  0.3095 -0.4814 -0.2178
 2697SOL     hw10786   6.467   5.443   1.886  0.4996 -0.3801 -0.1305
 2697SOL     hw10787   6.337   5.510   1.927  0.5146 -0.2050 -0.3706
 2697SOL     vw10788   6.413   5.472   1.948  0.3617 -0.4318 -0.2264
 2698SOL     ow10789   3.556   5.781   2.411  0.3475  0.1056 -0.7230
 2698SOL     hw10790   3.485   5.731   2.371  0.7983 -2.1000  1.0154
 2698SOL     hw10791   3.541   5.773   2.505  3.0205 -0.7126 -0.2741
 2698SOL     vw10792   3.544   5.773   2.418  0.7596 -0.2933 -0.4343
 2699SOL     ow10793   4.652   3.113   1.868  0.0476 -0.1346  0.2966
 2699SOL     hw10794   4.585   3.049   1.893 -0.0748  0.9126  3.0857
 2699SOL     hw10795   4.614   3.197   1.893  1.5409  0.6778 -0.1068
 2699SOL     vw10796   4.638   3.115   1.875  0.2286  0.1107  0.6113
 2700SOL     ow10797   2.245   3.576   1.124 -0.0168 -0.4002 -0.0276
 2700SOL     hw10798   2.283   3.623   1.049  0.9049 -2.9005 -1.2503
 2700SOL     hw10799   2.318   3.566   1.185  0.1983 -1.4260 -0.4267
 2700SOL     vw10800   2.260   3.581   1.122  0.1333 -0.8653 -0.2416
 2701SOL     ow10801   5.000   4.864   3.612 -0.1648  0.4195 -0.4147
 2701SOL     hw10802   5.090   4.883   3.637 -0.1989 -0.3665  0.3453
 2701SOL     hw10803   4.983   4.923   3.538  0.9294  0.6446 -0.5054
 2701SOL     vw10804   5.010   4.875   3.605 -0.0250  0.3455 -0.3263
 2702SOL     ow10805   1.226   7.037   3.902  0.3363  0.2605  0.2930
 2702SOL     hw10806   1.275   6.956   3.897  0.0609  0.1117 -0.0474
 2702SOL     hw10807   1.145   7.013   3.947  0.4211  0.4302  0.5412
 2702SOL     vw10808   1.221   7.023   3.907  0.3113  0.2632  0.2809
 2703SOL     ow10809   5.853   7.237   5.528  0.3243  0.1347 -0.0055
 2703SOL     hw10810   5.763   7.250   5.500  1.0465  0.4832 -2.3408
 2703SOL     hw10811   5.894   7.323   5.517  0.5943  0.4303  2.6458
 2703SOL     vw10812   5.847   7.250   5.523  0.4551  0.2198  0.0362
 2704SOL     ow10813   4.153   2.891   7.292 -0.1757  0.5298 -0.0107
 2704SOL     hw10814   4.058   2.907   7.286 -0.3975 -0.7700 -0.2843
 2704SOL     hw10815   4.178   2.864   7.204  0.5641  1.4171 -0.0733
 2704SOL     vw10816   4.144   2.889   7.280 -0.1075  0.4754 -0.0551
 2705SOL     ow10817   2.452   5.153   2.233 -0.7241  0.1049  0.2183
 2705SOL     hw10818   2.390   5.116   2.171 -0.2933  1.5022 -1.1064
 2705SOL     hw10819   2.407   5.148   2.317 -1.7380 -0.8931 -0.3457
 2705SOL     vw10820   2.438   5.147   2.236 -0.8010  0.1576 -0.0309
 2706SOL     ow10821   1.056   0.536   0.670  0.1187  0.0605 -0.4415
 2706SOL     hw10822   1.049   0.560   0.578  0.2267  0.1080 -0.4375
 2706SOL     hw10823   1.046   0.618   0.718  1.9485  0.3452 -0.4806
 2706SOL     vw10824   1.054   0.550   0.665  0.3743  0.1044 -0.4461
 2707SOL     ow10825   1.670   5.745   3.210  0.1190  0.0238 -0.0630
 2707SOL     hw10826   1.707   5.802   3.142 -0.2513  1.8560  1.1856
 2707SOL     hw10827   1.600   5.697   3.165 -1.1475  2.3117 -0.7035
 2707SOL     vw10828   1.665   5.746   3.195 -0.0970  0.5674  0.0173
 2708SOL     ow10829   4.605   2.795   5.631 -0.2355 -0.2927  0.0565
 2708SOL     hw10830   4.606   2.727   5.564 -2.4049 -0.5647  0.2178
 2708SOL     hw10831   4.512   2.814   5.645  0.2497  3.2502 -0.5021
 2708SOL     vw10832   4.593   2.789   5.624 -0.4580  0.1390  0.0041
 2709SOL     ow10833   0.887   3.624   5.237 -0.5848  0.1956 -1.1287
 2709SOL     hw10834   0.875   3.660   5.149 -2.5494 -1.7447 -1.7441
 2709SOL     hw10835   0.826   3.551   5.241  0.9651 -1.0815  1.1471
 2709SOL     vw10836   0.877   3.619   5.226 -0.6395 -0.2290 -0.9100
 2710SOL     ow10837   4.348   3.924   6.882  0.7548  0.4954  0.3467
 2710SOL     hw10838   4.336   3.958   6.793 -0.3251  1.4138  0.8200
 2710SOL     hw10839   4.315   3.994   6.939  1.0998 -0.2272  1.4617
 2710SOL     vw10840   4.342   3.938   6.878  0.6578  0.5213  0.5562
 2711SOL     ow10841   4.357   6.334   4.201  0.0012  0.3757  1.0185
 2711SOL     hw10842   4.422   6.310   4.135 -1.8746 -1.0051 -0.4315
 2711SOL     hw10843   4.315   6.412   4.167 -0.0062  0.4999  1.3070
 2711SOL     vw10844   4.360   6.341   4.188 -0.2472  0.2100  0.8655
 2712SOL     ow10845   5.353   4.406   1.104  0.1287 -0.2541 -0.2963
 2712SOL     hw10846   5.355   4.422   1.199 -1.7065  3.1739 -0.6603
 2712SOL     hw10847   5.393   4.484   1.066 -0.9677 -0.6497 -2.3723
 2712SOL     vw10848   5.358   4.418   1.112 -0.2582  0.1459 -0.6182
 2713SOL     ow10849   3.859   6.444   6.800 -0.1012  0.2765  0.0256
 2713SOL     hw10850   3.818   6.358   6.800 -2.1609  1.1866 -1.4247
 2713SOL     hw10851   3.827   6.486   6.880  1.1443 -0.3358  0.8947
 2713SOL     vw10852   3.850   6.438   6.811 -0.2086  0.3157 -0.0510
 2714SOL     ow10853   4.087   3.117   0.152  0.4514 -0.4719 -0.2341
 2714SOL     hw10854   4.102   3.168   0.231 -1.4954  0.9723 -0.7389
 2714SOL     hw10855   4.011   3.062   0.173 -0.5066  0.4095 -1.2698
 2714SOL     vw10856   4.079   3.116   0.165  0.0679 -0.1651 -0.4373
 2715SOL     ow10857   6.043   3.305   0.279 -0.3390 -0.2367 -0.0637
 2715SOL     hw10858   6.065   3.370   0.346  1.5239  0.4530 -1.2528
 2715SOL     hw10859   6.096   3.228   0.302 -1.2743 -0.7556  0.3990
 2715SOL     vw10860   6.053   3.303   0.291 -0.2167 -0.2141 -0.1595
 2716SOL     ow10861   4.513   1.314   3.156  0.6884 -0.3405 -0.0517
 2716SOL     hw10862   4.458   1.300   3.233 -0.2011  1.8915 -0.2180
 2716SOL     hw10863   4.515   1.409   3.144  1.7183 -0.5604 -2.1389
 2716SOL     vw10864   4.506   1.325   3.164  0.7071 -0.0750 -0.3490
 2717SOL     ow10865   4.163   6.954   7.299 -0.3384  0.6879  0.2925
 2717SOL     hw10866   4.223   6.890   7.263 -0.4035  0.8264 -0.0629
 2717SOL     hw10867   4.081   6.906   7.311 -0.2132  0.5483  0.6043
 2717SOL     vw10868   4.160   6.939   7.296 -0.3304  0.6876  0.2866
 2718SOL     ow10869   1.711   6.998   0.998  0.3554 -0.0747 -1.0724
 2718SOL     hw10870   1.652   6.952   0.939 -1.0454  0.7604 -0.3703
 2718SOL     hw10871   1.708   7.089   0.970  0.8481  0.0820 -0.6426
 2718SOL     vw10872   1.703   7.004   0.986  0.2356  0.0558 -0.9231
 2719SOL     ow10873   4.778   1.055   5.811 -0.6381 -0.1886  0.3839
 2719SOL     hw10874   4.828   0.975   5.794  0.0579  0.3542 -0.2124
 2719SOL     hw10875   4.732   1.039   5.893 -0.4198 -1.1550  0.3187
 2719SOL     vw10876   4.778   1.043   5.819 -0.5176 -0.2444  0.2966
 2720SOL     ow10877   4.262   6.650   4.829 -0.1142  0.0879  0.4747
 2720SOL     hw10878   4.320   6.720   4.801  0.6006  0.0653  1.8386
 2720SOL     hw10879   4.248   6.598   4.750  0.5339  0.9254 -0.2094
 2720SOL     vw10880   4.268   6.652   4.815  0.0656  0.1950  0.5641
 2721SOL     ow10881   1.541   2.987   7.381 -0.3814 -0.2571 -1.1692
 2721SOL     hw10882   1.584   3.056   7.331  0.5397  0.2489  0.2433
 2721SOL     hw10883   1.613   2.943   7.428 -1.1896 -0.7606 -0.3732
 2721SOL     vw10884   1.557   2.990   7.381 -0.3664 -0.2567 -0.8776
 2722SOL     ow10885   1.736   4.679   0.939 -0.6175 -0.2121 -0.1754
 2722SOL     hw10886   1.802   4.711   0.878 -0.8224  1.6062  0.4891
 2722SOL     hw10887   1.661   4.738   0.926 -1.7956 -1.6814 -0.2992
 2722SOL     vw10888   1.735   4.691   0.929 -0.8001 -0.1659 -0.1040
 2723SOL     ow10889   4.672   4.365   2.826  0.3796 -0.0408 -0.4188
 2723SOL     hw10890   4.750   4.328   2.786  0.8196  1.2108 -0.7514
 2723SOL     hw10891   4.617   4.289   2.845 -0.1293 -0.7048 -3.8811
 2723SOL     vw10892   4.675   4.350   2.824  0.3707  0.0365 -0.9195
 2724SOL     ow10893   5.588   1.282   3.024 -0.5909  0.1448  0.3142
 2724SOL     hw10894   5.683   1.290   3.023 -0.5559  0.4290  2.1416
 2724SOL     hw10895   5.557   1.372   3.012 -0.5992  0.2044  0.7652
 2724SOL     vw10896   5.596   1.295   3.023 -0.5872  0.1901  0.6148
 2725SOL     ow10897   5.196   3.565   1.330 -0.2040 -0.1328 -0.1390
 2725SOL     hw10898   5.214   3.656   1.352 -1.4700 -0.1862  1.2655
 2725SOL     hw10899   5.217   3.516   1.410 -1.0316 -0.8738 -0.3597
 2725SOL     vw10900   5.201   3.570   1.344 -0.4804 -0.2376  0.0172
 2726SOL     ow10901   5.352   2.806   3.643 -0.1038  0.2686 -0.2182
 2726SOL     hw10902   5.416   2.866   3.603  1.3594 -1.7772 -1.1298
 2726SOL     hw10903   5.284   2.795   3.576  0.6901 -0.6507 -0.8951
 2726SOL     vw10904   5.351   2.813   3.629  0.1941 -0.1227 -0.4278
 2727SOL     ow10905   2.282   4.768   0.170 -0.2164 -0.3225 -0.1248
 2727SOL     hw10906   2.226   4.706   0.216 -1.5711  1.9207  1.4321
 2727SOL     hw10907   2.222   4.831   0.131  1.0290 -0.8196 -3.1379
 2727SOL     vw10908   2.267   4.768   0.171 -0.2308 -0.0923 -0.3169
 2728SOL     ow10909   2.766   2.404   7.142  0.2233 -0.1807 -0.2566
 2728SOL     hw10910   2.801   2.493   7.135 -1.4938  0.5947  0.4547
 2728SOL     hw10911   2.841   2.347   7.120  1.5766  1.3919  0.0747
 2728SOL     vw10912   2.781   2.408   7.138  0.1752  0.1291 -0.1190
 2729SOL     ow10913   6.438   4.305   4.713  0.1950 -0.6808  0.5538
 2729SOL     hw10914   6.494   4.324   4.789 -0.8029  1.2672  0.8688
 2729SOL     hw10915   6.400   4.390   4.690 -1.0609 -1.5977 -0.9104
 2729SOL     vw10916   6.440   4.319   4.720 -0.1025 -0.5450  0.4025
 2730SOL     ow10917   7.356   4.950   1.976  0.1651 -0.6445  0.0718
 2730SOL     hw10918   7.365   4.876   2.036  1.1896 -0.7946 -0.2438
 2730SOL     hw10919   7.380   5.027   2.029  0.5751 -0.7180 -0.0039
 2730SOL     vw10920   7.361   4.950   1.991  0.3545 -0.6742  0.0202
 2731SOL     ow10921   2.333   4.739   0.661  0.3982 -0.3354 -0.0749
 2731SOL     hw10922   2.263   4.704   0.716  0.1235  0.2827 -0.0275
 2731SOL     hw10923   2.366   4.815   0.710  3.6041 -2.6514  1.7580
 2731SOL     vw10924   2.329   4.745   0.675  0.7849 -0.5593  0.1732
 2732SOL     ow10925   6.152   2.004   1.287  0.3970  0.5787 -0.3121
 2732SOL     hw10926   6.081   2.062   1.315 -0.8664 -0.7567 -0.6503
 2732SOL     hw10927   6.136   1.922   1.333  1.0300 -0.1402 -1.3358
 2732SOL     vw10928   6.141   2.001   1.297  0.3135  0.3077 -0.4919
 2733SOL     ow10929   2.222   7.457   0.452  0.3737  0.2045  0.4570
 2733SOL     hw10930   2.210   7.368   0.419 -0.4929  0.6216 -0.3768
 2733SOL     hw10931   2.315   7.460   0.477  0.5854 -0.7047 -0.1603
 2733SOL     vw10932   2.233   7.445   0.451  0.2873  0.1397  0.2655
 2734SOL     ow10933   4.163   0.424   0.092  0.4328 -0.2951 -0.1505
 2734SOL     hw10934   4.251   0.402   0.125  0.7838  1.1807 -0.0144
 2734SOL     hw10935   4.152   0.516   0.115 -0.9579 -0.3182 -0.6431
 2734SOL     vw10936   4.173   0.433   0.100  0.2956 -0.1034 -0.1975
 2735SOL     ow10937   3.232   6.753   5.368  0.1024  0.0240  0.0179
 2735SOL     hw10938   3.215   6.662   5.391 -1.5713 -0.0918 -1.4187
 2735SOL     hw10939   3.161   6.802   5.409 -1.5427  0.0832 -2.6552
 2735SOL     vw10940   3.220   6.748   5.376 -0.3355  0.0167 -0.5245
 2736SOL     ow10941   4.937   1.821   1.160  0.2378  0.0120  0.7753
 2736SOL     hw10942   4.843   1.811   1.147 -0.0678  1.1481  1.9154
 2736SOL     hw10943   4.953   1.782   1.246  0.7533  0.1496  0.7412
 2736SOL     vw10944   4.927   1.815   1.170  0.2656  0.1801  0.9212
 2737SOL     ow10945   4.488   0.961   5.983  0.1124 -0.1130 -0.2318
 2737SOL     hw10946   4.472   0.867   5.976  1.4473 -0.3148 -1.2051
 2737SOL     hw10947   4.555   0.969   6.050  1.1942 -0.0559 -1.2735
 2737SOL     vw10948   4.495   0.949   5.991  0.4313 -0.1321 -0.4976
 2738SOL     ow10949   5.059   3.188   2.529 -0.0872 -0.1989 -0.3415
 2738SOL     hw10950   5.086   3.110   2.481 -0.5022  1.3828 -3.3743
 2738SOL     hw10951   5.140   3.238   2.540 -0.1852 -0.0241 -0.4163
 2738SOL     vw10952   5.073   3.185   2.524 -0.1550  0.0329 -0.7515
 2739SOL     ow10953   2.812   5.553   7.523 -0.6607  0.2816  0.0066
 2739SOL     hw10954   2.750   5.625   7.526 -3.1916 -1.7513  0.3326
 2739SOL     hw10955   2.796   5.505   7.605  0.7200 -0.8307 -0.3365
 2739SOL     vw10956   2.802   5.556   7.534 -0.8124 -0.1335  0.0043
 2740SOL     ow10957   3.815   3.166   1.122 -0.0996  0.6975  0.1940
 2740SOL     hw10958   3.904   3.199   1.129 -0.3123  1.1070  1.0159
 2740SOL     hw10959   3.825   3.079   1.083  0.7014  0.5473  0.7159
 2740SOL     vw10960   3.828   3.159   1.118 -0.0219  0.7317  0.3713
 2741SOL     ow10961   0.181   0.725   3.639  0.0256  0.0775 -0.0439
 2741SOL     hw10962   0.184   0.810   3.595 -0.1409  0.2402  0.2546
 2741SOL     hw10963   0.162   0.662   3.570 -1.3008  0.4552 -0.0403
 2741SOL     vw10964   0.179   0.728   3.624 -0.1713  0.1488 -0.0041
 2742SOL     ow10965   7.155   4.646   1.571 -0.2898  0.3896 -0.2725
 2742SOL     hw10966   7.208   4.718   1.604  0.0527  0.3332 -0.6956
 2742SOL     hw10967   7.114   4.609   1.649  1.1186 -0.2269  0.2073
 2742SOL     vw10968   7.156   4.650   1.585 -0.0587  0.3011 -0.2651
 2743SOL     ow10969   0.602   0.312   3.401 -0.4880  0.1882 -0.0166
 2743SOL     hw10970   0.525   0.268   3.364 -0.9038  2.0066 -1.4850
 2743SOL     hw10971   0.565   0.376   3.462 -0.2183  1.3401 -1.0207
 2743SOL     vw10972   0.587   0.315   3.404 -0.5073  0.5801 -0.3428
 2744SOL     ow10973   1.284   2.961   4.335  0.1246  0.5238 -0.0993
 2744SOL     hw10974   1.330   2.885   4.371 -1.7705 -0.4941  0.3097
 2744SOL     hw10975   1.305   2.958   4.241  0.6721 -0.0471  0.0291
 2744SOL     vw10976   1.293   2.950   4.327 -0.0532  0.3142 -0.0284
 2745SOL     ow10977   5.081   2.147   1.412 -0.1596  0.6094 -0.3118
 2745SOL     hw10978   5.115   2.063   1.445 -2.3776  0.0020  0.5842
 2745SOL     hw10979   5.025   2.179   1.482 -0.5071  2.1414 -1.2572
 2745SOL     vw10980   5.078   2.140   1.425 -0.4981  0.7315 -0.3183
 2746SOL     ow10981   4.782   4.857   4.273 -0.0537 -0.2425 -0.4825
 2746SOL     hw10982   4.702   4.865   4.324  0.5317  0.0234  0.4168
 2746SOL     hw10983   4.848   4.826   4.335  0.9674  1.2549 -0.7557
 2746SOL     vw10984   4.780   4.854   4.288  0.1581 -0.0098 -0.4001
 2747SOL     ow10985   6.475   6.526   4.142  0.1763 -0.1415  0.0318
 2747SOL     hw10986   6.385   6.502   4.162  0.6799 -1.9717  0.2953
 2747SOL     hw10987   6.528   6.463   4.191  1.6251  1.2351  0.3047
 2747SOL     vw10988   6.470   6.514   4.151  0.4337 -0.2015  0.1025
 2748SOL     ow10989   3.770   3.414   0.279 -0.4458 -0.0705 -0.3592
 2748SOL     hw10990   3.820   3.375   0.351  0.8056 -0.0500 -1.1850
 2748SOL     hw10991   3.762   3.506   0.304 -0.1768 -0.0981 -0.1634
 2748SOL     vw10992   3.775   3.421   0.292 -0.2452 -0.0713 -0.4424
 2749SOL     ow10993   5.270   2.318   3.945  0.3136  0.5289  0.0748
 2749SOL     hw10994   5.327   2.250   3.981  0.1047  0.5927  0.5364
 2749SOL     hw10995   5.182   2.292   3.971  0.0723  0.1856 -1.0355
 2749SOL     vw10996   5.266   2.306   3.954  0.2537  0.4920 -0.0107
 2750SOL     ow10997   0.763   7.448   1.726  0.6941 -0.1137  0.1964
 2750SOL     hw10998   0.687   7.443   1.784  2.1018  0.0942  2.1843
 2750SOL     hw10999   0.757   7.371   1.670 -1.5502  0.4994 -0.5109
 2750SOL     vw11000   0.752   7.437   1.727  0.5837 -0.0057  0.3654
 2751SOL     ow11001   3.058   4.359   4.036 -0.2403  0.3433 -0.6940
 2751SOL     hw11002   2.999   4.357   3.961  1.2823 -1.3953 -1.9309
 2751SOL     hw11003   3.077   4.452   4.049 -2.6001  0.8821 -0.7104
 2751SOL     vw11004   3.053   4.371   4.028 -0.3507  0.1850 -0.8595
 2752SOL     ow11005   6.304   5.004   2.539 -0.0209  0.5570  0.1082
 2752SOL     hw11006   6.314   4.909   2.541  0.2676  0.5436 -1.0526
 2752SOL     hw11007   6.222   5.021   2.586  0.2973 -0.1947  0.9581
 2752SOL     vw11008   6.294   4.993   2.545  0.0591  0.4559  0.0672
 2753SOL     ow11009   2.251   1.482   4.402 -0.4941  0.8606 -0.3281
 2753SOL     hw11010   2.205   1.552   4.449 -0.3641  1.1248 -0.5977
 2753SOL     hw11011   2.320   1.526   4.354  0.1893  0.4437  0.2388
 2753SOL     vw11012   2.254   1.497   4.402 -0.3868  0.8404 -0.2890
 2754SOL     ow11013   2.966   1.071   5.671  0.2156  0.0062 -0.0347
 2754SOL     hw11014   3.022   0.995   5.652  2.0747  1.0752  0.8824
 2754SOL     hw11015   2.934   1.098   5.585  3.0679  0.7334 -0.9990
 2754SOL     vw11016   2.969   1.065   5.657  0.8372  0.2431 -0.0408
 2755SOL     ow11017   0.880   3.525   1.812 -0.0489 -0.0863 -0.1159
 2755SOL     hw11018   0.786   3.513   1.798  0.0278  0.9392 -1.9327
 2755SOL     hw11019   0.902   3.464   1.882 -2.0956 -0.2128  0.4816
 2755SOL     vw11020   0.871   3.515   1.819 -0.3088  0.0323 -0.2767
 2756SOL     ow11021   0.455   1.546   6.390  0.4657 -0.2618  0.1004
 2756SOL     hw11022   0.482   1.632   6.359  0.2639 -0.2988 -0.1834
 2756SOL     hw11023   0.366   1.535   6.356  0.0948 -0.1526  0.9980
 2756SOL     vw11024   0.446   1.556   6.381  0.3901 -0.2523  0.1814
 2757SOL     ow11025   6.124   0.321   5.616 -0.4500  0.3069  0.1013
 2757SOL     hw11026   6.210   0.290   5.588 -0.1275  0.7803  0.5632
 2757SOL     hw11027   6.075   0.331   5.534  0.6222  2.1143 -0.3690
 2757SOL     vw11028   6.129   0.318   5.601 -0.2656  0.6078  0.1001
 2758SOL     ow11029   6.737   2.949   0.756 -0.1601  0.0211  0.3965
 2758SOL     hw11030   6.661   2.920   0.705  1.1749 -1.9702 -0.5816
 2758SOL     hw11031   6.702   3.017   0.814 -3.1422 -2.1149  1.3878
 2758SOL     vw11032   6.722   2.954   0.757 -0.3774 -0.5234  0.3982
 2759SOL     ow11033   2.832   7.137   7.244  0.8754  0.0757  0.5225
 2759SOL     hw11034   2.895   7.199   7.280 -0.6739  0.7812  2.1701
 2759SOL     hw11035   2.769   7.123   7.315 -0.7337 -0.7109 -0.9879
 2759SOL     vw11036   2.832   7.144   7.258  0.4587  0.0648  0.5407
 2760SOL     ow11037   1.202   3.025   6.760 -0.5179  0.3481  0.4648
 2760SOL     hw11038   1.199   2.954   6.696  1.7672  0.2654  0.3663
 2760SOL     hw11039   1.221   3.104   6.708 -1.5904  0.7987  0.7337
 2760SOL     vw11040   1.204   3.026   6.744 -0.3579  0.3967  0.4873
 2761SOL     ow11041   3.283   2.589   5.780 -0.0042  0.1133  0.3164
 2761SOL     hw11042   3.191   2.611   5.789  0.0114  1.1394 -1.5657
 2761SOL     hw11043   3.326   2.633   5.854 -0.9094  0.2877  0.7465
 2761SOL     vw11044   3.277   2.597   5.791 -0.1216  0.2717  0.1247
 2762SOL     ow11045   5.690   5.112   2.317 -0.1414  0.2988 -0.3627
 2762SOL     hw11046   5.733   5.029   2.296 -0.1346  0.3322 -0.4790
 2762SOL     hw11047   5.602   5.087   2.345  0.5913  0.0348  1.9206
 2762SOL     vw11048   5.684   5.098   2.318 -0.0436  0.2682 -0.0768
 2763SOL     ow11049   7.149   5.059   2.532  0.0641  0.3901 -0.1173
 2763SOL     hw11050   7.079   5.047   2.467  0.2948  1.8457 -0.6734
 2763SOL     hw11051   7.106   5.042   2.616 -0.8176  0.7040 -0.4886
 2763SOL     vw11052   7.134   5.055   2.535 -0.0217  0.6237 -0.2397
 2764SOL     ow11053   2.365   5.903   3.614  0.7046  0.4256  0.1616
 2764SOL     hw11054   2.386   5.900   3.520  0.4370 -2.5622  0.0985
 2764SOL     hw11055   2.276   5.938   3.617  0.7135  0.5594 -0.7107
 2764SOL     vw11056   2.356   5.907   3.602  0.6704  0.0494  0.0380
 2765SOL     ow11057   7.196   5.844   0.774  0.3750 -0.4630  0.3010
 2765SOL     hw11058   7.135   5.904   0.818 -0.4658 -0.7576 -0.4337
 2765SOL     hw11059   7.167   5.757   0.801 -0.5348 -0.6795 -1.2804
 2765SOL     vw11060   7.184   5.841   0.783  0.1440 -0.5305 -0.0046
 2766SOL     ow11061   3.061   4.639   6.351 -0.2851  0.2137 -0.0647
 2766SOL     hw11062   3.108   4.624   6.432 -1.1354  0.5372  0.5071
 2766SOL     hw11063   2.997   4.708   6.372 -1.0384 -0.2359 -0.7906
 2766SOL     vw11064   3.059   4.646   6.364 -0.4967  0.1972 -0.0851
 2767SOL     ow11065   0.536   1.313   6.564  0.4951 -0.2186 -0.5042
 2767SOL     hw11066   0.611   1.303   6.622 -2.0147 -1.3012  2.8639
 2767SOL     hw11067   0.485   1.233   6.576 -2.0253  1.1400 -1.3188
 2767SOL     vw11068   0.539   1.301   6.573 -0.1685 -0.1822 -0.1674
 2768SOL     ow11069   4.100   1.153   4.161  0.2647 -0.1647  0.1664
 2768SOL     hw11070   4.184   1.199   4.158  0.3128 -0.2860 -0.4887
 2768SOL     hw11071   4.073   1.146   4.069 -0.7448  0.3968  0.3981
 2768SOL     vw11072   4.107   1.158   4.148  0.1380 -0.1066  0.1106
 2769SOL     ow11073   3.281   5.895   0.807  0.4514 -0.7282  0.2494
 2769SOL     hw11074   3.294   5.806   0.840  0.4607 -0.6257  0.5248
 2769SOL     hw11075   3.327   5.950   0.870  2.0797 -0.6612 -0.9373
 2769SOL     vw11076   3.288   5.890   0.819  0.6675 -0.7057  0.1292
 2770SOL     ow11077   7.382   4.792   3.752 -0.2653 -0.4695 -0.5821
 2770SOL     hw11078   7.420   4.874   3.785 -2.8208 -0.0631  1.6822
 2770SOL     hw11079   7.451   4.755   3.696  1.4311  2.6127 -0.7651
 2770SOL     vw11080   7.396   4.798   3.749 -0.3786 -0.0091 -0.3076
 2771SOL     ow11081   0.299   0.901   2.592 -0.2361 -0.4657  0.2800
 2771SOL     hw11082   0.385   0.897   2.633 -0.7351  0.7799  1.5529
 2771SOL     hw11083   0.310   0.855   2.509  1.6850 -0.2421  0.3494
 2771SOL     vw11084   0.312   0.894   2.586 -0.0485 -0.2719  0.4570
 2772SOL     ow11085   6.808   2.865   6.607 -0.0968 -0.4583 -0.6511
 2772SOL     hw11086   6.713   2.875   6.601 -0.0062  0.3660 -0.8464
 2772SOL     hw11087   6.840   2.953   6.624  0.6852 -0.6196 -1.2378
 2772SOL     vw11088   6.800   2.878   6.608  0.0184 -0.3707 -0.7541
 2773SOL     ow11089   5.865   2.413   3.409  0.1945 -0.6667 -0.4764
 2773SOL     hw11090   5.831   2.390   3.322 -0.2643 -2.2232  0.0860
 2773SOL     hw11091   5.951   2.451   3.391 -0.5906  0.6203 -1.7161
 2773SOL     vw11092   5.872   2.415   3.395  0.0305 -0.7023 -0.5658
 2774SOL     ow11093   3.398   0.709   4.613  0.6935  0.2537 -0.0902
 2774SOL     hw11094   3.408   0.676   4.702  2.2229  1.6413  0.3004
 2774SOL     hw11095   3.429   0.638   4.557 -1.9083 -1.3254  0.3151
 2774SOL     vw11096   3.403   0.695   4.617  0.5519  0.2284  0.0145
 2775SOL     ow11097   4.044   6.425   5.520  0.4553 -0.1111 -0.2609
 2775SOL     hw11098   3.956   6.463   5.510 -0.0506 -0.9900  0.6677
 2775SOL     hw11099   4.031   6.351   5.579  1.8617 -0.1763 -0.0158
 2775SOL     vw11100   4.031   6.420   5.526  0.5741 -0.2358 -0.1061
 2776SOL     ow11101   4.907   2.078   1.198 -0.5149  0.9142  0.0545
 2776SOL     hw11102   4.952   2.116   1.273  0.9413  0.0538 -0.3491
 2776SOL     hw11103   4.921   1.984   1.206  0.3548  0.8420 -1.6907
 2776SOL     vw11104   4.915   2.070   1.209 -0.2079  0.7912 -0.2291
 2777SOL     ow11105   5.460   4.230   5.633  0.0586 -0.0567  0.5190
 2777SOL     hw11106   5.443   4.164   5.700 -1.5035  0.0111  0.2401
 2777SOL     hw11107   5.409   4.201   5.557  0.1544  0.9324  0.0575
 2777SOL     vw11108   5.451   4.217   5.632 -0.1349  0.0830  0.4215
 2778SOL     ow11109   1.091   7.135   1.079 -0.5334  0.5943  0.4771
 2778SOL     hw11110   1.156   7.072   1.046 -1.2209  0.0562  0.1241
 2778SOL     hw11111   1.038   7.084   1.141 -1.0492  0.8454  0.2449
 2778SOL     vw11112   1.093   7.120   1.083 -0.6922  0.5565  0.3999
 2779SOL     ow11113   5.028   6.557   3.815  0.7670 -0.0363  0.0537
 2779SOL     hw11114   5.004   6.493   3.881 -0.1540  0.1028 -0.1379
 2779SOL     hw11115   4.945   6.589   3.780  1.1337  2.1303  0.9699
 2779SOL     vw11116   5.014   6.553   3.819  0.6940  0.2677  0.1493
 2780SOL     ow11117   0.691   4.093   4.124 -0.1609  0.2212 -0.1044
 2780SOL     hw11118   0.677   4.112   4.217  3.0381 -1.1343  0.7718
 2780SOL     hw11119   0.658   4.004   4.113  0.3543  0.0230 -0.0358
 2780SOL     vw11120   0.685   4.084   4.135  0.3291  0.0162  0.0203
 2781SOL     ow11121   0.732   7.188   6.058  0.5586  0.2617 -0.1732
 2781SOL     hw11122   0.709   7.265   6.006  0.8916  0.9507  0.6632
 2781SOL     hw11123   0.665   7.123   6.037  0.2619  0.7819 -0.8797
 2781SOL     vw11124   0.720   7.190   6.049  0.5634  0.4213 -0.1562
 2782SOL     ow11125   5.441   1.533   7.184  0.5458 -0.1136 -0.5479
 2782SOL     hw11126   5.499   1.606   7.166  0.2569  0.4813  0.8153
 2782SOL     hw11127   5.468   1.465   7.122  1.8754  0.5737 -0.7599
 2782SOL     vw11128   5.452   1.533   7.173  0.6831  0.0555 -0.3960
 2783SOL     ow11129   5.140   4.513   7.098 -0.2392 -0.2286  0.0683
 2783SOL     hw11130   5.223   4.522   7.145 -0.1016  2.2231 -0.4854
 2783SOL     hw11131   5.073   4.529   7.165 -0.3790 -3.0487  0.7007
 2783SOL     vw11132   5.142   4.517   7.113 -0.2394 -0.2770  0.0789
 2784SOL     ow11133   3.462   3.881   4.225  0.2711  0.2225  0.2515
 2784SOL     hw11134   3.465   3.847   4.136 -1.3693  0.7875 -0.0599
 2784SOL     hw11135   3.531   3.834   4.271  1.1896 -0.0386 -1.3193
 2784SOL     vw11136   3.471   3.871   4.219  0.1760  0.2625  0.0033
 2785SOL     ow11137   5.251   4.889   1.675 -0.7766  0.3378  0.7950
 2785SOL     hw11138   5.173   4.840   1.703 -1.9064  2.0363  0.7643
 2785SOL     hw11139   5.216   4.959   1.619  0.8750  0.5801  0.0148
 2785SOL     vw11140   5.236   4.892   1.671 -0.7079  0.5937  0.6880
 2786SOL     ow11141   3.977   6.190   5.648  0.0691  0.4623 -0.7985
 2786SOL     hw11142   3.950   6.231   5.731  0.1724 -0.2089 -0.4231
 2786SOL     hw11143   4.063   6.154   5.667  0.6470  1.4026 -1.5858
 2786SOL     vw11144   3.984   6.191   5.662  0.1590  0.4978 -0.8528
 2787SOL     ow11145   6.594   0.065   2.511  0.0961  0.1168  0.2663
 2787SOL     hw11146   6.649   0.102   2.441  1.0850  0.0080  0.9751
 2787SOL     hw11147   6.645  -0.007   2.546  0.1670  0.9494  1.9514
 2787SOL     vw11148   6.608   0.060   2.506  0.2363  0.2123  0.5820
 2788SOL     ow11149   2.865   6.022   0.460 -0.5017 -0.3662  0.3421
 2788SOL     hw11150   2.846   6.083   0.531 -1.1267 -1.4392  1.1246
 2788SOL     hw11151   2.911   6.075   0.395 -1.7708  1.1482  0.6075
 2788SOL     vw11152   2.868   6.037   0.460 -0.7517 -0.3080  0.4804
 2789SOL     ow11153   5.269   4.025   3.417 -0.2093 -0.1968 -0.4101
 2789SOL     hw11154   5.272   4.120   3.414 -2.2399 -0.1111 -1.1462
 2789SOL     hw11155   5.347   3.997   3.368  0.1625  1.0851 -0.5774
 2789SOL     vw11156   5.280   4.034   3.410 -0.4282 -0.0167 -0.5293
 2790SOL     ow11157   4.820   7.039   1.079  0.5153 -0.6941  0.1047
 2790SOL     hw11158   4.752   6.981   1.046 -0.5815  0.8399 -0.4326
 2790SOL     hw11159   4.800   7.124   1.041  3.0876 -0.2821 -0.5571
 2790SOL     vw11160   4.809   7.042   1.070  0.7102 -0.4375 -0.0535
 2791SOL     ow11161   2.365   1.658   1.446  0.1154  0.2377 -0.6355
 2791SOL     hw11162   2.404   1.672   1.360  1.3594 -1.5999 -0.4197
 2791SOL     hw11163   2.439   1.659   1.506 -0.0633 -3.2218 -0.1902
 2791SOL     vw11164   2.380   1.660   1.443  0.2558 -0.4612 -0.5482
 2792SOL     ow11165   2.480   3.556   1.593  0.4025  0.5914 -0.1419
 2792SOL     hw11166   2.388   3.559   1.619  0.3342  1.6023 -0.4571
 2792SOL     hw11167   2.479   3.567   1.498  0.8138 -0.2788 -0.2663
 2792SOL     vw11168   2.468   3.557   1.584  0.4478  0.6099 -0.2000
 2793SOL     ow11169   2.438   6.123   5.841  0.1333  0.2979  0.2056
 2793SOL     hw11170   2.409   6.077   5.762 -1.2901  0.1765  0.7755
 2793SOL     hw11171   2.458   6.052   5.903 -1.7761  0.3970  0.9849
 2793SOL     vw11172   2.437   6.107   5.839 -0.3065  0.2949  0.3836
 2794SOL     ow11173   6.451   0.825   0.829 -0.5825 -0.2035  0.5734
 2794SOL     hw11174   6.357   0.817   0.812 -0.6623  0.7432  0.4874
 2794SOL     hw11175   6.487   0.859   0.747 -0.3793  0.7063  1.0173
 2794SOL     vw11176   6.443   0.829   0.816 -0.5665  0.0415  0.6206
 2795SOL     ow11177   2.172   0.003   1.099  0.6034  0.1957  0.0894
 2795SOL     hw11178   2.248  -0.029   1.148  1.6860  2.0993 -0.2445
 2795SOL     hw11179   2.097  -0.035   1.144  1.7435 -2.7976 -0.3444
 2795SOL     vw11180   2.172  -0.006   1.112  0.8967  0.0520 -0.0119
 2796SOL     ow11181   0.791   7.021   4.383 -0.1585  0.0803  0.1929
 2796SOL     hw11182   0.827   6.955   4.442  1.5656 -0.4866 -1.3802
 2796SOL     hw11183   0.720   6.977   4.337 -0.8786  0.2331  1.1338
 2796SOL     vw11184   0.786   7.007   4.385 -0.0260  0.0255  0.1090
 2797SOL     ow11185   4.521   1.068   4.205  0.5189  0.0533  0.6325
 2797SOL     hw11186   4.565   1.044   4.287 -0.5070 -2.0839  0.6230
 2797SOL     hw11187   4.542   0.997   4.145  0.5442  1.1733 -0.7217
 2797SOL     vw11188   4.530   1.055   4.208  0.3872 -0.0809  0.4528
 2798SOL     ow11189   3.668   4.076   5.667 -0.6267 -0.3344 -0.1843
 2798SOL     hw11190   3.590   4.131   5.670  0.9660  2.2033 -1.6135
 2798SOL     hw11191   3.718   4.109   5.592 -0.0659 -4.6029 -1.9953
 2798SOL     vw11192   3.664   4.088   5.657 -0.3426 -0.5624 -0.6118
 2799SOL     ow11193   6.241   5.455   4.507 -0.0877 -0.0486  0.6806
 2799SOL     hw11194   6.292   5.380   4.536 -0.7626 -0.7555  0.0755
 2799SOL     hw11195   6.205   5.429   4.422 -1.0788  0.5945  0.8836
 2799SOL     vw11196   6.243   5.442   4.500 -0.3076 -0.0567  0.6273
 2800SOL     ow11197   2.951   5.482   4.064 -0.1264 -0.1372  0.3715
 2800SOL     hw11198   2.937   5.468   4.158 -1.0115  0.8478  0.4038
 2800SOL     hw11199   3.015   5.415   4.039  0.1263 -0.4094  1.6764
 2800SOL     vw11200   2.958   5.471   4.073 -0.2099 -0.0432  0.5476
 2801SOL     ow11201   2.269   2.266   5.866 -0.4825 -0.1124 -0.1879
 2801SOL     hw11202   2.200   2.203   5.846 -0.5764 -0.9395  2.4275
 2801SOL     hw11203   2.339   2.213   5.906  1.1169  0.9067 -1.4840
 2801SOL     vw11204   2.269   2.251   5.869 -0.2840 -0.0871 -0.0136
 2802SOL     ow11205   4.079   5.117   0.822  0.3819 -0.2031  0.3571
 2802SOL     hw11206   4.031   5.092   0.743 -3.0233  0.5404  2.0099
 2802SOL     hw11207   4.075   5.040   0.878  0.4818  0.1048  0.7878
 2802SOL     vw11208   4.072   5.104   0.819 -0.0544 -0.0646  0.6320
 2803SOL     ow11209   5.966   0.609   3.154  0.0057  0.0217 -0.3677
 2803SOL     hw11210   5.904   0.564   3.210 -1.5291  2.1299 -0.2648
 2803SOL     hw11211   6.052   0.573   3.178 -0.9002 -1.0940  1.3297
 2803SOL     vw11212   5.969   0.599   3.164 -0.3164  0.1527 -0.1301
 2804SOL     ow11213   2.840   0.031   0.753 -0.6911 -0.2420  0.5651
 2804SOL     hw11214   2.770  -0.008   0.701 -0.6325  0.4373 -0.0303
 2804SOL     hw11215   2.798   0.052   0.837 -0.9140 -0.8576  0.6159
 2804SOL     vw11216   2.825   0.028   0.757 -0.7128 -0.2336  0.4933
 2805SOL     ow11217   2.745   1.068   1.284  0.0577 -0.0344 -0.0156
 2805SOL     hw11218   2.769   0.986   1.327  2.1719  1.1458  1.2641
 2805SOL     hw11219   2.829   1.105   1.257 -0.8498  1.7359 -0.5275
 2805SOL     vw11220   2.759   1.062   1.286  0.2171  0.3549  0.0858
 2806SOL     ow11221   2.344   5.239   3.942  0.1904  0.5568 -0.7312
 2806SOL     hw11222   2.283   5.193   4.000  1.5708  0.1410  0.4527
 2806SOL     hw11223   2.424   5.187   3.944  1.0391  1.7803 -1.1836
 2806SOL     vw11224   2.346   5.226   3.950  0.4845  0.6635 -0.6348
 2807SOL     ow11225   3.342   3.156   7.394  0.4534  0.3615  0.2072
 2807SOL     hw11226   3.295   3.085   7.438 -0.2384  0.1658 -0.8316
 2807SOL     hw11227   3.298   3.236   7.424  3.0752  0.7231  3.7742
 2807SOL     vw11228   3.330   3.157   7.404  0.7080  0.3835  0.5405
 2808SOL     ow11229   5.075   3.353   2.995  0.2323  0.3833 -0.1257
 2808SOL     hw11230   5.148   3.293   2.983 -0.4982 -0.6257  0.3668
 2808SOL     hw11231   5.001   3.310   2.952 -1.0361 -0.5483  2.7541
 2808SOL     vw11232   5.075   3.340   2.988 -0.0315  0.1274  0.3191
 2809SOL     ow11233   3.424   5.965   0.599 -0.3208  0.0727  0.8303
 2809SOL     hw11234   3.413   6.057   0.575 -0.6971 -0.3875 -0.9454
 2809SOL     hw11235   3.357   5.950   0.666 -0.6438  0.9476  0.7226
 2809SOL     vw11236   3.414   5.975   0.605 -0.4131  0.1273  0.5818
 2810SOL     ow11237   0.932   1.091   0.758  0.0107 -0.1201 -0.0065
 2810SOL     hw11238   0.946   1.172   0.709  1.9893 -0.3140  0.1635
 2810SOL     hw11239   0.963   1.110   0.846  1.7324 -1.3829 -0.2737
 2810SOL     vw11240   0.938   1.104   0.763  0.4989 -0.3123 -0.0193
 2811SOL     ow11241   0.375   3.621   1.676 -0.1359 -0.4151  0.3959
 2811SOL     hw11242   0.325   3.697   1.706  0.6074 -0.0183  0.6516
 2811SOL     hw11243   0.345   3.607   1.587  1.2283  1.5158 -0.4343
 2811SOL     vw11244   0.364   3.629   1.669  0.1421 -0.1080  0.3201
 2812SOL     ow11245   5.265   4.170   0.685 -0.2649 -0.1209 -0.1674
 2812SOL     hw11246   5.183   4.212   0.661  0.8169  2.2907  0.0943
 2812SOL     hw11247   5.323   4.186   0.610  0.4246 -0.4804  0.2745
 2812SOL     vw11248   5.262   4.178   0.672 -0.0310  0.1495 -0.0746
 2813SOL     ow11249   1.801   2.011   1.320  0.4055 -0.2466  0.1937
 2813SOL     hw11250   1.807   1.991   1.413  3.2223 -0.9597 -0.0486
 2813SOL     hw11251   1.708   2.005   1.300 -0.5362  1.8069  3.3132
 2813SOL     vw11252   1.790   2.007   1.329  0.6529 -0.0699  0.5734
 2814SOL     ow11253   5.402   4.511   5.651  0.1946 -0.3150 -0.8321
 2814SOL     hw11254   5.425   4.418   5.655  0.7466 -0.1641 -0.3875
 2814SOL     hw11255   5.430   4.546   5.736  0.7612  0.4308 -1.3150
 2814SOL     vw11256   5.409   4.504   5.663  0.3419 -0.1965 -0.8373
 2815SOL     ow11257   6.214   1.529   3.687 -0.2933 -0.1622  0.7768
 2815SOL     hw11258   6.274   1.534   3.613  0.0292  2.1029  1.1226
 2815SOL     hw11259   6.232   1.608   3.738 -1.0850 -1.2481  2.8442
 2815SOL     vw11260   6.224   1.541   3.684 -0.3550 -0.0066  1.0951
 2816SOL     ow11261   2.143   5.723   4.178 -0.1694  0.0737  0.6651
 2816SOL     hw11262   2.085   5.768   4.116  0.4352 -0.1433 -0.0721
 2816SOL     hw11263   2.099   5.731   4.262 -1.9452 -1.1971 -0.0739
 2816SOL     vw11264   2.129   5.730   4.181 -0.3239 -0.1225  0.4702
 2817SOL     ow11265   7.265   2.965   7.286  0.4485  0.0050  0.1744
 2817SOL     hw11266   7.180   2.941   7.250 -0.9248  1.7785  2.0042
 2817SOL     hw11267   7.256   2.952   7.380  2.8966 -1.5551  0.3094
 2817SOL     vw11268   7.253   2.960   7.294  0.5901  0.0333  0.4334
 2818SOL     ow11269   4.991   2.714   3.958 -0.6731  0.6641  0.2583
 2818SOL     hw11270   4.990   2.801   3.917 -2.1836  1.7545  2.4305
 2818SOL     hw11271   4.911   2.672   3.928  0.2143 -0.1986 -1.0553
 2818SOL     vw11272   4.981   2.720   3.948 -0.7553  0.6942  0.3716
 2819SOL     ow11273   1.310   7.300   0.636 -0.5216 -0.4957 -0.1240
 2819SOL     hw11274   1.331   7.211   0.606  0.5192 -0.1240 -0.5325
 2819SOL     hw11275   1.394   7.336   0.665 -0.8119  0.5806 -0.5807
 2819SOL     vw11276   1.324   7.293   0.636 -0.4225 -0.3047 -0.2381
 2820SOL     ow11277   0.119   1.512   5.739  0.6704  0.2112 -0.4628
 2820SOL     hw11278   0.057   1.554   5.799  0.9324 -0.0922  0.0338
 2820SOL     hw11279   0.141   1.580   5.676  0.2791  0.4967 -0.3012
 2820SOL     vw11280   0.113   1.527   5.739  0.6533  0.2088 -0.3762
 2821SOL     ow11281   6.652   6.872   5.310  0.1125 -0.3614 -0.1586
 2821SOL     hw11282   6.610   6.788   5.329  0.2375 -0.3913 -0.0131
 2821SOL     hw11283   6.661   6.914   5.396 -2.8792  1.2114 -0.4805
 2821SOL     vw11284   6.648   6.866   5.324 -0.2658 -0.1578 -0.1817
 2822SOL     ow11285   2.022   5.796   4.434  0.0119  0.1106  0.6913
 2822SOL     hw11286   2.073   5.855   4.490  0.0810  0.5610  0.1608
 2822SOL     hw11287   2.018   5.714   4.483  1.3463  0.0278  0.6877
 2822SOL     vw11288   2.028   5.793   4.448  0.1971  0.1593  0.6208
 2823SOL     ow11289   2.832   1.860   6.616  0.6874 -0.0417 -0.1228
 2823SOL     hw11290   2.900   1.825   6.674 -0.7134 -2.1605  0.3533
 2823SOL     hw11291   2.831   1.801   6.541  1.0141  1.4369 -1.3368
 2823SOL     vw11292   2.841   1.848   6.614  0.5456 -0.1262 -0.2203
 2824SOL     ow11293   6.620   1.224   1.965  0.3577 -0.2967 -1.0492
 2824SOL     hw11294   6.553   1.213   2.032  0.0879  3.6946 -0.4714
 2824SOL     hw11295   6.573   1.210   1.882 -0.7108  0.4562 -0.5882
 2824SOL     vw11296   6.605   1.220   1.963  0.1810  0.3293 -0.9121
 2825SOL     ow11297   6.089   1.232   5.658 -0.0815 -0.1455 -0.3804
 2825SOL     hw11298   6.045   1.160   5.612 -0.1060 -0.5215  0.2110
 2825SOL     hw11299   6.029   1.306   5.649  0.0038 -0.1575 -1.1084
 2825SOL     vw11300   6.075   1.232   5.651 -0.0734 -0.1967 -0.3984
 2826SOL     ow11301   2.111   3.174   3.048 -0.7098  0.2114 -0.0697
 2826SOL     hw11302   2.163   3.110   2.999  0.7567 -0.0866  1.7730
 2826SOL     hw11303   2.162   3.255   3.045 -1.5754  0.7579 -0.6676
 2826SOL     vw11304   2.125   3.176   3.041 -0.6306  0.2441  0.0945
 2827SOL     ow11305   2.948   3.256   3.274 -0.4680 -0.4564  0.2582
 2827SOL     hw11306   3.043   3.243   3.275 -0.4451 -0.4217  2.4238
 2827SOL     hw11307   2.927   3.268   3.181  1.3117 -2.7450 -0.5336
 2827SOL     vw11308   2.958   3.256   3.262 -0.2302 -0.7536  0.4394
 2828SOL     ow11309   3.000   7.276   7.021  0.2235 -0.1843 -0.1440
 2828SOL     hw11310   2.986   7.343   6.954 -0.0995  0.3145  0.4158
 2828SOL     hw11311   3.094   7.279   7.039  0.2312  0.0209 -0.2214
 2828SOL     vw11312   3.010   7.285   7.015  0.1819 -0.0916 -0.0803
 2829SOL     ow11313   0.856   6.300   7.378  0.1536 -0.2902 -0.0247
 2829SOL     hw11314   0.918   6.294   7.305 -0.0119 -0.2565 -0.1684
 2829SOL     hw11315   0.903   6.347   7.446  0.6774 -1.2003  0.2679
 2829SOL     vw11316   0.870   6.305   7.377  0.2008 -0.4055 -0.0052
 2830SOL     ow11317   2.031   7.220   0.335 -0.2826  0.7399  0.4009
 2830SOL     hw11318   2.066   7.148   0.282 -0.3853  0.8414  0.1931
 2830SOL     hw11319   2.003   7.285   0.271 -1.3116  0.4536  0.5493
 2830SOL     vw11320   2.032   7.219   0.319 -0.4319  0.7157  0.3930
 2831SOL     ow11321   4.675   6.413   0.616  0.5006  0.5195 -0.1212
 2831SOL     hw11322   4.667   6.500   0.578 -1.0725  0.1147 -0.7749
 2831SOL     hw11323   4.764   6.386   0.595  1.5682  2.5528  1.4158
 2831SOL     vw11324   4.685   6.421   0.609  0.4339  0.7343 -0.0047
 2832SOL     ow11325   5.961   6.231   2.243  0.2966  0.6792  0.4121
 2832SOL     hw11326   6.056   6.237   2.249  0.2652  0.7440  0.8917
 2832SOL     hw11327   5.938   6.288   2.170  0.5626  1.2980  0.8009
 2832SOL     vw11328   5.970   6.239   2.234  0.3276  0.7696  0.5268
 2833SOL     ow11329   5.446   2.845   7.009  0.1427  0.2435  0.1820
 2833SOL     hw11330   5.454   2.931   6.968 -2.9482 -0.3598 -2.1301
 2833SOL     hw11331   5.516   2.793   6.970  0.6557  1.1170 -0.0944
 2833SOL     vw11332   5.456   2.850   6.998 -0.1974  0.2792 -0.1593
 2834SOL     ow11333   1.852   1.903   6.044  0.2758 -0.9322  0.2069
 2834SOL     hw11334   1.849   1.884   6.138  0.4200 -1.0161  0.1939
 2834SOL     hw11335   1.899   1.830   6.006  2.0594  0.0792  0.3336
 2834SOL     vw11336   1.858   1.891   6.052  0.5301 -0.8098  0.2217
 2835SOL     ow11337   2.738   6.303   0.918  0.0678 -0.2822  0.0528
 2835SOL     hw11338   2.803   6.273   0.982  1.7955  0.8313 -1.0934
 2835SOL     hw11339   2.654   6.287   0.961  0.9830 -2.9716  1.0760
 2835SOL     vw11340   2.736   6.297   0.932  0.4165 -0.4902  0.0366
 2836SOL     ow11341   0.236   6.397   0.974 -0.1763  0.3339  0.2647
 2836SOL     hw11342   0.235   6.358   1.062  0.7596  0.0031  0.1427
 2836SOL     hw11343   0.269   6.486   0.988 -1.8722  0.9582  0.4833
 2836SOL     vw11344   0.240   6.403   0.987 -0.2766  0.3729  0.2775
 2837SOL     ow11345   6.280   5.305   2.708  0.3011  0.1263 -0.4670
 2837SOL     hw11346   6.281   5.269   2.797  0.9551 -0.4208 -0.6822
 2837SOL     hw11347   6.346   5.374   2.710 -0.3150  0.7184 -0.2967
 2837SOL     vw11348   6.289   5.309   2.720  0.3061  0.1323 -0.4729
 2838SOL     ow11349   3.175   2.460   4.294  0.1765  0.4296 -0.3299
 2838SOL     hw11350   3.171   2.460   4.389  1.3841 -0.6733 -0.2372
 2838SOL     hw11351   3.135   2.377   4.268  0.3256  0.4861 -0.7492
 2838SOL     vw11352   3.170   2.449   4.303  0.3555  0.2915 -0.3729
 2839SOL     ow11353   2.945   7.422   5.577  0.2255  0.3214 -0.0233
 2839SOL     hw11354   2.977   7.349   5.524  1.4815  2.5931 -2.6680
 2839SOL     hw11355   2.896   7.476   5.515 -0.2329  1.9809  1.7077
 2839SOL     vw11356   2.943   7.419   5.562  0.3308  0.8399 -0.1440
 2840SOL     ow11357   7.395   4.595   1.403  0.5394 -0.4780  0.1137
 2840SOL     hw11358   7.445   4.569   1.481 -0.9568 -0.4814  1.1158
 2840SOL     hw11359   7.444   4.669   1.367  1.2812 -0.4903  1.0488
 2840SOL     vw11360   7.408   4.601   1.409  0.4396 -0.4799  0.3694
 2841SOL     ow11361   6.562   6.304   0.489 -0.4560  0.1271  0.2621
 2841SOL     hw11362   6.523   6.264   0.411 -1.1741  1.9776 -0.3985
 2841SOL     hw11363   6.491   6.355   0.527  0.4195  0.8305  1.0036
 2841SOL     vw11364   6.547   6.306   0.484 -0.4354  0.4640  0.2727
 2842SOL     ow11365   2.311   2.342   7.443  0.4608  0.2758  0.0061
 2842SOL     hw11366   2.263   2.369   7.522  1.2171  0.6185  0.3668
 2842SOL     hw11367   2.331   2.249   7.458 -1.6147 -0.3742 -0.9577
 2842SOL     vw11368   2.307   2.333   7.456  0.2868  0.2352 -0.0734
 2843SOL     ow11369   4.251   0.456   1.860 -0.1219  0.0712  0.1561
 2843SOL     hw11370   4.264   0.369   1.824  1.2748  0.4665 -0.3671
 2843SOL     hw11371   4.330   0.473   1.912 -0.2337  1.1182  0.0136
 2843SOL     vw11372   4.263   0.447   1.862  0.0479  0.2615  0.0682
 2844SOL     ow11373   0.800   7.111   0.967  1.0186 -0.3104 -0.3229
 2844SOL     hw11374   0.888   7.134   0.937  0.2973  3.0716 -0.2404
 2844SOL     hw11375   0.793   7.149   1.054  0.2085 -2.6133  0.6992
 2844SOL     vw11376   0.810   7.119   0.974  0.8166 -0.1681 -0.1771
 2845SOL     ow11377   1.800   1.024   4.153  0.5145  0.1291  0.1337
 2845SOL     hw11378   1.767   1.114   4.146  2.0933  0.6796 -0.8753
 2845SOL     hw11379   1.767   0.980   4.074 -1.1304 -0.5199  1.1409
 2845SOL     vw11380   1.791   1.030   4.141  0.5057  0.1161  0.1335
 2846SOL     ow11381   7.093   3.684   6.149 -0.3113 -0.5773 -0.4228
 2846SOL     hw11382   7.045   3.739   6.088  1.7839  0.7595 -0.9742
 2846SOL     hw11383   7.049   3.699   6.233 -1.0043  0.4169 -0.9297
 2846SOL     vw11384   7.081   3.694   6.152 -0.1261 -0.2698 -0.5624
 2847SOL     ow11385   1.723   0.022   4.225  0.2127 -0.3575  0.3340
 2847SOL     hw11386   1.643   0.012   4.174 -0.1603 -0.0933  0.8529
 2847SOL     hw11387   1.721   0.113   4.256  0.2603 -0.6025  1.0860
 2847SOL     vw11388   1.712   0.033   4.222  0.1698 -0.3550  0.5016
 2848SOL     ow11389   4.160   7.354   7.234 -0.6595 -0.4741  0.1279
 2848SOL     hw11390   4.166   7.356   7.139  1.7353  0.3203  0.2457
 2848SOL     hw11391   4.090   7.416   7.255  0.5230  1.3242 -1.0458
 2848SOL     vw11392   4.151   7.362   7.225 -0.1876 -0.1321 -0.0117
 2849SOL     ow11393   3.013   1.778   3.993  0.1071 -0.3932  0.0774
 2849SOL     hw11394   3.104   1.763   3.967 -0.0211 -0.4718 -0.3362
 2849SOL     hw11395   2.965   1.785   3.911 -0.3915 -1.1558  0.2863
 2849SOL     vw11396   3.019   1.777   3.979  0.0244 -0.5042  0.0504
 2850SOL     ow11397   6.297   6.809   1.934  0.5817 -0.1578  0.4981
 2850SOL     hw11398   6.228   6.742   1.935 -1.0447  1.4121 -0.5028
 2850SOL     hw11399   6.338   6.803   2.020 -3.5765  1.5438  2.8909
 2850SOL     vw11400   6.293   6.799   1.945 -0.1817  0.2735  0.6817
 2851SOL     ow11401   4.937   3.838   3.437  0.3596 -0.1395 -0.3436
 2851SOL     hw11402   4.904   3.750   3.421 -1.9488  0.8760 -1.6986
 2851SOL     hw11403   4.966   3.837   3.529 -2.6009 -1.4924  0.6880
 2851SOL     vw11404   4.936   3.827   3.447 -0.3355 -0.1839 -0.3864
 2852SOL     ow11405   5.787   1.602   3.743  0.2101  0.8310 -0.1307
 2852SOL     hw11406   5.734   1.611   3.822  0.1406 -1.1422  0.0918
 2852SOL     hw11407   5.841   1.524   3.758 -1.9515 -1.4979 -3.1657
 2852SOL     vw11408   5.787   1.593   3.755 -0.0839  0.2634 -0.5018
 2853SOL     ow11409   2.731   4.088   4.166 -0.1027  0.9260  0.0013
 2853SOL     hw11410   2.762   4.080   4.076 -0.2902  1.2705 -0.0978
 2853SOL     hw11411   2.779   4.163   4.202 -0.7857  1.4401 -0.1428
 2853SOL     vw11412   2.741   4.097   4.159 -0.2177  1.0390 -0.0310
 2854SOL     ow11413   6.109   4.671   5.316 -0.0871 -0.4882  0.0730
 2854SOL     hw11414   6.193   4.629   5.300 -0.3641 -1.0123 -0.0005
 2854SOL     hw11415   6.080   4.636   5.401 -2.0221 -3.2845 -1.5757
 2854SOL     vw11416   6.116   4.661   5.325 -0.3788 -0.9265 -0.1543
 2855SOL     ow11417   3.644   1.067   4.143  0.0947  0.7511  0.3789
 2855SOL     hw11418   3.656   1.064   4.238  2.0948 -0.0551  0.1451
 2855SOL     hw11419   3.665   1.157   4.119  2.8890  0.1847  0.3881
 2855SOL     vw11420   3.648   1.078   4.152  0.7272  0.5699  0.3493
 2856SOL     ow11421   1.150   3.540   1.655  0.3213 -0.6943 -0.3379
 2856SOL     hw11422   1.155   3.603   1.727 -1.3218 -1.8049  0.7947
 2856SOL     hw11423   1.199   3.464   1.686  0.1061 -0.9602 -0.6451
 2856SOL     vw11424   1.157   3.538   1.669  0.0761 -0.8761 -0.2289
 2857SOL     ow11425   5.447   5.480   0.800  0.4661 -0.0317  0.1352
 2857SOL     hw11426   5.487   5.566   0.784  0.8295 -0.2741 -0.2879
 2857SOL     hw11427   5.353   5.498   0.806  0.4971  0.3389 -0.3992
 2857SOL     vw11428   5.440   5.494   0.799  0.5183 -0.0148  0.0089
 2858SOL     ow11429   3.666   5.692   2.139 -0.3488  0.3875 -0.4234
 2858SOL     hw11430   3.619   5.760   2.091 -1.4686 -0.6889 -0.9096
 2858SOL     hw11431   3.682   5.624   2.074 -0.9238 -0.6229  0.4622
 2858SOL     vw11432   3.662   5.692   2.124 -0.5724  0.1121 -0.3709
 2859SOL     ow11433   4.110   4.869   0.593 -0.0739 -0.4483 -0.5380
 2859SOL     hw11434   4.181   4.810   0.617  1.1358  0.9919 -0.3977
 2859SOL     hw11435   4.124   4.886   0.499 -0.7710 -0.8469 -0.7186
 2859SOL     vw11436   4.121   4.864   0.584 -0.0060 -0.3109 -0.5433
 2860SOL     ow11437   4.744   2.684   4.666 -0.0295 -0.0843 -0.1343
 2860SOL     hw11438   4.756   2.668   4.760  0.2015 -0.5462 -0.2396
 2860SOL     hw11439   4.827   2.656   4.627 -0.9852 -2.3000 -0.7530
 2860SOL     vw11440   4.756   2.678   4.674 -0.1249 -0.4375 -0.2298
 2861SOL     ow11441   0.190   7.332   6.405 -0.4374 -0.1417  0.2150
 2861SOL     hw11442   0.272   7.375   6.383 -0.6578 -0.1486 -0.6612
 2861SOL     hw11443   0.163   7.289   6.323 -0.7043 -1.1297  0.8113
 2861SOL     vw11444   0.197   7.332   6.391 -0.5017 -0.2730  0.1781
 2862SOL     ow11445   6.092   0.800   5.094  0.1884 -0.6334  0.4162
 2862SOL     hw11446   6.133   0.859   5.158 -0.1814 -0.0581  0.1211
 2862SOL     hw11447   6.158   0.789   5.026  1.0164 -2.1091  1.3943
 2862SOL     vw11448   6.106   0.806   5.094  0.2487 -0.7522  0.5066
 2863SOL     ow11449   5.622   0.960   4.980  0.5890  0.5004 -0.9900
 2863SOL     hw11450   5.640   0.879   4.933 -1.6843 -0.3844 -0.4435
 2863SOL     hw11451   5.618   1.027   4.912 -1.0930 -0.4857 -1.9165
 2863SOL     vw11452   5.624   0.958   4.965  0.0672  0.2536 -1.0400
 2864SOL     ow11453   0.173   6.540   3.709 -0.4258 -0.0629 -0.1599
 2864SOL     hw11454   0.084   6.567   3.687  0.3107  2.6362 -0.1761
 2864SOL     hw11455   0.215   6.524   3.624 -0.8259 -1.2220 -0.1558
 2864SOL     vw11456   0.167   6.541   3.695 -0.3814  0.1404 -0.1614
 2865SOL     ow11457   0.966   0.427   1.731 -0.0597 -0.5210  0.2709
 2865SOL     hw11458   1.029   0.355   1.734  0.0406 -0.7281 -3.0882
 2865SOL     hw11459   1.016   0.505   1.754  0.7930 -1.0455  0.2194
 2865SOL     vw11460   0.981   0.428   1.734  0.0660 -0.6175 -0.1791
 2866SOL     ow11461   2.092   5.586   5.060 -0.4177  0.4099  0.9411
 2866SOL     hw11462   2.004   5.579   5.023  0.0981  1.4637 -0.5639
 2866SOL     hw11463   2.108   5.681   5.065  1.6610  0.2977 -1.4827
 2866SOL     vw11464   2.082   5.598   5.056 -0.0752  0.5338  0.4225
 2867SOL     ow11465   1.080   1.737   2.743  0.3920 -0.4568  0.0401
 2867SOL     hw11466   1.084   1.652   2.699 -0.9139  0.4730 -2.0528
 2867SOL     hw11467   1.076   1.801   2.671  0.1626  1.3060  1.5395
 2867SOL     vw11468   1.080   1.735   2.727  0.1895 -0.1016 -0.0383
 2868SOL     ow11469   4.915   7.170   0.237 -0.4383 -0.8394  0.1904
 2868SOL     hw11470   4.962   7.251   0.213 -1.8029 -0.2552 -0.6275
 2868SOL     hw11471   4.961   7.101   0.189 -0.5541 -0.2472 -0.8012
 2868SOL     vw11472   4.928   7.172   0.228 -0.6337 -0.6845 -0.0484
 2869SOL     ow11473   3.658   3.736   4.335  0.1414  0.5242 -0.0073
 2869SOL     hw11474   3.708   3.776   4.406  1.2921  0.0460 -0.5064
 2869SOL     hw11475   3.722   3.679   4.291 -0.8670 -0.1230 -0.6692
 2869SOL     vw11476   3.673   3.734   4.338  0.1602  0.3757 -0.1605
 2870SOL     ow11477   5.756   4.779   0.130 -0.2399  0.3792 -0.0126
 2870SOL     hw11478   5.736   4.696   0.174 -0.3581  0.8055  0.7652
 2870SOL     hw11479   5.847   4.770   0.101 -0.4166 -0.2124 -0.3835
 2870SOL     vw11480   5.766   4.767   0.132 -0.2787  0.3574  0.0410
 2871SOL     ow11481   7.050   7.014   2.958  0.3076 -0.5144  0.2800
 2871SOL     hw11482   6.972   7.070   2.961 -0.9235 -2.0309 -1.3568
 2871SOL     hw11483   7.017   6.927   2.981  2.2322 -0.6478  3.1254
 2871SOL     vw11484   7.035   7.010   2.962  0.3991 -0.7322  0.4394
 2872SOL     ow11485   2.169   3.326   1.340  0.2152 -0.4773  0.2124
 2872SOL     hw11486   2.253   3.347   1.299 -0.3372 -1.5336 -1.5954
 2872SOL     hw11487   2.193   3.275   1.418  1.2942  1.2437  1.0687
 2872SOL     vw11488   2.184   3.322   1.345  0.2848 -0.3896  0.0868
 2873SOL     ow11489   6.414   6.051   6.921  0.0140 -0.7549  0.9313
 2873SOL     hw11490   6.448   6.071   7.009  0.0720 -0.4022  0.8280
 2873SOL     hw11491   6.322   6.075   6.925  0.2218  0.1105  0.6235
 2873SOL     vw11492   6.407   6.057   6.933  0.0489 -0.5944  0.8769
 2874SOL     ow11493   3.485   3.516   4.291 -0.0763  0.5231 -0.5245
 2874SOL     hw11494   3.506   3.607   4.311  0.0556  0.4685 -0.4164
 2874SOL     hw11495   3.569   3.472   4.286 -0.1863 -0.2458  2.5291
 2874SOL     vw11496   3.499   3.522   4.293 -0.0734  0.4144 -0.1078
 2875SOL     ow11497   4.997   5.045   3.802 -0.1848 -0.1898  0.1783
 2875SOL     hw11498   4.986   4.982   3.730  1.9198  2.2064 -2.4711
 2875SOL     hw11499   5.085   5.027   3.835  0.8756  1.8584 -1.3124
 2875SOL     vw11500   5.007   5.034   3.797  0.2332  0.3965 -0.3680
 2876SOL     ow11501   0.063   4.174   4.031  0.1324  0.5036  0.0641
 2876SOL     hw11502   0.106   4.256   4.007 -0.9468  1.1494  0.3140
 2876SOL     hw11503   0.089   4.113   3.962  1.0938  0.9931 -0.0228
 2876SOL     vw11504   0.072   4.177   4.019  0.1169  0.6533  0.0854
 2877SOL     ow11505   3.790   2.724   2.077  0.4370  0.4199  0.1704
 2877SOL     hw11506   3.870   2.766   2.107 -0.1003  0.5702  1.4696
 2877SOL     hw11507   3.726   2.741   2.147  0.0606 -2.1029  0.5486
 2877SOL     vw11508   3.792   2.732   2.090  0.3164  0.1069  0.3918
 2878SOL     ow11509   0.066   2.309   7.529 -0.5088 -0.3439  0.1156
 2878SOL     hw11510   0.045   2.216   7.531  0.4132 -0.5767 -0.4948
 2878SOL     hw11511   0.134   2.317   7.462  0.1271  0.6259  0.8552
 2878SOL     vw11512   0.072   2.298   7.520 -0.3032 -0.2466  0.1327
 2879SOL     ow11513   0.209   1.452   3.869 -0.1999 -0.2658 -0.1380
 2879SOL     hw11514   0.220   1.535   3.823 -1.0156  1.3975  2.4813
 2879SOL     hw11515   0.120   1.424   3.848 -0.3617  0.1765 -0.0504
 2879SOL     vw11516   0.199   1.459   3.860 -0.3289  0.0120  0.2191
 2880SOL     ow11517   4.661   6.237   1.331  0.5594 -0.4175 -0.4962
 2880SOL     hw11518   4.643   6.328   1.310  1.9274 -0.3098 -1.3170
 2880SOL     hw11519   4.725   6.240   1.402 -0.6802 -0.7628  0.6586
 2880SOL     vw11520   4.667   6.249   1.337  0.5763 -0.4487 -0.4521
 2881SOL     ow11521   1.513   4.019   1.630  0.5457 -0.1518  0.1748
 2881SOL     hw11522   1.505   3.948   1.694 -1.1934 -1.1235 -1.0475
 2881SOL     hw11523   1.485   4.097   1.677 -0.2256 -0.7594  0.7520
 2881SOL     vw11524   1.508   4.020   1.645  0.2145 -0.3600  0.0898
 2882SOL     ow11525   1.167   5.969   3.058 -0.4331  0.2706  0.1454
 2882SOL     hw11526   1.076   5.974   3.028 -0.4549  1.2722  0.3373
 2882SOL     hw11527   1.186   6.058   3.090 -0.1287 -0.4963  2.2435
 2882SOL     vw11528   1.157   5.982   3.058 -0.3958  0.3016  0.4476
 2883SOL     ow11529   5.642   7.175   4.180 -0.0340  0.4003 -0.4117
 2883SOL     hw11530   5.584   7.192   4.106 -0.6347  0.7242  0.1281
 2883SOL     hw11531   5.688   7.258   4.194 -1.6898  1.1427  1.1001
 2883SOL     vw11532   5.640   7.188   4.172 -0.3316  0.5410 -0.1409
 2884SOL     ow11533   5.605   2.542   0.495  0.1401 -0.2580 -0.0130
 2884SOL     hw11534   5.689   2.543   0.541 -0.6093  1.5193  1.4515
 2884SOL     hw11535   5.596   2.631   0.460 -1.3642 -0.2408  0.3489
 2884SOL     vw11536   5.615   2.554   0.496 -0.1576 -0.0212  0.2280
 2885SOL     ow11537   1.129   5.881   5.555  0.1629  0.6833  0.6583
 2885SOL     hw11538   1.144   5.794   5.520  0.4552  0.3121  1.6843
 2885SOL     hw11539   1.058   5.916   5.501 -0.5729 -0.5243  0.8063
 2885SOL     vw11540   1.122   5.874   5.543  0.1044  0.4749  0.8132
 2886SOL     ow11541   6.687   6.950   5.567 -0.5921  0.8560 -0.0894
 2886SOL     hw11542   6.751   6.998   5.618  1.0296 -0.7978 -0.4646
 2886SOL     hw11543   6.707   6.858   5.583 -1.2208  0.2762 -2.2220
 2886SOL     vw11544   6.698   6.944   5.576 -0.4611  0.5615 -0.4203
 2887SOL     ow11545   6.711   1.708   2.373  0.1560  0.5483 -0.1828
 2887SOL     hw11546   6.638   1.744   2.322  0.5330 -0.1049 -1.2204
 2887SOL     hw11547   6.669   1.649   2.435 -0.3462  1.6512  0.5596
 2887SOL     vw11548   6.696   1.705   2.374  0.1395  0.6076 -0.2216
 2888SOL     ow11549   2.705   3.144   0.844  0.2826 -0.1971 -0.2813
 2888SOL     hw11550   2.665   3.174   0.761 -0.5488 -1.0767 -0.2239
 2888SOL     hw11551   2.712   3.049   0.833  0.2525 -0.3066  0.6205
 2888SOL     vw11552   2.700   3.136   0.831  0.1690 -0.3277 -0.1547
 2889SOL     ow11553   0.543   6.980   5.990  0.3551 -0.2611  0.2586
 2889SOL     hw11554   0.469   6.926   6.018  0.7662  0.1900  2.4558
 2889SOL     hw11555   0.620   6.929   6.015  0.8473 -0.7799 -2.1175
 2889SOL     vw11556   0.544   6.966   5.997  0.4743 -0.2699  0.2348
 2890SOL     ow11557   5.679   5.425   5.855  0.0832 -0.5360  0.5767
 2890SOL     hw11558   5.643   5.514   5.854 -0.8836 -0.9199  0.7075
 2890SOL     hw11559   5.607   5.369   5.827  0.4258 -1.3808  1.3341
 2890SOL     vw11560   5.665   5.430   5.851  0.0010 -0.6981  0.6938
 2891SOL     ow11561   4.222   0.197   6.679 -0.6455  0.3892 -0.9111
 2891SOL     hw11562   4.198   0.122   6.733  0.9269  0.0174 -0.6675
 2891SOL     hw11563   4.299   0.234   6.722 -0.3864  1.1248 -1.9522
 2891SOL     vw11564   4.229   0.192   6.692 -0.4039  0.4372 -1.0164
 2892SOL     ow11565   5.057   3.909   5.811  0.4010 -0.1609 -0.3848
 2892SOL     hw11566   5.116   3.845   5.771  0.6995  0.3227 -0.7325
 2892SOL     hw11567   5.115   3.963   5.866  0.0833 -0.4602  0.2531
 2892SOL     vw11568   5.073   3.908   5.813  0.3989 -0.1366 -0.3467
 2893SOL     ow11569   6.496   1.132   6.794 -0.1424 -0.1972  0.3583
 2893SOL     hw11570   6.496   1.183   6.713  1.9940  1.4245  1.2861
 2893SOL     hw11571   6.462   1.193   6.861 -0.5491 -1.0458  0.9454
 2893SOL     vw11572   6.491   1.147   6.792  0.0858 -0.0951  0.5579
 2894SOL     ow11573   0.028   0.194   1.608 -0.0651 -0.5207  0.1654
 2894SOL     hw11574   0.065   0.106   1.600  0.9914 -0.0025 -0.8959
 2894SOL     hw11575  -0.056   0.188   1.563 -0.4240 -1.2009  0.8851
 2894SOL     vw11576   0.022   0.181   1.601  0.0269 -0.5420  0.1203
 2895SOL     ow11577   4.619   6.747   0.978 -0.3409 -0.5344  0.1074
 2895SOL     hw11578   4.641   6.824   0.927 -0.8768 -1.6347 -1.8876
 2895SOL     hw11579   4.704   6.712   1.007  0.0123 -0.1742 -0.4825
 2895SOL     vw11580   4.633   6.752   0.975 -0.3648 -0.6320 -0.2336
 2896SOL     ow11581   3.323   6.022   6.678 -0.0954  0.4855 -0.2004
 2896SOL     hw11582   3.293   6.093   6.734  1.8429 -0.7097  2.5744
 2896SOL     hw11583   3.262   5.950   6.696  0.4128  0.1611  0.2500
 2896SOL     vw11584   3.311   6.022   6.688  0.2275  0.2854  0.2251
 2897SOL     ow11585   4.715   6.773   3.961 -0.2418 -0.6735 -0.5903
 2897SOL     hw11586   4.667   6.693   3.982  0.4151 -1.0989 -0.6971
 2897SOL     hw11587   4.733   6.814   4.045  0.8666 -1.4896 -0.4138
 2897SOL     vw11588   4.711   6.768   3.975 -0.0088 -0.8376 -0.5810
 2898SOL     ow11589   1.967   7.328   6.722 -0.0714 -0.3281 -0.0695
 2898SOL     hw11590   1.879   7.323   6.759 -0.2282  0.2238 -0.3536
 2898SOL     hw11591   2.022   7.356   6.795 -0.4587  1.2428 -0.3395
 2898SOL     vw11592   1.962   7.331   6.736 -0.1432 -0.0482 -0.1423
 2899SOL     ow11593   0.223   4.962   5.778 -0.0294 -0.3240 -0.2856
 2899SOL     hw11594   0.131   4.987   5.784 -0.1466 -0.8350  0.1159
 2899SOL     hw11595   0.270   5.045   5.772 -0.5062 -0.0575 -0.3998
 2899SOL     vw11596   0.217   4.976   5.778 -0.1078 -0.3562 -0.2472
 2900SOL     ow11597   6.129   5.456   0.561  0.4764 -0.0570  0.4248
 2900SOL     hw11598   6.158   5.531   0.509 -1.6799  0.4393 -0.1998
 2900SOL     hw11599   6.174   5.465   0.645  2.6010  0.1869 -0.6703
 2900SOL     vw11600   6.138   5.467   0.565  0.4723  0.0405  0.1979
 2901SOL     ow11601   2.638   5.864   2.622 -0.3035 -0.0349 -0.7454
 2901SOL     hw11602   2.546   5.842   2.608 -0.6777  0.3388  1.0002
 2901SOL     hw11603   2.639   5.916   2.702  1.4396 -0.0392 -0.7288
 2901SOL     vw11604   2.626   5.868   2.631 -0.1229  0.0141 -0.5128
 2902SOL     ow11605   5.605   5.083   3.031  0.1466  0.3365 -0.0200
 2902SOL     hw11606   5.592   5.075   2.936 -3.7161 -0.6609  0.4191
 2902SOL     hw11607   5.584   4.996   3.065  3.2939  0.1117  1.7367
 2902SOL     vw11608   5.600   5.070   3.023  0.0522  0.1752  0.2697
 2903SOL     ow11609   0.116   1.816   7.384  0.0258  0.3958 -0.8710
 2903SOL     hw11610   0.045   1.860   7.430  1.9473  1.1951  1.5454
 2903SOL     hw11611   0.122   1.730   7.426  1.8657  1.1714  0.5914
 2903SOL     vw11612   0.108   1.810   7.395  0.5221  0.6036 -0.3591
 2904SOL     ow11613   1.462   5.771   1.290 -0.4775 -0.1395 -0.4802
 2904SOL     hw11614   1.547   5.810   1.306 -1.0735  1.6164 -1.3431
 2904SOL     hw11615   1.422   5.826   1.223 -2.1624 -1.1166 -0.3512
 2904SOL     vw11616   1.468   5.783   1.283 -0.7784 -0.0367 -0.5771
 2905SOL     ow11617   3.673   4.581   3.882 -0.5922  0.1830 -0.4539
 2905SOL     hw11618   3.633   4.509   3.931 -3.1374  1.2244 -0.8277
 2905SOL     hw11619   3.641   4.660   3.926 -1.3692  1.1191 -2.5646
 2905SOL     vw11620   3.663   4.582   3.895 -1.0306  0.4439 -0.7817
 2906SOL     ow11621   0.075   3.217   4.368 -0.2768  0.0307 -0.2753
 2906SOL     hw11622   0.068   3.305   4.330 -0.4573  0.1836  0.1122
 2906SOL     hw11623  -0.012   3.178   4.355 -1.1450  0.9824  2.1828
 2906SOL     vw11624   0.063   3.224   4.361 -0.4152  0.1764  0.1004
 2907SOL     ow11625   5.542   1.758   7.087  0.0975  0.3427  0.5496
 2907SOL     hw11626   5.451   1.775   7.061 -0.3483  0.2025  1.9274
 2907SOL     hw11627   5.573   1.841   7.122  0.0319  0.0353  1.3596
 2907SOL     vw11628   5.534   1.771   7.088  0.0300  0.2836  0.8380
 2908SOL     ow11629   1.730   0.211   4.605 -0.0598  0.2238  0.2136
 2908SOL     hw11630   1.732   0.188   4.512  2.4399 -1.7053  0.6230
 2908SOL     hw11631   1.750   0.304   4.607 -0.9719  0.4850 -1.1874
 2908SOL     vw11632   1.733   0.220   4.593  0.1497  0.0037  0.0827
 2909SOL     ow11633   3.347   6.924   1.385  0.5033  0.1029  0.2351
 2909SOL     hw11634   3.266   6.878   1.365  0.0128  1.3495 -0.7552
 2909SOL     hw11635   3.412   6.884   1.328  0.6712 -1.0313  1.1679
 2909SOL     vw11636   3.345   6.913   1.375  0.4607  0.1180  0.2275
 2910SOL     ow11637   5.141   3.629   2.811  0.1584 -0.3793  0.0475
 2910SOL     hw11638   5.117   3.543   2.846 -0.1821 -1.8471 -3.4414
 2910SOL     hw11639   5.088   3.639   2.732  1.3452  2.3572 -0.5181
 2910SOL     vw11640   5.131   3.619   2.805  0.2701 -0.2118 -0.4874
 2911SOL     ow11641   6.952   6.565   1.754  0.0335  0.0984  0.1669
 2911SOL     hw11642   7.015   6.551   1.825 -1.0129 -0.4844  1.0122
 2911SOL     hw11643   6.873   6.520   1.783 -0.4869  0.0182 -1.2962
 2911SOL     vw11644   6.950   6.557   1.767 -0.1731  0.0110  0.0854
 2912SOL     ow11645   3.620   4.689   0.765  0.2024  0.0797 -0.4158
 2912SOL     hw11646   3.698   4.701   0.711  0.0968 -0.2129 -0.6326
 2912SOL     hw11647   3.569   4.621   0.721 -1.3643  1.9305 -1.6441
 2912SOL     vw11648   3.623   4.682   0.752 -0.0182  0.2854 -0.6065
 2913SOL     ow11649   2.205   5.357   4.938 -0.3311  0.0346 -0.5859
 2913SOL     hw11650   2.167   5.422   4.996 -1.0766 -0.6346 -0.3160
 2913SOL     hw11651   2.297   5.351   4.965  0.0120  1.7141 -1.3008
 2913SOL     vw11652   2.212   5.364   4.949 -0.3841  0.1681 -0.6444
 2914SOL     ow11653   5.126   4.942   4.402  0.2205  0.0430  0.5646
 2914SOL     hw11654   5.179   4.996   4.462 -1.1074  1.3984  0.5970
 2914SOL     hw11655   5.187   4.911   4.336  0.9463  2.3607  0.0434
 2914SOL     vw11656   5.141   4.945   4.402  0.1409  0.5276  0.5002
 2915SOL     ow11657   1.569   1.949   6.164  0.2707  0.5297 -0.0145
 2915SOL     hw11658   1.566   2.014   6.234  0.4062  0.5773 -0.0527
 2915SOL     hw11659   1.478   1.936   6.139  0.3499  1.9524 -1.1638
 2915SOL     vw11660   1.557   1.956   6.170  0.2990  0.7237 -0.1709
 2916SOL     ow11661   5.046   7.428   5.681  0.1934  0.1272  0.3077
 2916SOL     hw11662   4.984   7.476   5.625 -1.2252 -0.0031  1.7006
 2916SOL     hw11663   5.004   7.425   5.766  1.6526 -0.9521  1.0326
 2916SOL     vw11664   5.032   7.434   5.685  0.1988 -0.0324  0.5872
 2917SOL     ow11665   0.300   2.567   2.613  0.0215  0.0776 -0.2271
 2917SOL     hw11666   0.231   2.515   2.654 -0.7805  0.7018 -0.7488
 2917SOL     hw11667   0.325   2.518   2.535  0.8493 -0.6179  0.4562
 2917SOL     vw11668   0.295   2.554   2.608  0.0249  0.0683 -0.2058
 2918SOL     ow11669   7.329   2.813   0.074  0.2717  0.2161  0.7163
 2918SOL     hw11670   7.351   2.797  -0.017  2.5741 -0.1795  1.2904
 2918SOL     hw11671   7.278   2.736   0.100 -0.2303  0.2451 -0.1662
 2918SOL     vw11672   7.325   2.800   0.066  0.5095  0.1677  0.6757
 2919SOL     ow11673   5.158   5.192   3.647  0.1627  0.0176 -0.5020
 2919SOL     hw11674   5.187   5.277   3.679  2.1314 -1.5653  2.4008
 2919SOL     hw11675   5.075   5.176   3.690  1.1571 -0.6364  1.2806
 2919SOL     vw11676   5.151   5.201   3.657  0.5538 -0.2778  0.1161
 2920SOL     ow11677   2.399   1.079   1.502  0.1780  0.0914 -0.0384
 2920SOL     hw11678   2.344   1.026   1.444  0.1507  0.9900 -0.8676
 2920SOL     hw11679   2.432   1.017   1.567 -0.8588 -0.6930 -0.2290
 2920SOL     vw11680   2.396   1.064   1.503  0.0374  0.1065 -0.1729
 2921SOL     ow11681   1.915   2.170   5.964  0.0410  0.2713 -0.7811
 2921SOL     hw11682   1.952   2.135   5.884  0.5164  0.9224 -0.8548
 2921SOL     hw11683   1.880   2.094   6.010 -1.9904  0.0793 -2.4782
 2921SOL     vw11684   1.915   2.156   5.960 -0.1643  0.3318 -1.0145
 2922SOL     ow11685   5.050   4.893   1.073 -0.1828  0.1994 -0.4184
 2922SOL     hw11686   5.071   4.937   0.990 -2.4331 -3.9875 -3.5910
 2922SOL     hw11687   4.964   4.928   1.098 -0.6117 -0.2378 -1.2509
 2922SOL     vw11688   5.042   4.904   1.065 -0.5362 -0.4106 -0.9469
 2923SOL     ow11689   5.623   2.228   3.495  0.0443  0.4811 -0.9842
 2923SOL     hw11690   5.549   2.260   3.444  0.0043 -0.2815 -1.4226
 2923SOL     hw11691   5.650   2.147   3.450  0.1906 -0.0490  0.0367
 2923SOL     vw11692   5.617   2.222   3.482  0.0584  0.3104 -0.9074
 2924SOL     ow11693   3.751   0.942   3.033  0.5480  0.6095 -0.2342
 2924SOL     hw11694   3.811   0.965   3.104 -0.1795 -0.3186  0.7244
 2924SOL     hw11695   3.664   0.967   3.066 -0.3794 -3.4976  1.0998
 2924SOL     vw11696   3.747   0.948   3.047  0.3297 -0.0548  0.0683
 2925SOL     ow11697   5.664   7.549   6.988  0.3153  0.1227 -0.4716
 2925SOL     hw11698   5.685   7.463   7.024 -0.9644 -0.7662 -1.7103
 2925SOL     hw11699   5.697   7.611   7.052  2.0792 -1.2578  0.0282
 2925SOL     vw11700   5.671   7.546   7.001  0.3793 -0.1769 -0.5691
 2926SOL     ow11701   6.638   3.646   7.002 -0.3089 -0.0114  0.0421
 2926SOL     hw11702   6.661   3.606   7.085 -1.5809 -0.2668  0.2960
 2926SOL     hw11703   6.553   3.687   7.017  0.3465  1.6802 -0.5847
 2926SOL     vw11704   6.630   3.646   7.015 -0.3903  0.1780 -0.0069
 2927SOL     ow11705   0.924   1.782   1.096 -0.5379  0.1365  0.0585
 2927SOL     hw11706   0.920   1.872   1.063 -1.7878  0.6977  1.6539
 2927SOL     hw11707   0.907   1.789   1.190  0.9102 -1.6200  0.5198
 2927SOL     vw11708   0.921   1.795   1.104 -0.5117 -0.0212  0.3299
 2928SOL     ow11709   0.995   4.367   4.305  0.4999  0.1079  1.0201
 2928SOL     hw11710   1.045   4.288   4.325 -0.0579 -0.4165  0.4080
 2928SOL     hw11711   1.058   4.439   4.314  1.3288 -0.5160  0.4160
 2928SOL     vw11712   1.010   4.366   4.309  0.5357 -0.0436  0.8597
 2929SOL     ow11713   2.931   3.376   4.412  0.0590  0.0799  0.0341
 2929SOL     hw11714   2.930   3.404   4.320 -0.6544  1.3265  0.4030
 2929SOL     hw11715   2.987   3.298   4.412  1.7590  1.2255 -1.1236
 2929SOL     vw11716   2.938   3.370   4.400  0.1891  0.3955 -0.0701
 2930SOL     ow11717   1.454   0.919   1.331 -0.1624 -0.2059 -0.1853
 2930SOL     hw11718   1.473   0.829   1.358  0.3971  0.1802  0.7392
 2930SOL     hw11719   1.514   0.935   1.258  0.2984 -0.3135  0.1697
 2930SOL     vw11720   1.464   0.909   1.325 -0.0278 -0.1692 -0.0165
 2931SOL     ow11721   6.969   7.450   3.291  0.0898  0.2788 -0.1265
 2931SOL     hw11722   7.002   7.437   3.380  1.1347 -0.9010 -0.6513
 2931SOL     hw11723   6.876   7.468   3.302  0.1096 -0.2998  1.1886
 2931SOL     vw11724   6.961   7.450   3.304  0.2303  0.0467 -0.0222
 2932SOL     ow11725   2.039   2.100   5.100 -0.3061  0.4879  0.0878
 2932SOL     hw11726   1.949   2.132   5.102 -0.8083 -0.7408 -1.2029
 2932SOL     hw11727   2.068   2.114   5.010  0.2851 -0.4278  0.1187
 2932SOL     vw11728   2.031   2.106   5.089 -0.2944  0.2048 -0.0784
 2933SOL     ow11729   3.549   4.635   2.457 -0.3231 -0.4222  0.0628
 2933SOL     hw11730   3.538   4.610   2.548 -0.9289 -1.8937 -0.3781
 2933SOL     hw11731   3.633   4.597   2.431  0.8779  1.7385  0.5197
 2933SOL     vw11732   3.559   4.627   2.465 -0.2446 -0.3312  0.0648
 2934SOL     ow11733   6.520   2.700   6.213 -0.4943  0.4642 -0.0089
 2934SOL     hw11734   6.556   2.657   6.291  0.7246 -0.1249 -0.8634
 2934SOL     hw11735   6.561   2.787   6.213  1.0805 -0.2367 -1.0276
 2934SOL     vw11736   6.530   2.706   6.223 -0.1259  0.2941 -0.2563
 2935SOL     ow11737   1.247   0.351   0.681 -0.2039  0.5380 -0.0020
 2935SOL     hw11738   1.191   0.428   0.684  0.0610  0.7263  2.1713
 2935SOL     hw11739   1.202   0.286   0.735  0.1351 -0.4329 -0.8532
 2935SOL     vw11740   1.234   0.352   0.689 -0.1242  0.4347  0.1724
 2936SOL     ow11741   3.207   5.974   0.227  0.5242  0.3623  0.3418
 2936SOL     hw11742   3.261   6.054   0.225 -0.3031  0.9261 -0.1735
 2936SOL     hw11743   3.248   5.915   0.164  1.5127  0.1275  1.1923
 2936SOL     vw11744   3.219   5.977   0.219  0.5454  0.4058  0.3860
 2937SOL     ow11745   2.188   0.837   1.858  0.9405  0.0170 -0.4923
 2937SOL     hw11746   2.160   0.921   1.820  1.0778 -0.4246 -1.6148
 2937SOL     hw11747   2.282   0.848   1.872  0.9416  0.0921 -0.5555
 2937SOL     vw11748   2.197   0.850   1.854  0.9587 -0.0314 -0.6488
 2938SOL     ow11749   1.982   2.705   0.831 -0.1574  0.2211  0.4003
 2938SOL     hw11750   2.020   2.629   0.875 -1.3292 -0.9116 -0.4623
 2938SOL     hw11751   2.051   2.735   0.772  0.0598 -0.6845  0.1716
 2938SOL     vw11752   1.996   2.699   0.829 -0.2834 -0.0478  0.2564
 2939SOL     ow11753   4.691   7.279   2.267  0.6105  0.5774 -0.6193
 2939SOL     hw11754   4.648   7.352   2.312 -0.1793 -1.1301  1.5492
 2939SOL     hw11755   4.728   7.319   2.188 -2.0152  2.8243 -0.8823
 2939SOL     vw11756   4.690   7.294   2.262  0.1597  0.6487 -0.3679
 2940SOL     ow11757   4.347   6.960   1.043  0.1212 -0.3271  0.4225
 2940SOL     hw11758   4.409   7.032   1.041 -2.6074  2.1937  0.2077
 2940SOL     hw11759   4.362   6.917   1.128  2.5054 -0.2498  0.0953
 2940SOL     vw11760   4.357   6.964   1.054  0.0758  0.0157  0.3511
 2941SOL     ow11761   3.178   6.154   6.886 -0.6204 -0.4982 -0.3287
 2941SOL     hw11762   3.201   6.242   6.916  1.0044 -0.3441 -1.8076
 2941SOL     hw11763   3.084   6.148   6.897 -0.8030  1.5462 -0.4775
 2941SOL     vw11764   3.169   6.165   6.891 -0.4300 -0.2084 -0.5434
 2942SOL     ow11765   3.997   1.821   7.474 -0.3843  0.5914  0.9828
 2942SOL     hw11766   4.057   1.766   7.424 -0.2293  1.1004  0.5987
 2942SOL     hw11767   4.055   1.874   7.529 -0.4168  1.6829  0.0019
 2942SOL     vw11768   4.013   1.821   7.475 -0.3681  0.8026  0.8030
 2943SOL     ow11769   1.769   2.085   5.112  0.7846 -0.7164 -0.2251
 2943SOL     hw11770   1.733   2.170   5.138  0.0522 -1.4216  1.2124
 2943SOL     hw11771   1.746   2.076   5.020  0.9555  0.6710 -0.4320
 2943SOL     vw11772   1.761   2.095   5.104  0.7105 -0.6263 -0.0625
 2944SOL     ow11773   2.498   0.046   1.107 -0.1681 -0.0035 -0.3358
 2944SOL     hw11774   2.473  -0.033   1.155  2.3711 -2.0018 -2.0481
 2944SOL     hw11775   2.511   0.112   1.175 -1.1435 -1.3781  1.2691
 2944SOL     vw11776   2.496   0.045   1.122  0.0384 -0.4482 -0.3500
 2945SOL     ow11777   1.053   1.426   0.873 -0.1308  0.0021  0.4298
 2945SOL     hw11778   1.111   1.350   0.878  0.2345  0.3057  0.9353
 2945SOL     hw11779   0.986   1.401   0.809  2.3332  0.7939 -2.7801
 2945SOL     vw11780   1.052   1.413   0.865  0.2425  0.1466  0.0730
 2946SOL     ow11781   4.752   5.687   0.844  0.3018  0.7546  0.0626
 2946SOL     hw11782   4.835   5.693   0.796 -0.0261  2.3751 -0.3868
 2946SOL     hw11783   4.758   5.755   0.911  0.2062 -0.5968  1.4853
 2946SOL     vw11784   4.764   5.697   0.847  0.2460  0.7901  0.1911
 2947SOL     ow11785   5.347   5.273   2.895 -0.2140 -0.4778  0.4585
 2947SOL     hw11786   5.363   5.249   2.986 -0.8139  2.2193  1.3856
 2947SOL     hw11787   5.252   5.281   2.888 -0.1082  0.7792  0.0693
 2947SOL     vw11788   5.336   5.271   2.906 -0.2789  0.0439  0.5294
 2948SOL     ow11789   7.138   2.166   2.635  0.1413 -0.0083  0.3950
 2948SOL     hw11790   7.192   2.120   2.698 -1.2857 -1.8898  0.3199
 2948SOL     hw11791   7.065   2.107   2.617 -2.3446  2.6215  0.9911
 2948SOL     vw11792   7.135   2.152   2.641 -0.3748  0.0906  0.4637
 2949SOL     ow11793   2.796   3.431   1.146 -0.6192 -0.2419 -0.8409
 2949SOL     hw11794   2.850   3.422   1.225 -0.4969 -2.1033 -1.0853
 2949SOL     hw11795   2.830   3.510   1.103  0.4703 -0.1638  0.0974
 2949SOL     vw11796   2.808   3.440   1.151 -0.4592 -0.4773 -0.7493
 2950SOL     ow11797   6.016   0.538   2.758 -0.3501  0.4888  0.9434
 2950SOL     hw11798   5.951   0.594   2.801 -0.9714 -0.5778  1.4025
 2950SOL     hw11799   5.970   0.457   2.739  0.1782  0.5728 -0.9042
 2950SOL     vw11800   6.001   0.535   2.761 -0.3622  0.3591  0.7602
 2951SOL     ow11801   7.273   3.341   0.608 -0.1672 -0.8318  0.6286
 2951SOL     hw11802   7.261   3.256   0.651 -0.4028  0.0208  2.3335
 2951SOL     hw11803   7.320   3.394   0.673 -2.5591  1.2392  0.8114
 2951SOL     vw11804   7.278   3.337   0.622 -0.5140 -0.4461  0.8776
 2952SOL     ow11805   0.592   0.679   5.553 -0.0729 -0.1874 -0.4174
 2952SOL     hw11806   0.497   0.673   5.555 -0.2048  1.0134  3.1604
 2952SOL     hw11807   0.621   0.636   5.634  2.6335 -2.0864 -2.1966
 2952SOL     vw11808   0.583   0.672   5.564  0.2668 -0.2795 -0.1800
 2953SOL     ow11809   7.018   4.448   3.496  0.1910 -0.3417 -0.0489
 2953SOL     hw11810   6.941   4.395   3.475 -0.2508  0.0469  0.5513
 2953SOL     hw11811   6.989   4.539   3.484  1.4779 -0.2035 -2.9213
 2953SOL     vw11812   7.004   4.453   3.492  0.3023 -0.2723 -0.3488
 2954SOL     ow11813   2.314   2.029   2.110 -0.4241 -0.3748  0.1102
 2954SOL     hw11814   2.258   2.046   2.034  2.3261 -0.9286 -2.1848
 2954SOL     hw11815   2.253   2.019   2.183 -3.1836  0.6079 -1.9076
 2954SOL     vw11816   2.299   2.030   2.109 -0.4253 -0.3182 -0.4587
 2955SOL     ow11817   4.177   6.977   3.697 -0.2591 -0.4614 -0.1697
 2955SOL     hw11818   4.191   6.932   3.613 -1.2615  0.7147 -1.0037
 2955SOL     hw11819   4.158   7.068   3.672 -0.8454 -0.1521  1.3228
 2955SOL     vw11820   4.176   6.983   3.682 -0.4687 -0.2654 -0.0829
 2956SOL     ow11821   3.734   2.713   4.457  0.4489 -0.1533 -0.1552
 2956SOL     hw11822   3.786   2.793   4.453  0.7808 -0.3977 -2.5480
 2956SOL     hw11823   3.668   2.731   4.524  0.7397  1.9829 -0.3500
 2956SOL     vw11824   3.732   2.726   4.465  0.5310  0.0962 -0.4966
 2957SOL     ow11825   5.665   7.386   3.109 -0.6339 -0.2390 -0.1297
 2957SOL     hw11826   5.617   7.423   3.183 -0.4395  0.4369 -0.3323
 2957SOL     hw11827   5.611   7.406   3.033  0.6564  1.9273 -0.5663
 2957SOL     vw11828   5.651   7.394   3.109 -0.4382  0.1361 -0.2141
 2958SOL     ow11829   3.189   6.600   6.903  0.2185 -0.5150 -0.0098
 2958SOL     hw11830   3.215   6.617   6.812 -0.6563  2.5167  0.2126
 2958SOL     hw11831   3.261   6.549   6.939  2.0257  0.8005 -1.5853
 2958SOL     vw11832   3.202   6.596   6.896  0.3415  0.0587 -0.1884
 2959SOL     ow11833   4.678   5.114   4.158  0.3798 -0.0371  0.1708
 2959SOL     hw11834   4.609   5.117   4.092 -1.2814 -2.0903  1.6976
 2959SOL     hw11835   4.635   5.136   4.240  1.6001 -0.9693  1.1009
 2959SOL     vw11836   4.664   5.117   4.160  0.3216 -0.4311  0.4950
 2960SOL     ow11837   6.681   5.112   1.212  0.2168  0.0023  0.4784
 2960SOL     hw11838   6.723   5.030   1.189  1.1306  0.5584  0.0943
 2960SOL     hw11839   6.588   5.091   1.221  0.1812 -0.7351 -1.3195
 2960SOL     vw11840   6.674   5.099   1.210  0.3326 -0.0215  0.1905
 2961SOL     ow11841   1.740   5.491   3.356  0.1743  0.3964  1.0074
 2961SOL     hw11842   1.768   5.423   3.418  0.7286 -0.0496  0.2897
 2961SOL     hw11843   1.644   5.483   3.354  0.1917  0.0320  1.3802
 2961SOL     vw11844   1.731   5.481   3.364  0.2497  0.2892  0.9619
 2962SOL     ow11845   0.835   7.277   0.467 -0.6607  0.6493  0.2356
 2962SOL     hw11846   0.779   7.291   0.391 -1.3808  0.4958  0.7351
 2962SOL     hw11847   0.789   7.212   0.519  0.5627 -0.3768  0.0737
 2962SOL     vw11848   0.822   7.271   0.464 -0.5943  0.4935  0.2802
 2963SOL     ow11849   5.832   5.380   2.846 -0.0105 -0.2238 -0.4147
 2963SOL     hw11850   5.903   5.343   2.898  0.2122  0.1409 -0.4544
 2963SOL     hw11851   5.774   5.420   2.911  1.2706  1.9710 -0.5351
 2963SOL     vw11852   5.833   5.380   2.861  0.1879  0.1140 -0.4359
 2964SOL     ow11853   3.329   0.376   7.434  0.1598 -0.1227  0.3607
 2964SOL     hw11854   3.283   0.296   7.460  0.6383 -0.6914 -0.4888
 2964SOL     hw11855   3.349   0.421   7.516  0.1313 -1.0167  0.8659
 2964SOL     vw11856   3.326   0.371   7.448  0.2191 -0.3156  0.3150
 2965SOL     ow11857   5.948   0.764   3.943 -0.0158  0.0882  0.4504
 2965SOL     hw11858   5.909   0.701   4.003  0.4406  0.4500  1.1327
 2965SOL     hw11859   5.982   0.710   3.871 -0.7140 -0.3303  0.4249
 2965SOL     vw11860   5.947   0.749   3.941 -0.0479  0.0807  0.5370
 2966SOL     ow11861   1.726   4.433   6.508  0.3785  0.2447  0.2089
 2966SOL     hw11862   1.681   4.380   6.442  1.0520 -0.2612  0.1412
 2966SOL     hw11863   1.808   4.459   6.465  0.3177  0.8474  0.4542
 2966SOL     vw11864   1.731   4.429   6.493  0.4593  0.2577  0.2325
 2967SOL     ow11865   3.673   1.186   2.530 -0.1697  0.5208  0.5458
 2967SOL     hw11866   3.672   1.258   2.467 -0.1933 -0.2615 -0.3566
 2967SOL     hw11867   3.601   1.129   2.503  1.1723 -0.9538 -0.0635
 2967SOL     vw11868   3.663   1.188   2.518  0.0041  0.2230  0.3464
 2968SOL     ow11869   5.517   2.620   0.251 -0.2315  0.2121 -0.4206
 2968SOL     hw11870   5.571   2.544   0.228 -1.0647 -0.6638  0.4057
 2968SOL     hw11871   5.578   2.680   0.295 -0.0142 -1.0579  1.1087
 2968SOL     vw11872   5.532   2.618   0.254 -0.3128 -0.0709 -0.1098
 2969SOL     ow11873   3.631   0.997   0.653 -0.2932  0.3424 -0.1135
 2969SOL     hw11874   3.643   0.959   0.566  2.0143 -0.6374  0.5551
 2969SOL     hw11875   3.611   0.922   0.709  0.1282  0.6933  0.5130
 2969SOL     vw11876   3.630   0.982   0.649  0.0668  0.2594  0.0574
 2970SOL     ow11877   1.960   2.920   0.989  0.1228 -0.0220  0.1233
 2970SOL     hw11878   1.925   2.987   0.930  1.5673  0.6511 -0.0030
 2970SOL     hw11879   1.968   2.842   0.933  1.4168  0.5915 -0.5980
 2970SOL     vw11880   1.956   2.919   0.974  0.4840  0.1478  0.0114
 2971SOL     ow11881   6.229   0.005   2.296  0.1316  0.1231 -0.3150
 2971SOL     hw11882   6.251   0.075   2.235 -0.1380 -1.5931 -2.4909
 2971SOL     hw11883   6.310  -0.046   2.305 -0.0952 -0.1944 -0.0078
 2971SOL     vw11884   6.243   0.007   2.289  0.0660 -0.1452 -0.5615
 2972SOL     ow11885   0.407   6.071   2.759 -0.3691 -0.2366 -0.0429
 2972SOL     hw11886   0.337   6.133   2.780  0.1238  0.6828 -1.0200
 2972SOL     hw11887   0.471   6.082   2.830  0.1115  1.0248 -0.6356
 2972SOL     vw11888   0.406   6.080   2.771 -0.2407  0.0510 -0.2500
 2973SOL     ow11889   6.884   0.837   2.204 -0.6464 -0.4796 -0.5127
 2973SOL     hw11890   6.835   0.919   2.197  0.6702  0.4727  0.8337
 2973SOL     hw11891   6.972   0.859   2.171 -0.3495 -1.4288 -0.3833
 2973SOL     vw11892   6.890   0.851   2.199 -0.4334 -0.4792 -0.3182
 2974SOL     ow11893   3.022   4.460   4.418  0.0257 -0.0732  0.1777
 2974SOL     hw11894   3.017   4.518   4.494  1.4870 -0.0787  0.3005
 2974SOL     hw11895   3.005   4.517   4.343  0.9894  0.4433  0.3346
 2974SOL     vw11896   3.019   4.475   4.418  0.3457 -0.0057  0.2148
 2975SOL     ow11897   4.665   4.644   5.757 -0.4229  0.3495  0.1153
 2975SOL     hw11898   4.751   4.686   5.755 -0.4412  0.5391  1.6292
 2975SOL     hw11899   4.603   4.717   5.766 -0.5025  0.1182  2.0074
 2975SOL     vw11900   4.668   4.659   5.758 -0.4361  0.3440  0.5643
 2976SOL     ow11901   6.515   2.675   5.315  0.0692  0.1573  0.1990
 2976SOL     hw11902   6.563   2.742   5.266  1.8591 -0.5378  0.9000
 2976SOL     hw11903   6.547   2.592   5.279 -0.5493 -0.3313  0.7619
 2976SOL     vw11904   6.526   2.673   5.304  0.2234  0.0010  0.3657
 2977SOL     ow11905   6.293   2.445   0.730 -0.6011 -0.2062 -0.0216
 2977SOL     hw11906   6.269   2.384   0.800  1.8043 -0.8991  0.3076
 2977SOL     hw11907   6.354   2.395   0.676 -0.4988  1.1365 -1.1889
 2977SOL     vw11908   6.298   2.430   0.732 -0.2704 -0.1205 -0.1321
 2978SOL     ow11909   7.007   0.257   7.372 -0.2828 -0.4994  0.2655
 2978SOL     hw11910   7.089   0.278   7.327 -0.5268  0.1867  0.1379
 2978SOL     hw11911   7.033   0.201   7.445  0.3175 -0.1680  0.3074
 2978SOL     vw11912   7.021   0.252   7.376 -0.2358 -0.3651  0.2542
 2979SOL     ow11913   4.249   4.171   5.278  0.0140 -0.0591  0.1727
 2979SOL     hw11914   4.173   4.130   5.237 -1.5667  1.6432  1.2063
 2979SOL     hw11915   4.227   4.264   5.280  3.0818  0.8238 -1.3911
 2979SOL     vw11916   4.236   4.178   5.273  0.2100  0.2818  0.1028
 2980SOL     ow11917   5.000   7.452   7.154 -0.4583  0.0485 -0.2235
 2980SOL     hw11918   4.952   7.466   7.073 -0.2706  2.1319 -0.0134
 2980SOL     hw11919   5.089   7.430   7.125 -0.9216 -1.4575 -0.5763
 2980SOL     vw11920   5.006   7.451   7.140 -0.4947  0.1247 -0.2422
 2981SOL     ow11921   6.113   6.980   1.765  0.2409 -0.1048  0.0887
 2981SOL     hw11922   6.079   6.915   1.703 -0.9098  1.0989 -0.5775
 2981SOL     hw11923   6.055   7.055   1.756  1.4067  0.9528  1.0113
 2981SOL     vw11924   6.101   6.981   1.756  0.2432  0.1936  0.1224
 2982SOL     ow11925   1.134   2.357   1.168 -0.2706  0.2210 -0.2038
 2982SOL     hw11926   1.114   2.416   1.095 -1.6616  2.6299  1.9726
 2982SOL     hw11927   1.053   2.353   1.219  0.2868 -2.3411  0.6531
 2982SOL     vw11928   1.121   2.364   1.165 -0.3805  0.2006  0.1964
 2983SOL     ow11929   2.422   5.266   2.551 -0.1706  0.1150 -0.2932
 2983SOL     hw11930   2.430   5.239   2.642  0.9620  2.3864  0.3679
 2983SOL     hw11931   2.389   5.356   2.555  0.8700  0.6322 -2.0438
 2983SOL     vw11932   2.419   5.275   2.563  0.1161  0.4828 -0.4370
 2984SOL     ow11933   6.241   0.379   4.281  0.6591  0.0344  0.0501
 2984SOL     hw11934   6.332   0.350   4.283  0.2461 -1.3100  2.4151
 2984SOL     hw11935   6.190   0.299   4.294 -0.8269  0.9255 -0.0756
 2984SOL     vw11936   6.246   0.365   4.283  0.4086 -0.0254  0.3455
 2985SOL     ow11937   5.249   5.346   0.581 -0.4527 -0.0620  0.5019
 2985SOL     hw11938   5.193   5.416   0.547 -1.5620  0.2986  2.8239
 2985SOL     hw11939   5.193   5.299   0.644  0.9394 -1.6575  0.6099
 2985SOL     vw11940   5.234   5.349   0.585 -0.4153 -0.2248  0.8225
 2986SOL     ow11941   2.054   1.102   4.093  0.2497  0.2062 -1.0032
 2986SOL     hw11942   2.121   1.040   4.122  2.6491  2.0389 -2.3495
 2986SOL     hw11943   1.972   1.054   4.105  1.4225 -1.2536  3.1627
 2986SOL     vw11944   2.052   1.087   4.099  0.7211  0.2554 -0.6311
 2987SOL     ow11945   4.917   4.623   7.254  0.1393 -0.1654  0.0228
 2987SOL     hw11946   4.931   4.553   7.318  1.2890 -0.8025 -0.8811
 2987SOL     hw11947   4.928   4.704   7.303 -1.0080 -0.6032  1.0461
 2987SOL     vw11948   4.920   4.624   7.269  0.1395 -0.3073  0.0386
 2988SOL     ow11949   1.027   3.647   0.665 -0.7117  0.0952  0.3844
 2988SOL     hw11950   1.118   3.678   0.663 -0.6830 -0.0354 -0.3647
 2988SOL     hw11951   0.983   3.698   0.598 -1.1938  0.1429  0.7328
 2988SOL     vw11952   1.033   3.658   0.656 -0.7715  0.0844  0.3316
 2989SOL     ow11953   3.035   7.409   6.812 -0.1269 -0.7878  0.3415
 2989SOL     hw11954   3.063   7.499   6.792 -2.6986 -0.1167 -0.7659
 2989SOL     hw11955   3.068   7.357   6.738 -1.1925 -0.1325 -0.6381
 2989SOL     vw11956   3.043   7.414   6.799 -0.6068 -0.6130  0.0663
 2990SOL     ow11957   4.885   7.404   3.771 -0.0861  0.0894  0.5462
 2990SOL     hw11958   4.816   7.411   3.704 -1.9915 -0.1407  2.3847
 2990SOL     hw11959   4.874   7.482   3.825  0.5173 -0.3853  1.3792
 2990SOL     vw11960   4.874   7.415   3.769 -0.2577 -0.0036  0.8987
 2991SOL     ow11961   5.551   2.488   2.567 -0.4602  0.2592 -0.3652
 2991SOL     hw11962   5.555   2.498   2.662 -1.1819 -3.5977  0.2317
 2991SOL     hw11963   5.459   2.499   2.544 -0.3244  0.9540 -0.5901
 2991SOL     vw11964   5.539   2.490   2.576 -0.5376 -0.1581 -0.3161
 2992SOL     ow11965   5.042   4.733   1.767 -0.3402  0.3247 -0.1106
 2992SOL     hw11966   5.014   4.642   1.754 -0.0269  0.4691 -2.1406
 2992SOL     hw11967   4.967   4.785   1.739  0.2353  0.6879 -0.9973
 2992SOL     vw11968   5.029   4.728   1.762 -0.2227  0.3917 -0.4954
 2993SOL     ow11969   3.716   0.623   4.262  0.2292  0.1524 -0.1489
 2993SOL     hw11970   3.639   0.583   4.222  0.0636 -0.9037  1.1675
 2993SOL     hw11971   3.728   0.576   4.344  2.3322  0.2568 -0.3396
 2993SOL     vw11972   3.707   0.612   4.267  0.4848  0.0269 -0.0005
 2994SOL     ow11973   3.782   2.452   0.848  0.4033  0.6785 -0.0093
 2994SOL     hw11974   3.848   2.395   0.888  0.4501  1.6834  1.4469
 2994SOL     hw11975   3.806   2.540   0.877 -0.4779  1.2814 -1.0408
 2994SOL     vw11976   3.794   2.456   0.857  0.2933  0.8905  0.0467
 2995SOL     ow11977   1.099   1.216   3.180 -0.6672 -0.2800 -0.3259
 2995SOL     hw11978   1.181   1.166   3.187 -0.2649  0.5945  2.9100
 2995SOL     hw11979   1.033   1.151   3.156  0.9849 -0.8718 -3.8570
 2995SOL     vw11980   1.101   1.200   3.178 -0.3961 -0.2427 -0.3648
 2996SOL     ow11981   4.286   1.090   3.932 -0.6802 -0.3729  0.2401
 2996SOL     hw11982   4.319   1.154   3.995 -0.9766  0.7406 -0.7035
 2996SOL     hw11983   4.192   1.085   3.950 -0.7937  0.0696 -0.2013
 2996SOL     vw11984   4.278   1.098   3.943 -0.7343 -0.1677  0.0573
 2997SOL     ow11985   5.341   7.024   3.455 -0.2716 -0.8872 -0.3951
 2997SOL     hw11986   5.417   6.966   3.450 -0.3385 -0.9471 -0.7529
 2997SOL     hw11987   5.351   7.084   3.381  1.1294  1.2122  1.3708
 2997SOL     vw11988   5.352   7.024   3.445 -0.0954 -0.6182 -0.2093
 2998SOL     ow11989   5.618   2.511   3.558  0.1652 -0.4673 -0.4709
 2998SOL     hw11990   5.677   2.584   3.540 -2.6796  1.6732 -1.8497
 2998SOL     hw11991   5.568   2.539   3.635  0.1416 -1.7560  0.0133
 2998SOL     vw11992   5.619   2.524   3.566 -0.2131 -0.3548 -0.5889
 2999SOL     ow11993   6.804   6.250   0.298  0.0270 -0.0094 -0.1642
 2999SOL     hw11994   6.763   6.327   0.258 -0.3490 -0.3650 -0.4689
 2999SOL     hw11995   6.816   6.189   0.225 -2.0790 -1.3026  0.4920
 2999SOL     vw11996   6.800   6.252   0.283 -0.3004 -0.2267 -0.1179
 3000SOL     ow11997   0.783   2.410   4.672 -0.3846  0.5873  0.1438
 3000SOL     hw11998   0.737   2.441   4.594 -1.0380  0.8244  0.6085
 3000SOL     hw11999   0.871   2.388   4.642 -1.2277 -1.3351 -1.1036
 3000SOL     vw12000   0.788   2.411   4.658 -0.5821  0.3649  0.0403
 3001SOL     ow12001   1.924   5.331   6.957 -0.1871  0.1908  0.1659
 3001SOL     hw12002   1.963   5.244   6.944 -0.6115  0.1721 -1.0882
 3001SOL     hw12003   1.853   5.315   7.020  1.8626  0.2711  2.6749
 3001SOL     vw12004   1.920   5.317   6.963  0.0273  0.1991  0.3316
 3002SOL     ow12005   0.422   2.780   6.837 -0.6289 -0.6665  0.2867
 3002SOL     hw12006   0.429   2.695   6.880 -0.9478 -0.8621 -0.0380
 3002SOL     hw12007   0.511   2.816   6.838 -0.7089 -0.4589  1.5086
 3002SOL     vw12008   0.434   2.774   6.842 -0.6815 -0.6649  0.4048
 3003SOL     ow12009   4.672   1.062   3.110 -1.0409  0.2354  0.4128
 3003SOL     hw12010   4.641   1.001   3.177 -0.2734  1.7625  2.2399
 3003SOL     hw12011   4.765   1.075   3.130 -0.8175  0.7994 -0.9041
 3003SOL     vw12012   4.680   1.056   3.122 -0.9100  0.5112  0.4802
 3004SOL     ow12013   6.582   2.391   6.045 -0.1229 -0.5242 -0.0412
 3004SOL     hw12014   6.557   2.482   6.029  1.4009  0.0382  0.5738
 3004SOL     hw12015   6.651   2.372   5.981  0.0685 -1.0005  0.2924
 3004SOL     vw12016   6.588   2.400   6.035  0.1032 -0.5128  0.0837
 3005SOL     ow12017   4.249   6.687   4.361  1.0479 -0.0865  0.2140
 3005SOL     hw12018   4.193   6.765   4.360 -1.2387 -1.6336 -0.1263
 3005SOL     hw12019   4.224   6.640   4.441  2.0691 -0.7212  0.1864
 3005SOL     vw12020   4.238   6.691   4.371  0.8810 -0.3743  0.1657
 3006SOL     ow12021   6.685   6.239   6.976 -0.1364  0.5587  0.2683
 3006SOL     hw12022   6.710   6.170   7.037  1.5754  1.0414  0.1715
 3006SOL     hw12023   6.695   6.320   7.026 -1.0214  0.8200  0.0429
 3006SOL     vw12024   6.689   6.241   6.990 -0.0269  0.6571  0.2260
 3007SOL     ow12025   4.881   4.707   0.820 -0.5429  0.0941 -0.2301
 3007SOL     hw12026   4.870   4.802   0.819 -2.4645 -0.0926  0.1443
 3007SOL     hw12027   4.900   4.684   0.729  0.2773  0.8496 -0.2637
 3007SOL     vw12028   4.882   4.717   0.808 -0.6883  0.1690 -0.1852
 3008SOL     ow12029   7.483   0.968   5.660  0.6949  0.2143  0.5348
 3008SOL     hw12030   7.497   1.053   5.618  0.2286  0.4489  0.8512
 3008SOL     hw12031   7.521   0.905   5.599  0.6571  0.6123  0.0942
 3008SOL     vw12032   7.490   0.971   5.647  0.6282  0.2978  0.5183
 3009SOL     ow12033   3.451   7.493   6.454 -0.1689 -0.2777  0.3189
 3009SOL     hw12034   3.404   7.557   6.507  0.3050  0.4900 -0.1772
 3009SOL     hw12035   3.466   7.537   6.371 -0.9977 -1.5114 -0.5065
 3009SOL     vw12036   3.447   7.507   6.450 -0.2158 -0.3393  0.1442
 3010SOL     ow12037   7.185   3.455   0.391  1.3439 -0.4380  0.4961
 3010SOL     hw12038   7.152   3.539   0.423  2.1581 -0.1198  0.5226
 3010SOL     hw12039   7.213   3.408   0.470  0.5639 -0.8923  0.5172
 3010SOL     vw12040   7.185   3.460   0.406  1.3485 -0.4559  0.5024
 3011SOL     ow12041   7.088   5.552   3.101  0.7013  0.3034  0.0456
 3011SOL     hw12042   7.159   5.514   3.152  0.8835  2.4627  1.5134
 3011SOL     hw12043   7.011   5.543   3.158  0.1737 -0.3128 -0.7451
 3011SOL     vw12044   7.087   5.546   3.116  0.6559  0.5066  0.1349
 3012SOL     ow12045   1.229   2.918   6.271  0.0113 -0.2086 -0.3608
 3012SOL     hw12046   1.188   2.846   6.320  0.4477 -0.6068 -0.5757
 3012SOL     hw12047   1.300   2.948   6.328  0.1620 -0.2996 -0.4995
 3012SOL     vw12048   1.233   2.912   6.285  0.0888 -0.2732 -0.4075
 3013SOL     ow12049   6.990   0.814   7.296  0.5432  0.1936 -0.1732
 3013SOL     hw12050   7.082   0.811   7.271  0.4661  0.0710 -0.4570
 3013SOL     hw12051   6.954   0.888   7.247  0.5485  0.4055  0.1425
 3013SOL     vw12052   6.997   0.823   7.286  0.5336  0.2053 -0.1688
 3014SOL     ow12053   3.439   0.828   2.057 -0.2461  0.0366  0.0537
 3014SOL     hw12054   3.400   0.853   1.973 -0.0391  0.7549  0.1704
 3014SOL     hw12055   3.533   0.842   2.045 -0.3217  1.2583  0.7805
 3014SOL     vw12056   3.446   0.833   2.045 -0.2289  0.2926  0.1650
 3015SOL     ow12057   3.205   2.902   6.780  0.0218 -0.0478 -0.0597
 3015SOL     hw12058   3.123   2.947   6.803  0.3512  1.1736 -1.1744
 3015SOL     hw12059   3.179   2.811   6.767 -1.0027  0.1490  0.4687
 3015SOL     vw12060   3.191   2.896   6.782 -0.0699  0.1392 -0.1371
 3016SOL     ow12061   7.445   4.435   1.880  0.0077  0.3040 -0.0837
 3016SOL     hw12062   7.450   4.443   1.785  1.1724 -0.7310 -0.1428
 3016SOL     hw12063   7.521   4.382   1.903 -0.5007  0.1700  1.3858
 3016SOL     vw12064   7.456   4.429   1.871  0.0944  0.1500  0.1024
 3017SOL     ow12065   7.007   4.525   1.771  0.4304 -0.0399  0.0310
 3017SOL     hw12066   6.951   4.562   1.840 -0.7827 -0.5411 -0.6414
 3017SOL     hw12067   7.095   4.529   1.807  0.0307  1.2130  0.9497
 3017SOL     vw12068   7.011   4.530   1.785  0.2174  0.0594  0.0635
 3018SOL     ow12069   3.987   7.400   1.088  0.1882  0.1780 -0.5774
 3018SOL     hw12070   3.959   7.492   1.085  1.7799  0.6846 -0.7396
 3018SOL     hw12071   3.917   7.353   1.042 -1.5565  1.0286  1.0512
 3018SOL     vw12072   3.974   7.406   1.081  0.1680  0.3572 -0.3840
 3019SOL     ow12073   5.944   0.781   3.355  0.2382 -0.5105  0.2586
 3019SOL     hw12074   5.948   0.716   3.285 -0.7837  1.6758 -1.9587
 3019SOL     hw12075   5.883   0.743   3.419  1.1930 -2.5623  0.0511
 3019SOL     vw12076   5.936   0.767   3.354  0.2291 -0.4928 -0.0614
 3020SOL     ow12077   4.918   7.520   4.424  0.3179 -0.2511  0.0077
 3020SOL     hw12078   4.907   7.425   4.438  4.3053 -0.7365  1.2063
 3020SOL     hw12079   4.913   7.531   4.330 -0.8901 -1.5272 -0.1117
 3020SOL     vw12080   4.916   7.509   4.414  0.6847 -0.4835  0.1504
 3021SOL     ow12081   1.285   1.727   2.434 -0.2712  0.1382 -0.5896
 3021SOL     hw12082   1.271   1.632   2.428 -0.2356 -0.0041  1.0456
 3021SOL     hw12083   1.197   1.764   2.427 -0.4925 -0.1475  0.5595
 3021SOL     vw12084   1.271   1.719   2.432 -0.2956  0.0817 -0.2222
 3022SOL     ow12085   2.663   1.254   2.918  0.3031  0.6022 -0.3363
 3022SOL     hw12086   2.707   1.317   2.975  2.4786  0.4612 -1.7570
 3022SOL     hw12087   2.572   1.283   2.917  0.3647  1.1682  2.3864
 3022SOL     vw12088   2.657   1.266   2.926  0.5981  0.6583 -0.1644
 3023SOL     ow12089   3.902   6.051   4.576 -0.8292  0.0596  0.0017
 3023SOL     hw12090   3.874   6.002   4.498  2.0996 -1.8567  0.0016
 3023SOL     hw12091   3.873   5.997   4.650  2.9365 -2.3370 -0.0019
 3023SOL     vw12092   3.894   6.038   4.575  0.0539 -0.5095  0.0010
 3024SOL     ow12093   0.379   2.418   6.515 -0.2915 -0.3484  0.3315
 3024SOL     hw12094   0.367   2.500   6.563 -3.7713 -0.6811  0.2599
 3024SOL     hw12095   0.375   2.350   6.581  2.1039 -0.5772  0.3259
 3024SOL     vw12096   0.377   2.420   6.530 -0.4346 -0.4225  0.3214
 3025SOL     ow12097   5.670   4.540   1.513 -0.1450  0.2133 -0.5022
 3025SOL     hw12098   5.715   4.456   1.515  1.1197  0.8766  1.4906
 3025SOL     hw12099   5.690   4.577   1.427  2.3686  0.0580 -0.0311
 3025SOL     vw12100   5.678   4.534   1.501  0.3538  0.2806 -0.1770
 3026SOL     ow12101   7.127   4.950   0.450 -0.2437  0.0911 -0.4708
 3026SOL     hw12102   7.087   4.863   0.458 -0.5661  0.2618 -0.2113
 3026SOL     hw12103   7.194   4.951   0.519  0.9154 -0.5637 -1.5373
 3026SOL     vw12104   7.131   4.939   0.460 -0.1333  0.0274 -0.5773
 3027SOL     ow12105   3.750   4.664   2.054  0.6279 -0.2828  0.6574
 3027SOL     hw12106   3.779   4.730   1.990  0.7809 -0.9818 -0.0042
 3027SOL     hw12107   3.827   4.610   2.070 -0.2041 -2.0554 -0.9919
 3027SOL     vw12108   3.764   4.666   2.048  0.5382 -0.6089  0.3525
 3028SOL     ow12109   0.666   2.661   5.275  1.2635 -0.8192 -0.1724
 3028SOL     hw12110   0.687   2.690   5.186  0.1366 -0.1896 -0.2454
 3028SOL     hw12111   0.571   2.669   5.281  1.3932 -0.1193  1.3432
 3028SOL     vw12112   0.656   2.666   5.264  1.1320 -0.6438  0.0179
 3029SOL     ow12113   1.765   7.327   3.659 -0.1744  0.0069  0.2427
 3029SOL     hw12114   1.702   7.271   3.705 -0.8170 -0.3062 -0.9790
 3029SOL     hw12115   1.744   7.415   3.688 -1.6918 -0.0097 -0.6718
 3029SOL     vw12116   1.754   7.331   3.669 -0.4593 -0.0365 -0.0391
 3030SOL     ow12117   3.186   5.254   6.356  0.0949 -0.1830  0.0411
 3030SOL     hw12118   3.262   5.277   6.410 -0.1426 -1.2234  0.8737
 3030SOL     hw12119   3.125   5.212   6.418 -0.9075  0.1030 -0.7260
 3030SOL     vw12120   3.188   5.251   6.371 -0.0688 -0.2825  0.0498
 3031SOL     ow12121   5.167   4.776   2.692 -0.0325 -0.4608  0.5686
 3031SOL     hw12122   5.181   4.685   2.666 -1.9240 -0.3896 -0.9057
 3031SOL     hw12123   5.248   4.800   2.737  0.7714 -2.6597  0.4398
 3031SOL     vw12124   5.180   4.767   2.695 -0.1760 -0.7417  0.3570
 3032SOL     ow12125   1.839   6.658   4.546  0.4233  0.7570  0.3321
 3032SOL     hw12126   1.835   6.601   4.469 -0.9058 -0.0188  0.9280
 3032SOL     hw12127   1.797   6.739   4.518 -0.3468  0.3617  0.3214
 3032SOL     vw12128   1.833   6.661   4.532  0.1463  0.6025  0.4094
 3033SOL     ow12129   3.026   7.290   4.491 -0.0554 -0.8017 -0.0519
 3033SOL     hw12130   2.945   7.338   4.475  1.2267  1.2004 -0.8442
 3033SOL     hw12131   3.092   7.334   4.437  2.1820 -0.5604  2.6405
 3033SOL     vw12132   3.024   7.302   4.482  0.4089 -0.5054  0.1988
 3034SOL     ow12133   5.460   4.419   2.759 -0.1131  0.3354  0.5746
 3034SOL     hw12134   5.531   4.458   2.707  0.6705 -0.3276  1.1354
 3034SOL     hw12135   5.491   4.332   2.782 -1.6493 -0.4724 -0.2409
 3034SOL     vw12136   5.473   4.413   2.755 -0.2124  0.1414  0.5411
 3035SOL     ow12137   0.619   5.021   5.690  0.2995  0.0061 -0.2129
 3035SOL     hw12138   0.555   5.085   5.721  0.9491  0.3715  0.3802
 3035SOL     hw12139   0.567   4.960   5.637 -0.7750 -0.4090  1.2394
 3035SOL     vw12140   0.604   5.021   5.687  0.2435 -0.0005  0.0572
 3036SOL     ow12141   7.142   2.855   6.179  0.6361 -0.1415  0.7493
 3036SOL     hw12142   7.176   2.801   6.108  0.1650  0.6361 -0.0843
 3036SOL     hw12143   7.214   2.915   6.201  0.3562  0.4557  0.0598
 3036SOL     vw12144   7.156   2.856   6.173  0.5372  0.0399  0.5481
 3037SOL     ow12145   1.703   0.439   5.917  0.2618  0.0627  0.2255
 3037SOL     hw12146   1.706   0.362   5.974  0.8470 -0.8385 -0.9772
 3037SOL     hw12147   1.795   0.459   5.899  0.1031  0.8493  0.2659
 3037SOL     vw12148   1.715   0.431   5.922  0.3181  0.0476  0.0722
 3038SOL     ow12149   2.940   3.363   6.999 -0.0052 -0.4617 -0.6482
 3038SOL     hw12150   2.906   3.360   6.910  3.1336  1.2261 -2.0858
 3038SOL     hw12151   2.887   3.430   7.043 -1.0852 -0.7386 -1.4905
 3038SOL     vw12152   2.929   3.372   6.993  0.2663 -0.2755 -0.9487
 3039SOL     ow12153   6.771   4.072   2.053 -0.8221 -0.3211 -0.2275
 3039SOL     hw12154   6.760   4.152   2.003 -1.1344 -0.0546  0.2607
 3039SOL     hw12155   6.864   4.050   2.044 -0.8035 -0.0847 -0.6229
 3039SOL     vw12156   6.782   4.080   2.045 -0.8607 -0.2549 -0.2151
 3040SOL     ow12157   1.304   4.725   5.557 -0.3821 -0.3707 -0.3016
 3040SOL     hw12158   1.285   4.766   5.472  0.1727 -3.2838 -1.9490
 3040SOL     hw12159   1.218   4.714   5.598 -0.9768 -1.3670 -1.7358
 3040SOL     vw12160   1.290   4.729   5.551 -0.3874 -0.8862 -0.7081
 3041SOL     ow12161   3.658   1.602   4.057  0.1100  0.1712  0.2518
 3041SOL     hw12162   3.637   1.693   4.077 -1.5263  0.1383 -1.0760
 3041SOL     hw12163   3.668   1.600   3.962  0.2690 -1.0087  0.2781
 3041SOL     vw12164   3.656   1.614   4.047 -0.0849  0.0112  0.0801
 3042SOL     ow12165   5.667   1.280   3.471  0.3295  0.2137 -0.4481
 3042SOL     hw12166   5.694   1.330   3.548  0.7839  0.9898 -1.0927
 3042SOL     hw12167   5.706   1.193   3.484  1.6625  0.7756 -0.4930
 3042SOL     vw12168   5.676   1.275   3.482  0.5655  0.3903 -0.5391
 3043SOL     ow12169   1.630   3.202   7.265 -0.1551 -0.0074  0.3171
 3043SOL     hw12170   1.701   3.265   7.270 -0.8579  0.9104 -0.8518
 3043SOL     hw12171   1.575   3.232   7.193 -1.8914 -0.5362  1.3486
 3043SOL     vw12172   1.632   3.214   7.256 -0.4769  0.0439  0.2990
 3044SOL     ow12173   3.885   4.314   3.023  0.4934 -1.1718  0.0861
 3044SOL     hw12174   3.943   4.384   2.990  0.0357 -0.4031  0.8665
 3044SOL     hw12175   3.945   4.251   3.063  0.8025  0.1517  1.8888
 3044SOL     vw12176   3.901   4.315   3.024  0.4739 -0.8957  0.4270
 3045SOL     ow12177   1.292   0.843   5.780  0.2397  0.2628  0.1450
 3045SOL     hw12178   1.369   0.795   5.809  0.7997  0.4321 -1.0042
 3045SOL     hw12179   1.237   0.778   5.735  0.2123  0.3545  0.0433
 3045SOL     vw12180   1.295   0.828   5.778  0.3099  0.2972 -0.0200
 3046SOL     ow12181   1.820   3.398   0.971 -0.6213 -0.6354  0.2247
 3046SOL     hw12182   1.905   3.385   0.928  0.4294 -0.6994  2.1972
 3046SOL     hw12183   1.817   3.492   0.989  0.0242 -0.9152  1.9964
 3046SOL     vw12184   1.831   3.408   0.968 -0.3976 -0.6807  0.7187
 3047SOL     ow12185   1.084   1.520   1.160 -0.1263 -0.1165 -0.3876
 3047SOL     hw12186   1.171   1.516   1.121 -1.2861  0.4279 -3.3320
 3047SOL     hw12187   1.089   1.591   1.224  1.2408  1.0093 -1.6586
 3047SOL     vw12188   1.096   1.529   1.163 -0.0990  0.1039 -0.9438
 3048SOL     ow12189   1.247   6.730   5.904  0.3672  0.1191  0.3684
 3048SOL     hw12190   1.242   6.707   5.996 -0.2546  3.4088  1.3039
 3048SOL     hw12191   1.174   6.683   5.863 -0.6535  0.1937  2.0056
 3048SOL     vw12192   1.237   6.721   5.911  0.1504  0.5629  0.7076
 3049SOL     ow12193   0.554   4.900   0.121  0.1261 -0.1679 -0.3086
 3049SOL     hw12194   0.607   4.823   0.141  0.9953  1.1900  3.3861
 3049SOL     hw12195   0.617   4.971   0.111 -0.7685  0.5395 -1.0756
 3049SOL     vw12196   0.569   4.899   0.122  0.1227  0.1047  0.0777
 3050SOL     ow12197   0.340   5.439   5.592 -0.3789  0.0102 -0.6593
 3050SOL     hw12198   0.302   5.365   5.544 -2.8886  0.5374  0.3457
 3050SOL     hw12199   0.367   5.501   5.524 -0.1948 -0.9147 -1.4531
 3050SOL     vw12200   0.339   5.437   5.577 -0.6857 -0.0422 -0.6311
 3051SOL     ow12201   5.558   4.789   7.108 -0.2497 -0.1953  0.7362
 3051SOL     hw12202   5.611   4.818   7.034  1.4620 -1.5160  1.3645
 3051SOL     hw12203   5.544   4.696   7.093 -2.4308  0.1131  0.6247
 3051SOL     vw12204   5.563   4.781   7.097 -0.3116 -0.3288  0.8044
 3052SOL     ow12205   6.974   3.181   5.318 -0.1856 -0.7450  0.3805
 3052SOL     hw12206   7.028   3.258   5.300 -1.7127  0.3799  0.3437
 3052SOL     hw12207   6.948   3.192   5.410 -1.0055 -0.8146  0.1656
 3052SOL     vw12208   6.978   3.193   5.328 -0.4954 -0.6057  0.3474
 3053SOL     ow12209   5.694   4.822   4.563 -0.1254  0.5845  0.6119
 3053SOL     hw12210   5.705   4.889   4.495 -1.8222 -0.1403 -0.4222
 3053SOL     hw12211   5.778   4.775   4.563  0.4349  1.5350  0.0940
 3053SOL     vw12212   5.707   4.825   4.554 -0.2754  0.6144  0.4070
 3054SOL     ow12213   7.235   0.873   5.803  0.1267 -0.3420 -0.0947
 3054SOL     hw12214   7.258   0.859   5.895  0.5783  1.5206  0.1118
 3054SOL     hw12215   7.140   0.865   5.801 -0.2562  2.4767  1.1919
 3054SOL     vw12216   7.225   0.870   5.815  0.1357  0.2756  0.1020
 3055SOL     ow12217   5.708   4.352   1.112 -0.2972 -0.3304 -0.1549
 3055SOL     hw12218   5.747   4.422   1.166 -0.6018 -0.6528  0.4973
 3055SOL     hw12219   5.652   4.398   1.050  0.2175  0.0615 -0.3416
 3055SOL     vw12220   5.706   4.367   1.111 -0.2694 -0.3211 -0.0935
 3056SOL     ow12221   5.410   4.378   1.980 -0.4128 -0.6808 -0.6005
 3056SOL     hw12222   5.369   4.387   1.894 -0.2303  1.0219 -0.5357
 3056SOL     hw12223   5.404   4.465   2.019  2.1776 -0.6350 -0.1021
 3056SOL     vw12224   5.404   4.391   1.974 -0.0465 -0.4499 -0.5262
 3057SOL     ow12225   0.811   0.834   5.584  0.0515 -0.1318 -0.0839
 3057SOL     hw12226   0.736   0.774   5.574 -0.1764  0.3241 -1.2846
 3057SOL     hw12227   0.879   0.780   5.624 -0.6563 -0.7740  0.2926
 3057SOL     vw12228   0.810   0.819   5.588 -0.0720 -0.1564 -0.1926
 3058SOL     ow12229   1.342   7.090   0.469 -0.0013  0.0833 -0.0059
 3058SOL     hw12230   1.434   7.066   0.465 -0.4255 -1.6145 -0.3102
 3058SOL     hw12231   1.306   7.060   0.385 -0.9305  0.2862  0.3115
 3058SOL     vw12232   1.349   7.083   0.457 -0.1798 -0.1137 -0.0042
 3059SOL     ow12233   5.461   6.159   3.288  0.3983 -0.6232  0.6223
 3059SOL     hw12234   5.524   6.167   3.359  0.3165  4.5395  0.4916
 3059SOL     hw12235   5.505   6.198   3.212 -1.7135  0.0979 -0.3215
 3059SOL     vw12236   5.475   6.166   3.287  0.1085  0.1528  0.4804
 3060SOL     ow12237   0.551   4.082   2.924 -0.0789 -0.1866  0.4123
 3060SOL     hw12238   0.517   4.137   2.853  0.4726 -1.1944 -0.6754
 3060SOL     hw12239   0.518   3.994   2.904  1.9334 -0.9218  0.1256
 3060SOL     vw12240   0.542   4.077   2.912  0.2593 -0.4165  0.2310
 3061SOL     ow12241   3.281   3.435   5.230  0.4131 -0.0684 -0.3303
 3061SOL     hw12242   3.243   3.523   5.238 -2.1917 -1.0015 -1.1073
 3061SOL     hw12243   3.211   3.377   5.259  2.1092 -1.9133  0.2569
 3061SOL     vw12244   3.266   3.439   5.235  0.2933 -0.4350 -0.3552
 3062SOL     ow12245   1.582   1.790   0.568 -0.5966 -0.0451 -0.3729
 3062SOL     hw12246   1.591   1.738   0.489 -0.7187 -0.9510  0.1983
 3062SOL     hw12247   1.660   1.770   0.619 -1.3405 -0.8068  0.4961
 3062SOL     vw12248   1.593   1.781   0.564 -0.7108 -0.2651 -0.1829
 3063SOL     ow12249   1.376   2.515   5.007 -0.2173  0.4778  0.2348
 3063SOL     hw12250   1.294   2.466   4.995  0.2647 -0.3995  0.4278
 3063SOL     hw12251   1.360   2.570   5.083 -0.0189 -1.0822  1.4755
 3063SOL     vw12252   1.363   2.515   5.015 -0.1275  0.1563  0.4239
 3064SOL     ow12253   3.332   4.626   0.468 -0.0995  0.5518  0.0697
 3064SOL     hw12254   3.257   4.665   0.513 -0.2512 -0.5026  0.7843
 3064SOL     hw12255   3.374   4.570   0.535 -0.9785 -1.9571 -1.3343
 3064SOL     vw12256   3.328   4.623   0.483 -0.2354  0.0815 -0.0213
 3065SOL     ow12257   1.260   3.008   1.150 -0.3899  0.3225 -0.2360
 3065SOL     hw12258   1.193   2.963   1.098 -1.2627  0.3726  0.8216
 3065SOL     hw12259   1.214   3.082   1.189  0.3187  0.4357  0.4057
 3065SOL     vw12260   1.245   3.012   1.148 -0.4116  0.3442 -0.0118
 3066SOL     ow12261   5.747   2.019   6.360  0.0854 -0.8630 -0.1154
 3066SOL     hw12262   5.774   2.106   6.331  2.1313 -0.5227  2.5288
 3066SOL     hw12263   5.764   1.962   6.284 -0.3851  0.8378 -1.5581
 3066SOL     vw12264   5.753   2.023   6.346  0.2930 -0.5938  0.0429
 3067SOL     ow12265   0.791   2.424   3.737 -0.2512 -0.3562 -0.3563
 3067SOL     hw12266   0.836   2.379   3.809 -2.5920 -1.8886  0.2404
 3067SOL     hw12267   0.844   2.502   3.722  0.3105  0.1251  3.1236
 3067SOL     vw12268   0.804   2.429   3.745 -0.4859 -0.4950  0.1816
 3068SOL     ow12269   0.641   0.822   3.868  0.2480 -0.0906  0.1911
 3068SOL     hw12270   0.703   0.799   3.798 -0.6847 -2.1585 -0.0221
 3068SOL     hw12271   0.634   0.743   3.921 -2.1585  0.0920  0.2540
 3068SOL     vw12272   0.648   0.809   3.866 -0.1926 -0.3394  0.1714
 3069SOL     ow12273   2.086   0.388   6.768  0.6044 -0.2051  0.4217
 3069SOL     hw12274   2.091   0.428   6.855  0.0842  2.2887 -0.6134
 3069SOL     hw12275   2.156   0.430   6.718 -0.3987 -0.0506 -0.9258
 3069SOL     vw12276   2.096   0.399   6.773  0.4035  0.1443  0.1073
 3070SOL     ow12277   2.364   6.245   2.958  0.0368  0.8095  0.0713
 3070SOL     hw12278   2.270   6.235   2.972  0.0942  1.2771  0.7988
 3070SOL     hw12279   2.374   6.332   2.917  0.1907  0.9367  0.3770
 3070SOL     vw12280   2.353   6.255   2.954  0.0646  0.8879  0.2078
 3071SOL     ow12281   5.944   3.096   6.184  0.4208  0.2329  0.0523
 3071SOL     hw12282   5.984   3.172   6.143  0.3543  0.4775  0.4339
 3071SOL     hw12283   6.014   3.056   6.235  0.1683  0.7013  0.7766
 3071SOL     vw12284   5.958   3.101   6.185  0.3791  0.3271  0.1984
 3072SOL     ow12285   2.405   4.211   4.929  0.1955 -0.3136 -0.1415
 3072SOL     hw12286   2.486   4.248   4.965 -0.2720  1.0205 -0.3990
 3072SOL     hw12287   2.378   4.145   4.993  0.3336  0.7583  1.0589
 3072SOL     vw12288   2.412   4.207   4.942  0.1521  0.0036 -0.0172
 3073SOL     ow12289   1.206   4.162   3.218 -0.5287  0.6113  0.4176
 3073SOL     hw12290   1.125   4.182   3.265 -0.5647  0.7352  0.3027
 3073SOL     hw12291   1.272   4.154   3.287 -0.8783 -0.7168  0.6148
 3073SOL     vw12292   1.204   4.164   3.233 -0.5795  0.4528  0.4286
 3074SOL     ow12293   4.925   2.973   1.496 -0.3346 -0.0302 -1.0442
 3074SOL     hw12294   5.011   3.016   1.496 -0.6591  0.6371 -0.5205
 3074SOL     hw12295   4.939   2.892   1.447  0.6863 -0.1154 -0.6374
 3074SOL     vw12296   4.938   2.968   1.490 -0.2427  0.0465 -0.9215
 3075SOL     ow12297   6.283   0.637   2.512 -0.4240 -0.2765 -0.2053
 3075SOL     hw12298   6.280   0.553   2.466 -2.1729 -1.0630  1.1813
 3075SOL     hw12299   6.191   0.664   2.517 -0.2913 -0.0672  2.4024
 3075SOL     vw12300   6.270   0.629   2.507 -0.6375 -0.3527  0.3216
 3076SOL     ow12301   3.394   4.923   4.621  0.8754  0.0736  0.2738
 3076SOL     hw12302   3.442   4.920   4.704 -2.3804 -1.1472  2.2797
 3076SOL     hw12303   3.333   4.850   4.626  0.5114 -0.0181 -3.2564
 3076SOL     vw12304   3.393   4.913   4.633  0.3978 -0.0997  0.0725
 3077SOL     ow12305   0.215   0.469   3.971 -0.2554  0.2028 -0.1222
 3077SOL     hw12306   0.249   0.398   3.917 -0.6817 -0.8382  0.9392
 3077SOL     hw12307   0.281   0.538   3.964  1.5002 -1.2755  0.8683
 3077SOL     vw12308   0.228   0.469   3.963 -0.0800 -0.1296  0.1484
 3078SOL     ow12309   4.689   3.030   7.224 -0.3249 -0.9547  0.0233
 3078SOL     hw12310   4.739   2.973   7.281  0.5513  1.0431  1.3589
 3078SOL     hw12311   4.754   3.081   7.176 -1.0367  0.4527  0.4849
 3078SOL     vw12312   4.704   3.029   7.225 -0.3030 -0.5054  0.2606
 3079SOL     ow12313   0.307   2.683   6.620  0.3112  0.5014 -0.2260
 3079SOL     hw12314   0.328   2.739   6.695  0.6684 -0.5891  0.5168
 3079SOL     hw12315   0.227   2.721   6.583 -0.1902  0.7410  1.0574
 3079SOL     vw12316   0.299   2.696   6.625  0.2922  0.3891  0.0412
 3080SOL     ow12317   3.188   5.314   0.204 -0.1268 -0.4989 -0.2737
 3080SOL     hw12318   3.142   5.233   0.224 -1.6178  0.2218 -0.6729
 3080SOL     hw12319   3.189   5.319   0.109  0.2102 -0.1874 -0.2573
 3080SOL     vw12320   3.182   5.304   0.194 -0.2791 -0.3626 -0.3242
 3081SOL     ow12321   2.495   7.051   6.918 -0.6503  0.0238 -0.3473
 3081SOL     hw12322   2.512   7.021   6.829 -0.0220  0.7058 -0.4697
 3081SOL     hw12323   2.423   6.996   6.949 -0.8955 -0.1983 -1.2831
 3081SOL     vw12324   2.488   7.040   6.910 -0.5997  0.0846 -0.4869
 3082SOL     ow12325   2.914   5.391   5.671  0.3027 -0.1632 -0.2443
 3082SOL     hw12326   2.899   5.334   5.595  0.9665 -1.4905  0.5800
 3082SOL     hw12327   2.902   5.333   5.746  0.0699  1.0331  0.6563
 3082SOL     vw12328   2.910   5.376   5.671  0.3595 -0.1807 -0.0165
 3083SOL     ow12329   0.470   2.441   0.986 -0.1741 -0.0642 -0.2191
 3083SOL     hw12330   0.531   2.369   1.002 -2.1101 -1.3275  2.2408
 3083SOL     hw12331   0.397   2.401   0.938 -0.6946  0.5364  0.0454
 3083SOL     vw12332   0.468   2.426   0.982 -0.4982 -0.1516  0.1403
 3084SOL     ow12333   3.270   6.628   6.644  0.6275 -0.3778 -0.0689
 3084SOL     hw12334   3.360   6.650   6.670  1.2162 -0.3870 -1.9399
 3084SOL     hw12335   3.278   6.599   6.553 -1.3440  0.0746 -0.4293
 3084SOL     vw12336   3.283   6.628   6.636  0.4450 -0.3192 -0.3633
 3085SOL     ow12337   1.255   0.029   0.708  0.5657  0.3352  0.3727
 3085SOL     hw12338   1.243  -0.012   0.793  0.7307 -1.7795 -0.5605
 3085SOL     hw12339   1.338   0.076   0.715  0.9849 -0.4941  1.1265
 3085SOL     vw12340   1.264   0.030   0.720  0.6428 -0.0529  0.3490
 3086SOL     ow12341   7.238   1.456   5.862 -0.2407  0.3335 -0.4757
 3086SOL     hw12342   7.222   1.473   5.955  0.6077  3.4918 -0.7895
 3086SOL     hw12343   7.168   1.502   5.816  0.9688  1.3229 -1.4279
 3086SOL     vw12344   7.227   1.464   5.868  0.0308  0.8807 -0.6425
 3087SOL     ow12345   6.337   0.587   1.787  0.2290  0.3378 -0.2377
 3087SOL     hw12346   6.246   0.573   1.759  0.8695 -0.3379 -2.2055
 3087SOL     hw12347   6.331   0.608   1.880 -2.3020  4.2496 -1.0276
 3087SOL     vw12348   6.324   0.588   1.795 -0.0205  0.7648 -0.6015
 3088SOL     ow12349   4.212   1.704   3.309 -0.5732 -0.4774  0.4134
 3088SOL     hw12350   4.275   1.636   3.334  0.8581 -0.0002 -1.6217
 3088SOL     hw12351   4.137   1.657   3.275  0.7475 -1.1107 -1.7791
 3088SOL     vw12352   4.211   1.689   3.308 -0.2103 -0.4981 -0.1444
 3089SOL     ow12353   3.999   1.082   3.928  0.2329  0.3033  0.5470
 3089SOL     hw12354   3.926   1.135   3.895  1.0866  1.2354  0.0761
 3089SOL     hw12355   3.960   0.998   3.950 -0.6188  0.0717 -1.6482
 3089SOL     vw12356   3.984   1.078   3.927  0.2333  0.3958  0.1951
 3090SOL     ow12357   3.677   0.667   2.430  0.3547 -0.2083 -0.1172
 3090SOL     hw12358   3.750   0.729   2.424 -0.3125  0.5103 -1.4946
 3090SOL     hw12359   3.708   0.589   2.385 -0.2145  0.6731 -2.1992
 3090SOL     vw12360   3.691   0.665   2.423  0.1917  0.0028 -0.5736
 3091SOL     ow12361   5.830   3.591   6.840 -0.0925 -0.4192 -0.6092
 3091SOL     hw12362   5.834   3.670   6.785 -1.9312  1.0812  1.2601
 3091SOL     hw12363   5.741   3.560   6.830  0.0850 -1.1815  0.1502
 3091SOL     vw12364   5.819   3.598   6.831 -0.3119 -0.3220 -0.2625
 3092SOL     ow12365   7.485   0.581   4.060 -0.1100  0.0232  0.0567
 3092SOL     hw12366   7.415   0.556   4.121 -0.1152  0.7981  0.3741
 3092SOL     hw12367   7.509   0.670   4.085  2.3283 -0.8702  1.1735
 3092SOL     vw12368   7.479   0.589   4.071  0.2110  0.0075  0.2460
 3093SOL     ow12369   5.091   5.206   2.772 -0.4310 -0.1657  0.0857
 3093SOL     hw12370   5.092   5.133   2.834  2.5673  0.9941  1.5831
 3093SOL     hw12371   5.158   5.184   2.707  0.8915  1.4048  0.8531
 3093SOL     vw12372   5.100   5.194   2.771  0.1388  0.1945  0.3846
 3094SOL     ow12373   6.990   5.192   5.920 -0.3896  0.0510  0.5974
 3094SOL     hw12374   7.050   5.267   5.916 -0.6052  0.2785  1.4566
 3094SOL     hw12375   7.046   5.116   5.900 -0.3352  0.4885 -1.1337
 3094SOL     vw12376   7.005   5.192   5.917 -0.4108  0.1388  0.4826
 3095SOL     ow12377   0.235   2.570   7.191  0.8122 -0.4743 -0.4636
 3095SOL     hw12378   0.303   2.569   7.124  0.2105  0.2282 -1.1009
 3095SOL     hw12379   0.252   2.491   7.243  3.5609  0.8552  0.8961
 3095SOL     vw12380   0.246   2.559   7.189  1.0955 -0.2062 -0.3681
 3096SOL     ow12381   1.466   0.085   2.521  0.4136 -0.2750 -0.0405
 3096SOL     hw12382   1.546   0.137   2.517  0.3194 -0.2074 -1.2851
 3096SOL     hw12383   1.485   0.006   2.470  0.0846 -0.8375  0.6734
 3096SOL     vw12384   1.479   0.081   2.514  0.3577 -0.3403 -0.1106
 3097SOL     ow12385   6.492   4.174   0.805 -0.1694  0.1908 -0.2487
 3097SOL     hw12386   6.412   4.193   0.854  0.1606  4.7035 -0.9822
 3097SOL     hw12387   6.470   4.199   0.715  1.9208  1.1989 -0.5203
 3097SOL     vw12388   6.478   4.180   0.800  0.1497  0.9193 -0.3813
 3098SOL     ow12389   3.252   7.333   4.855  0.1322  0.2804 -0.1034
 3098SOL     hw12390   3.162   7.340   4.824 -0.6678  0.0859  2.0156
 3098SOL     hw12391   3.271   7.418   4.894  1.9678  1.3702 -3.0212
 3098SOL     vw12392   3.242   7.345   4.856  0.2687  0.3984 -0.2089
 3099SOL     ow12393   4.395   3.521   1.872 -0.3886  0.1483  0.2178
 3099SOL     hw12394   4.318   3.502   1.926 -0.9712 -0.1294 -0.6789
 3099SOL     hw12395   4.460   3.457   1.900 -0.4675  0.3921  0.9968
 3099SOL     vw12396   4.393   3.510   1.883 -0.4761  0.1439  0.2023
 3100SOL     ow12397   2.004   3.015   2.577  1.1675 -0.6659 -0.6069
 3100SOL     hw12398   2.091   3.019   2.619  0.7127  0.1002  0.3093
 3100SOL     hw12399   2.022   3.020   2.484  2.1174 -0.4312 -0.4260
 3100SOL     vw12400   2.018   3.016   2.570  1.2327 -0.5338 -0.4622
 3101SOL     ow12401   5.259   5.228   2.131 -0.5993 -0.0393  0.3911
 3101SOL     hw12402   5.221   5.150   2.171  0.5888  0.6575  3.1609
 3101SOL     hw12403   5.229   5.300   2.187  1.7335  0.9480  0.4956
 3101SOL     vw12404   5.250   5.227   2.144 -0.1345  0.1829  0.7704
 3102SOL     ow12405   0.529   6.072   1.577  0.2097 -0.9141  0.4284
 3102SOL     hw12406   0.572   6.122   1.508 -1.3756 -1.1073 -0.7656
 3102SOL     hw12407   0.600   6.048   1.637  1.5304 -0.1613 -0.7596
 3102SOL     vw12408   0.544   6.076   1.576  0.1749 -0.8399  0.1141
 3103SOL     ow12409   6.306   7.057   5.618  0.3159  0.5406  0.0949
 3103SOL     hw12410   6.374   7.123   5.606  1.1511  0.3736  3.0636
 3103SOL     hw12411   6.351   6.973   5.609 -0.3429  0.3461 -1.7254
 3103SOL     vw12412   6.321   7.055   5.615  0.3390  0.4928  0.2465
 3104SOL     ow12413   6.417   4.662   3.653 -0.3056  0.4758  0.4966
 3104SOL     hw12414   6.506   4.640   3.627 -0.2358 -0.4892  1.4522
 3104SOL     hw12415   6.415   4.758   3.655  0.0506  0.5761 -1.6344
 3104SOL     vw12416   6.429   4.672   3.650 -0.2494  0.3619  0.3417
 3105SOL     ow12417   6.854   0.143   4.878  0.3006  0.2391  0.7888
 3105SOL     hw12418   6.894   0.145   4.791  1.0359 -0.2978  1.1056
 3105SOL     hw12419   6.784   0.208   4.873 -0.5026 -0.6539 -0.6061
 3105SOL     vw12420   6.850   0.152   4.866  0.2918  0.0504  0.6464
 3106SOL     ow12421   4.818   6.681   3.727 -0.1707 -0.5566  0.3366
 3106SOL     hw12422   4.774   6.713   3.806 -0.9616 -0.6676 -0.0419
 3106SOL     hw12423   4.746   6.651   3.671  0.3469 -0.0187 -0.6289
 3106SOL     vw12424   4.803   6.681   3.730 -0.2069 -0.5002  0.1593
 3107SOL     ow12425   5.032   7.063   3.937 -0.3139  0.5539  0.3626
 3107SOL     hw12426   5.043   6.969   3.945  0.3151  0.5832 -0.1055
 3107SOL     hw12427   5.060   7.084   3.848  1.8500  1.4863  1.1700
 3107SOL     vw12428   5.037   7.054   3.926  0.0548  0.6807  0.4073
 3108SOL     ow12429   6.132   2.267   0.470  0.2175  0.1222  0.3186
 3108SOL     hw12430   6.105   2.198   0.409  0.3788 -0.5288  0.9800
 3108SOL     hw12431   6.203   2.312   0.423 -0.5534  0.4851 -0.5306
 3108SOL     vw12432   6.138   2.264   0.456  0.1369  0.0840  0.2938
 3109SOL     ow12433   5.060   3.355   4.679 -0.4948  0.0228  0.0099
 3109SOL     hw12434   5.069   3.428   4.618  0.0564 -1.1573 -1.4031
 3109SOL     hw12435   5.142   3.307   4.671 -1.3209 -1.4613 -0.1203
 3109SOL     vw12436   5.072   3.358   4.670 -0.5310 -0.3287 -0.1936
 3110SOL     ow12437   2.209   4.718   2.780  0.0797  0.5380  0.5099
 3110SOL     hw12438   2.165   4.721   2.864  1.6798  3.2461  1.3809
 3110SOL     hw12439   2.148   4.759   2.719 -0.8683 -0.9661  0.3930
 3110SOL     vw12440   2.195   4.724   2.783  0.1658  0.6969  0.6094
 3111SOL     ow12441   6.568   4.096   4.821 -0.5507 -0.1747  0.0758
 3111SOL     hw12442   6.554   4.127   4.910 -1.6118 -1.3409  0.3284
 3111SOL     hw12443   6.499   4.137   4.769 -1.2372 -1.1608  0.1937
 3111SOL     vw12444   6.557   4.105   4.826 -0.7813 -0.4590  0.1247
 3112SOL     ow12445   5.750   1.273   2.293  0.0356 -0.8289 -0.3196
 3112SOL     hw12446   5.659   1.287   2.317 -0.0141 -1.6117 -0.0191
 3112SOL     hw12447   5.763   1.325   2.214  0.3564  2.3352  1.6139
 3112SOL     vw12448   5.740   1.282   2.286  0.0713 -0.5147 -0.0249
 3113SOL     ow12449   2.076   4.739   3.017 -0.1039 -0.2373 -0.2136
 3113SOL     hw12450   2.015   4.798   2.973  0.4768  0.3510 -0.2567
 3113SOL     hw12451   2.025   4.697   3.085 -0.8701 -0.7092 -1.0573
 3113SOL     vw12452   2.061   4.741   3.020 -0.1284 -0.2220 -0.3306
 3114SOL     ow12453   4.865   4.219   2.666  0.3908 -0.0293 -0.4243
 3114SOL     hw12454   4.943   4.197   2.718 -0.3256  0.9141  1.1018
 3114SOL     hw12455   4.831   4.134   2.637  1.7318 -0.4822 -0.7619
 3114SOL     vw12456   4.871   4.205   2.669  0.4733  0.0355 -0.2674
 3115SOL     ow12457   6.583   7.323   5.204 -0.1601  0.4594  0.3095
 3115SOL     hw12458   6.619   7.401   5.246  1.3618  0.6856 -1.3012
 3115SOL     hw12459   6.647   7.301   5.136 -1.6197 -0.9331 -0.6751
 3115SOL     vw12460   6.596   7.331   5.200 -0.1521  0.3054 -0.0329
 3116SOL     ow12461   1.532   2.960   6.653  0.0929 -0.0772  0.6562
 3116SOL     hw12462   1.508   2.874   6.688  0.9213 -0.1157  1.1516
 3116SOL     hw12463   1.579   2.940   6.572 -1.3557 -0.0072 -0.2343
 3116SOL     vw12464   1.535   2.946   6.647  0.0110 -0.0731  0.6042
 3117SOL     ow12465   7.157   5.602   0.898 -0.1876  0.3058 -0.0553
 3117SOL     hw12466   7.115   5.533   0.846 -1.5685  1.0665 -0.0113
 3117SOL     hw12467   7.251   5.591   0.882 -0.4328 -1.1020 -0.6352
 3117SOL     vw12468   7.164   5.592   0.889 -0.4020  0.2205 -0.1260
 3118SOL     ow12469   1.620   7.002   4.344  0.3582 -0.1322 -0.5942
 3118SOL     hw12470   1.610   7.091   4.310  0.0714  0.4484  0.8993
 3118SOL     hw12471   1.608   6.945   4.268  1.7199  1.1252 -1.8027
 3118SOL     vw12472   1.617   7.006   4.329  0.5000  0.1104 -0.5565
 3119SOL     ow12473   4.841   0.753   4.679  0.0457  0.5459 -0.1896
 3119SOL     hw12474   4.931   0.756   4.648 -0.2369 -0.9627 -1.2504
 3119SOL     hw12475   4.844   0.697   4.756 -0.1096 -0.2015 -0.7222
 3119SOL     vw12476   4.853   0.746   4.685 -0.0119  0.2482 -0.3996
 3120SOL     ow12477   6.716   4.285   0.458 -0.2068  0.5141  0.1866
 3120SOL     hw12478   6.741   4.372   0.428 -3.5112  1.1280 -1.2647
 3120SOL     hw12479   6.705   4.295   0.553 -1.4166  2.0276 -0.0550
 3120SOL     vw12480   6.718   4.298   0.467 -0.8020  0.7946 -0.0368
 3121SOL     ow12481   5.993   5.495   5.898 -0.1633 -0.3077 -0.1697
 3121SOL     hw12482   6.081   5.488   5.933 -1.0655  0.4864  2.5349
 3121SOL     hw12483   5.996   5.571   5.839  0.9431 -0.2730 -0.0792
 3121SOL     vw12484   6.005   5.504   5.895 -0.1364 -0.1984  0.1991
 3122SOL     ow12485   5.301   1.799   6.958  0.0553 -0.0260  0.4424
 3122SOL     hw12486   5.303   1.800   6.863 -2.9936 -3.5834  0.0827
 3122SOL     hw12487   5.250   1.877   6.982  0.0853  0.4260 -0.8840
 3122SOL     vw12488   5.294   1.809   6.949 -0.3431 -0.4357  0.2201
 3123SOL     ow12489   6.035   1.822   1.063 -0.3768  0.5167 -0.3160
 3123SOL     hw12490   6.006   1.837   0.973  2.1141  0.9560 -1.1453
 3123SOL     hw12491   6.100   1.752   1.055  1.3471  1.9009  0.7772
 3123SOL     vw12492   6.040   1.815   1.050  0.1795  0.7572 -0.2811
 3124SOL     ow12493   6.176   0.330   4.027  0.2365 -0.0398  0.2319
 3124SOL     hw12494   6.195   0.237   4.019  0.0570 -0.1440  0.9368
 3124SOL     hw12495   6.210   0.353   4.114 -1.1897  0.1888  0.7434
 3124SOL     vw12496   6.183   0.321   4.037  0.0248 -0.0234  0.3924
 3125SOL     ow12497   0.076   2.231   2.587  0.5632  0.5356  0.0540
 3125SOL     hw12498   0.101   2.262   2.500 -2.1529  1.1382 -0.5863
 3125SOL     hw12499   0.129   2.284   2.647  1.1222  1.4224 -1.1817
 3125SOL     vw12500   0.086   2.242   2.584  0.2786  0.7322 -0.1936
 3126SOL     ow12501   4.824   0.050   0.315  0.8542  0.1603 -0.1058
 3126SOL     hw12502   4.810   0.049   0.409  1.6426 -1.6970  0.0497
 3126SOL     hw12503   4.806   0.140   0.288  1.1228  0.8568  1.8871
 3126SOL     vw12504   4.820   0.061   0.324  0.9940  0.0072  0.1777
 3127SOL     ow12505   2.265   3.204   0.798  0.0383  0.2010  0.6112
 3127SOL     hw12506   2.357   3.190   0.774  0.1394  2.2363 -0.4029
 3127SOL     hw12507   2.215   3.162   0.729  0.2117 -0.3506  0.8179
 3127SOL     vw12508   2.271   3.197   0.786  0.0746  0.3966  0.5046
 3128SOL     ow12509   7.096   4.898   7.055  0.4083 -0.7286  0.1753
 3128SOL     hw12510   7.085   4.850   7.137  1.2079 -1.3390 -0.0607
 3128SOL     hw12511   7.189   4.887   7.033  0.6610  1.0259  0.1816
 3128SOL     vw12512   7.107   4.890   7.063  0.5472 -0.5774  0.1450
 3129SOL     ow12513   6.053   5.520   2.670 -1.0955 -0.5927  0.4438
 3129SOL     hw12514   6.133   5.468   2.667 -1.3848 -1.0773  0.8867
 3129SOL     hw12515   6.083   5.607   2.698 -0.3093  0.1600 -2.3989
 3129SOL     vw12516   6.068   5.525   2.674 -1.0297 -0.5574  0.1272
 3130SOL     ow12517   1.297   6.297   3.027 -0.0939  0.0161  0.2427
 3130SOL     hw12518   1.352   6.267   3.100  0.0284  1.8332  0.9406
 3130SOL     hw12519   1.225   6.345   3.068 -0.4829  0.3610 -0.7981
 3130SOL     vw12520   1.295   6.299   3.042 -0.1290  0.3011  0.1976
 3131SOL     ow12521   5.871   1.383   1.566 -0.2353  0.0647 -0.3340
 3131SOL     hw12522   5.960   1.359   1.592 -0.2875 -0.5419 -0.7051
 3131SOL     hw12523   5.847   1.451   1.628  0.5258  0.3118 -0.2936
 3131SOL     vw12524   5.880   1.389   1.578 -0.1419  0.0173 -0.3777
 3132SOL     ow12525   3.883   0.970   0.855 -0.0678 -0.2228  0.0940
 3132SOL     hw12526   3.925   0.898   0.809  1.1933 -0.0617  0.9345
 3132SOL     hw12527   3.822   0.927   0.916  0.0088 -0.5343 -0.0477
 3132SOL     vw12528   3.880   0.955   0.857  0.1085 -0.2426  0.1862
 3133SOL     ow12529   0.336   4.765   0.619 -0.4430 -0.3912  0.2905
 3133SOL     hw12530   0.373   4.778   0.707  1.0751  0.5073 -0.4294
 3133SOL     hw12531   0.245   4.792   0.627  0.7285  4.4878  0.6012
 3133SOL     vw12532   0.329   4.771   0.632 -0.0881  0.3710  0.2366
 3134SOL     ow12533   4.219   0.880   5.715  0.9671  0.3344 -0.3538
 3134SOL     hw12534   4.144   0.894   5.656  0.7121  0.2402 -0.0551
 3134SOL     hw12535   4.180   0.841   5.793  1.2368  0.9349  0.0848
 3134SOL     vw12536   4.204   0.876   5.717  0.9692  0.4012 -0.2565
 3135SOL     ow12537   0.590   6.197   1.103  0.2419 -0.0345 -0.3647
 3135SOL     hw12538   0.671   6.180   1.056  0.3720  1.0315 -0.5447
 3135SOL     hw12539   0.577   6.292   1.096  1.0073  0.4251  2.9090
 3135SOL     vw12540   0.599   6.207   1.096  0.3601  0.1667  0.0435
 3136SOL     ow12541   5.982   1.149   3.721  0.7088 -0.0701 -0.0222
 3136SOL     hw12542   6.008   1.073   3.669 -1.9466 -1.3921  0.3930
 3136SOL     hw12543   5.959   1.113   3.807 -1.5523  0.9966 -0.1115
 3136SOL     vw12544   5.983   1.134   3.726  0.0601 -0.1038  0.0207
 3137SOL     ow12545   1.095   4.716   5.716 -0.1640 -0.0045  0.1454
 3137SOL     hw12546   1.047   4.636   5.693  0.7020 -0.5516  0.2074
 3137SOL     hw12547   1.151   4.690   5.788  0.6139  0.4889 -0.2734
 3137SOL     vw12548   1.096   4.702   5.722  0.0529 -0.0117  0.0982
 3138SOL     ow12549   0.377   5.022   2.577  0.3789  0.0923 -0.5473
 3138SOL     hw12550   0.433   4.946   2.591  0.4522  0.1602 -0.4695
 3138SOL     hw12551   0.288   4.990   2.591  0.3287 -0.2260 -1.5635
 3138SOL     vw12552   0.373   5.008   2.581  0.3820  0.0591 -0.6711
 3139SOL     ow12553   5.329   4.777   3.465 -0.4376 -0.4528  0.5043
 3139SOL     hw12554   5.424   4.775   3.465 -0.4131  0.5105 -0.0879
 3139SOL     hw12555   5.306   4.836   3.537 -0.6605 -2.2396  1.9953
 3139SOL     vw12556   5.338   4.785   3.475 -0.4640 -0.5610  0.6227
 3140SOL     ow12557   4.035   5.342   0.183  0.1388 -0.9635 -0.4118
 3140SOL     hw12558   3.996   5.279   0.122 -0.4159 -1.4185  0.3897
 3140SOL     hw12559   4.055   5.418   0.129 -0.7988 -1.1682 -1.0774
 3140SOL     vw12560   4.032   5.343   0.168 -0.0582 -1.0502 -0.3939
 3141SOL     ow12561   6.843   1.582   4.161 -1.1269  0.6348 -0.0553
 3141SOL     hw12562   6.874   1.565   4.250  0.6683 -1.3657 -0.9895
 3141SOL     hw12563   6.781   1.512   4.144 -0.6555  0.3806 -0.7474
 3141SOL     vw12564   6.839   1.571   4.171 -0.8280  0.3373 -0.2699
 3142SOL     ow12565   5.310   3.223   2.984  0.2773  0.0225 -0.1910
 3142SOL     hw12566   5.307   3.135   2.947  0.0635  0.2105 -0.6232
 3142SOL     hw12567   5.401   3.233   3.015  0.1841 -0.5136  0.2801
 3142SOL     vw12568   5.322   3.213   2.984  0.2367 -0.0234 -0.1858
 3143SOL     ow12569   2.560   6.129   4.920 -0.5107  0.1227  0.2531
 3143SOL     hw12570   2.514   6.057   4.877  1.9498 -1.8990  0.7444
 3143SOL     hw12571   2.568   6.196   4.852 -1.4646 -0.7182 -0.7241
 3143SOL     vw12572   2.555   6.129   4.905 -0.3120 -0.2546  0.1891
 3144SOL     ow12573   1.079   1.237   1.622 -0.5107 -0.4145  0.3142
 3144SOL     hw12574   1.057   1.318   1.667 -1.5284 -0.9939  0.9127
 3144SOL     hw12575   1.004   1.219   1.565 -0.2239 -0.8462  0.0599
 3144SOL     vw12576   1.066   1.245   1.621 -0.6072 -0.5479  0.3597
 3145SOL     ow12577   3.903   7.394   6.884  0.0983 -0.4100  0.0191
 3145SOL     hw12578   3.851   7.468   6.853 -0.0171 -0.1437  0.8039
 3145SOL     hw12579   3.885   7.323   6.823  1.2470  0.5901 -1.5657
 3145SOL     vw12580   3.894   7.395   6.872  0.2346 -0.2427 -0.0863
 3146SOL     ow12581   4.685   4.156   4.140  0.1934  0.1900  0.0639
 3146SOL     hw12582   4.600   4.200   4.143  0.6724  1.0892  2.0038
 3146SOL     hw12583   4.736   4.209   4.078  0.0483  1.0509  0.6570
 3146SOL     vw12584   4.681   4.169   4.132  0.2377  0.4225  0.3979
 3147SOL     ow12585   3.887   3.397   3.122  0.1272 -0.2497  0.0966
 3147SOL     hw12586   3.876   3.486   3.155 -1.5567  0.2451 -1.6175
 3147SOL     hw12587   3.800   3.372   3.091  0.1682 -3.1240  1.9256
 3147SOL     vw12588   3.874   3.405   3.122 -0.0896 -0.5637  0.1118
 3148SOL     ow12589   7.498   0.363   4.777 -0.0329 -0.3375  0.3601
 3148SOL     hw12590   7.457   0.320   4.852 -1.2820 -0.7162 -0.5068
 3148SOL     hw12591   7.428   0.371   4.712  1.2578 -1.0287 -1.2097
 3148SOL     vw12592   7.484   0.359   4.778 -0.0274 -0.4787  0.0389
 3149SOL     ow12593   2.600   1.781   1.883 -0.1903 -0.3866  0.6289
 3149SOL     hw12594   2.690   1.815   1.881 -0.9179  1.6851  0.7954
 3149SOL     hw12595   2.595   1.723   1.806  0.2443  2.4409 -1.7336
 3149SOL     vw12596   2.611   1.778   1.872 -0.2291  0.2598  0.3391
 3150SOL     ow12597   6.149   5.760   1.685 -0.5621 -0.1666  0.1957
 3150SOL     hw12598   6.221   5.797   1.633 -0.6509 -0.1656  0.0730
 3150SOL     hw12599   6.070   5.800   1.648 -0.5121  1.2006  1.4509
 3150SOL     vw12600   6.148   5.770   1.674 -0.5674  0.0141  0.3451
 3151SOL     ow12601   6.610   5.523   1.284  0.3648 -0.1592  0.4796
 3151SOL     hw12602   6.549   5.587   1.247 -0.0128 -0.2069  1.0134
 3151SOL     hw12603   6.640   5.473   1.208  1.6162  1.4337 -0.1323
 3151SOL     vw12604   6.606   5.525   1.269  0.4799  0.0443  0.4693
 3152SOL     ow12605   3.894   2.946   2.387  0.0552  0.4455  0.0362
 3152SOL     hw12606   3.944   2.894   2.325 -2.5511 -0.1360 -1.7258
 3152SOL     hw12607   3.809   2.903   2.393 -1.6418  3.4343 -0.1730
 3152SOL     vw12608   3.889   2.934   2.380 -0.5125  0.7631 -0.2239
 3153SOL     ow12609   2.696   5.849   0.961 -0.0209 -0.7033 -0.1446
 3153SOL     hw12610   2.680   5.783   1.029 -1.2408 -0.9790 -0.6662
 3153SOL     hw12611   2.609   5.887   0.944  0.7212  1.4935  0.5659
 3153SOL     vw12612   2.682   5.845   0.968 -0.0838 -0.4499 -0.1197
 3154SOL     ow12613   0.256   7.035   6.475 -0.5731  0.4072 -0.6090
 3154SOL     hw12614   0.312   6.979   6.529 -1.7774  0.4058  0.6881
 3154SOL     hw12615   0.242   6.985   6.395  1.2468  0.4096 -0.9804
 3154SOL     vw12616   0.262   7.021   6.471 -0.4919  0.4075 -0.4866
 3155SOL     ow12617   0.204   2.069   1.302 -0.4332 -0.4254  0.2632
 3155SOL     hw12618   0.156   1.990   1.326  0.8274 -1.7295 -1.2467
 3155SOL     hw12619   0.204   2.068   1.206 -0.5006  1.5066  0.2130
 3155SOL     vw12620   0.198   2.058   1.292 -0.2758 -0.3427  0.0574
 3156SOL     ow12621   7.168   5.231   1.570  0.8466  0.0576  0.1867
 3156SOL     hw12622   7.075   5.242   1.587  1.1782  0.5250  1.8557
 3156SOL     hw12623   7.174   5.146   1.526 -0.4917  0.7671 -1.5100
 3156SOL     vw12624   7.157   5.221   1.566  0.7138  0.2129  0.1830
 3157SOL     ow12625   3.852   1.634   0.056  0.4977  0.3429  0.2766
 3157SOL     hw12626   3.920   1.697   0.033  0.6430 -0.3304 -1.3009
 3157SOL     hw12627   3.812   1.612  -0.028  0.1292 -1.2807  0.8563
 3157SOL     vw12628   3.856   1.640   0.042  0.4684  0.0398  0.1449
 3158SOL     ow12629   2.556   3.087   7.549 -0.2776 -0.3272 -0.5473
 3158SOL     hw12630   2.640   3.133   7.552  0.6521 -1.9493 -0.6406
 3158SOL     hw12631   2.493   3.155   7.525  0.8705  1.0885  0.2387
 3158SOL     vw12632   2.559   3.102   7.546 -0.0035 -0.3543 -0.4560
 3159SOL     ow12633   3.535   5.469   6.544  0.0953 -0.0230 -0.5030
 3159SOL     hw12634   3.555   5.532   6.476 -0.8673  1.1271  0.2443
 3159SOL     hw12635   3.573   5.505   6.624 -1.1522  0.0544  0.0938
 3159SOL     vw12636   3.542   5.482   6.546 -0.1961  0.1390 -0.3257
 3160SOL     ow12637   4.807   6.571   6.955 -0.6886  0.0324  0.2699
 3160SOL     hw12638   4.830   6.600   7.043 -0.4729  0.4711  0.0685
 3160SOL     hw12639   4.739   6.632   6.926  0.4761  0.9847 -0.5436
 3160SOL     vw12640   4.801   6.583   6.963 -0.5066  0.2158  0.1361
 3161SOL     ow12641   2.052   2.946   2.308 -0.4050  0.3764  0.0476
 3161SOL     hw12642   1.971   2.908   2.274 -0.5854 -0.1070  0.9749
 3161SOL     hw12643   2.122   2.906   2.257 -0.7583  1.0907 -1.0281
 3161SOL     vw12644   2.050   2.936   2.297 -0.4754  0.4070  0.0280
 3162SOL     ow12645   1.745   3.907   1.556  0.3960  0.1222 -0.4633
 3162SOL     hw12646   1.734   3.823   1.511  1.2355  0.1315 -0.6899
 3162SOL     hw12647   1.663   3.954   1.539  0.3958 -0.1836 -1.3354
 3162SOL     vw12648   1.733   3.902   1.548  0.5068  0.0831 -0.6084
 3163SOL     ow12649   3.423   6.518   2.654 -0.0842  0.1989 -0.2430
 3163SOL     hw12650   3.429   6.519   2.559 -0.6091 -0.5175 -0.2919
 3163SOL     hw12651   3.448   6.429   2.679 -2.5614 -0.4997  0.0704
 3163SOL     vw12652   3.427   6.506   2.645 -0.4802  0.0124 -0.2080
 3164SOL     ow12653   4.553   1.757   0.616  0.3905 -0.0496 -0.1259
 3164SOL     hw12654   4.571   1.663   0.620 -0.2925 -0.1678  0.4102
 3164SOL     hw12655   4.537   1.782   0.707  1.4608  0.7811 -0.1442
 3164SOL     vw12656   4.553   1.748   0.629  0.4416  0.0443 -0.0576
 3165SOL     ow12657   5.183   3.837   3.626 -0.7083  0.3439 -0.1954
 3165SOL     hw12658   5.198   3.914   3.571  1.4117  0.7146  0.8053
 3165SOL     hw12659   5.190   3.763   3.565 -0.5342  0.8389 -0.7943
 3165SOL     vw12660   5.186   3.837   3.610 -0.4058  0.4581 -0.1422
 3166SOL     ow12661   1.245   3.694   1.917 -0.0337 -0.4807 -0.3220
 3166SOL     hw12662   1.332   3.715   1.881  0.1859 -1.7749 -0.6095
 3166SOL     hw12663   1.241   3.742   1.999  0.2575  0.9665 -1.1261
 3166SOL     vw12664   1.256   3.703   1.923  0.0337 -0.4607 -0.4660
 3167SOL     ow12665   0.312   7.122   1.842  0.1259 -0.1457  0.6173
 3167SOL     hw12666   0.219   7.139   1.827  0.3055 -0.1953 -0.6465
 3167SOL     hw12667   0.326   7.143   1.935 -0.7930  1.4262  0.4180
 3167SOL     vw12668   0.302   7.127   1.852  0.0284  0.0553  0.4242
 3168SOL     ow12669   7.108   7.182   3.248  0.5365  0.1375 -0.4428
 3168SOL     hw12670   7.046   7.123   3.206  0.2548  0.0831  0.0413
 3168SOL     hw12671   7.063   7.267   3.249  0.7063  0.2309 -0.6138
 3168SOL     vw12672   7.094   7.186   3.242  0.5219  0.1423 -0.4014
 3169SOL     ow12673   4.374   6.350   5.694  0.1705 -0.2887 -0.0317
 3169SOL     hw12674   4.352   6.416   5.628 -0.3355 -0.4685 -0.0475
 3169SOL     hw12675   4.427   6.397   5.759  1.5902 -0.3584 -1.1000
 3169SOL     vw12676   4.378   6.365   5.694  0.2911 -0.3211 -0.1748
 3170SOL     ow12677   3.762   4.710   0.450 -0.6047  0.0716  1.2040
 3170SOL     hw12678   3.828   4.700   0.519 -0.1559  2.8787  1.3041
 3170SOL     hw12679   3.798   4.661   0.375  1.4967  1.2683  1.3477
 3170SOL     vw12680   3.776   4.702   0.449 -0.2683  0.5999  1.2361
 3171SOL     ow12681   1.832   5.187   4.080  0.1729 -0.2396 -0.1453
 3171SOL     hw12682   1.737   5.190   4.091  0.2533  0.4093  0.5517
 3171SOL     hw12683   1.847   5.201   3.987 -0.4146 -0.2397 -0.2401
 3171SOL     vw12684   1.821   5.189   4.069  0.1060 -0.1540 -0.0660
 3172SOL     ow12685   5.753   2.773   3.812  0.7671 -0.4880  0.1471
 3172SOL     hw12686   5.700   2.849   3.837 -0.1853 -1.0046 -0.2443
 3172SOL     hw12687   5.841   2.793   3.844  0.4498  0.6210  0.3560
 3172SOL     vw12688   5.757   2.786   3.819  0.5994 -0.4097  0.1230
 3173SOL     ow12689   0.070   0.938   6.922  0.1944 -0.5772  0.3688
 3173SOL     hw12690   0.026   0.943   7.008  1.2022  1.2139  0.8266
 3173SOL     hw12691  -0.001   0.927   6.860 -0.5674 -1.9046  1.4253
 3173SOL     vw12692   0.055   0.937   6.925  0.2268 -0.5160  0.5686
 3174SOL     ow12693   6.329   0.384   3.731 -0.1435  0.4136  0.5381
 3174SOL     hw12694   6.278   0.438   3.792 -0.0126  1.7792 -0.4960
 3174SOL     hw12695   6.270   0.314   3.705 -0.5572  0.4236  1.4131
 3174SOL     vw12696   6.314   0.382   3.736 -0.1807  0.5951  0.5169
 3175SOL     ow12697   2.626   2.509   6.900 -0.0330  0.4214 -0.6549
 3175SOL     hw12698   2.675   2.441   6.947  1.4630  0.4086 -2.1269
 3175SOL     hw12699   2.539   2.472   6.890  0.5301 -0.9700 -0.7250
 3175SOL     vw12700   2.621   2.495   6.905  0.2387  0.2360 -0.8583
 3176SOL     ow12701   2.404   6.204   2.277  0.3839  0.0193  0.0091
 3176SOL     hw12702   2.432   6.226   2.188  1.0656  0.7549  0.3937
 3176SOL     hw12703   2.308   6.208   2.273  0.4337  2.2909 -0.1784
 3176SOL     vw12704   2.395   6.207   2.265  0.4804  0.4160  0.0352
 3177SOL     ow12705   3.556   5.722   0.642  1.0152  0.3645 -0.4568
 3177SOL     hw12706   3.493   5.662   0.603  0.7971  0.5452 -0.3834
 3177SOL     hw12707   3.517   5.808   0.632  0.1407  0.2881  1.6837
 3177SOL     vw12708   3.543   5.725   0.636  0.8711  0.3781 -0.1647
 3178SOL     ow12709   6.035   3.266   7.531 -0.1554  0.1610 -0.9832
 3178SOL     hw12710   6.110   3.207   7.540  0.9836  1.2755 -2.6188
 3178SOL     hw12711   5.958   3.209   7.536  0.5696 -0.8119  2.9598
 3178SOL     vw12712   6.035   3.251   7.533  0.0906  0.1798 -0.6785
 3179SOL     ow12713   3.271   3.203   5.498 -0.0011  0.0851 -0.0267
 3179SOL     hw12714   3.249   3.119   5.538 -0.5691  0.3703  0.2819
 3179SOL     hw12715   3.188   3.251   5.498  0.6988  1.3622  1.5591
 3179SOL     vw12716   3.257   3.198   5.503  0.0162  0.2912  0.2236
 3180SOL     ow12717   5.521   7.164   4.881 -0.5974 -0.2405  0.0980
 3180SOL     hw12718   5.514   7.251   4.842 -2.3813 -0.4691 -0.1857
 3180SOL     hw12719   5.448   7.160   4.943  0.9350 -0.6605  1.9624
 3180SOL     vw12720   5.510   7.175   4.884 -0.6304 -0.3259  0.3066
 3181SOL     ow12721   1.320   5.980   0.215  0.0112 -0.2710 -0.4486
 3181SOL     hw12722   1.244   6.032   0.240 -1.9906 -3.6104  1.0758
 3181SOL     hw12723   1.388   6.006   0.278 -0.7897  0.7301  0.0260
 3181SOL     vw12724   1.319   5.990   0.227 -0.3586 -0.5794 -0.1849
 3182SOL     ow12725   5.938   7.460   2.216 -0.0045 -0.2733 -0.0683
 3182SOL     hw12726   5.985   7.498   2.142  1.5143  2.1429  1.9714
 3182SOL     hw12727   5.851   7.499   2.212 -0.0080 -0.3428 -0.7086
 3182SOL     vw12728   5.933   7.470   2.206  0.1955  0.0362  0.1163
 3183SOL     ow12729   4.724   7.007   2.390 -0.1565  0.1269 -0.2148
 3183SOL     hw12730   4.792   7.057   2.436 -0.1712 -0.5360  0.5456
 3183SOL     hw12731   4.667   6.976   2.459 -1.5783  1.1367 -0.8871
 3183SOL     vw12732   4.726   7.010   2.405 -0.3459  0.1726 -0.2031
 3184SOL     ow12733   5.269   6.665   3.688 -0.2252 -0.5558  0.2175
 3184SOL     hw12734   5.189   6.641   3.734  0.0055  0.2766  1.0740
 3184SOL     hw12735   5.276   6.760   3.698  1.0822 -0.6589  0.5183
 3184SOL     vw12736   5.259   6.674   3.695 -0.0224 -0.4594  0.3703
 3185SOL     ow12737   6.233   0.386   2.835 -0.5529 -0.3276  0.1953
 3185SOL     hw12738   6.195   0.474   2.839  1.7747  0.7568 -0.2489
 3185SOL     hw12739   6.222   0.352   2.924  2.0393  2.0570  1.5871
 3185SOL     vw12740   6.226   0.393   2.847  0.0961  0.1301  0.3201
 3186SOL     ow12741   5.875   4.015   4.060 -0.4799 -0.5635  0.3509
 3186SOL     hw12742   5.855   3.961   4.137  1.8882  0.0737  1.5142
 3186SOL     hw12743   5.969   4.033   4.067 -0.3145  0.0953 -2.3616
 3186SOL     vw12744   5.885   4.010   4.071 -0.1454 -0.3924  0.1464
 3187SOL     ow12745   4.475   6.212   4.433  0.2412  0.0796  0.2941
 3187SOL     hw12746   4.567   6.191   4.443 -0.1972 -5.2105 -2.8402
 3187SOL     hw12747   4.471   6.268   4.355  0.7602  0.8646  0.8168
 3187SOL     vw12748   4.486   6.217   4.424  0.2522 -0.5147 -0.0503
 3188SOL     ow12749   7.270   5.929   1.260 -0.1074  0.1715  0.0639
 3188SOL     hw12750   7.221   5.972   1.190 -1.8118 -0.2941  0.9181
 3188SOL     hw12751   7.308   6.001   1.311 -1.0485  0.6014  0.1748
 3188SOL     vw12752   7.269   5.944   1.257 -0.4566  0.1669  0.1913
 3189SOL     ow12753   5.342   7.453   5.782 -0.1493 -0.0632  0.2355
 3189SOL     hw12754   5.435   7.432   5.786 -0.7549 -2.9581  2.2208
 3189SOL     hw12755   5.321   7.486   5.869 -0.7207  2.3655 -0.7368
 3189SOL     vw12756   5.352   7.454   5.794 -0.3047 -0.1247  0.3691
 3190SOL     ow12757   0.017   4.449   6.591  0.1129 -0.3987 -0.0593
 3190SOL     hw12758   0.061   4.495   6.520  0.3884 -0.8015 -0.1559
 3190SOL     hw12759   0.064   4.365   6.598 -0.3997 -0.6790  0.0816
 3190SOL     vw12760   0.029   4.444   6.582  0.0816 -0.4888 -0.0534
 3191SOL     ow12761   6.221   5.335   1.587 -0.7209  0.1630 -0.3154
 3191SOL     hw12762   6.225   5.376   1.673 -2.8297  1.3527 -0.7121
 3191SOL     hw12763   6.220   5.241   1.605 -1.3994  0.3949  0.9962
 3191SOL     vw12764   6.221   5.328   1.600 -1.0889  0.3507 -0.1947
 3192SOL     ow12765   7.504   4.565   5.808  0.4699  0.3148 -0.2134
 3192SOL     hw12766   7.437   4.516   5.760  0.8076 -0.2828 -0.0764
 3192SOL     hw12767   7.537   4.629   5.744  0.8381 -0.4004 -0.7474
 3192SOL     vw12768   7.500   4.567   5.793  0.5631  0.1414 -0.2658
 3193SOL     ow12769   3.997   4.594   0.271  0.5137 -0.0889  0.5351
 3193SOL     hw12770   3.977   4.507   0.305 -2.2888 -0.0196 -0.6276
 3193SOL     hw12771   4.071   4.624   0.323  0.5792 -2.5397  2.0101
 3193SOL     vw12772   4.004   4.587   0.282  0.1526 -0.4032  0.5763
 3194SOL     ow12773   0.170   0.032   2.080 -0.0903  0.2162 -0.1915
 3194SOL     hw12774   0.112   0.004   2.009  1.5985  0.3523 -1.7043
 3194SOL     hw12775   0.242  -0.031   2.078 -0.9580 -0.9944  2.7897
 3194SOL     vw12776   0.172   0.020   2.070  0.0180  0.0744  0.0021
 3195SOL     ow12777   1.410   4.573   6.434 -0.4190  0.2890 -0.1396
 3195SOL     hw12778   1.345   4.511   6.401  0.8100 -0.7904 -0.6268
 3195SOL     hw12779   1.433   4.627   6.357  2.0027 -1.8345 -1.0428
 3195SOL     vw12780   1.404   4.572   6.419  0.0628 -0.1335 -0.3233
 3196SOL     ow12781   6.492   7.537   5.659  0.3137  0.1767  0.0571
 3196SOL     hw12782   6.580   7.526   5.695  0.3164  2.2639  0.8064
 3196SOL     hw12783   6.506   7.558   5.566  0.8439  3.2281  0.7337
 3196SOL     vw12784   6.506   7.538   5.651  0.3841  0.8547  0.2453
 3197SOL     ow12785   6.772   4.902   5.249  0.0131 -0.0347 -0.2246
 3197SOL     hw12786   6.750   4.809   5.245 -0.3306  0.0540 -0.4314
 3197SOL     hw12787   6.689   4.947   5.237  0.4627  0.3161 -2.4025
 3197SOL     vw12788   6.759   4.896   5.247  0.0272  0.0231 -0.5393
 3198SOL     ow12789   6.443   1.452   5.597 -0.0325  0.7048 -0.2697
 3198SOL     hw12790   6.426   1.522   5.659 -1.8781 -0.0251  0.1155
 3198SOL     hw12791   6.417   1.372   5.643 -2.1862  0.2021 -2.1529
 3198SOL     vw12792   6.437   1.451   5.611 -0.5603  0.5421 -0.4673
 3199SOL     ow12793   6.964   6.878   5.337  0.4772 -0.0962  0.2066
 3199SOL     hw12794   7.042   6.852   5.287  1.5557  0.4044  1.5544
 3199SOL     hw12795   6.978   6.840   5.424 -1.8531 -1.8418 -0.0877
 3199SOL     vw12796   6.976   6.869   5.342  0.3121 -0.2606  0.3457
 3200SOL     ow12797   4.549   3.337   1.999  0.1753 -0.0169 -0.4391
 3200SOL     hw12798   4.603   3.341   2.078  0.0458 -0.3112 -0.3324
 3200SOL     hw12799   4.467   3.296   2.028  0.7922 -1.8271 -1.0792
 3200SOL     vw12800   4.545   3.332   2.013  0.2394 -0.2946 -0.5095
 3201SOL     ow12801   6.248   2.588   1.070 -0.1555  0.2068  0.0011
 3201SOL     hw12802   6.245   2.659   1.134  0.3828 -0.6401  0.9992
 3201SOL     hw12803   6.239   2.631   0.985  1.3771  1.5866  0.4982
 3201SOL     vw12804   6.246   2.603   1.067  0.1175  0.2770  0.1984
 3202SOL     ow12805   3.955   0.441   1.848  0.9882 -0.1140  0.9043
 3202SOL     hw12806   3.947   0.354   1.809 -0.7323  0.7121 -0.7500
 3202SOL     hw12807   3.900   0.437   1.926  0.5236 -0.3823  0.5716
 3202SOL     vw12808   3.946   0.429   1.853  0.7000 -0.0404  0.6421
 3203SOL     ow12809   2.418   5.294   3.168 -0.1726 -0.0815  0.5449
 3203SOL     hw12810   2.391   5.358   3.233  0.1588  1.3502 -0.6608
 3203SOL     hw12811   2.335   5.262   3.131 -0.3428 -0.3141  1.1252
 3203SOL     vw12812   2.403   5.298   3.171 -0.1514  0.0765  0.4625
 3204SOL     ow12813   0.672   0.107   3.847 -0.5116  0.0483  0.1848
 3204SOL     hw12814   0.630   0.075   3.927  0.3746  0.1813  0.7162
 3204SOL     hw12815   0.762   0.073   3.852 -0.7293 -0.8232 -1.2672
 3204SOL     vw12816   0.679   0.098   3.858 -0.4234 -0.0491  0.0633
 3205SOL     ow12817   4.622   2.194   5.995  0.2814 -0.0022 -0.1164
 3205SOL     hw12818   4.718   2.196   5.984  0.0489 -0.1127 -3.1453
 3205SOL     hw12819   4.588   2.194   5.905 -2.6172  0.9131  0.8654
 3205SOL     vw12820   4.631   2.194   5.982 -0.1321  0.1040 -0.3865
 3206SOL     ow12821   2.031   3.751   1.167 -0.0475  0.2222  0.3450
 3206SOL     hw12822   1.985   3.735   1.085  1.2955  1.4813 -0.7025
 3206SOL     hw12823   2.120   3.717   1.152  0.2084  0.4486  1.2740
 3206SOL     vw12824   2.037   3.744   1.154  0.1634  0.4182  0.3293
 3207SOL     ow12825   6.608   0.645   0.980  0.0530  0.1733  0.0768
 3207SOL     hw12826   6.532   0.689   0.944 -0.2242  1.7478  2.3968
 3207SOL     hw12827   6.575   0.560   1.011 -0.8577  0.9732  1.3503
 3207SOL     vw12828   6.594   0.639   0.980 -0.1035  0.4866  0.5509
 3208SOL     ow12829   3.891   4.123   0.003 -0.5138 -0.3645 -0.6110
 3208SOL     hw12830   3.845   4.109  -0.080 -1.1764  2.5521 -0.8297
 3208SOL     hw12831   3.904   4.217   0.008  0.7063 -0.5808  2.0130
 3208SOL     vw12832   3.886   4.133  -0.007 -0.4404 -0.0081 -0.2936
 3209SOL     ow12833   4.594   5.127   0.945 -0.7289  0.2089  0.0667
 3209SOL     hw12834   4.622   5.215   0.919  1.8234 -1.1128 -2.1096
 3209SOL     hw12835   4.635   5.113   1.029  0.7517  0.3096 -0.6129
 3209SOL     vw12836   4.603   5.137   0.952 -0.1969  0.0479 -0.3101
 3210SOL     ow12837   0.723   6.217   6.447  0.1459  0.4321  0.2734
 3210SOL     hw12838   0.691   6.184   6.531 -1.6511 -0.0381 -0.5501
 3210SOL     hw12839   0.661   6.286   6.423 -1.3680 -1.6091 -2.1591
 3210SOL     vw12840   0.710   6.222   6.455 -0.2909  0.1009 -0.1562
 3211SOL     ow12841   3.200   2.049   5.490  0.2386  0.0671  0.7194
 3211SOL     hw12842   3.110   2.041   5.458  0.3710 -0.2375  0.4142
 3211SOL     hw12843   3.254   2.035   5.412  0.5328  2.4908  0.4003
 3211SOL     vw12844   3.195   2.047   5.475  0.2949  0.3467  0.6373
 3212SOL     ow12845   4.885   3.326   5.198 -0.1377 -0.3765  0.2883
 3212SOL     hw12846   4.794   3.312   5.172 -0.7007  4.9035 -1.7985
 3212SOL     hw12847   4.881   3.399   5.261  2.6115  0.0453  0.0836
 3212SOL     vw12848   4.872   3.334   5.203  0.1509  0.3757 -0.0138
 3213SOL     ow12849   6.535   4.292   2.328 -0.2825  0.0540  0.1246
 3213SOL     hw12850   6.501   4.274   2.241 -2.0658  0.1818  0.7401
 3213SOL     hw12851   6.463   4.337   2.373  0.3902 -0.4648  1.8212
 3213SOL     vw12852   6.521   4.296   2.323 -0.4289  0.0024  0.4297
 3214SOL     ow12853   3.810   5.059   6.754  0.0051 -0.2495 -0.0277
 3214SOL     hw12854   3.901   5.086   6.739  0.2965  0.1553  2.1305
 3214SOL     hw12855   3.815   4.964   6.767  0.3536 -0.0670  1.3607
 3214SOL     vw12856   3.823   5.050   6.754  0.0894 -0.1719  0.4404
 3215SOL     ow12857   7.491   5.863   0.135 -0.8149  0.0859 -0.2156
 3215SOL     hw12858   7.415   5.832   0.186 -2.4888  0.9870 -2.0368
 3215SOL     hw12859   7.474   5.956   0.123  1.5372  0.7086  0.8160
 3215SOL     vw12860   7.478   5.871   0.140 -0.7255  0.2868 -0.3198
 3216SOL     ow12861   0.192   3.105   1.749 -0.1822 -0.8835  0.8928
 3216SOL     hw12862   0.279   3.141   1.733 -0.1268 -0.3655  2.2307
 3216SOL     hw12863   0.133   3.162   1.699  0.2462 -1.3836 -0.2150
 3216SOL     vw12864   0.196   3.118   1.740 -0.1184 -0.8811  0.9233
 3217SOL     ow12865   2.440   0.197   1.344 -0.4937  0.2817  0.1626
 3217SOL     hw12866   2.370   0.192   1.409 -0.8717  1.4273 -0.1381
 3217SOL     hw12867   2.514   0.237   1.391 -0.7233  0.9856 -0.0698
 3217SOL     vw12868   2.441   0.202   1.359 -0.5739  0.5257  0.0922
 3218SOL     ow12869   5.016   2.214   3.424  0.5210 -0.0006  0.3498
 3218SOL     hw12870   5.105   2.233   3.395  0.4759  1.0773  0.8322
 3218SOL     hw12871   4.970   2.298   3.415 -0.4135 -0.5079  0.2329
 3218SOL     vw12872   5.022   2.228   3.419  0.3917  0.0747  0.3980
 3219SOL     ow12873   4.510   6.407   6.891  0.5614 -0.2442  0.6504
 3219SOL     hw12874   4.494   6.320   6.926 -0.5277  0.4392  1.9068
 3219SOL     hw12875   4.457   6.465   6.945 -1.1152  0.8953 -2.0404
 3219SOL     vw12876   4.501   6.403   6.903  0.1967 -0.0038  0.4609
 3220SOL     ow12877   5.926   3.072   1.065  0.1957 -0.1308 -0.6785
 3220SOL     hw12878   6.016   3.080   1.034  0.0069 -0.8750 -1.4485
 3220SOL     hw12879   5.927   2.995   1.121  0.3413  0.7046  0.5116
 3220SOL     vw12880   5.938   3.063   1.068  0.1898 -0.1186 -0.6232
 3221SOL     ow12881   1.825   2.822   5.822 -0.2752  0.1818  0.5661
 3221SOL     hw12882   1.755   2.766   5.788  1.8154 -2.2816 -0.0277
 3221SOL     hw12883   1.858   2.867   5.744  0.3234 -0.5165  0.4026
 3221SOL     vw12884   1.820   2.821   5.807  0.0796 -0.2353  0.4663
 3222SOL     ow12885   1.820   6.338   0.538 -0.1642  0.7667  0.8884
 3222SOL     hw12886   1.768   6.268   0.577  0.1985  0.0728  0.1494
 3222SOL     hw12887   1.855   6.387   0.613  0.1259 -0.2466  1.4316
 3222SOL     vw12888   1.818   6.335   0.553 -0.0781  0.5414  0.8626
 3223SOL     ow12889   4.719   5.069   5.634 -0.0756  0.1946 -0.0210
 3223SOL     hw12890   4.727   5.088   5.727 -1.5617  2.3703 -0.2498
 3223SOL     hw12891   4.639   5.018   5.626 -0.6694  1.1436 -0.2161
 3223SOL     vw12892   4.710   5.065   5.645 -0.3500  0.6070 -0.0770
 3224SOL     ow12893   1.383   3.851   6.734  0.3422 -0.0167 -0.0931
 3224SOL     hw12894   1.438   3.929   6.737  0.6100 -0.2354  1.5468
 3224SOL     hw12895   1.444   3.778   6.745 -0.1310 -0.3334  0.4632
 3224SOL     vw12896   1.398   3.852   6.736  0.3152 -0.0874  0.1967
 3225SOL     ow12897   3.278   5.815   0.429 -0.8881 -0.3220 -0.3450
 3225SOL     hw12898   3.252   5.875   0.359 -0.5760  0.4842  0.2205
 3225SOL     hw12899   3.340   5.865   0.482 -0.6151 -1.1496  0.1331
 3225SOL     vw12900   3.282   5.829   0.427 -0.8110 -0.3245 -0.2073
 3226SOL     ow12901   2.427   4.506   2.600 -0.4363  0.3251 -0.2059
 3226SOL     hw12902   2.500   4.503   2.539 -0.0360  0.5314  0.2582
 3226SOL     hw12903   2.399   4.415   2.608 -0.9162  0.3706 -1.1905
 3226SOL     vw12904   2.433   4.493   2.593 -0.4468  0.3583 -0.2747
 3227SOL     ow12905   6.960   4.786   6.046  0.2644  0.1466 -0.8084
 3227SOL     hw12906   6.952   4.694   6.020  0.7204 -0.0020 -0.4477
 3227SOL     hw12907   6.871   4.820   6.042  0.3529  0.2801 -3.0428
 3227SOL     vw12908   6.947   4.779   6.042  0.3362  0.1447 -1.0555
 3228SOL     ow12909   0.122   1.708   6.088  0.2740 -0.5742 -0.1669
 3228SOL     hw12910   0.047   1.741   6.038 -1.1561 -1.1233  1.5032
 3228SOL     hw12911   0.182   1.782   6.092 -0.3072 -0.0169 -1.2863
 3228SOL     vw12912   0.120   1.722   6.082  0.0087 -0.5731 -0.0942
 3229SOL     ow12913   0.718   4.750   1.345  0.6902  0.0515 -0.1855
 3229SOL     hw12914   0.649   4.744   1.279  2.6366 -1.2871 -2.2321
 3229SOL     hw12915   0.728   4.661   1.377  0.4996  0.5025  1.1885
 3229SOL     vw12916   0.710   4.738   1.341  0.9218 -0.0653 -0.2742
 3230SOL     ow12917   2.105   3.095   0.624 -0.1402  0.3547  0.3569
 3230SOL     hw12918   2.092   3.159   0.555 -0.6138 -2.2484 -2.1881
 3230SOL     hw12919   2.024   3.098   0.676 -0.9704  0.5290 -0.9059
 3230SOL     vw12920   2.093   3.104   0.622 -0.3122  0.0342 -0.1455
 3231SOL     ow12921   4.786   3.251   4.665  0.1075 -0.4724 -0.0439
 3231SOL     hw12922   4.862   3.309   4.668  0.1040 -0.4871  1.6881
 3231SOL     hw12923   4.739   3.277   4.586  1.4310  0.1455 -0.6591
 3231SOL     vw12924   4.790   3.262   4.655  0.2816 -0.3928  0.1032
 3232SOL     ow12925   4.763   2.695   4.943  0.5524 -0.4328  0.0465
 3232SOL     hw12926   4.788   2.778   4.985 -0.3253 -0.6080  0.9386
 3232SOL     hw12927   4.687   2.665   4.992  1.0534 -1.9461 -0.0649
 3232SOL     vw12928   4.757   2.702   4.955  0.5026 -0.6555  0.1497
 3233SOL     ow12929   7.051   6.181   2.947 -0.1531 -0.3881  0.6387
 3233SOL     hw12930   7.086   6.133   2.872 -0.4440 -1.0568  0.9251
 3233SOL     hw12931   7.031   6.268   2.913 -0.0114 -0.5953  0.0161
 3233SOL     vw12932   7.053   6.187   2.933 -0.1731 -0.5040  0.5943
 3234SOL     ow12933   4.252   4.715   0.328  0.6682  0.3284 -0.0337
 3234SOL     hw12934   4.300   4.633   0.316  1.6029  1.0058 -1.1314
 3234SOL     hw12935   4.298   4.760   0.398  0.8093  0.3808 -0.1593
 3234SOL     vw12936   4.264   4.710   0.336  0.8101  0.4246 -0.1951
 3235SOL     ow12937   6.149   1.108   6.146  0.6294 -0.1816  0.3145
 3235SOL     hw12938   6.230   1.157   6.165  0.0757  0.9695 -0.1659
 3235SOL     hw12939   6.080   1.157   6.191  0.1718 -1.0808  0.6097
 3235SOL     vw12940   6.151   1.121   6.154  0.4959 -0.1484  0.2899
 3236SOL     ow12941   2.211   2.497   3.273 -0.4669 -0.2257 -0.1845
 3236SOL     hw12942   2.207   2.412   3.229 -1.2957 -0.1933 -0.1893
 3236SOL     hw12943   2.296   2.497   3.317 -0.6057 -1.2075  0.1178
 3236SOL     vw12944   2.222   2.486   3.273 -0.5945 -0.3510 -0.1453
 3237SOL     ow12945   4.713   4.506   0.413 -0.1323 -0.5857  0.3522
 3237SOL     hw12946   4.636   4.462   0.450 -0.7507 -0.7129 -1.0103
 3237SOL     hw12947   4.712   4.481   0.320  0.7446  0.5631  0.0128
 3237SOL     vw12948   4.703   4.497   0.405 -0.0982 -0.4511  0.1276
 3238SOL     ow12949   5.367   3.231   1.178  0.0604  0.3097  0.0062
 3238SOL     hw12950   5.309   3.156   1.191 -1.5463  1.6994  1.2772
 3238SOL     hw12951   5.408   3.245   1.263  0.1704  1.0150 -0.1587
 3238SOL     vw12952   5.365   3.223   1.191 -0.1371  0.5862  0.1521
 3239SOL     ow12953   0.174   0.556   4.702  0.5536  0.5726  0.1456
 3239SOL     hw12954   0.238   0.623   4.680 -0.5087  1.2489 -1.0305
 3239SOL     hw12955   0.090   0.591   4.670 -0.4733 -0.1160  1.9487
 3239SOL     vw12956   0.171   0.569   4.695  0.2780  0.5710  0.2284
 3240SOL     ow12957   1.057   7.089   0.493 -0.1352 -0.5335 -0.0366
 3240SOL     hw12958   1.152   7.081   0.487 -0.3194 -2.5408 -1.1010
 3240SOL     hw12959   1.036   7.169   0.445  0.8111 -1.5770 -2.3108
 3240SOL     vw12960   1.067   7.098   0.486 -0.0346 -0.9360 -0.4771
 3241SOL     ow12961   4.329   0.458   4.059  0.2041  0.1818  0.2268
 3241SOL     hw12962   4.294   0.451   4.148  0.7255 -0.5983  0.3772
 3241SOL     hw12963   4.316   0.371   4.021  0.1323  0.4642 -0.4073
 3241SOL     vw12964   4.323   0.446   4.066  0.2635  0.1161  0.1631
 3242SOL     ow12965   0.185   4.708   3.038 -0.6983 -0.3717 -0.4698
 3242SOL     hw12966   0.281   4.699   3.043 -0.7261 -0.5874 -0.3175
 3242SOL     hw12967   0.156   4.627   2.995 -0.6843  0.3282 -1.8386
 3242SOL     vw12968   0.194   4.696   3.033 -0.7001 -0.3078 -0.6304
 3243SOL     ow12969   1.555   4.808   2.530 -0.0200  0.2520  0.5175
 3243SOL     hw12970   1.578   4.729   2.579 -0.2057  2.1295  3.9387
 3243SOL     hw12971   1.628   4.868   2.546  0.5950  0.6134 -2.8074
 3243SOL     vw12972   1.568   4.805   2.538  0.0366  0.5474  0.5302
 3244SOL     ow12973   6.580   5.914   6.473  0.0770 -0.2352  0.5018
 3244SOL     hw12974   6.636   5.902   6.396  1.8268 -0.2296  1.7210
 3244SOL     hw12975   6.514   5.978   6.445  1.3513  0.6152 -0.6730
 3244SOL     vw12976   6.578   5.921   6.459  0.4759 -0.1221  0.5076
 3245SOL     ow12977   6.357   0.431   2.102  0.1252 -0.2281 -0.1602
 3245SOL     hw12978   6.288   0.495   2.087 -0.3009 -0.1459  1.9111
 3245SOL     hw12979   6.311   0.347   2.104  0.2986 -0.3249 -0.2525
 3245SOL     vw12980   6.342   0.428   2.100  0.0920 -0.2300  0.1010
 3246SOL     ow12981   6.916   1.669   1.291 -0.0915 -0.1938  0.5468
 3246SOL     hw12982   7.003   1.629   1.293  0.2287  0.5036  0.9561
 3246SOL     hw12983   6.892   1.677   1.383  0.1664  1.2070  0.5105
 3246SOL     vw12984   6.925   1.665   1.304 -0.0153  0.0830  0.5960
 3247SOL     ow12985   3.211   4.776   5.647  0.3361 -0.9137  0.4060
 3247SOL     hw12986   3.276   4.769   5.717  1.8908 -0.7913 -0.9601
 3247SOL     hw12987   3.251   4.730   5.573  0.2621  1.7770 -1.4232
 3247SOL     vw12988   3.225   4.769   5.646  0.5316 -0.5426 -0.0155
 3248SOL     ow12989   4.577   6.910   6.137  0.0453 -0.2399  0.4559
 3248SOL     hw12990   4.539   6.977   6.193 -0.0789 -0.2799  0.4191
 3248SOL     hw12991   4.573   6.947   6.049  1.5260  0.4123  0.6416
 3248SOL     vw12992   4.571   6.923   6.133  0.2241 -0.1590  0.4756
 3249SOL     ow12993   6.132   2.757   0.576  0.5605  0.0233  0.1172
 3249SOL     hw12994   6.166   2.779   0.663  0.9857 -2.4281  0.6508
 3249SOL     hw12995   6.210   2.749   0.521  0.5326 -1.1101  0.2156
 3249SOL     vw12996   6.147   2.759   0.580  0.6127 -0.4497  0.2006
 3250SOL     ow12997   2.709   0.584   3.458 -0.8694  0.2634  0.2371
 3250SOL     hw12998   2.775   0.651   3.470  1.1151 -1.7903  1.5830
 3250SOL     hw12999   2.719   0.526   3.533 -1.6293 -2.2012 -1.4294
 3250SOL     vw13000   2.719   0.585   3.470 -0.7079 -0.3327  0.1949
 3251SOL     ow13001   3.846   6.969   7.535  0.3914  0.0458 -0.0324
 3251SOL     hw13002   3.855   6.896   7.596 -0.8943 -1.0033 -1.0431
 3251SOL     hw13003   3.754   6.995   7.542  0.5004  0.6466 -0.6951
 3251SOL     vw13004   3.835   6.963   7.544  0.2363 -0.0131 -0.2532
 3252SOL     ow13005   0.589   4.341   6.268 -1.0758 -0.5836  0.2131
 3252SOL     hw13006   0.659   4.403   6.288 -0.9515 -1.0847  1.4470
 3252SOL     hw13007   0.583   4.287   6.347 -3.6105  0.1509  0.5959
 3252SOL     vw13008   0.598   4.342   6.281 -1.3939 -0.5529  0.4265
 3253SOL     ow13009   0.819   5.860   4.417  0.1743 -0.1027  0.3819
 3253SOL     hw13010   0.811   5.825   4.506 -2.4518 -0.2133  0.1832
 3253SOL     hw13011   0.745   5.919   4.407  0.0897 -0.4794 -1.8964
 3253SOL     vw13012   0.808   5.863   4.427 -0.1833 -0.1671  0.0551
 3254SOL     ow13013   5.170   3.119   2.185 -0.7293 -0.0316  0.0716
 3254SOL     hw13014   5.180   3.065   2.264  0.8286  2.2803  1.6197
 3254SOL     hw13015   5.089   3.168   2.199 -2.2036 -1.9060 -1.3831
 3254SOL     vw13016   5.161   3.118   2.198 -0.7181  0.0261  0.0839
 3255SOL     ow13017   4.401   5.060   0.401  0.5974  0.5103 -0.5074
 3255SOL     hw13018   4.343   5.097   0.335 -1.1423 -0.8621  0.1758
 3255SOL     hw13019   4.439   4.983   0.360  1.1188  0.8025 -0.5827
 3255SOL     vw13020   4.398   5.055   0.387  0.4365  0.3681 -0.4272
 3256SOL     ow13021   6.913   3.093   6.700 -0.9548  0.5110  0.1598
 3256SOL     hw13022   6.859   3.077   6.777 -1.3505  0.9800 -0.0183
 3256SOL     hw13023   6.998   3.055   6.722 -1.1603  0.3622  0.7010
 3256SOL     vw13024   6.917   3.086   6.713 -1.0343  0.5534  0.2079
 3257SOL     ow13025   1.083   2.908   3.320 -0.3888  0.0970  0.2195
 3257SOL     hw13026   1.101   2.956   3.401  0.0894 -0.0985  0.2369
 3257SOL     hw13027   1.009   2.852   3.341  1.1195 -1.6228  1.2572
 3257SOL     vw13028   1.076   2.907   3.333 -0.1267 -0.1558  0.3588
 3258SOL     ow13029   4.384   2.795   6.774  0.2080  0.2252  0.2446
 3258SOL     hw13030   4.350   2.749   6.851  0.3037 -2.5720 -1.2632
 3258SOL     hw13031   4.479   2.782   6.779  0.2338  0.2372 -0.2296
 3258SOL     vw13032   4.392   2.788   6.785  0.2241 -0.1423 -0.0167
 3259SOL     ow13033   2.648   2.637   0.225  0.0702  0.3847 -0.1143
 3259SOL     hw13034   2.701   2.606   0.299 -0.5068  2.0527  1.0627
 3259SOL     hw13035   2.557   2.621   0.252 -0.1658  1.4438 -0.2387
 3259SOL     vw13036   2.643   2.631   0.238 -0.0371  0.7445  0.0246
 3260SOL     ow13037   1.910   7.150   4.186  0.0952  0.2078 -0.3145
 3260SOL     hw13038   1.868   7.180   4.105  0.6506 -0.5867 -0.9212
 3260SOL     hw13039   1.880   7.059   4.196  0.0900  0.2755  0.3389
 3260SOL     vw13040   1.900   7.142   4.176  0.1678  0.1118 -0.3085
 3261SOL     ow13041   1.573   6.811   5.859  0.4751  0.9452  0.1554
 3261SOL     hw13042   1.611   6.839   5.942  0.8374  1.6513 -0.2438
 3261SOL     hw13043   1.648   6.784   5.806  0.2856  0.9167 -0.0991
 3261SOL     vw13044   1.588   6.811   5.863  0.4979  1.0345  0.0694
 3262SOL     ow13045   1.392   2.708   1.866 -0.0577 -0.3470 -0.2252
 3262SOL     hw13046   1.343   2.769   1.811 -0.4897  0.9096  1.4741
 3262SOL     hw13047   1.474   2.753   1.885 -0.2261 -0.4422  0.7637
 3262SOL     vw13048   1.396   2.722   1.861 -0.1369 -0.1937  0.1295
 3263SOL     ow13049   3.176   5.135   5.794  0.1522 -0.2257 -0.0610
 3263SOL     hw13050   3.262   5.097   5.809 -0.7046 -2.0947  0.3685
 3263SOL     hw13051   3.180   5.169   5.705  1.6643  0.7190  0.3311
 3263SOL     vw13052   3.188   5.135   5.784  0.2387 -0.3476  0.0474
 3264SOL     ow13053   4.628   0.577   2.613 -0.4022  0.1859  0.0914
 3264SOL     hw13054   4.651   0.502   2.667 -0.4419 -0.9721 -1.4217
 3264SOL     hw13055   4.630   0.543   2.523  0.6600  2.2597 -0.7407
 3264SOL     vw13056   4.631   0.563   2.608 -0.2673  0.3067 -0.2179
 3265SOL     ow13057   7.000   0.854   1.447 -0.3631  0.0145 -0.2287
 3265SOL     hw13058   7.061   0.897   1.387  0.9719 -1.0106  0.3485
 3265SOL     hw13059   6.982   0.920   1.513 -0.8035  0.7088 -1.0199
 3265SOL     vw13060   7.006   0.868   1.448 -0.2451 -0.0291 -0.2570
 3266SOL     ow13061   4.274   2.428   0.996 -0.3669 -0.5222 -0.6354
 3266SOL     hw13062   4.190   2.397   1.030  0.5807  0.8175  3.5035
 3266SOL     hw13063   4.252   2.503   0.941 -1.9245  0.7155  1.5115
 3266SOL     vw13064   4.260   2.434   0.993 -0.4475 -0.1822  0.1939
 3267SOL     ow13065   1.751   0.163   2.532  0.1161 -0.4037  0.1991
 3267SOL     hw13066   1.801   0.134   2.608 -1.6487 -0.0549  1.5580
 3267SOL     hw13067   1.791   0.247   2.508 -0.9833  0.8924  2.5311
 3267SOL     vw13068   1.763   0.170   2.539 -0.2617 -0.1867  0.6860
 3268SOL     ow13069   2.209   4.175   7.428  0.0858  0.0245  0.3553
 3268SOL     hw13070   2.250   4.089   7.431 -2.3885 -1.5323 -3.2250
 3268SOL     hw13071   2.121   4.159   7.394 -1.1064  3.8449  1.1131
 3268SOL     vw13072   2.203   4.162   7.424 -0.3980  0.3233 -0.0172
 3269SOL     ow13073   7.406   0.568   5.557  0.0501  0.2487 -0.3008
 3269SOL     hw13074   7.487   0.520   5.571  1.2072  1.4943 -2.2320
 3269SOL     hw13075   7.364   0.524   5.483 -0.0661  0.7248 -0.5277
 3269SOL     vw13076   7.411   0.556   5.549  0.1874  0.4759 -0.5853
 3270SOL     ow13077   0.090   0.153   0.964  0.5286 -0.0407 -0.6432
 3270SOL     hw13078   0.034   0.230   0.957  0.0803 -0.3596 -0.6473
 3270SOL     hw13079   0.029   0.079   0.957  0.8767 -0.3916 -0.0808
 3270SOL     vw13080   0.074   0.153   0.962  0.5154 -0.1290 -0.5695
 3271SOL     ow13081   3.753   1.870   5.000 -0.3450  0.0951 -0.0621
 3271SOL     hw13082   3.665   1.863   4.965  0.1275  2.2894 -1.9328
 3271SOL     hw13083   3.770   1.964   5.004  2.4339 -0.2521 -1.2546
 3271SOL     vw13084   3.744   1.882   4.996  0.0840  0.3388 -0.4663
 3272SOL     ow13085   4.110   4.302   7.225  0.4699 -1.0656 -0.1583
 3272SOL     hw13086   4.141   4.325   7.312  2.1624 -0.2411 -0.9299
 3272SOL     hw13087   4.015   4.296   7.234  0.3948  1.2054  1.2594
 3272SOL     vw13088   4.101   4.304   7.237  0.6833 -0.6573 -0.0732
 3273SOL     ow13089   1.311   4.325   0.893  0.3524  0.3212 -0.6005
 3273SOL     hw13090   1.216   4.314   0.894 -0.0297  2.8077  1.4931
 3273SOL     hw13091   1.344   4.252   0.945 -0.3879 -0.4658 -1.1954
 3273SOL     vw13092   1.303   4.314   0.900  0.2043  0.5457 -0.4027
 3274SOL     ow13093   0.115   0.565   2.080 -0.4539  0.1527 -0.5111
 3274SOL     hw13094   0.104   0.513   2.159  1.9980 -1.1591 -0.9138
 3274SOL     hw13095   0.125   0.655   2.111  0.1531 -0.3037  0.6636
 3274SOL     vw13096   0.115   0.570   2.094 -0.0503 -0.0806 -0.4092
 3275SOL     ow13097   3.660   3.319   4.305  0.4596  0.7124 -0.6904
 3275SOL     hw13098   3.712   3.358   4.375  1.6072  0.5627 -1.4223
 3275SOL     hw13099   3.711   3.242   4.277  0.1715  0.9258 -1.8652
 3275SOL     vw13100   3.674   3.314   4.311  0.5729  0.7209 -0.9420
 3276SOL     ow13101   3.013   1.349   5.677  0.3297  0.0405  0.3783
 3276SOL     hw13102   2.924   1.356   5.643  0.3776  2.6804  0.5881
 3276SOL     hw13103   3.023   1.256   5.698 -2.6672 -0.2227  1.1297
 3276SOL     vw13104   3.003   1.338   5.675 -0.0594  0.3541  0.5050
 3277SOL     ow13105   2.823   4.946   6.158 -0.0685  0.1992  0.1553
 3277SOL     hw13106   2.793   4.911   6.242  1.4576  4.0195  2.5695
 3277SOL     hw13107   2.744   4.951   6.105 -1.3866 -0.9416  1.8921
 3277SOL     vw13108   2.808   4.942   6.162 -0.0411  0.5529  0.7031
 3278SOL     ow13109   3.517   4.551   4.324  0.3682 -0.0879 -0.0947
 3278SOL     hw13110   3.612   4.547   4.313  0.2827 -0.3986 -0.7269
 3278SOL     hw13111   3.482   4.503   4.250 -0.2976  0.2767 -0.0215
 3278SOL     vw13112   3.525   4.544   4.313  0.2692 -0.0808 -0.1688
 3279SOL     ow13113   0.179   4.483   1.486  0.2296  0.1417 -0.2814
 3279SOL     hw13114   0.224   4.427   1.422 -2.2640 -2.7778  0.2887
 3279SOL     hw13115   0.236   4.483   1.563  1.3304  0.3014 -1.0784
 3279SOL     vw13116   0.192   4.476   1.488  0.0459 -0.2224 -0.3114
 3280SOL     ow13117   3.573   2.686   4.055  0.6892 -0.0694  0.5989
 3280SOL     hw13118   3.601   2.637   3.978 -2.6168  0.9994 -1.5197
 3280SOL     hw13119   3.621   2.768   4.050 -0.9260  0.8501 -1.6712
 3280SOL     vw13120   3.583   2.690   4.044  0.0399  0.1929  0.0196
 3281SOL     ow13121   5.913   5.029   6.824 -1.1915  0.2324  0.8277
 3281SOL     hw13122   5.920   5.108   6.771  1.1445 -0.2305  0.3394
 3281SOL     hw13123   5.974   5.043   6.897 -0.5889 -1.1773  0.6285
 3281SOL     vw13124   5.922   5.042   6.827 -0.8039 -0.0145  0.7367
 3282SOL     ow13125   3.444   4.389   6.903 -0.0424  0.6697  0.2120
 3282SOL     hw13126   3.432   4.449   6.830  1.8518  0.8343 -0.0337
 3282SOL     hw13127   3.357   4.354   6.921 -1.0427  2.7575 -0.2563
 3282SOL     vw13128   3.431   4.392   6.896  0.0757  0.9665  0.1178
 3283SOL     ow13129   1.633   6.124   6.077  0.2869 -0.2282  0.5172
 3283SOL     hw13130   1.693   6.191   6.045  3.4993 -3.8378 -1.8367
 3283SOL     hw13131   1.679   6.083   6.151 -0.7939 -0.9786  0.8101
 3283SOL     vw13132   1.647   6.127   6.083  0.5681 -0.8035  0.2453
 3284SOL     ow13133   1.777   1.954   3.831  0.3003 -0.0230 -0.3525
 3284SOL     hw13134   1.790   1.859   3.827  1.1542 -0.0214  1.2169
 3284SOL     hw13135   1.684   1.967   3.815 -0.2650 -1.3572  1.4876
 3284SOL     vw13136   1.767   1.943   3.829  0.3383 -0.1988  0.0974
 3285SOL     ow13137   5.356   1.465   5.595 -0.1224 -0.2295  0.2812
 3285SOL     hw13138   5.428   1.514   5.557 -1.3915  1.2688 -0.3096
 3285SOL     hw13139   5.301   1.441   5.520 -0.7170 -0.5524  0.8092
 3285SOL     vw13140   5.358   1.468   5.580 -0.3681 -0.0744  0.2732
 3286SOL     ow13141   2.491   0.318   4.310 -0.2898  0.0921  0.6348
 3286SOL     hw13142   2.399   0.326   4.336 -0.2852 -0.0600  0.7001
 3286SOL     hw13143   2.488   0.279   4.223 -0.4264  3.0837 -0.8595
 3286SOL     vw13144   2.478   0.314   4.302 -0.3072  0.4668  0.4466
 3287SOL     ow13145   7.127   4.302   3.689  0.3864  0.4345 -0.0906
 3287SOL     hw13146   7.076   4.356   3.629  0.0746  1.3131  0.9472
 3287SOL     hw13147   7.078   4.303   3.771  2.6952  2.4864  1.3930
 3287SOL     vw13148   7.114   4.309   3.692  0.6499  0.8214  0.2421
 3288SOL     ow13149   4.160   6.308   6.508  0.6645 -0.0890 -0.0246
 3288SOL     hw13150   4.170   6.222   6.466  1.2603 -0.4549  0.8473
 3288SOL     hw13151   4.194   6.296   6.597  0.1123  0.8733  0.3307
 3288SOL     vw13152   4.166   6.295   6.514  0.6704 -0.0103  0.1373
 3289SOL     ow13153   1.467   3.271   6.621 -0.3474  0.0800  0.0902
 3289SOL     hw13154   1.484   3.196   6.564  0.0100  1.0182 -1.0841
 3289SOL     hw13155   1.456   3.233   6.708 -2.6589 -1.5938 -0.8179
 3289SOL     vw13156   1.468   3.256   6.625 -0.6052 -0.0172 -0.1845
 3290SOL     ow13157   0.827   4.590   4.833  0.4581  0.1641 -0.0422
 3290SOL     hw13158   0.872   4.511   4.864  1.7924  0.4995 -1.0121
 3290SOL     hw13159   0.855   4.598   4.742 -0.1218  1.4460 -0.1226
 3290SOL     vw13160   0.837   4.581   4.825  0.5577  0.3777 -0.1807
 3291SOL     ow13161   3.676   5.563   1.855  0.5681 -0.2232  0.0716
 3291SOL     hw13162   3.741   5.605   1.799  0.6264  0.2344  0.4794
 3291SOL     hw13163   3.603   5.625   1.857  0.2357 -0.5998 -0.1434
 3291SOL     vw13164   3.675   5.576   1.848  0.5319 -0.2124  0.0970
 3292SOL     ow13165   6.352   0.084   3.782  0.1532  0.7103  0.0899
 3292SOL     hw13166   6.327   0.053   3.869  2.0875 -2.2742 -0.2987
 3292SOL     hw13167   6.276   0.064   3.727  0.5629 -1.5825  0.2816
 3292SOL     vw13168   6.339   0.078   3.786  0.4625  0.0140  0.0640
 3293SOL     ow13169   6.426   5.322   1.365 -0.2045  0.0208 -0.1449
 3293SOL     hw13170   6.500   5.374   1.334 -0.3426 -0.4576 -1.3381
 3293SOL     hw13171   6.461   5.268   1.435  0.2757  0.6783  0.1330
 3293SOL     vw13172   6.440   5.322   1.370 -0.1595  0.0443 -0.2656
 3294SOL     ow13173   4.724   2.424   6.148  0.0915  0.3187  0.5769
 3294SOL     hw13174   4.739   2.484   6.075 -1.7259 -1.7836 -1.7434
 3294SOL     hw13175   4.806   2.422   6.196  1.5249  1.5319 -1.6747
 3294SOL     vw13176   4.737   2.432   6.144  0.0405  0.2013 -0.0262
 3295SOL     ow13177   6.802   6.977   5.056 -0.6007 -0.2063 -0.4690
 3295SOL     hw13178   6.855   7.056   5.059 -2.9973  1.5006 -0.6193
 3295SOL     hw13179   6.780   6.965   4.964 -1.1349 -0.4394 -0.3150
 3295SOL     vw13180   6.806   6.986   5.045 -0.9873 -0.0119 -0.4687
 3296SOL     ow13181   5.865   6.161   1.471  0.4407 -0.8634 -0.5811
 3296SOL     hw13182   5.909   6.245   1.484  0.2533 -0.8282 -0.1399
 3296SOL     hw13183   5.775   6.185   1.448  0.2381 -0.9419  0.1085
 3296SOL     vw13184   5.859   6.176   1.470  0.3893 -0.8693 -0.4319
 3297SOL     ow13185   3.078   4.931   0.314 -0.2976  0.2164 -0.1513
 3297SOL     hw13186   3.014   4.999   0.331 -0.1856  0.3570 -0.2780
 3297SOL     hw13187   3.080   4.878   0.393 -1.5331 -0.5896 -0.6269
 3297SOL     vw13188   3.070   4.933   0.327 -0.4460  0.1287 -0.2308
 3298SOL     ow13189   1.283   3.628   1.424  0.6667  0.0451  0.6674
 3298SOL     hw13190   1.243   3.623   1.511  1.7012  2.3928  1.3583
 3298SOL     hw13191   1.211   3.607   1.364 -0.7882  1.0397  1.9677
 3298SOL     vw13192   1.268   3.624   1.428  0.6113  0.4861  0.9302
 3299SOL     ow13193   4.036   6.856   2.607 -0.6489  0.4726  0.0900
 3299SOL     hw13194   4.084   6.846   2.689 -0.2528  2.2049  0.1080
 3299SOL     hw13195   3.994   6.771   2.593 -0.3914  0.0214  1.8588
 3299SOL     vw13196   4.037   6.844   2.616 -0.5627  0.6421  0.3257
 3300SOL     ow13197   2.999   0.600   1.969 -0.4856  0.1143  0.3248
 3300SOL     hw13198   2.949   0.555   1.901  1.1577  0.8175 -1.4415
 3300SOL     hw13199   2.933   0.647   2.020 -1.9693 -2.1200  0.5795
 3300SOL     vw13200   2.984   0.600   1.967 -0.4646 -0.0877  0.1254
 3301SOL     ow13201   4.663   0.309   7.133 -0.1873  0.2228 -0.1428
 3301SOL     hw13202   4.622   0.364   7.066  1.4721 -1.2920 -2.6053
 3301SOL     hw13203   4.596   0.243   7.153 -1.2440  1.5506  0.8981
 3301SOL     vw13204   4.648   0.308   7.126 -0.1078  0.1981 -0.3304
 3302SOL     ow13205   2.616   1.183   1.029 -0.1658 -0.0047  0.1648
 3302SOL     hw13206   2.690   1.159   0.974  1.1962  2.5894  0.7187
 3302SOL     hw13207   2.549   1.212   0.968  1.1199  2.2967 -0.2725
 3302SOL     vw13208   2.617   1.184   1.014  0.1836  0.6412  0.1802
 3303SOL     ow13209   5.617   5.301   7.165  0.1489 -0.1378  0.1508
 3303SOL     hw13210   5.580   5.214   7.150  0.4893 -0.0699 -1.2497
 3303SOL     hw13211   5.542   5.354   7.191  0.0723 -1.0067  1.8550
 3303SOL     vw13212   5.602   5.296   7.166  0.1836 -0.2434  0.1907
 3304SOL     ow13213   6.718   5.354   2.611 -0.7986  0.6767  0.9314
 3304SOL     hw13214   6.768   5.434   2.595 -2.0429  1.9401  2.9099
 3304SOL     hw13215   6.711   5.348   2.706 -1.8706 -1.0692  0.7938
 3304SOL     vw13216   6.724   5.364   2.621 -1.1041  0.6132  1.1741
 3305SOL     ow13217   2.225   5.046   5.488  0.0326  0.0939  0.7209
 3305SOL     hw13218   2.305   5.099   5.490  0.4709 -0.5274 -0.1039
 3305SOL     hw13219   2.156   5.109   5.465  0.1183  0.8045  2.2667
 3305SOL     vw13220   2.226   5.062   5.486  0.1017  0.1056  0.8159
 3306SOL     ow13221   3.278   4.698   1.124  0.1626  0.0259  0.0512
 3306SOL     hw13222   3.208   4.706   1.059  0.4240 -0.0488 -0.2406
 3306SOL     hw13223   3.320   4.784   1.126  0.3052 -0.0414 -0.0507
 3306SOL     vw13224   3.274   4.710   1.116  0.2160  0.0074 -0.0008
 3307SOL     ow13225   2.555   5.785   3.944  0.1459 -0.0446  0.1505
 3307SOL     hw13226   2.577   5.854   3.881  0.6715 -1.1203 -0.8952
 3307SOL     hw13227   2.471   5.811   3.981  1.0979  1.9967  1.0389
 3307SOL     vw13228   2.547   5.798   3.941  0.3408  0.0825  0.1297
 3308SOL     ow13229   6.719   5.323   6.761 -0.5280  0.0100 -0.2885
 3308SOL     hw13230   6.779   5.290   6.694 -0.8532  0.2180 -0.6861
 3308SOL     hw13231   6.651   5.256   6.767  0.3761 -0.8338  1.0491
 3308SOL     vw13232   6.718   5.309   6.753 -0.4516 -0.0739 -0.1645
 3309SOL     ow13233   1.964   1.272   0.750 -0.0350 -0.2898  0.1993
 3309SOL     hw13234   2.019   1.317   0.686  0.6976 -1.5735 -0.0926
 3309SOL     hw13235   2.023   1.253   0.823 -0.1403 -1.4485 -0.0087
 3309SOL     vw13236   1.979   1.275   0.751  0.0478 -0.6121  0.1333
 3310SOL     ow13237   3.028   2.073   5.731 -0.1214 -0.0645  0.0885
 3310SOL     hw13238   3.076   2.126   5.667 -0.2599  1.3580  1.1000
 3310SOL     hw13239   2.978   2.137   5.782 -1.5068 -1.3423  0.3746
 3310SOL     vw13240   3.028   2.088   5.729 -0.3223 -0.0454  0.2596
 3311SOL     ow13241   0.061   5.051   5.288 -0.6627 -0.3367  0.6764
 3311SOL     hw13242  -0.025   5.090   5.276 -0.0530  0.3672 -2.3147
 3311SOL     hw13243   0.105   5.108   5.351 -1.4835  0.9038  0.1696
 3311SOL     vw13244   0.056   5.064   5.294 -0.6906 -0.0801  0.2151
 3312SOL     ow13245   2.788   1.820   2.283 -0.3413  0.3512 -0.8578
 3312SOL     hw13246   2.830   1.814   2.197 -0.2710 -1.5068 -0.7457
 3312SOL     hw13247   2.841   1.764   2.340 -1.8782 -0.6125 -0.2824
 3312SOL     vw13248   2.800   1.812   2.279 -0.5348 -0.0211 -0.7670
 3313SOL     ow13249   0.409   5.232   2.774  0.3888  0.3421 -1.0752
 3313SOL     hw13250   0.485   5.218   2.830 -0.5238 -1.9224 -0.2738
 3313SOL     hw13251   0.342   5.174   2.811 -0.7784  0.0108 -3.5378
 3313SOL     vw13252   0.410   5.222   2.786  0.1144 -0.0002 -1.2944
 3314SOL     ow13253   6.220   6.698   3.743  0.6528 -0.4139  0.8538
 3314SOL     hw13254   6.220   6.620   3.688 -0.1373  0.3976 -0.3412
 3314SOL     hw13255   6.155   6.755   3.703  2.3425  1.5327  0.6987
 3314SOL     vw13256   6.212   6.695   3.730  0.7715 -0.0501  0.6758
 3315SOL     ow13257   6.608   0.608   0.525 -0.2066 -0.2555  0.2525
 3315SOL     hw13258   6.528   0.619   0.474 -0.8688 -1.4024  1.0213
 3315SOL     hw13259   6.595   0.527   0.575  1.1320 -0.0792  0.9429
 3315SOL     vw13260   6.596   0.599   0.525 -0.1178 -0.3836  0.4450
 3316SOL     ow13261   0.564   3.149   1.827  0.4765  0.2517 -0.8031
 3316SOL     hw13262   0.537   3.199   1.750  1.5333  0.7085 -0.8877
 3316SOL     hw13263   0.534   3.200   1.902  0.1850  0.2197 -0.8945
 3316SOL     vw13264   0.556   3.162   1.826  0.5775  0.3076 -0.8264
 3317SOL     ow13265   2.853   5.242   1.366 -0.3564 -0.0591  0.0187
 3317SOL     hw13266   2.904   5.165   1.344 -0.5584 -0.3048  0.3855
 3317SOL     hw13267   2.908   5.316   1.341  0.8865 -0.2803  1.8755
 3317SOL     vw13268   2.867   5.242   1.360 -0.2191 -0.1206  0.3121
 3318SOL     ow13269   3.954   4.596   4.883 -0.0384  0.3350 -0.2378
 3318SOL     hw13270   3.896   4.658   4.927 -0.2073 -0.6161  0.9373
 3318SOL     hw13271   4.034   4.647   4.866  0.5234  0.4560  2.3418
 3318SOL     vw13272   3.957   4.611   4.887  0.0135  0.2255  0.2575
 3319SOL     ow13273   2.397   6.386   6.013  0.3163  0.5667  0.3224
 3319SOL     hw13274   2.477   6.399   6.064 -0.3550  0.9788  1.3289
 3319SOL     hw13275   2.333   6.444   6.056 -0.2679  0.9643 -1.0439
 3319SOL     vw13276   2.399   6.396   6.026  0.1506  0.6738  0.2749
 3320SOL     ow13277   4.332   3.378   1.615 -0.3231  0.0322  0.1199
 3320SOL     hw13278   4.244   3.360   1.646  0.2571  1.1101  2.6905
 3320SOL     hw13279   4.369   3.436   1.681  2.3239 -0.3918 -0.8623
 3320SOL     vw13280   4.326   3.383   1.628  0.1025  0.1185  0.3295
 3321SOL     ow13281   0.882   3.576   1.124  0.5082  0.0668 -0.3119
 3321SOL     hw13282   0.811   3.520   1.156  0.5413 -0.0791 -0.4924
 3321SOL     hw13283   0.838   3.659   1.103 -0.2533 -1.0027 -3.4739
 3321SOL     vw13284   0.867   3.580   1.125  0.4121 -0.0935 -0.7529
 3322SOL     ow13285   4.517   6.603   5.326 -0.2673 -0.1924  0.6030
 3322SOL     hw13286   4.462   6.556   5.388 -0.2361  0.2167  0.9479
 3322SOL     hw13287   4.595   6.548   5.315 -1.1016 -1.1832 -0.5367
 3322SOL     vw13288   4.520   6.590   5.333 -0.3734 -0.2692  0.4981
 3323SOL     ow13289   3.085   6.021   7.246  0.8065 -0.0652  0.1849
 3323SOL     hw13290   2.993   6.034   7.220  0.4351 -0.1606  1.3619
 3323SOL     hw13291   3.132   6.008   7.164 -0.0790  0.9455 -0.5178
 3323SOL     vw13292   3.079   6.021   7.232  0.6406  0.0556  0.2477
 3324SOL     ow13293   1.041   5.339   5.187 -0.7472 -0.6690  0.1586
 3324SOL     hw13294   0.985   5.322   5.111 -1.0935  0.1248  0.2255
 3324SOL     hw13295   1.068   5.252   5.216 -1.3706 -1.0330 -0.3098
 3324SOL     vw13296   1.037   5.325   5.181 -0.8751 -0.6125  0.1059
 3325SOL     ow13297   2.620   2.073   2.308  1.3530 -0.1331 -0.2164
 3325SOL     hw13298   2.686   2.116   2.361 -0.2508  2.3473 -0.0652
 3325SOL     hw13299   2.604   2.133   2.235  0.0628 -1.1571 -0.8253
 3325SOL     vw13300   2.626   2.086   2.305  0.9712  0.0591 -0.2768
 3326SOL     ow13301   3.080   6.806   4.889  0.1819  0.5219  0.0255
 3326SOL     hw13302   3.053   6.818   4.980  0.1675  0.8264 -0.0174
 3326SOL     hw13303   3.041   6.722   4.863  0.0398  0.5203  0.2449
 3326SOL     vw13304   3.071   6.796   4.898  0.1612  0.5620  0.0489
 3327SOL     ow13305   5.660   1.036   2.137 -0.2795 -0.5881 -0.0345
 3327SOL     hw13306   5.581   1.042   2.082 -1.5270  0.4356  1.7728
 3327SOL     hw13307   5.643   1.094   2.211  2.6904  0.6100 -0.1375
 3327SOL     vw13308   5.647   1.044   2.139 -0.0520 -0.2949  0.1903
 3328SOL     ow13309   3.947   5.133   1.478 -0.1926 -0.1824 -0.1164
 3328SOL     hw13310   3.931   5.141   1.384  0.8220 -1.4222 -0.4167
 3328SOL     hw13311   3.860   5.137   1.518 -0.5110  3.0621 -0.8237
 3328SOL     vw13312   3.934   5.135   1.471 -0.1007  0.0823 -0.2493
 3329SOL     ow13313   6.989   0.590   1.183 -0.2901  0.2220 -0.3883
 3329SOL     hw13314   7.000   0.631   1.269  0.9747  1.0756 -0.9293
 3329SOL     hw13315   7.071   0.544   1.168 -0.1240  0.8629 -1.5385
 3329SOL     vw13316   7.001   0.589   1.193 -0.1013  0.4192 -0.6114
 3330SOL     ow13317   7.020   2.507   0.992  0.1366 -0.1900 -0.5814
 3330SOL     hw13318   7.098   2.502   1.047 -1.2081  0.4880  1.5183
 3330SOL     hw13319   7.053   2.497   0.903  2.4451 -1.2728  0.2996
 3330SOL     vw13320   7.035   2.505   0.988  0.2639 -0.2434 -0.1881
 3331SOL     ow13321   0.754   0.663   5.099 -0.8337 -0.1410 -0.6603
 3331SOL     hw13322   0.817   0.725   5.136 -1.1395 -0.2862  0.1178
 3331SOL     hw13323   0.721   0.706   5.020 -0.4584  0.3408 -0.5564
 3331SOL     vw13324   0.758   0.677   5.093 -0.8245 -0.0966 -0.5438
 3332SOL     ow13325   1.393   1.253   2.553  0.1548  0.0839  0.2176
 3332SOL     hw13326   1.353   1.339   2.540  0.3730  0.0428 -0.7700
 3332SOL     hw13327   1.442   1.261   2.635  1.0751  1.2465 -0.4208
 3332SOL     vw13328   1.394   1.265   2.562  0.3050  0.2318  0.0031
 3333SOL     ow13329   6.902   5.156   1.379  0.1420  0.1926 -0.0937
 3333SOL     hw13330   6.819   5.128   1.342 -0.2126  1.1776 -0.0642
 3333SOL     hw13331   6.949   5.074   1.398 -0.1646 -0.3559 -1.5548
 3333SOL     vw13332   6.897   5.142   1.376  0.0548  0.2501 -0.2826
 3334SOL     ow13333   2.850   3.012   0.234 -0.0891  0.1414  0.1803
 3334SOL     hw13334   2.940   2.989   0.208  0.4888  1.9573  0.4204
 3334SOL     hw13335   2.795   2.960   0.176  1.0655 -2.2679  1.1301
 3334SOL     vw13336   2.855   3.002   0.223  0.1395  0.0629  0.3373
 3335SOL     ow13337   3.652   2.437   4.480 -0.4887 -0.3362  0.3144
 3335SOL     hw13338   3.565   2.407   4.454 -1.0001  0.3238  1.2409
 3335SOL     hw13339   3.669   2.394   4.563 -0.0931 -0.1607  0.3260
 3335SOL     vw13340   3.643   2.428   4.487 -0.5040 -0.2260  0.4382
 3336SOL     ow13341   0.125   3.700   4.381 -0.9088  0.6777  0.6031
 3336SOL     hw13342   0.079   3.783   4.362 -0.9233  0.2973 -1.2870
 3336SOL     hw13343   0.090   3.672   4.465 -2.3861  1.6226  0.3534
 3336SOL     vw13344   0.114   3.707   4.389 -1.1056  0.7521  0.3207
 3337SOL     ow13345   3.890   0.857   2.744  0.0557  0.5818  0.2680
 3337SOL     hw13346   3.976   0.887   2.772  0.5626 -0.3869 -0.2123
 3337SOL     hw13347   3.898   0.845   2.650 -0.6899  0.7270  0.1784
 3337SOL     vw13348   3.902   0.859   2.736  0.0241  0.4732  0.1929
 3338SOL     ow13349   2.680   1.485   7.141  0.9261  0.2244  0.1999
 3338SOL     hw13350   2.739   1.540   7.191  0.1767  1.1202  0.1253
 3338SOL     hw13351   2.723   1.473   7.057  0.4955  1.8438 -0.2804
 3338SOL     vw13352   2.693   1.490   7.137  0.7703  0.5563  0.1266
 3339SOL     ow13353   1.691   2.989   2.523 -0.2612  0.4133 -0.1007
 3339SOL     hw13354   1.655   3.070   2.486  0.3354  0.4905 -0.5237
 3339SOL     hw13355   1.733   2.946   2.449  1.4920  0.8616  0.5737
 3339SOL     vw13356   1.692   2.994   2.508  0.0488  0.4826 -0.0675
 3340SOL     ow13357   2.756   2.622   6.041 -0.5714 -0.4937 -0.0827
 3340SOL     hw13358   2.772   2.700   5.987 -0.4888 -1.7484 -1.9625
 3340SOL     hw13359   2.747   2.656   6.130  1.0920  1.5002 -0.5874
 3340SOL     vw13360   2.757   2.637   6.045 -0.3411 -0.3963 -0.3974
 3341SOL     ow13361   3.204   3.442   7.458  0.3918  0.4656  0.3236
 3341SOL     hw13362   3.207   3.518   7.399  0.0419 -0.5140 -1.0187
 3341SOL     hw13363   3.284   3.449   7.510  1.5551  0.5327 -1.3933
 3341SOL     vw13364   3.215   3.453   7.457  0.4992  0.3451 -0.0799
 3342SOL     ow13365   4.032   1.232   2.771  0.0243  0.4696  0.7028
 3342SOL     hw13366   4.057   1.308   2.824 -0.6704  2.0980 -1.1868
 3342SOL     hw13367   4.086   1.160   2.805  2.0120  2.2097  1.4166
 3342SOL     vw13368   4.043   1.232   2.782  0.1948  0.9140  0.5475
 3343SOL     ow13369   3.300   6.860   3.701  0.2401  0.4985  0.0291
 3343SOL     hw13370   3.338   6.772   3.699 -0.9751 -0.0390 -0.2511
 3343SOL     hw13371   3.323   6.897   3.616 -0.1935  0.0221 -0.3036
 3343SOL     vw13372   3.308   6.853   3.689  0.0226  0.3645 -0.0516
 3344SOL     ow13373   6.376   1.678   0.644  0.6481 -0.5188 -1.1044
 3344SOL     hw13374   6.469   1.678   0.621  0.8473 -1.6231 -0.4175
 3344SOL     hw13375   6.339   1.604   0.596  0.1276 -0.0784 -1.3795
 3344SOL     vw13376   6.383   1.668   0.635  0.6058 -0.6064 -1.0500
 3345SOL     ow13377   0.593   7.148   1.858  0.3970 -0.2498 -0.3983
 3345SOL     hw13378   0.640   7.078   1.813  2.1238  0.5186  0.1098
 3345SOL     hw13379   0.501   7.126   1.847  0.8544 -3.2297  0.7264
 3345SOL     vw13380   0.587   7.136   1.851  0.6852 -0.5414 -0.1829
 3346SOL     ow13381   4.225   5.161   0.234  0.2068 -0.1695 -0.6814
 3346SOL     hw13382   4.249   5.160   0.141  0.7872 -2.6258 -0.5571
 3346SOL     hw13383   4.164   5.235   0.241  2.1162  1.7522 -2.4488
 3346SOL     vw13384   4.220   5.171   0.223  0.5350 -0.2398 -0.8982
 3347SOL     ow13385   1.768   4.000   5.611 -0.3421  0.4573  0.2702
 3347SOL     hw13386   1.763   3.937   5.539  1.3693 -1.0890  1.3954
 3347SOL     hw13387   1.779   4.085   5.568  0.8070 -0.4417 -1.3217
 3347SOL     vw13388   1.769   4.003   5.596  0.0353  0.1345  0.2084
 3348SOL     ow13389   3.793   4.617   7.489 -0.0936  0.2651 -0.2560
 3348SOL     hw13390   3.853   4.686   7.517  0.0181  0.1329 -0.1652
 3348SOL     hw13391   3.715   4.630   7.543 -0.0329  0.2577 -0.1665
 3348SOL     vw13392   3.791   4.628   7.500 -0.0707  0.2468 -0.2322
 3349SOL     ow13393   1.032   7.534   1.445  0.1165  0.0460  0.3244
 3349SOL     hw13394   1.013   7.444   1.417  1.3545 -0.1306 -0.0156
 3349SOL     hw13395   1.094   7.524   1.518 -1.3621  0.5814  1.7138
 3349SOL     vw13396   1.038   7.520   1.451  0.0847  0.0932  0.4628
 3350SOL     ow13397   6.240   5.579   1.015  0.5726 -0.2562  0.4872
 3350SOL     hw13398   6.318   5.629   1.038  0.6076  0.2494 -0.6679
 3350SOL     hw13399   6.261   5.541   0.930 -1.1124  1.4058 -0.7383
 3350SOL     vw13400   6.253   5.580   1.007  0.3545  0.0293  0.1732
 3351SOL     ow13401   3.054   7.121   4.815  0.9818 -0.4009  0.1072
 3351SOL     hw13402   3.035   7.196   4.759 -0.1596  0.5538  1.6817
 3351SOL     hw13403   2.968   7.085   4.838  1.4188 -0.9002  1.0339
 3351SOL     vw13404   3.040   7.126   4.811  0.8888 -0.3407  0.4373
 3352SOL     ow13405   0.600   0.616   4.050  0.1258 -0.0971  0.3107
 3352SOL     hw13406   0.636   0.537   4.008 -1.3463  0.9246 -3.2362
 3352SOL     hw13407   0.512   0.591   4.076  0.1523 -0.0001  0.4950
 3352SOL     vw13408   0.593   0.602   4.048 -0.0649  0.0505 -0.1330
 3353SOL     ow13409   4.222   6.983   6.225  0.1961 -0.0140  0.2124
 3353SOL     hw13410   4.266   7.021   6.149 -3.0616  3.0809 -0.3757
 3353SOL     hw13411   4.180   6.904   6.192  0.3750  0.2771 -0.7302
 3353SOL     vw13412   4.223   6.978   6.211 -0.2100  0.4325  0.0105
 3354SOL     ow13413   1.589   4.450   0.974  0.5900  0.1758 -0.6483
 3354SOL     hw13414   1.630   4.385   1.031 -2.2381 -0.4719  0.8292
 3354SOL     hw13415   1.658   4.515   0.958  2.9186 -2.0976 -0.5352
 3354SOL     vw13416   1.603   4.450   0.979  0.5240 -0.2096 -0.4385
 3355SOL     ow13417   4.819   2.311   4.942 -0.4279 -0.0239 -0.3218
 3355SOL     hw13418   4.819   2.216   4.953 -1.1164  0.1967  2.2152
 3355SOL     hw13419   4.763   2.343   5.013  1.4591  2.3867  0.2003
 3355SOL     vw13420   4.812   2.303   4.953 -0.2697  0.3233  0.0818
 3356SOL     ow13421   5.607   2.815   0.432  0.0219 -0.3562 -0.5607
 3356SOL     hw13422   5.530   2.867   0.454 -0.2062 -1.6496  2.1117
 3356SOL     hw13423   5.667   2.878   0.392 -1.7349  1.0472 -1.1449
 3356SOL     vw13424   5.605   2.830   0.430 -0.2403 -0.3419 -0.2852
 3357SOL     ow13425   1.338   4.004   4.424  0.4999  0.4065  0.2025
 3357SOL     hw13426   1.307   4.076   4.369 -0.2926 -0.2523 -0.2324
 3357SOL     hw13427   1.273   3.998   4.494  2.2067  2.1375  2.0840
 3357SOL     vw13428   1.326   4.013   4.426  0.6205  0.5481  0.3934
 3358SOL     ow13429   3.916   1.846   4.093  0.1443 -0.0503  0.1236
 3358SOL     hw13430   3.938   1.796   4.015 -0.4270 -2.7132  1.5615
 3358SOL     hw13431   3.821   1.852   4.091  0.1669  0.4030  0.3122
 3358SOL     vw13432   3.906   1.840   4.083  0.0718 -0.3419  0.3383
 3359SOL     ow13433   5.655   0.423   2.743  0.2807  0.8819  0.3579
 3359SOL     hw13434   5.652   0.395   2.835 -0.7555 -1.0174 -0.2057
 3359SOL     hw13435   5.573   0.392   2.706  1.3594  0.2155 -1.6104
 3359SOL     vw13436   5.644   0.415   2.750  0.2863  0.5434  0.0240
 3360SOL     ow13437   0.098   0.087   3.905 -0.8500 -0.5213 -0.6272
 3360SOL     hw13438   0.056   0.048   3.981 -1.6765  3.0293  0.9313
 3360SOL     hw13439   0.189   0.102   3.932 -1.1348  0.7123 -0.2958
 3360SOL     vw13440   0.105   0.084   3.918 -0.9966  0.1099 -0.3779
 3361SOL     ow13441   3.880   1.470   5.342 -0.1758 -0.6177  0.3855
 3361SOL     hw13442   3.822   1.543   5.321 -2.7065 -1.7801  2.7449
 3361SOL     hw13443   3.870   1.409   5.268 -2.3571 -0.9638  0.9007
 3361SOL     vw13444   3.871   1.471   5.329 -0.7974 -0.8167  0.7646
 3362SOL     ow13445   3.528   0.086   6.232  0.0045  0.3342  0.1170
 3362SOL     hw13446   3.447   0.137   6.229  0.2250  0.6629 -0.3040
 3362SOL     hw13447   3.595   0.147   6.261  0.2866  0.3112 -0.4679
 3362SOL     vw13448   3.526   0.101   6.235  0.0707  0.3746 -0.0157
 3363SOL     ow13449   1.532   4.057   6.692 -0.1990  0.0492 -0.4267
 3363SOL     hw13450   1.604   4.036   6.632 -0.1561  0.9182 -0.6979
 3363SOL     hw13451   1.466   4.099   6.636 -0.7597 -0.3929 -0.1102
 3363SOL     vw13452   1.533   4.060   6.677 -0.2673  0.1054 -0.4206
 3364SOL     ow13453   7.461   2.881   7.113  0.3483 -0.3788 -0.1605
 3364SOL     hw13454   7.420   2.802   7.077  1.2047 -1.5591  1.3256
 3364SOL     hw13455   7.403   2.908   7.184  0.3054  0.0727 -0.3620
 3364SOL     vw13456   7.448   2.874   7.117  0.4556 -0.4750  0.0091
 3365SOL     ow13457   4.658   3.271   3.707 -0.6239 -0.4385  0.4588
 3365SOL     hw13458   4.726   3.214   3.672  1.6885  2.6469 -0.4496
 3365SOL     hw13459   4.661   3.257   3.801  2.3471  0.5852  0.6099
 3365SOL     vw13460   4.667   3.262   3.714  0.0730  0.1037  0.3588
 3366SOL     ow13461   6.391   4.915   1.137  0.5451 -0.3130  0.4259
 3366SOL     hw13462   6.312   4.914   1.191  0.7844  1.1529  0.8487
 3366SOL     hw13463   6.395   5.004   1.101  2.2843 -0.1505  0.8820
 3366SOL     vw13464   6.381   4.927   1.139  0.8059 -0.0982  0.5418
 3367SOL     ow13465   1.187   3.166   3.169 -0.8112  0.0338  0.5376
 3367SOL     hw13466   1.249   3.204   3.232 -1.1632  0.6615  0.5093
 3367SOL     hw13467   1.184   3.229   3.097  1.4183 -1.7828 -1.3050
 3367SOL     vw13468   1.195   3.179   3.168 -0.5634 -0.1233  0.2908
 3368SOL     ow13469   4.535   1.648   6.061  0.1462 -1.0749 -0.2378
 3368SOL     hw13470   4.580   1.645   5.976  0.9893 -0.7547  0.1980
 3368SOL     hw13471   4.477   1.724   6.055  1.1572 -0.2796 -0.0567
 3368SOL     vw13472   4.533   1.657   6.049  0.3908 -0.9278 -0.1564
 3369SOL     ow13473   7.274   3.672   6.468 -0.3787  0.3540  0.3838
 3369SOL     hw13474   7.317   3.691   6.384  1.8761  0.9051  1.5717
 3369SOL     hw13475   7.224   3.752   6.487 -1.4577 -0.0363 -0.7229
 3369SOL     vw13476   7.273   3.685   6.459 -0.2234  0.3753  0.3946
 3370SOL     ow13477   3.129   6.353   0.303  0.2617  0.0912 -0.1629
 3370SOL     hw13478   3.220   6.337   0.277  0.2033  1.3591 -1.2731
 3370SOL     hw13479   3.112   6.443   0.276 -2.3199 -1.0672 -3.0295
 3370SOL     vw13480   3.139   6.363   0.296 -0.0867  0.1054 -0.6876
 3371SOL     ow13481   6.526   4.680   0.861  0.3143 -0.5145  0.4531
 3371SOL     hw13482   6.564   4.741   0.798  3.7777 -1.2694  1.6023
 3371SOL     hw13483   6.550   4.717   0.946 -1.8649 -0.9690  1.3277
 3371SOL     vw13484   6.534   4.693   0.864  0.4838 -0.6742  0.7201
 3372SOL     ow13485   4.785   1.720   1.611 -0.0243  0.0391 -0.2147
 3372SOL     hw13486   4.792   1.802   1.660 -5.1533  2.1467 -2.3226
 3372SOL     hw13487   4.842   1.732   1.535 -0.6518  1.7456 -0.4624
 3372SOL     vw13488   4.793   1.733   1.607 -0.7837  0.5423 -0.5255
 3373SOL     ow13489   2.280   0.937   4.539  0.0883 -0.9119  0.3796
 3373SOL     hw13490   2.274   0.883   4.460 -1.1133 -0.5765  0.2283
 3373SOL     hw13491   2.366   0.917   4.575  0.0217 -2.2570 -0.1588
 3373SOL     vw13492   2.291   0.928   4.534 -0.0792 -1.0451  0.2887
 3374SOL     ow13493   6.522   2.967   4.766  0.2830 -0.0880 -0.2632
 3374SOL     hw13494   6.562   2.891   4.723 -0.3537 -0.3969 -0.3239
 3374SOL     hw13495   6.582   3.040   4.747 -0.4345 -0.0081 -2.5146
 3374SOL     vw13496   6.535   2.967   4.758  0.1044 -0.1184 -0.5684
 3375SOL     ow13497   3.884   6.200   5.135 -0.4828  0.5522 -0.1925
 3375SOL     hw13498   3.797   6.240   5.127  0.3242  2.4437 -0.0662
 3375SOL     hw13499   3.931   6.231   5.057  1.0043  2.1550  1.2441
 3375SOL     vw13500   3.879   6.210   5.124 -0.1801  1.0133  0.0138
 3376SOL     ow13501   5.990   7.085   5.747  0.0485 -0.7192  0.0849
 3376SOL     hw13502   5.938   7.016   5.705  1.6412 -1.4444 -0.8105
 3376SOL     hw13503   5.963   7.166   5.703  1.2856 -1.3885 -2.1059
 3376SOL     vw13504   5.980   7.087   5.735  0.4218 -0.9034 -0.3223
 3377SOL     ow13505   6.495   6.818   3.655  0.2884  0.1527  0.9018
 3377SOL     hw13506   6.535   6.803   3.570 -0.4024  0.4018  0.5232
 3377SOL     hw13507   6.562   6.865   3.705  0.9315 -0.5390  0.7178
 3377SOL     vw13508   6.509   6.822   3.650  0.2820  0.0944  0.8276
 3378SOL     ow13509   0.996   7.336   0.916  0.0870 -0.1757  0.0134
 3378SOL     hw13510   1.043   7.260   0.951 -0.8222  0.0050  1.7754
 3378SOL     hw13511   1.059   7.407   0.922  0.6663 -0.6035 -0.8430
 3378SOL     vw13512   1.010   7.335   0.922  0.0435 -0.2086  0.1329
 3379SOL     ow13513   3.032   5.774   3.958 -0.1359  0.5109 -0.4038
 3379SOL     hw13514   3.126   5.779   3.939  0.1254  1.6068  0.9653
 3379SOL     hw13515   3.028   5.737   4.046 -0.8861  1.8001  0.1354
 3379SOL     vw13516   3.044   5.770   3.967 -0.2004  0.8256 -0.1521
 3380SOL     ow13517   6.103   1.128   4.127  0.5842 -0.3088 -0.2367
 3380SOL     hw13518   6.186   1.125   4.080  1.0804 -0.9787  0.6762
 3380SOL     hw13519   6.043   1.076   4.073  1.3195 -1.6184  0.1836
 3380SOL     vw13520   6.106   1.121   4.113  0.7467 -0.5699 -0.0610
 3381SOL     ow13521   3.639   1.348   3.987  0.4339 -0.7490  0.2396
 3381SOL     hw13522   3.639   1.443   4.001  0.1758 -0.8682  1.1088
 3381SOL     hw13523   3.549   1.328   3.962  0.5258 -0.7475 -0.0968
 3381SOL     vw13524   3.627   1.358   3.986  0.4120 -0.7645  0.3098
 3382SOL     ow13525   2.499   3.251   0.668  0.0841  0.2210  0.5570
 3382SOL     hw13526   2.482   3.228   0.576 -0.0901  0.6960  0.4644
 3382SOL     hw13527   2.461   3.339   0.678  0.3323  0.2809  1.0141
 3382SOL     vw13528   2.491   3.260   0.657  0.0938  0.2913  0.6051
 3383SOL     ow13529   3.290   0.051   2.293  0.0243 -0.8137  0.3345
 3383SOL     hw13530   3.351   0.051   2.220 -1.7753  1.6898 -1.3288
 3383SOL     hw13531   3.344   0.026   2.369  1.9331 -3.6340 -1.7465
 3383SOL     vw13532   3.305   0.048   2.294  0.0387 -0.8556 -0.1594
 3384SOL     ow13533   2.958   6.702   1.424  0.3024  0.3535  0.6050
 3384SOL     hw13534   2.880   6.756   1.409 -0.4629 -0.7725  0.4032
 3384SOL     hw13535   2.965   6.698   1.519  0.1065  0.4415  0.6254
 3384SOL     vw13536   2.948   6.709   1.435  0.1756  0.2165  0.5810
 3385SOL     ow13537   0.731   2.055   3.311 -0.5596 -0.2246  0.6159
 3385SOL     hw13538   0.645   2.024   3.340 -0.3055 -1.0559  0.5172
 3385SOL     hw13539   0.770   2.092   3.390 -1.1922  0.6199  0.5523
 3385SOL     vw13540   0.724   2.055   3.325 -0.6095 -0.2227  0.5946
 3386SOL     ow13541   0.397   5.753   1.883 -0.3512 -0.2376  0.0526
 3386SOL     hw13542   0.453   5.683   1.849  0.4741  0.6690 -0.5004
 3386SOL     hw13543   0.356   5.791   1.805 -0.1367  0.4430  0.2667
 3386SOL     vw13544   0.399   5.749   1.868 -0.2140 -0.0281  0.0079
 3387SOL     ow13545   1.100   4.360   3.842  0.0901 -0.2144 -0.3834
 3387SOL     hw13546   1.129   4.281   3.796 -1.5262 -1.6855  1.0174
 3387SOL     hw13547   1.060   4.414   3.774  2.5294  0.1492 -1.6382
 3387SOL     vw13548   1.099   4.357   3.827  0.1987 -0.3605 -0.3641
 3388SOL     ow13549   4.548   6.662   5.021 -0.4570  0.6018 -0.4061
 3388SOL     hw13550   4.615   6.724   4.994 -0.6385  0.5305 -1.0240
 3388SOL     hw13551   4.590   6.577   5.016 -0.0847  0.6838  0.8166
 3388SOL     vw13552   4.562   6.659   5.017 -0.4318  0.6034 -0.3266
 3389SOL     ow13553   5.948   7.155   6.291  0.3707  0.3182 -0.0382
 3389SOL     hw13554   5.866   7.136   6.337  0.4600 -1.9714 -0.7060
 3389SOL     hw13555   6.002   7.198   6.357  0.0277 -1.7057  1.6816
 3389SOL     vw13556   5.944   7.158   6.306  0.3374 -0.2511  0.1004
 3390SOL     ow13557   0.384   7.438   2.127  0.4993 -0.1208 -0.2087
 3390SOL     hw13558   0.428   7.382   2.191  1.3423 -0.7425 -1.2972
 3390SOL     hw13559   0.450   7.454   2.060 -0.5523 -0.0217 -1.2495
 3390SOL     vw13560   0.398   7.433   2.127  0.4718 -0.1895 -0.4897
 3391SOL     ow13561   4.215   4.702   0.011  0.5633 -0.3897 -0.2825
 3391SOL     hw13562   4.260   4.781  -0.017 -1.9312  1.1689 -0.1504
 3391SOL     hw13563   4.215   4.707   0.107 -1.9841  0.9863 -0.2795
 3391SOL     vw13564   4.221   4.713   0.020 -0.1020 -0.0021 -0.2647
 3392SOL     ow13565   1.469   2.451   1.749 -0.1844  0.0048  0.8145
 3392SOL     hw13566   1.482   2.397   1.827  0.9404 -1.4125 -0.3049
 3392SOL     hw13567   1.444   2.537   1.784  1.2227 -0.3154  2.7745
 3392SOL     vw13568   1.467   2.456   1.764  0.1497 -0.2245  0.9254
 3393SOL     ow13569   0.622   1.465   6.880 -0.5619 -0.3195  0.2070
 3393SOL     hw13570   0.590   1.529   6.816 -0.0631 -0.9619 -0.7019
 3393SOL     hw13571   0.546   1.410   6.899 -0.3978 -0.9051 -0.7966
 3393SOL     vw13572   0.607   1.466   6.874 -0.4744 -0.4815 -0.0455
 3394SOL     ow13573   1.432   3.861   1.384  0.0316  0.3086  0.2146
 3394SOL     hw13574   1.439   3.896   1.473  0.3847 -2.1579  1.2272
 3394SOL     hw13575   1.383   3.780   1.394  0.3034 -0.1556 -1.8158
 3394SOL     vw13576   1.427   3.855   1.397  0.1141 -0.0781  0.0803
 3395SOL     ow13577   1.632   6.020   5.810 -0.3654  0.0549 -0.3926
 3395SOL     hw13578   1.724   6.032   5.786 -0.8332  2.0553 -1.3863
 3395SOL     hw13579   1.629   6.036   5.904 -0.0028  2.2552 -0.7190
 3395SOL     vw13580   1.644   6.023   5.819 -0.3792  0.6092 -0.5667
 3396SOL     ow13581   1.501   6.187   2.391  0.1897  0.5462  0.0543
 3396SOL     hw13582   1.494   6.280   2.368  0.2254  0.7612  0.9037
 3396SOL     hw13583   1.593   6.174   2.410  0.0725  0.5068  0.6197
 3396SOL     vw13584   1.512   6.198   2.390  0.1789  0.5691  0.2410
 3397SOL     ow13585   3.555   6.419   5.905  0.2057  0.1570  0.4868
 3397SOL     hw13586   3.612   6.496   5.906 -1.6290  1.5797  1.6564
 3397SOL     hw13587   3.469   6.452   5.880 -1.0431 -1.1521  2.6910
 3397SOL     vw13588   3.552   6.434   5.902 -0.2011  0.1724  0.9320
 3398SOL     ow13589   3.926   6.794   7.286 -0.3158  0.1617  0.1212
 3398SOL     hw13590   3.920   6.800   7.190  1.7379  0.6091 -0.0125
 3398SOL     hw13591   3.838   6.768   7.313 -0.6698 -1.1079 -1.9816
 3398SOL     vw13592   3.914   6.791   7.277 -0.0916  0.0527 -0.1738
 3399SOL     ow13593   2.891   2.654   7.087 -0.3203 -0.5285  0.1207
 3399SOL     hw13594   2.936   2.604   7.019 -0.0308 -0.7429  0.4603
 3399SOL     hw13595   2.828   2.708   7.040 -0.7355 -1.3094 -0.2533
 3399SOL     vw13596   2.889   2.654   7.072 -0.3370 -0.6598  0.1161
 3400SOL     ow13597   5.248   3.685   0.768 -0.1701 -0.2345 -0.0940
 3400SOL     hw13598   5.154   3.705   0.777 -0.0752  0.0326  0.3288
 3400SOL     hw13599   5.290   3.738   0.835  0.1477 -1.4694  0.7097
 3400SOL     vw13600   5.241   3.694   0.778 -0.1156 -0.3622  0.0678
 3401SOL     ow13601   5.255   5.970   0.242  0.4504  0.3433 -0.1540
 3401SOL     hw13602   5.227   6.019   0.320  0.0555 -0.9134  0.5238
 3401SOL     hw13603   5.287   5.887   0.277 -1.0914 -0.8416 -1.4141
 3401SOL     vw13604   5.255   5.966   0.257  0.1948  0.0212 -0.2308
 3402SOL     ow13605   6.441   5.800   2.225  0.7971  0.0029  0.0690
 3402SOL     hw13606   6.364   5.842   2.187  1.1858  2.0447  1.4160
 3402SOL     hw13607   6.511   5.817   2.161  0.7652  0.7106  0.2146
 3402SOL     vw13608   6.440   5.808   2.212  0.8440  0.3657  0.2660
 3403SOL     ow13609   4.295   0.807   0.789 -0.0337 -0.0814  0.7247
 3403SOL     hw13610   4.316   0.715   0.799 -0.9899 -0.4050 -0.0921
 3403SOL     hw13611   4.306   0.844   0.877 -0.3523 -1.1177  1.2176
 3403SOL     vw13612   4.300   0.800   0.802 -0.2019 -0.2608  0.6819
 3404SOL     ow13613   2.386   3.390   5.307  0.1621 -0.0018 -1.0070
 3404SOL     hw13614   2.422   3.446   5.238  0.5173  2.3070  0.9088
 3404SOL     hw13615   2.463   3.359   5.355 -0.1526  0.1365 -0.4064
 3404SOL     vw13616   2.401   3.393   5.305  0.1674  0.3210 -0.6747
 3405SOL     ow13617   3.924   5.322   0.431  0.2604  0.0359  0.4908
 3405SOL     hw13618   3.958   5.342   0.344 -1.3218 -1.2513 -0.5037
 3405SOL     hw13619   3.829   5.315   0.418 -0.1453  0.8914  2.5674
 3405SOL     vw13620   3.916   5.324   0.418 -0.0019 -0.0210  0.6336
 3406SOL     ow13621   3.559   5.335   0.072  0.4558 -0.0439 -0.0709
 3406SOL     hw13622   3.595   5.247   0.088  1.6727  0.4586  0.0366
 3406SOL     hw13623   3.540   5.369   0.160 -0.0815 -0.2176 -0.1162
 3406SOL     vw13624   3.561   5.328   0.086  0.5455 -0.0007 -0.0627
 3407SOL     ow13625   7.302   4.116   4.079  0.3050 -0.8736 -0.3085
 3407SOL     hw13626   7.311   4.060   4.001  2.0051 -0.9202 -0.1212
 3407SOL     hw13627   7.392   4.127   4.111 -0.2130  0.3302  0.8260
 3407SOL     vw13628   7.315   4.110   4.073  0.4606 -0.7210 -0.1340
 3408SOL     ow13629   5.750   3.603   7.512  0.0622  0.3293  1.0707
 3408SOL     hw13630   5.656   3.589   7.520 -0.6207  1.8792 -2.3920
 3408SOL     hw13631   5.761   3.697   7.524  0.7883  0.5131 -0.7483
 3408SOL     vw13632   5.739   3.614   7.515  0.0679  0.5580  0.3741
 3409SOL     ow13633   6.892   3.434   7.022 -0.3167 -0.3212  0.0985
 3409SOL     hw13634   6.851   3.466   7.103 -1.9620 -1.5989 -0.1960
 3409SOL     hw13635   6.956   3.369   7.052  2.0757  2.0451  0.5979
 3409SOL     vw13636   6.895   3.430   7.037 -0.2182 -0.1776  0.1259
 3410SOL     ow13637   5.473   1.267   2.344 -0.2743  0.2368  0.5029
 3410SOL     hw13638   5.451   1.243   2.434  0.4780  0.0342  0.6362
 3410SOL     hw13639   5.396   1.242   2.293  0.0685 -1.5254  0.7899
 3410SOL     vw13640   5.460   1.260   2.349 -0.1297 -0.0224  0.5583
 3411SOL     ow13641   7.296   1.160   0.600 -0.2965  0.4633  0.3132
 3411SOL     hw13642   7.302   1.116   0.515  3.3279  0.5120  0.4087
 3411SOL     hw13643   7.287   1.253   0.579 -0.2858  0.3958  0.0118
 3411SOL     vw13644   7.296   1.167   0.586  0.1829  0.4608  0.2860
 3412SOL     ow13645   4.917   4.652   0.552 -0.0481 -0.0621 -0.1036
 3412SOL     hw13646   4.879   4.594   0.485 -1.2068  1.4677 -0.8215
 3412SOL     hw13647   4.996   4.606   0.580 -0.4362 -1.5607 -1.2964
 3412SOL     vw13648   4.922   4.638   0.547 -0.2520 -0.0579 -0.3557
 3413SOL     ow13649   0.932   1.093   6.889  0.3008 -0.2872 -0.3522
 3413SOL     hw13650   1.006   1.097   6.828  1.9233 -0.2953  1.5281
 3413SOL     hw13651   0.971   1.110   6.974 -1.4784 -2.5250  1.0126
 3413SOL     vw13652   0.947   1.096   6.892  0.2801 -0.5835  0.0758
 3414SOL     ow13653   0.085   2.971   2.912 -0.1528  0.8578 -0.3428
 3414SOL     hw13654   0.146   3.021   2.967 -0.3060  0.5692  0.0939
 3414SOL     hw13655   0.100   3.004   2.823  1.8708 -0.4111 -0.5369
 3414SOL     vw13656   0.095   2.982   2.908  0.0940  0.6523 -0.3108
 3415SOL     ow13657   3.213   4.347   4.574  0.7512  0.3823  0.1683
 3415SOL     hw13658   3.168   4.413   4.520 -0.2831 -0.6472 -0.2510
 3415SOL     hw13659   3.289   4.394   4.609  1.8646  0.9409 -2.7225
 3415SOL     vw13660   3.217   4.362   4.571  0.7619  0.3202 -0.2685
 3416SOL     ow13661   2.352   5.020   5.741 -0.1534  0.3545 -0.1904
 3416SOL     hw13662   2.328   4.963   5.814 -1.1561 -0.1291 -0.8738
 3416SOL     hw13663   2.366   5.106   5.781  0.2157 -0.0991  0.6864
 3416SOL     vw13664   2.351   5.023   5.756 -0.2371  0.2308 -0.1647
 3417SOL     ow13665   0.011   7.319   5.103  0.0592 -0.2968  0.1665
 3417SOL     hw13666   0.028   7.338   5.011  1.7240 -0.1357  0.4758
 3417SOL     hw13667  -0.075   7.358   5.121  0.2411  0.6992 -1.0233
 3417SOL     vw13668   0.002   7.327   5.094  0.3030 -0.1442  0.0503
 3418SOL     ow13669   4.183   2.733   0.035 -0.2282  0.4077 -0.5612
 3418SOL     hw13670   4.141   2.648   0.047 -0.9277  0.8807  0.5390
 3418SOL     hw13671   4.211   2.758   0.123  1.6548  0.4935 -1.1351
 3418SOL     vw13672   4.181   2.725   0.048 -0.0720  0.4814 -0.4918
 3419SOL     ow13673   5.178   6.813   3.413 -0.7434  0.3434  0.1344
 3419SOL     hw13674   5.240   6.886   3.403  1.0525 -0.9182  1.4544
 3419SOL     hw13675   5.232   6.740   3.443 -2.7772 -1.0677  0.5205
 3419SOL     vw13676   5.193   6.813   3.416 -0.7749 -0.0093  0.3595
 3420SOL     ow13677   1.968   2.090   3.952 -0.4537 -0.2129  0.7471
 3420SOL     hw13678   1.983   2.172   3.905  0.4461 -0.5692  0.3956
 3420SOL     hw13679   1.899   2.047   3.902 -0.9776  0.3463  0.9686
 3420SOL     vw13680   1.961   2.095   3.939 -0.4041 -0.1861  0.7299
 3421SOL     ow13681   7.099   6.312   5.477 -0.0893 -0.0311 -0.1029
 3421SOL     hw13682   7.182   6.310   5.525 -0.5896 -0.0434  0.7757
 3421SOL     hw13683   7.045   6.247   5.521 -0.6747  0.2006 -0.4781
 3421SOL     vw13684   7.103   6.303   5.489 -0.2325 -0.0024 -0.0365
 3422SOL     ow13685   4.098   4.099   4.770 -0.2841  0.4147  0.3528
 3422SOL     hw13686   4.104   4.056   4.855 -2.1168 -0.4427  0.0930
 3422SOL     hw13687   4.154   4.048   4.713 -1.6130 -1.0661  0.3024
 3422SOL     vw13688   4.106   4.087   4.774 -0.7012  0.1063  0.3116
 3423SOL     ow13689   5.841   3.653   2.054  0.7166  0.6468 -0.1890
 3423SOL     hw13690   5.751   3.629   2.079  1.3692 -0.2477  1.4667
 3423SOL     hw13691   5.830   3.716   1.983 -1.2180  0.5504 -0.0364
 3423SOL     vw13692   5.827   3.658   2.048  0.5476  0.5161  0.0496
 3424SOL     ow13693   1.386   6.175   6.106 -0.2729 -0.0505  0.0090
 3424SOL     hw13694   1.366   6.122   6.183  0.3021  1.0261  0.9273
 3424SOL     hw13695   1.479   6.157   6.088 -0.5171 -0.6500 -0.7424
 3424SOL     vw13696   1.396   6.165   6.114 -0.2294  0.0124  0.0312
 3425SOL     ow13697   3.452   4.805   4.248  0.3422 -0.5399  0.0176
 3425SOL     hw13698   3.444   4.732   4.310 -0.2109 -1.8131 -1.4858
 3425SOL     hw13699   3.365   4.814   4.209  0.7413  0.0300 -0.7886
 3425SOL     vw13700   3.439   4.797   4.251  0.3217 -0.6325 -0.2873
 3426SOL     ow13701   4.421   4.920   0.913 -0.7569  0.2098 -0.1331
 3426SOL     hw13702   4.360   4.911   0.986 -1.4634 -2.1673 -0.9231
 3426SOL     hw13703   4.490   4.978   0.946 -0.4777 -1.6273  2.8182
 3426SOL     vw13704   4.422   4.927   0.927 -0.8135 -0.3464  0.1521
 3427SOL     ow13705   2.052   1.305   4.281  0.7339  0.3549 -0.0813
 3427SOL     hw13706   2.043   1.227   4.226  1.8872 -1.2841  1.8926
 3427SOL     hw13707   1.969   1.352   4.270  0.0945 -1.0205 -1.5011
 3427SOL     vw13708   2.039   1.301   4.272  0.8018 -0.0427 -0.0081
 3428SOL     ow13709   2.442   2.498   3.404 -0.0959 -0.5485  0.0547
 3428SOL     hw13710   2.457   2.581   3.449 -1.1816 -0.2682 -0.0732
 3428SOL     hw13711   2.525   2.452   3.411  1.5172  1.6853 -2.3294
 3428SOL     vw13712   2.455   2.503   3.411 -0.0265 -0.2167 -0.2767
 3429SOL     ow13713   0.533   7.258   2.261 -0.5721  0.1931  0.3648
 3429SOL     hw13714   0.545   7.197   2.334  2.8712  1.0067  0.6544
 3429SOL     hw13715   0.614   7.250   2.210 -1.2595  2.4271 -1.1997
 3429SOL     vw13716   0.545   7.249   2.264 -0.2085  0.5951  0.1966
 3430SOL     ow13717   0.219   0.089   0.418  0.3485  0.0815  0.1176
 3430SOL     hw13718   0.147   0.041   0.460  0.6232 -1.7407 -1.3249
 3430SOL     hw13719   0.204   0.075   0.324  1.4918  1.3626 -0.2840
 3430SOL     vw13720   0.207   0.081   0.411  0.5356  0.0101 -0.1257
 3431SOL     ow13721   2.297   6.271   6.565 -0.0658  0.4605  0.0045
 3431SOL     hw13722   2.279   6.179   6.549 -1.4674  0.5306  1.0407
 3431SOL     hw13723   2.393   6.278   6.560  0.0806 -1.1061  0.2474
 3431SOL     vw13724   2.308   6.260   6.562 -0.2315  0.2630  0.1731
 3432SOL     ow13725   7.300   1.872   2.440  0.1958 -0.5683 -0.2219
 3432SOL     hw13726   7.265   1.814   2.372 -2.1744  1.3075 -0.7439
 3432SOL     hw13727   7.253   1.847   2.519 -1.3318  0.9414 -0.5879
 3432SOL     vw13728   7.289   1.861   2.441 -0.3183 -0.1216 -0.3392
 3433SOL     ow13729   5.347   5.912   2.091  0.9392  0.1240 -0.3052
 3433SOL     hw13730   5.277   5.847   2.096 -0.2566  1.4331  0.8645
 3433SOL     hw13731   5.354   5.932   1.998  0.8596 -1.1468 -0.6069
 3433SOL     vw13732   5.339   5.906   2.079  0.7708  0.1292 -0.1906
 3434SOL     ow13733   4.690   1.961   3.140 -0.0721 -0.2733  0.5484
 3434SOL     hw13734   4.765   2.011   3.171  0.7430 -1.7134  0.9846
 3434SOL     hw13735   4.689   1.974   3.045  0.8738 -0.4202  0.5169
 3434SOL     vw13736   4.699   1.969   3.131  0.1602 -0.4826  0.6018
 3435SOL     ow13737   1.987   1.899   7.366  0.6293  0.1219 -0.0478
 3435SOL     hw13738   1.921   1.946   7.418  1.1040  0.3742  0.3312
 3435SOL     hw13739   2.034   1.969   7.321 -0.5916 -0.1393 -1.8316
 3435SOL     vw13740   1.984   1.915   7.367  0.5308  0.1207 -0.2329
 3436SOL     ow13741   4.515   5.582   0.580  0.4732 -0.2384  0.8032
 3436SOL     hw13742   4.524   5.673   0.610 -0.0238 -0.3126  1.1960
 3436SOL     hw13743   4.558   5.530   0.649  0.0043 -0.3564  1.0107
 3436SOL     vw13744   4.522   5.587   0.593  0.3459 -0.2637  0.8824
 3437SOL     ow13745   4.760   5.891   5.243  0.2693 -0.6865 -0.0203
 3437SOL     hw13746   4.810   5.958   5.291  1.0369 -1.4822  0.3239
 3437SOL     hw13747   4.815   5.813   5.248 -0.4978 -1.2763 -0.6384
 3437SOL     vw13748   4.774   5.889   5.250  0.2692 -0.8693 -0.0565
 3438SOL     ow13749   0.207   0.285   1.980 -0.2970 -0.0407  0.2004
 3438SOL     hw13750   0.182   0.196   2.004  1.8607 -0.1827  2.3400
 3438SOL     hw13751   0.301   0.289   1.999 -0.3939  2.7805  0.5100
 3438SOL     vw13752   0.216   0.274   1.986 -0.0251  0.3128  0.5236
 3439SOL     ow13753   3.348   4.975   0.553  0.4768  0.7105  0.0267
 3439SOL     hw13754   3.390   4.897   0.519  0.6177  0.8885 -0.2129
 3439SOL     hw13755   3.259   4.948   0.575 -0.1961  0.9854 -2.1323
 3439SOL     vw13756   3.341   4.961   0.552  0.4067  0.7703 -0.2898
 3440SOL     ow13757   3.502   2.333   0.817 -0.0811 -0.2789  0.4314
 3440SOL     hw13758   3.425   2.343   0.762 -0.3019 -0.1121  0.7620
 3440SOL     hw13759   3.503   2.240   0.839 -0.2148 -0.2753  0.4588
 3440SOL     vw13760   3.492   2.322   0.813 -0.1278 -0.2564  0.4787
 3441SOL     ow13761   4.316   7.200   2.368 -0.5993 -0.1254 -0.2452
 3441SOL     hw13762   4.359   7.270   2.319 -1.3492 -0.6745 -1.7311
 3441SOL     hw13763   4.351   7.119   2.331  1.4246 -0.6594  2.4731
 3441SOL     vw13764   4.326   7.199   2.357 -0.4313 -0.2682 -0.0826
 3442SOL     ow13765   6.965   1.641   3.401  0.2321 -0.1848 -0.0454
 3442SOL     hw13766   6.928   1.553   3.407 -0.7241  0.1787 -0.3128
 3442SOL     hw13767   6.950   1.680   3.487 -1.0049  0.3223 -0.4635
 3442SOL     vw13768   6.958   1.635   3.413 -0.0572 -0.0699 -0.1358
 3443SOL     ow13769   5.732   0.567   3.295  0.0273 -0.2938  0.0744
 3443SOL     hw13770   5.649   0.584   3.252  0.8890  2.7183 -0.6663
 3443SOL     hw13771   5.719   0.597   3.385  0.5959  1.4438 -0.3747
 3443SOL     vw13772   5.720   0.573   3.302  0.2160  0.3328 -0.0826
 3444SOL     ow13773   7.294   5.781   0.535  0.3886 -0.1737  0.2139
 3444SOL     hw13774   7.385   5.757   0.549  0.0609 -1.4414  0.2725
 3444SOL     hw13775   7.262   5.809   0.621  0.3185 -1.1698  0.5212
 3444SOL     vw13776   7.302   5.782   0.548  0.3364 -0.4723  0.2622
 3445SOL     ow13777   3.455   4.178   4.254  0.2198 -0.4403 -0.3483
 3445SOL     hw13778   3.456   4.219   4.341 -1.7116 -1.0688  0.0234
 3445SOL     hw13779   3.483   4.088   4.269 -1.2369 -0.8857 -0.1376
 3445SOL     vw13780   3.459   4.172   4.267 -0.2273 -0.5820 -0.2716
 3446SOL     ow13781   2.091   3.378   4.320 -0.1007  0.1519 -0.3711
 3446SOL     hw13782   2.095   3.431   4.399  1.4698 -1.0699  0.4388
 3446SOL     hw13783   2.147   3.424   4.257  0.4823 -0.0187  0.0103
 3446SOL     vw13784   2.099   3.391   4.322  0.1835 -0.0317 -0.2141
 3447SOL     ow13785   3.296   5.128   6.089 -0.4630  0.0722  0.2195
 3447SOL     hw13786   3.390   5.122   6.075 -0.5798 -1.2480 -0.1499
 3447SOL     hw13787   3.259   5.060   6.033 -1.7364  1.3137 -0.5053
 3447SOL     vw13788   3.303   5.118   6.080 -0.6465  0.0618  0.0753
 3448SOL     ow13789   2.209   6.268   1.868 -0.0531 -0.0709  1.2812
 3448SOL     hw13790   2.127   6.262   1.917 -0.2041 -1.4793  0.9088
 3448SOL     hw13791   2.276   6.283   1.935 -0.3144 -1.4934  1.9168
 3448SOL     vw13792   2.207   6.269   1.883 -0.1075 -0.4444  1.3160
 3449SOL     ow13793   4.268   6.262   6.766  0.0977  0.4484  0.2655
 3449SOL     hw13794   4.343   6.320   6.756 -1.0752  2.2148  1.1280
 3449SOL     hw13795   4.213   6.304   6.832 -1.1093 -1.3689  0.5013
 3449SOL     vw13796   4.270   6.275   6.773 -0.2165  0.4418  0.4106
 3450SOL     ow13797   3.189   5.166   4.625 -0.4680  0.5104  0.2110
 3450SOL     hw13798   3.215   5.226   4.695 -0.7447  1.2470 -0.3117
 3450SOL     hw13799   3.103   5.135   4.652 -0.3151  0.3207  0.4930
 3450SOL     vw13800   3.181   5.170   4.638 -0.4843  0.5827  0.1793
 3451SOL     ow13801   3.959   0.116   4.610 -0.1733  0.3681 -0.7281
 3451SOL     hw13802   3.910   0.036   4.590 -1.4135  0.7218  0.6466
 3451SOL     hw13803   3.975   0.111   4.704  1.4428  0.8354 -0.9558
 3451SOL     vw13804   3.955   0.105   4.620 -0.1237  0.4764 -0.5767
 3452SOL     ow13805   0.438   3.278   1.331  0.1809  0.5484 -0.2190
 3452SOL     hw13806   0.422   3.205   1.272 -2.3681 -0.6571  1.7246
 3452SOL     hw13807   0.414   3.356   1.281  1.5345 -0.0531 -1.8597
 3452SOL     vw13808   0.433   3.279   1.317  0.0232  0.3098 -0.1791
 3453SOL     ow13809   1.041   1.281   5.563  0.1241 -0.2411  0.2228
 3453SOL     hw13810   1.028   1.375   5.576  0.6416 -0.3193  1.4661
 3453SOL     hw13811   1.036   1.269   5.468 -1.7365  0.7616  0.1352
 3453SOL     vw13812   1.038   1.292   5.552 -0.0532 -0.1191  0.3750
 3454SOL     ow13813   6.104   1.354   1.365 -0.0735  0.1297  0.1417
 3454SOL     hw13814   6.167   1.341   1.294 -0.6215  0.0473 -0.3412
 3454SOL     hw13815   6.149   1.410   1.427  0.7585 -0.5587  0.1825
 3454SOL     vw13816   6.118   1.359   1.363 -0.0362  0.0280  0.0834
 3455SOL     ow13817   3.671   0.818   4.484 -0.3895 -0.2906 -0.0315
 3455SOL     hw13818   3.647   0.765   4.409  0.8140  0.3249 -0.8779
 3455SOL     hw13819   3.614   0.787   4.555 -0.8689 -1.5284 -0.9345
 3455SOL     vw13820   3.660   0.807   4.484 -0.2940 -0.3727 -0.2620
 3456SOL     ow13821   1.861   7.302   2.738  0.3532  0.0967  0.2984
 3456SOL     hw13822   1.864   7.212   2.706  2.0680 -0.2143  1.2192
 3456SOL     hw13823   1.771   7.330   2.721 -0.7707 -2.3654  1.5436
 3456SOL     vw13824   1.850   7.294   2.732  0.4311 -0.2694  0.5842
 3457SOL     ow13825   1.801   6.769   5.691  0.5528 -0.1215  0.0946
 3457SOL     hw13826   1.818   6.740   5.601  1.1306  0.0734  0.1438
 3457SOL     hw13827   1.841   6.855   5.697 -0.8148  0.5376  0.0791
 3457SOL     vw13828   1.808   6.776   5.680  0.4486 -0.0088  0.0992
 3458SOL     ow13829   6.646   5.483   4.984  0.3310  0.0844 -0.7121
 3458SOL     hw13830   6.555   5.467   4.960  0.5093 -0.0588 -1.3388
 3458SOL     hw13831   6.651   5.577   4.999  0.7049  0.6306 -3.6566
 3458SOL     vw13832   6.635   5.493   4.982  0.4039  0.1376 -1.1833
 3459SOL     ow13833   6.039   4.197   3.693 -0.0708  0.0124 -0.7452
 3459SOL     hw13834   6.082   4.262   3.637 -0.3220  2.8940  2.1035
 3459SOL     hw13835   5.946   4.206   3.673 -0.0193 -0.2834 -1.1261
 3459SOL     vw13836   6.032   4.207   3.683 -0.0973  0.3533 -0.4195
 3460SOL     ow13837   1.637   4.771   5.524  0.0176 -0.1796  0.3311
 3460SOL     hw13838   1.711   4.742   5.578  0.0680 -0.5054  0.0924
 3460SOL     hw13839   1.624   4.862   5.548 -0.6359 -0.5986  1.6495
 3460SOL     vw13840   1.645   4.779   5.534 -0.0620 -0.2780  0.4735
 3461SOL     ow13841   0.520   1.308   6.247 -0.0037  0.0928  0.3567
 3461SOL     hw13842   0.522   1.352   6.163 -0.2966  2.3311  1.4528
 3461SOL     hw13843   0.466   1.230   6.232  0.7734 -0.0969 -1.7274
 3461SOL     vw13844   0.513   1.303   6.234  0.0601  0.3631  0.2265
 3462SOL     ow13845   1.652   4.296   5.650 -0.0551 -0.4110  0.0558
 3462SOL     hw13846   1.673   4.353   5.725  1.8526 -2.1026  0.9381
 3462SOL     hw13847   1.726   4.308   5.590 -0.3587 -0.8523 -0.4097
 3462SOL     vw13848   1.665   4.305   5.652  0.1565 -0.6924  0.1111
 3463SOL     ow13849   5.067   3.087   5.122 -0.1167  0.4897  0.7614
 3463SOL     hw13850   5.146   3.037   5.141 -0.6379 -0.8189 -0.3173
 3463SOL     hw13851   4.997   3.021   5.119 -0.7439  1.1559 -1.1756
 3463SOL     vw13852   5.068   3.072   5.124 -0.2685  0.4050  0.3633
 3464SOL     ow13853   1.540   0.721   6.968 -0.2699  1.2560 -0.5866
 3464SOL     hw13854   1.545   0.794   6.906 -1.0332  1.0851 -0.8565
 3464SOL     hw13855   1.548   0.763   7.054 -0.3734  1.6235 -0.7520
 3464SOL     vw13856   1.542   0.737   6.971 -0.3843  1.2819 -0.6442
 3465SOL     ow13857   6.459   5.207   2.496 -0.0705 -0.2232 -0.1511
 3465SOL     hw13858   6.451   5.240   2.585  1.7571 -2.0270  0.7953
 3465SOL     hw13859   6.411   5.124   2.497 -0.2173 -0.1523 -0.8961
 3465SOL     vw13860   6.452   5.200   2.508  0.1509 -0.4518 -0.1246
 3466SOL     ow13861   3.160   0.815   4.558  0.1770 -0.3081  0.5263
 3466SOL     hw13862   3.098   0.835   4.628 -1.0280  0.3188 -0.6830
 3466SOL     hw13863   3.241   0.793   4.604 -0.9142 -1.1536  2.1488
 3466SOL     vw13864   3.163   0.815   4.573 -0.1260 -0.3370  0.5808
 3467SOL     ow13865   2.509   4.687   2.791  0.2408  0.5814  0.3963
 3467SOL     hw13866   2.537   4.756   2.851  1.0193  1.6762 -1.1271
 3467SOL     hw13867   2.543   4.715   2.706 -2.4150  0.0816 -0.9271
 3467SOL     vw13868   2.517   4.700   2.787 -0.0068  0.6597  0.0206
 3468SOL     ow13869   0.196   4.030   4.242  0.0979  0.4208  0.2798
 3468SOL     hw13870   0.126   4.027   4.307 -1.5985 -0.9892 -1.4794
 3468SOL     hw13871   0.158   4.074   4.167  1.8270  1.5142 -0.0100
 3468SOL     vw13872   0.182   4.035   4.241  0.1022  0.3791  0.0098
 3469SOL     ow13873   7.376   5.137   2.692 -0.3591 -0.0109 -0.2223
 3469SOL     hw13874   7.301   5.175   2.737 -0.1190 -1.3647  1.4551
 3469SOL     hw13875   7.427   5.095   2.762  1.0132 -0.6486 -1.5423
 3469SOL     vw13876   7.373   5.136   2.707 -0.1462 -0.2735 -0.1750
 3470SOL     ow13877   2.466   4.245   6.114 -0.3019 -0.3213 -0.1341
 3470SOL     hw13878   2.497   4.327   6.153 -0.7787 -0.4542  0.5336
 3470SOL     hw13879   2.543   4.211   6.067  0.4295 -0.3796  1.0552
 3470SOL     vw13880   2.480   4.251   6.113 -0.2683 -0.3464  0.1109
 3471SOL     ow13881   5.873   4.165   5.467 -0.0940 -0.6923  0.0098
 3471SOL     hw13882   5.801   4.224   5.443 -0.0671 -0.5753  0.2161
 3471SOL     hw13883   5.929   4.218   5.524 -0.3039 -1.0511  0.5546
 3471SOL     vw13884   5.871   4.180   5.471 -0.1183 -0.7238  0.1090
 3472SOL     ow13885   7.497   0.649   0.726  0.2965 -0.2883  0.0479
 3472SOL     hw13886   7.562   0.692   0.671 -1.3718  1.5495 -0.5905
 3472SOL     hw13887   7.424   0.631   0.668 -0.4831 -0.6924  1.1231
 3472SOL     vw13888   7.496   0.652   0.711 -0.0265 -0.0992  0.1055
 3473SOL     ow13889   0.186   2.437   6.232  1.1796  0.1006  0.1793
 3473SOL     hw13890   0.127   2.362   6.235 -0.1668  1.0546  3.4892
 3473SOL     hw13891   0.140   2.501   6.177  0.7135 -0.3616  0.0227
 3473SOL     vw13892   0.172   2.436   6.225  0.9405  0.1656  0.5953
 3474SOL     ow13893   6.753   7.058   0.303 -0.2685 -0.1660  0.0700
 3474SOL     hw13894   6.682   7.001   0.276 -0.5814  0.6856 -0.9671
 3474SOL     hw13895   6.833   7.012   0.277 -0.4951 -0.3851 -0.2413
 3474SOL     vw13896   6.754   7.045   0.296 -0.3397 -0.0827 -0.1079
 3475SOL     ow13897   6.513   1.927   1.013  0.0035 -0.5869  0.4633
 3475SOL     hw13898   6.537   1.942   1.104 -0.5849  0.9838  0.3949
 3475SOL     hw13899   6.525   1.833   1.000  3.0411 -0.4208  1.2793
 3475SOL     vw13900   6.518   1.916   1.023  0.3264 -0.3578  0.5619
 3476SOL     ow13901   6.330   1.909   0.528  0.2322 -0.2467  0.1616
 3476SOL     hw13902   6.359   1.871   0.445  0.4871 -2.5246  1.2135
 3476SOL     hw13903   6.351   1.842   0.593 -0.0956  1.4158  2.0541
 3476SOL     vw13904   6.336   1.895   0.525  0.2224 -0.3279  0.5501
 3477SOL     ow13905   3.314   5.826   0.027  0.1071 -0.3784  1.2672
 3477SOL     hw13906   3.264   5.766  -0.027 -1.3001  1.2131  0.7011
 3477SOL     hw13907   3.343   5.894  -0.033  0.3642  0.2953  2.1272
 3477SOL     vw13908   3.311   5.827   0.012 -0.0447 -0.0794  1.3058
 3478SOL     ow13909   4.169   1.973   0.101  0.2000  0.3550 -0.3119
 3478SOL     hw13910   4.196   1.886   0.131 -0.6755 -0.0177 -0.5763
 3478SOL     hw13911   4.109   2.004   0.169  1.3473  1.2505  0.3568
 3478SOL     vw13912   4.165   1.966   0.114  0.2360  0.4240 -0.2586
 3479SOL     ow13913   4.864   6.455   2.641  0.1527  0.3426  0.4265
 3479SOL     hw13914   4.868   6.377   2.586  1.9100 -0.0264  1.0377
 3479SOL     hw13915   4.774   6.487   2.630  0.4467  0.3680 -2.7161
 3479SOL     vw13916   4.852   6.449   2.633  0.4232  0.2973  0.0925
 3480SOL     ow13917   2.047   5.642   3.676 -0.6088 -0.4938  0.4232
 3480SOL     hw13918   2.115   5.677   3.733 -1.9321  1.2112  1.0394
 3480SOL     hw13919   1.966   5.653   3.726 -1.8435  1.0795 -1.7499
 3480SOL     vw13920   2.045   5.648   3.690 -0.9464 -0.0613  0.2177
 3481SOL     ow13921   7.038   4.931   4.385 -0.1357 -0.7204  0.0546
 3481SOL     hw13922   7.019   5.012   4.433  0.2000  1.0904 -2.6091
 3481SOL     hw13923   7.091   4.960   4.310 -1.0320 -3.2261 -1.6770
 3481SOL     vw13924   7.042   4.946   4.382 -0.2098 -0.8116 -0.5252
 3482SOL     ow13925   7.312   0.268   3.734 -0.3260  0.3984 -0.5996
 3482SOL     hw13926   7.275   0.357   3.741 -1.7659 -0.0434 -2.0152
 3482SOL     hw13927   7.238   0.211   3.755  0.6379 -0.4884  0.4738
 3482SOL     vw13928   7.297   0.272   3.738 -0.3889  0.2231 -0.6448
 3483SOL     ow13929   0.257   4.849   5.236  0.1312 -0.5162  0.4074
 3483SOL     hw13930   0.216   4.817   5.316 -1.6448  0.9363  0.1639
 3483SOL     hw13931   0.184   4.886   5.186  1.5040  0.4722 -0.9330
 3483SOL     vw13932   0.242   4.850   5.240  0.0780 -0.1941  0.1988
 3484SOL     ow13933   7.553   5.287   4.343  0.1008  0.3711  0.3850
 3484SOL     hw13934   7.522   5.211   4.292  2.3304 -0.8999  0.7690
 3484SOL     hw13935   7.582   5.350   4.277 -0.9650  0.5495  0.0703
 3484SOL     vw13936   7.553   5.285   4.327  0.2544  0.2267  0.3941
 3485SOL     ow13937   4.201   5.525   5.105  0.1332  0.2595 -0.2486
 3485SOL     hw13938   4.243   5.552   5.186  0.4301 -1.3638  0.1669
 3485SOL     hw13939   4.246   5.444   5.079 -1.0253 -0.1356 -1.1575
 3485SOL     vw13940   4.212   5.518   5.112  0.0196 -0.0072 -0.3135
 3486SOL     ow13941   0.585   1.151   3.834 -0.4449 -0.0087  0.6369
 3486SOL     hw13942   0.625   1.172   3.750  0.6946  1.2274  1.4581
 3486SOL     hw13943   0.498   1.191   3.829  0.0923  1.1696  0.5245
 3486SOL     vw13944   0.578   1.159   3.822 -0.2237  0.3099  0.7304
 3487SOL     ow13945   3.964   4.795   0.078 -0.5413 -0.0545  0.6416
 3487SOL     hw13946   4.041   4.758   0.034 -0.7269  1.3440 -0.9620
 3487SOL     hw13947   3.941   4.730   0.145  0.1701 -1.9779 -0.8921
 3487SOL     vw13948   3.971   4.782   0.081 -0.4719 -0.1237  0.2277
 3488SOL     ow13949   4.513   7.088   3.938  0.0777  0.2609  0.1668
 3488SOL     hw13950   4.429   7.044   3.927 -0.4567  1.0201  1.1460
 3488SOL     hw13951   4.531   7.085   4.032  0.1984  1.8062  0.2161
 3488SOL     vw13952   4.504   7.082   3.949  0.0229  0.5651  0.3023
 3489SOL     ow13953   6.988   4.031   1.273 -0.9027 -0.3042  0.5382
 3489SOL     hw13954   6.930   3.958   1.294 -0.0084 -0.9267  0.9159
 3489SOL     hw13955   7.002   4.076   1.356 -0.4724 -0.4374  0.5397
 3489SOL     vw13956   6.982   4.027   1.287 -0.7281 -0.4039  0.5882
 3490SOL     ow13957   5.405   1.264   5.178 -0.6035  0.0882  0.3355
 3490SOL     hw13958   5.331   1.226   5.131  0.4971 -1.1684 -0.4493
 3490SOL     hw13959   5.446   1.322   5.114 -1.9395  2.2696  1.3493
 3490SOL     vw13960   5.401   1.266   5.163 -0.6344  0.2102  0.3655
 3491SOL     ow13961   2.872   0.218   3.872  0.2259  0.2441  0.0620
 3491SOL     hw13962   2.894   0.244   3.962  0.2906  0.2782  0.0366
 3491SOL     hw13963   2.895   0.125   3.867  2.8329  0.8262 -0.7178
 3491SOL     vw13964   2.878   0.209   3.883  0.5784  0.3254 -0.0442
 3492SOL     ow13965   6.517   0.693   7.101  0.5143  0.2122  0.0137
 3492SOL     hw13966   6.547   0.607   7.071  0.3984 -0.9716  3.0284
 3492SOL     hw13967   6.441   0.675   7.156 -1.0400  2.5133 -1.2145
 3492SOL     vw13968   6.511   0.679   7.104  0.2935  0.3596  0.2496
 3493SOL     ow13969   0.206   3.599   3.145 -0.1138  0.0988  0.0066
 3493SOL     hw13970   0.291   3.572   3.111 -0.2338 -0.6867  0.3236
 3493SOL     hw13971   0.203   3.694   3.130  0.3667 -0.0340 -0.9825
 3493SOL     vw13972   0.217   3.608   3.138 -0.0663 -0.0224 -0.0821
 3494SOL     ow13973   3.882   6.623   2.561  0.3900 -0.1682 -0.4810
 3494SOL     hw13974   3.817   6.582   2.619 -0.9873  1.6129 -0.6746
 3494SOL     hw13975   3.839   6.624   2.475  2.0402 -1.9411 -1.4014
 3494SOL     vw13976   3.868   6.617   2.557  0.4258 -0.1669 -0.6280
 3495SOL     ow13977   5.391   2.930   7.412 -0.6137  0.3715  0.9625
 3495SOL     hw13978   5.403   3.024   7.424 -1.1079  0.4316  1.0233
 3495SOL     hw13979   5.477   2.897   7.385  0.1507  0.4935  3.0464
 3495SOL     vw13980   5.404   2.938   7.410 -0.5779  0.3955  1.2455
 3496SOL     ow13981   2.727   3.148   3.456 -0.4671 -0.0966  0.2398
 3496SOL     hw13982   2.693   3.103   3.378 -0.7679 -1.0156  0.8968
 3496SOL     hw13983   2.654   3.148   3.518 -0.4864  1.3226  0.2638
 3496SOL     vw13984   2.713   3.142   3.454 -0.5093 -0.0305  0.3296
 3497SOL     ow13985   4.707   2.382   2.929 -0.0975 -0.1435 -1.0336
 3497SOL     hw13986   4.679   2.305   2.880  0.1731 -0.8693 -0.0769
 3497SOL     hw13987   4.630   2.439   2.932 -0.1651 -0.1625 -2.1418
 3497SOL     vw13988   4.693   2.380   2.923 -0.0703 -0.2418 -1.0535
 3498SOL     ow13989   4.589   1.221   2.853 -0.0501 -0.0258 -0.2862
 3498SOL     hw13990   4.627   1.309   2.848 -2.2179  1.0259  0.5155
 3498SOL     hw13991   4.641   1.169   2.791  1.1339  1.8667 -0.9749
 3498SOL     vw13992   4.601   1.226   2.844 -0.1800  0.3627 -0.2712
 3499SOL     ow13993   3.309   4.850   6.974  0.2775 -0.2748 -0.2120
 3499SOL     hw13994   3.345   4.875   6.889 -0.8421 -3.8991 -1.9840
 3499SOL     hw13995   3.383   4.813   7.022  0.8911  1.6852  0.4372
 3499SOL     vw13996   3.323   4.848   6.969  0.2106 -0.4942 -0.3603
 3500SOL     ow13997   4.511   0.686   5.961  0.1528 -0.3209 -0.4176
 3500SOL     hw13998   4.581   0.623   5.974  0.4655 -0.2969 -1.8792
 3500SOL     hw13999   4.430   0.635   5.973  0.3146 -0.0538  2.7479
 3500SOL     vw14000   4.509   0.671   5.964  0.2153 -0.2825 -0.1929
 3501SOL     ow14001   6.893   4.302   1.626 -0.7710 -0.2199 -0.1579
 3501SOL     hw14002   6.806   4.333   1.601 -1.6373 -1.4921  1.0803
 3501SOL     hw14003   6.933   4.376   1.672 -0.5458  0.9020 -2.0552
 3501SOL     vw14004   6.887   4.316   1.629 -0.8557 -0.2398 -0.2449
 3502SOL     ow14005   0.786   6.629   4.661  0.2551  0.4358  0.4870
 3502SOL     hw14006   0.816   6.544   4.691 -0.8685 -0.1342  0.0566
 3502SOL     hw14007   0.718   6.609   4.596 -0.7701  1.6381  1.1350
 3502SOL     vw14008   0.781   6.615   4.656 -0.0283  0.5193  0.5159
 3503SOL     ow14009   4.212   5.893   6.178  0.4905  0.4490  0.1287
 3503SOL     hw14010   4.120   5.884   6.151  0.8962 -1.0965 -0.8806
 3503SOL     hw14011   4.260   5.899   6.095  1.4901 -1.0635  0.5689
 3503SOL     vw14012   4.206   5.893   6.163  0.6757  0.0455  0.0534
 3504SOL     ow14013   6.659   1.746   7.391  0.3662 -0.0449 -0.2829
 3504SOL     hw14014   6.589   1.792   7.346  0.6642 -0.7426 -1.5243
 3504SOL     hw14015   6.666   1.789   7.476 -2.1401 -0.5153  0.2345
 3504SOL     vw14016   6.651   1.758   7.396  0.0746 -0.1990 -0.3784
 3505SOL     ow14017   3.240   1.151   7.039 -0.4750  0.3510  0.1601
 3505SOL     hw14018   3.323   1.171   6.995 -0.5249  1.6376  0.6106
 3505SOL     hw14019   3.240   1.056   7.047  1.4161  0.3607  0.9787
 3505SOL     vw14020   3.251   1.141   7.034 -0.2321  0.5221  0.3276
 3506SOL     ow14021   1.697   1.292   0.631 -0.3023 -0.5720 -0.5577
 3506SOL     hw14022   1.708   1.343   0.550 -1.4186 -0.6047 -0.7536
 3506SOL     hw14023   1.715   1.355   0.701  0.4795 -0.4909 -0.8221
 3506SOL     vw14024   1.701   1.307   0.629 -0.3465 -0.5656 -0.6185
 3507SOL     ow14025   0.751   7.297   4.179 -0.2828  0.2878  0.9211
 3507SOL     hw14026   0.748   7.392   4.192  2.7146  0.4689  1.0956
 3507SOL     hw14027   0.683   7.279   4.115 -1.4092  2.4355  1.4135
 3507SOL     vw14028   0.742   7.307   4.172 -0.0359  0.5949  1.0087
 3508SOL     ow14029   3.474   4.116   7.512 -0.0713  0.3097  0.2406
 3508SOL     hw14030   3.551   4.146   7.562 -0.3159 -0.2108  0.9505
 3508SOL     hw14031   3.504   4.036   7.469 -1.1339 -1.9715  3.3416
 3508SOL     vw14032   3.488   4.109   7.513 -0.2438 -0.0598  0.7434
 3509SOL     ow14033   0.548   7.478   5.790  0.1212  0.1067 -0.5030
 3509SOL     hw14034   0.469   7.525   5.765 -0.3874 -0.3431  0.2445
 3509SOL     hw14035   0.614   7.546   5.801 -0.5613  0.6462  0.4102
 3509SOL     vw14036   0.546   7.493   5.788 -0.0359  0.1183 -0.2842
 3510SOL     ow14037   3.754   4.506   4.195  0.3754  0.1422  0.4345
 3510SOL     hw14038   3.683   4.485   4.135 -0.1192  0.8781  0.7512
 3510SOL     hw14039   3.776   4.423   4.236  0.6153 -0.3407 -0.6404
 3510SOL     vw14040   3.748   4.492   4.192  0.3418  0.1755  0.3343
 3511SOL     ow14041   1.042   5.555   4.983  0.0125  0.2817 -0.4079
 3511SOL     hw14042   0.949   5.576   4.974 -0.4979 -0.5069  2.1117
 3511SOL     hw14043   1.086   5.611   4.920 -2.1049  1.2957 -1.0651
 3511SOL     vw14044   1.036   5.565   4.974 -0.3342  0.3114 -0.1621
 3512SOL     ow14045   4.124   7.220   6.276 -0.3621 -0.0649 -0.6346
 3512SOL     hw14046   4.099   7.241   6.187  1.1039 -0.8825 -1.2898
 3512SOL     hw14047   4.149   7.127   6.273  2.0612  0.4752  0.0130
 3512SOL     vw14048   4.124   7.210   6.264  0.1509 -0.1013 -0.6356
 3513SOL     ow14049   4.080   5.088   6.416 -0.0069  0.8310  0.5457
 3513SOL     hw14050   4.167   5.050   6.406  1.1667  2.7961  2.3353
 3513SOL     hw14051   4.020   5.020   6.386  2.1093 -0.7964 -0.2330
 3513SOL     vw14052   4.083   5.074   6.411  0.4272  0.8757  0.6793
 3514SOL     ow14053   5.424   0.774   3.757  0.8068 -0.7924  0.1017
 3514SOL     hw14054   5.397   0.803   3.844  0.2874 -0.9898  0.0142
 3514SOL     hw14055   5.385   0.838   3.697 -1.5634 -2.3929 -0.1895
 3514SOL     vw14056   5.415   0.786   3.761  0.4258 -1.0296  0.0517
 3515SOL     ow14057   1.192   6.451   2.726  0.2346 -0.1033 -0.3050
 3515SOL     hw14058   1.173   6.532   2.773 -0.0959  0.0689 -0.7308
 3515SOL     hw14059   1.265   6.472   2.668  0.2672 -0.1626 -0.2866
 3515SOL     vw14060   1.199   6.464   2.725  0.1953 -0.0885 -0.3587
 3516SOL     ow14061   6.232   3.667   2.763  0.7047 -0.0606  0.5198
 3516SOL     hw14062   6.220   3.597   2.827  0.3234 -0.3411  0.1448
 3516SOL     hw14063   6.225   3.748   2.814 -3.1196 -0.1116  0.3884
 3516SOL     vw14064   6.230   3.669   2.778  0.1500 -0.1042  0.4529
 3517SOL     ow14065   1.198   1.471   6.880 -0.7186 -0.0366  0.4252
 3517SOL     hw14066   1.235   1.393   6.840 -1.8904 -0.8450  0.8633
 3517SOL     hw14067   1.266   1.501   6.940  0.0446 -0.2651 -0.3104
 3517SOL     vw14068   1.212   1.465   6.883 -0.7725 -0.1734  0.3860
 3518SOL     ow14069   0.482   4.682   1.770 -0.6059  0.1381  0.7984
 3518SOL     hw14070   0.556   4.678   1.830  0.1880 -1.5634 -0.2080
 3518SOL     hw14071   0.510   4.740   1.700 -0.0049 -0.8553  0.1912
 3518SOL     vw14072   0.495   4.689   1.769 -0.4219 -0.2172  0.5856
 3519SOL     ow14073   7.155   1.559   1.327 -0.0508 -0.2873  0.0245
 3519SOL     hw14074   7.123   1.469   1.327  0.6369 -0.5391  0.3711
 3519SOL     hw14075   7.166   1.581   1.419 -1.2615  0.5452 -0.0093
 3519SOL     vw14076   7.153   1.550   1.339 -0.1199 -0.2108  0.0657
 3520SOL     ow14077   6.768   1.104   3.125  0.4703  0.1715 -0.4054
 3520SOL     hw14078   6.736   1.193   3.139  0.0367 -0.0945  0.3442
 3520SOL     hw14079   6.695   1.058   3.085  0.7696  0.2013 -0.9992
 3520SOL     vw14080   6.754   1.110   3.122  0.4525  0.1404 -0.3848
 3521SOL     ow14081   2.486   3.691   2.866 -0.1624  0.4453 -0.1141
 3521SOL     hw14082   2.478   3.602   2.829 -0.6562  1.0989 -1.6801
 3521SOL     hw14083   2.403   3.733   2.845 -0.2905  1.0115  1.4286
 3521SOL     vw14084   2.474   3.685   2.858 -0.2443  0.6063 -0.1173
 3522SOL     ow14085   1.029   5.862   0.065  0.2325 -0.2762  0.1659
 3522SOL     hw14086   1.109   5.828   0.105  0.8119  1.6919  0.7779
 3522SOL     hw14087   1.024   5.953   0.095 -2.2620 -0.3530  0.1811
 3522SOL     vw14088   1.039   5.870   0.074 -0.0201 -0.0267  0.2486
 3523SOL     ow14089   0.920   4.947   0.189 -0.6163 -0.2869  0.6121
 3523SOL     hw14090   0.958   4.993   0.264  1.6411 -1.3102  0.1767
 3523SOL     hw14091   0.878   5.015   0.137  0.8797  0.9967  1.0217
 3523SOL     vw14092   0.919   4.962   0.192 -0.1211 -0.2525  0.6087
 3524SOL     ow14093   4.775   4.945   0.521  0.3478 -0.0536 -0.2180
 3524SOL     hw14094   4.842   4.947   0.453  1.2711  0.2637  0.6682
 3524SOL     hw14095   4.714   4.876   0.493  1.0415 -0.3519 -1.0418
 3524SOL     vw14096   4.776   4.936   0.508  0.5610 -0.0510 -0.2097
 3525SOL     ow14097   3.913   1.721   7.149  0.9509  0.3726  0.1105
 3525SOL     hw14098   3.823   1.750   7.154  1.0572  0.7738 -0.2151
 3525SOL     hw14099   3.955   1.784   7.090  0.8407 -1.2636 -1.8351
 3525SOL     vw14100   3.907   1.733   7.142  0.9503  0.2097 -0.1893
 3526SOL     ow14101   0.505   0.394   3.643  0.0340 -0.5306 -0.4842
 3526SOL     hw14102   0.593   0.381   3.678  0.6668 -0.4336 -1.9741
 3526SOL     hw14103   0.475   0.476   3.683  1.3117  0.3569 -1.2785
 3526SOL     vw14104   0.513   0.403   3.653  0.2860 -0.4007 -0.7855
 3527SOL     ow14105   4.748   0.560   4.192 -0.0462 -1.0071 -0.0838
 3527SOL     hw14106   4.764   0.604   4.108  1.7307  0.2954  0.8825
 3527SOL     hw14107   4.823   0.501   4.202  1.3199  0.9576  1.8821
 3527SOL     vw14108   4.760   0.558   4.182  0.3686 -0.5760  0.3030
 3528SOL     ow14109   3.337   3.362   4.024  0.2099  0.7771  0.6913
 3528SOL     hw14110   3.277   3.380   3.952 -0.3728  1.0005  1.2182
 3528SOL     hw14111   3.340   3.266   4.029  2.8405  0.5838 -1.7218
 3528SOL     vw14112   3.330   3.352   4.015  0.4802  0.7812  0.4423
 3529SOL     ow14113   5.489   5.542   2.720  0.4560 -0.4131 -0.4336
 3529SOL     hw14114   5.419   5.487   2.756  2.4342 -2.6105  0.2862
 3529SOL     hw14115   5.510   5.603   2.792  1.9607 -2.4455  0.9712
 3529SOL     vw14116   5.483   5.543   2.734  0.9158 -0.9711 -0.1532
 3530SOL     ow14117   2.739   3.715   1.648 -0.2398  0.2489 -0.3443
 3530SOL     hw14118   2.751   3.807   1.624 -0.4522  1.1568  2.6568
 3530SOL     hw14119   2.828   3.678   1.647 -0.0919  0.5981 -1.0453
 3530SOL     vw14120   2.752   3.722   1.645 -0.2483  0.4147 -0.0408
 3531SOL     ow14121   5.591   2.121   1.411 -0.0821  0.2749  0.2891
 3531SOL     hw14122   5.602   2.054   1.478  2.7194  1.7665  1.4925
 3531SOL     hw14123   5.639   2.088   1.335 -1.0832 -0.2598 -0.1394
 3531SOL     vw14124   5.599   2.108   1.410  0.1554  0.4011  0.3914
 3532SOL     ow14125   6.312   0.792   3.946 -0.9054  0.1422  0.1425
 3532SOL     hw14126   6.264   0.709   3.944 -0.8747  0.1288  0.0034
 3532SOL     hw14127   6.280   0.840   3.870  0.3493 -0.4370 -0.7822
 3532SOL     vw14128   6.301   0.787   3.936 -0.7358  0.0640  0.0020
 3533SOL     ow14129   1.299   3.826   2.143  0.6502 -0.4507  0.0181
 3533SOL     hw14130   1.385   3.866   2.137  1.3236 -1.5803  1.5573
 3533SOL     hw14131   1.299   3.780   2.227 -0.7731 -2.0141 -0.7745
 3533SOL     vw14132   1.310   3.825   2.153  0.5512 -0.8060  0.1166
 3534SOL     ow14133   3.005   3.262   3.568  0.5148  0.2651  0.2512
 3534SOL     hw14134   3.058   3.325   3.617 -0.5388  0.2324  1.4960
 3534SOL     hw14135   3.037   3.176   3.595 -0.8829  0.2160  1.9280
 3534SOL     vw14136   3.016   3.259   3.578  0.1913  0.2543  0.6368
 3535SOL     ow14137   3.619   6.894   5.984 -0.3380 -0.2258  0.0076
 3535SOL     hw14138   3.589   6.951   5.913  0.3492 -0.0319 -0.1389
 3535SOL     hw14139   3.666   6.953   6.043  1.1700 -0.7692 -0.6100
 3535SOL     vw14140   3.621   6.910   5.982 -0.0485 -0.2720 -0.0930
 3536SOL     ow14141   6.973   1.543   1.904 -0.6194 -0.0311  0.5059
 3536SOL     hw14142   6.971   1.639   1.904  2.1965  0.0957  0.3845
 3536SOL     hw14143   7.004   1.520   1.991 -0.0829 -0.7549  0.1315
 3536SOL     vw14144   6.977   1.553   1.915 -0.1771 -0.1097  0.4405
 3537SOL     ow14145   3.218   3.853   4.301  1.1278 -0.2306  0.3066
 3537SOL     hw14146   3.300   3.890   4.269  2.1036 -2.5454 -0.0461
 3537SOL     hw14147   3.239   3.818   4.387  0.4304 -0.5807  0.3433
 3537SOL     vw14148   3.232   3.854   4.308  1.1646 -0.5822  0.2649
 3538SOL     ow14149   5.088   4.639   3.464 -0.0839  0.8428  0.2006
 3538SOL     hw14150   5.101   4.583   3.541 -0.1514  0.3610 -0.1340
 3538SOL     hw14151   5.036   4.713   3.497 -4.0758 -1.4669 -0.1894
 3538SOL     vw14152   5.083   4.641   3.479 -0.6196  0.4747  0.1049
 3539SOL     ow14153   7.470   1.455   4.573  0.0433 -0.1748  0.0494
 3539SOL     hw14154   7.398   1.518   4.581 -1.3895 -1.4296 -2.0612
 3539SOL     hw14155   7.519   1.465   4.655 -2.3941  0.8966  1.5048
 3539SOL     vw14156   7.467   1.465   4.585 -0.4673 -0.1990 -0.0372
 3540SOL     ow14157   1.745   2.870   7.543  0.2542  0.3425 -0.1756
 3540SOL     hw14158   1.820   2.917   7.580 -0.3238  0.6265  0.6687
 3540SOL     hw14159   1.711   2.818   7.616 -0.3505  0.2062 -0.5522
 3540SOL     vw14160   1.750   2.870   7.558  0.0982  0.3620 -0.1139
 3541SOL     ow14161   5.095   2.339   3.675  0.2587  0.0951 -0.5151
 3541SOL     hw14162   5.189   2.337   3.688  0.7451  1.9331 -2.9502
 3541SOL     hw14163   5.081   2.292   3.592 -0.9428  0.0130 -0.2920
 3541SOL     vw14164   5.105   2.332   3.665  0.1645  0.3268 -0.8069
 3542SOL     ow14165   1.835   7.117   0.486 -0.4513  0.4242 -0.1985
 3542SOL     hw14166   1.879   7.040   0.523 -3.5948 -2.0191 -1.0744
 3542SOL     hw14167   1.902   7.159   0.433  1.8291 -0.7899  1.5464
 3542SOL     vw14168   1.850   7.112   0.484 -0.5652 -0.0584 -0.0839
 3543SOL     ow14169   3.417   7.135   3.785  0.1502 -0.1705  0.0252
 3543SOL     hw14170   3.503   7.169   3.809  0.6206 -1.0872 -0.2858
 3543SOL     hw14171   3.367   7.212   3.759  1.0594  0.3221 -0.3160
 3543SOL     vw14172   3.422   7.150   3.785  0.3324 -0.2267 -0.0608
 3544SOL     ow14173   6.255   2.361   5.328 -0.0552 -0.2775 -0.1660
 3544SOL     hw14174   6.335   2.348   5.277  0.2991 -0.0961  0.3306
 3544SOL     hw14175   6.281   2.343   5.418 -1.1546 -2.6004 -0.2504
 3544SOL     vw14176   6.269   2.357   5.333 -0.1535 -0.5600 -0.1116
 3545SOL     ow14177   0.890   1.727   3.125  0.0777  0.1416 -0.3029
 3545SOL     hw14178   0.953   1.793   3.154 -0.5385  0.7899 -0.4034
 3545SOL     hw14179   0.808   1.750   3.169 -0.5390  0.3748 -1.5107
 3545SOL     vw14180   0.887   1.739   3.134 -0.0850  0.2579 -0.4755
 3546SOL     ow14181   0.675   0.835   7.176  0.0040  0.4640  0.5171
 3546SOL     hw14182   0.713   0.750   7.201  0.1921  0.3356 -0.1916
 3546SOL     hw14183   0.607   0.813   7.112  1.5117  0.9773 -1.3543
 3546SOL     vw14184   0.671   0.821   7.171  0.2277  0.5148  0.1769
 3547SOL     ow14185   4.446   4.350   3.845  0.3171 -0.3415 -0.1437
 3547SOL     hw14186   4.387   4.381   3.914  0.5958  1.8520 -0.8104
 3547SOL     hw14187   4.391   4.292   3.792 -0.0845 -1.5274  1.4766
 3547SOL     vw14188   4.431   4.346   3.847  0.3009 -0.2086 -0.0180
 3548SOL     ow14189   2.154   1.303   0.389 -0.3692 -0.0420 -0.1628
 3548SOL     hw14190   2.224   1.330   0.329 -0.8800  0.1156 -0.6958
 3548SOL     hw14191   2.177   1.344   0.473 -1.1363  2.1124 -0.9391
 3548SOL     vw14192   2.166   1.312   0.392 -0.5378  0.2630 -0.3355
 3549SOL     ow14193   2.018   3.953   1.665  0.2131 -0.1272  0.1631
 3549SOL     hw14194   2.047   3.971   1.754  0.4384 -0.6785  0.2017
 3549SOL     hw14195   2.089   3.903   1.626  1.1707  2.0496 -1.0783
 3549SOL     vw14196   2.031   3.949   1.671  0.3692  0.0873  0.0044
 3550SOL     ow14197   0.060   7.545   6.531  0.4424 -0.2185  0.0217
 3550SOL     hw14198   0.001   7.582   6.465  0.8213 -0.1168 -0.2693
 3550SOL     hw14199   0.118   7.488   6.481  1.7037  1.0083  0.0146
 3550SOL     vw14200   0.060   7.543   6.515  0.6588 -0.0432 -0.0176
 3551SOL     ow14201   3.192   2.560   1.841  0.1111 -0.2087  0.2984
 3551SOL     hw14202   3.148   2.485   1.800  1.0037 -1.1643  1.0337
 3551SOL     hw14203   3.130   2.633   1.830 -1.2897 -1.3000  0.5713
 3551SOL     vw14204   3.178   2.560   1.834  0.0441 -0.4787  0.4314
 3552SOL     ow14205   3.548   4.452   6.202  0.3451 -0.4181  0.5494
 3552SOL     hw14206   3.453   4.452   6.215  0.1213  0.4769 -0.8816
 3552SOL     hw14207   3.583   4.410   6.280 -1.3369 -2.4244  0.2998
 3552SOL     vw14208   3.540   4.447   6.214  0.0937 -0.5646  0.3278
 3553SOL     ow14209   4.096   1.483   5.499 -0.0166  0.2120 -0.4634
 3553SOL     hw14210   4.066   1.560   5.548  2.3553  2.3571 -2.1204
 3553SOL     hw14211   4.043   1.484   5.419  0.4764  0.5673 -0.7929
 3553SOL     vw14212   4.085   1.494   5.495  0.3614  0.5419 -0.7255
 3554SOL     ow14213   1.211   4.432   4.100  0.0178  0.3674 -0.2518
 3554SOL     hw14214   1.211   4.527   4.088 -2.3337  0.6576  1.3492
 3554SOL     hw14215   1.173   4.397   4.020  2.5037  0.5438 -1.6091
 3554SOL     vw14216   1.206   4.440   4.088  0.0355  0.4289 -0.2196
 3555SOL     ow14217   3.136   7.004   6.371  0.0803  0.0600  0.3473
 3555SOL     hw14218   3.042   6.988   6.360  0.8529 -3.8334 -2.5360
 3555SOL     hw14219   3.161   6.952   6.447 -0.0241  0.9559  1.0075
 3555SOL     vw14220   3.127   6.995   6.379  0.1684 -0.3355  0.0541
 3556SOL     ow14221   4.291   6.708   6.465  0.5450  0.4001  0.0804
 3556SOL     hw14222   4.207   6.727   6.424 -0.6964 -1.6746  1.4705
 3556SOL     hw14223   4.313   6.788   6.512 -0.2381  1.2557 -0.9660
 3556SOL     vw14224   4.283   6.721   6.466  0.2778  0.2394  0.1259
 3557SOL     ow14225   4.759   7.027   3.698  0.1651 -0.1092 -0.0807
 3557SOL     hw14226   4.843   6.982   3.688 -0.5407 -1.3887 -0.5494
 3557SOL     hw14227   4.694   6.962   3.671 -0.8573  1.5516 -1.9114
 3557SOL     vw14228   4.761   7.012   3.693 -0.0632 -0.0591 -0.3841
 3558SOL     ow14229   7.164   0.562   2.508  0.0866  0.1907  0.4860
 3558SOL     hw14230   7.118   0.619   2.445 -0.6002 -0.8310  0.0243
 3558SOL     hw14231   7.172   0.478   2.462  1.1364 -0.0732  1.1248
 3558SOL     vw14232   7.159   0.558   2.493  0.1345  0.0210  0.5094
 3559SOL     ow14233   3.933   6.843   7.020 -0.2836  0.9698  0.6959
 3559SOL     hw14234   3.840   6.864   7.024 -0.2706  0.9496  1.1682
 3559SOL     hw14235   3.977   6.927   7.038 -0.2195  0.8292  1.2127
 3559SOL     vw14236   3.927   6.857   7.023 -0.2735  0.9487  0.8264
 3560SOL     ow14237   6.922   2.744   3.042  0.1081  0.1251  0.1090
 3560SOL     hw14238   6.958   2.750   2.953  2.2661 -1.6899  0.7624
 3560SOL     hw14239   6.835   2.784   3.035  0.8014  1.4541 -2.4395
 3560SOL     vw14240   6.915   2.750   3.029  0.4842  0.0609 -0.1411
 3561SOL     ow14241   5.620   4.172   1.743 -0.0637 -0.6966  0.2820
 3561SOL     hw14242   5.637   4.220   1.824  0.1319  0.7788 -0.5828
 3561SOL     hw14243   5.551   4.109   1.765 -0.9002  0.5308  1.2969
 3561SOL     vw14244   5.613   4.170   1.757 -0.1481 -0.3400  0.3018
 3562SOL     ow14245   0.329   5.315   2.459  0.2675 -0.3524 -0.2730
 3562SOL     hw14246   0.307   5.408   2.466  0.7830 -0.3472  1.8820
 3562SOL     hw14247   0.306   5.292   2.369 -1.6481  1.3952 -0.3042
 3562SOL     vw14248   0.323   5.324   2.448  0.0828 -0.1211  0.0073
 3563SOL     ow14249   4.165   3.695   6.389 -0.7593 -0.2905 -0.2393
 3563SOL     hw14250   4.215   3.713   6.310 -1.7619  0.7819 -0.6622
 3563SOL     hw14251   4.155   3.780   6.431 -2.0227 -0.5034 -0.0617
 3563SOL     vw14252   4.170   3.709   6.384 -1.0583 -0.1770 -0.2718
 3564SOL     ow14253   2.179   1.407   0.654 -0.3096  0.3302  0.1217
 3564SOL     hw14254   2.208   1.484   0.604 -0.7351 -0.3023 -1.1531
 3564SOL     hw14255   2.220   1.417   0.740 -1.7995  2.8877  0.6160
 3564SOL     vw14256   2.188   1.418   0.658 -0.5622  0.5842  0.0188
 3565SOL     ow14257   2.874   2.123   5.988  0.0220  0.8619  0.6671
 3565SOL     hw14258   2.878   2.065   6.065  1.8195  1.1666  0.8459
 3565SOL     hw14259   2.796   2.176   6.003 -2.4190 -2.2411 -0.0965
 3565SOL     vw14260   2.864   2.122   6.000 -0.0628  0.4927  0.5901
 3566SOL     ow14261   2.741   6.455   3.428  0.1471 -0.3469  0.2819
 3566SOL     hw14262   2.660   6.451   3.478  0.9739 -1.5884  1.6299
 3566SOL     hw14263   2.758   6.364   3.402  1.2978 -0.1863  0.3929
 3566SOL     vw14264   2.733   6.442   3.431  0.4078 -0.4895  0.4745
 3567SOL     ow14265   5.555   3.835   1.239  0.2669 -0.0446  0.5358
 3567SOL     hw14266   5.611   3.912   1.246  1.6853 -0.9164 -0.5607
 3567SOL     hw14267   5.554   3.814   1.145  0.9700 -2.0767  0.9166
 3567SOL     vw14268   5.562   3.842   1.227  0.5469 -0.4277  0.4413
 3568SOL     ow14269   2.380   3.948   7.512 -0.7035  0.4997  0.2033
 3568SOL     hw14270   2.343   3.862   7.490  0.7042 -0.1648  0.3188
 3568SOL     hw14271   2.365   3.957   7.606 -0.3527  0.1270  0.2955
 3568SOL     vw14272   2.373   3.938   7.521 -0.4716  0.3629  0.2308
 3569SOL     ow14273   1.828   0.884   4.371 -0.1094  0.0016  0.3821
 3569SOL     hw14274   1.917   0.851   4.357 -0.7512 -1.2115 -1.1682
 3569SOL     hw14275   1.825   0.966   4.322  0.1696  0.1074  0.5346
 3569SOL     vw14276   1.840   0.891   4.363 -0.1572 -0.1445  0.1974
 3570SOL     ow14277   2.707   6.811   6.899 -0.4845 -0.0005 -0.7715
 3570SOL     hw14278   2.772   6.870   6.937  0.2362 -1.2258  0.0034
 3570SOL     hw14279   2.661   6.774   6.975  1.3412 -2.8984 -0.9300
 3570SOL     vw14280   2.710   6.814   6.914 -0.1485 -0.5445 -0.6905
 3571SOL     ow14281   0.628   4.344   1.713  0.5150 -0.3325 -0.3523
 3571SOL     hw14282   0.539   4.372   1.695  0.2986 -0.0531  1.0019
 3571SOL     hw14283   0.661   4.408   1.776  0.2843 -2.5808  2.2433
 3571SOL     vw14284   0.621   4.356   1.719  0.4560 -0.5920  0.1689
 3572SOL     ow14285   6.802   5.335   7.037 -0.4548  0.2765  0.2100
 3572SOL     hw14286   6.792   5.348   6.942  0.5011  0.3519  0.1125
 3572SOL     hw14287   6.884   5.287   7.046 -0.3316  0.6348  1.0320
 3572SOL     vw14288   6.811   5.330   7.025 -0.3123  0.3338  0.3057
 3573SOL     ow14289   6.800   6.016   3.016  0.7251 -0.1904  0.3724
 3573SOL     hw14290   6.732   5.953   3.039  1.9312 -1.9140 -0.4918
 3573SOL     hw14291   6.763   6.067   2.944  0.3690 -1.1505 -0.1366
 3573SOL     vw14292   6.786   6.014   3.009  0.8371 -0.5443  0.1912
 3574SOL     ow14293   5.044   3.373   2.220 -0.0832  0.0067  0.4558
 3574SOL     hw14294   4.955   3.385   2.188  0.5770  1.2632 -1.0400
 3574SOL     hw14295   5.094   3.444   2.180  1.9105 -1.5521  0.0169
 3574SOL     vw14296   5.039   3.384   2.211  0.2668 -0.0331  0.2005
 3575SOL     ow14297   3.193   2.945   7.472  0.5233  0.0154  0.0105
 3575SOL     hw14298   3.178   2.950   7.566  0.8602  0.7047  0.0323
 3575SOL     hw14299   3.237   2.862   7.459 -0.5873 -0.6365  0.3149
 3575SOL     vw14300   3.197   2.935   7.482  0.4212  0.0203  0.0534
 3576SOL     ow14301   0.743   0.006   3.377 -0.1810 -0.3087  0.0521
 3576SOL     hw14302   0.742  -0.084   3.410  1.5804  0.3143  1.9542
 3576SOL     hw14303   0.716  -0.003   3.285 -0.6675 -2.6807  0.3503
 3576SOL     vw14304   0.739  -0.007   3.369 -0.0128 -0.5395  0.3424
 3577SOL     ow14305   3.495   4.992   2.008  0.2230  0.3345  0.3547
 3577SOL     hw14306   3.465   5.082   1.992 -0.3614 -0.1166 -1.2322
 3577SOL     hw14307   3.523   4.961   1.922 -0.9349 -1.4930  0.5967
 3577SOL     vw14308   3.495   5.000   1.995 -0.0069  0.0336  0.1773
 3578SOL     ow14309   2.467   4.653   7.517 -0.2120  0.0247 -0.1983
 3578SOL     hw14310   2.482   4.748   7.522  2.1075 -0.3327  2.4361
 3578SOL     hw14311   2.410   4.634   7.591  0.2706 -0.7492 -0.0187
 3578SOL     vw14312   2.462   4.663   7.527  0.1577 -0.1249  0.1730
 3579SOL     ow14313   0.562   0.080   3.603  0.0085  0.2965 -0.3812
 3579SOL     hw14314   0.596   0.078   3.693  1.4903 -1.4735 -0.9044
 3579SOL     hw14315   0.477   0.036   3.609 -0.7043  1.7209  0.4032
 3579SOL     vw14316   0.555   0.074   3.616  0.1100  0.2509 -0.3468
 3580SOL     ow14317   0.050   1.327   2.330  0.2949  0.5003 -0.3801
 3580SOL     hw14318   0.090   1.352   2.247 -0.0549 -1.2481 -1.1203
 3580SOL     hw14319  -0.010   1.256   2.307  0.8955 -0.6837  1.4956
 3580SOL     vw14320   0.047   1.320   2.316  0.3280  0.1135 -0.2303
 3581SOL     ow14321   6.789   4.200   7.383 -0.0757  0.2165 -0.4651
 3581SOL     hw14322   6.724   4.268   7.399  1.7977  1.9946  0.0315
 3581SOL     hw14323   6.860   4.219   7.446  0.5664 -2.1481 -0.3802
 3581SOL     vw14324   6.790   4.212   7.394  0.2565  0.1390 -0.3881
 3582SOL     ow14325   4.186   3.911   6.569 -0.0282 -0.0549  0.4121
 3582SOL     hw14326   4.257   3.961   6.529  1.6492 -0.1314  3.0510
 3582SOL     hw14327   4.151   3.968   6.637 -2.4614 -0.1129 -0.6795
 3582SOL     vw14328   4.191   3.925   6.573 -0.1276 -0.0727  0.6163
 3583SOL     ow14329   1.724   1.441   1.910 -0.7079  0.0678 -0.0277
 3583SOL     hw14330   1.717   1.529   1.946  0.5988  0.2388 -0.1476
 3583SOL     hw14331   1.812   1.413   1.931 -1.2203 -1.3719  0.3252
 3583SOL     vw14332   1.734   1.449   1.917 -0.6031 -0.0995  0.0031
 3584SOL     ow14333   0.099   0.538   2.409 -0.3724 -0.3796  0.1341
 3584SOL     hw14334   0.133   0.449   2.415  0.1332 -0.2161 -0.2408
 3584SOL     hw14335   0.177   0.594   2.410 -0.6103 -0.0097 -1.0261
 3584SOL     vw14336   0.114   0.534   2.410 -0.3371 -0.3092 -0.0685
 3585SOL     ow14337   2.502   2.264   2.162 -0.3966 -0.1334 -0.6006
 3585SOL     hw14338   2.440   2.289   2.230  0.3965  0.0026  0.0779
 3585SOL     hw14339   2.453   2.201   2.108 -1.3943  0.5789 -0.5670
 3585SOL     vw14340   2.487   2.259   2.164 -0.4236 -0.0215 -0.5066
 3586SOL     ow14341   0.015   1.451   6.419 -0.5885  0.7564  0.1645
 3586SOL     hw14342  -0.062   1.409   6.380 -0.5471 -0.4264  1.3036
 3586SOL     hw14343   0.007   1.433   6.512  0.7985  1.1057  0.3659
 3586SOL     vw14344   0.004   1.443   6.426 -0.4000  0.6465  0.3417
 3587SOL     ow14345   6.252   1.633   0.964 -0.0377 -0.4150  0.3179
 3587SOL     hw14346   6.326   1.671   0.917 -0.0668 -1.0452 -0.2573
 3587SOL     hw14347   6.291   1.567   1.022 -0.0371  0.1020  0.9125
 3587SOL     vw14348   6.267   1.629   0.965 -0.0410 -0.4300  0.3205
 3588SOL     ow14349   0.499   6.673   2.612 -0.2186 -0.3998 -0.1924
 3588SOL     hw14350   0.426   6.669   2.550 -0.4938  0.9243  0.0190
 3588SOL     hw14351   0.460   6.708   2.692 -0.0357 -2.7919  1.0355
 3588SOL     vw14352   0.484   6.677   2.614 -0.2308 -0.5405 -0.0026
 3589SOL     ow14353   4.487   2.402   4.009 -0.0146 -0.2206  0.6872
 3589SOL     hw14354   4.396   2.374   4.021  0.5288 -1.3892  2.3506
 3589SOL     hw14355   4.513   2.438   4.093  1.1268 -0.1030  0.2995
 3589SOL     vw14356   4.478   2.403   4.021  0.2077 -0.3593  0.8557
 3590SOL     ow14357   4.219   3.642   6.749 -0.0611  0.3017 -0.2764
 3590SOL     hw14358   4.169   3.641   6.667  0.1882  0.9534 -0.4463
 3590SOL     hw14359   4.263   3.728   6.749  2.6008 -0.9485 -1.0619
 3590SOL     vw14360   4.218   3.653   6.738  0.3231  0.2227 -0.4025
 3591SOL     ow14361   0.399   2.092   7.205  0.3248  0.5183 -0.0359
 3591SOL     hw14362   0.482   2.139   7.205  1.6118 -1.6350 -0.7010
 3591SOL     hw14363   0.376   2.084   7.113 -0.2884  0.5021  0.1133
 3591SOL     vw14364   0.407   2.097   7.193  0.4137  0.2320 -0.1040
 3592SOL     ow14365   5.768   5.996   6.653 -0.0172 -0.3129 -0.3292
 3592SOL     hw14366   5.763   5.933   6.580  2.3217  0.0889 -0.9375
 3592SOL     hw14367   5.835   5.959   6.711  1.0821  1.3201 -0.4743
 3592SOL     vw14368   5.776   5.983   6.651  0.4363 -0.0446 -0.4287
 3593SOL     ow14369   4.717   5.282   6.594 -0.0924 -0.5475 -0.7943
 3593SOL     hw14370   4.698   5.248   6.507 -0.7293 -1.1241 -0.4409
 3593SOL     hw14371   4.715   5.205   6.651  3.1792 -0.6829 -0.6676
 3593SOL     vw14372   4.714   5.267   6.590  0.2551 -0.6413 -0.7310
 3594SOL     ow14373   3.521   6.662   6.860 -0.0917 -0.6348 -0.0062
 3594SOL     hw14374   3.473   6.745   6.855  0.4930 -0.2299  0.7557
 3594SOL     hw14375   3.554   6.648   6.771 -0.4327 -0.1954 -0.2085
 3594SOL     vw14376   3.519   6.671   6.848 -0.0596 -0.5233  0.0677
 3595SOL     ow14377   3.404   5.085   1.610  0.4873 -0.2470  0.4718
 3595SOL     hw14378   3.418   5.179   1.597 -1.1367 -0.3750 -3.9781
 3595SOL     hw14379   3.310   5.077   1.630  0.6655 -0.9417  1.0915
 3595SOL     vw14380   3.393   5.096   1.611  0.2966 -0.3557 -0.0336
 3596SOL     ow14381   1.712   2.097   4.452 -0.5824 -0.3831  0.0592
 3596SOL     hw14382   1.778   2.083   4.520  0.2869 -0.7883 -0.8218
 3596SOL     hw14383   1.628   2.093   4.497 -0.0257 -0.5261  1.1109
 3596SOL     vw14384   1.710   2.094   4.467 -0.3942 -0.4553  0.0815
 3597SOL     ow14385   0.814   1.187   6.572 -0.1308  0.4305  0.3968
 3597SOL     hw14386   0.818   1.227   6.659  1.5695 -0.9320  0.9983
 3597SOL     hw14387   0.880   1.118   6.574 -1.1308 -0.6682 -1.4726
 3597SOL     vw14388   0.823   1.183   6.584 -0.0384  0.1058  0.2296
 3598SOL     ow14389   2.041   3.994   3.916 -0.2831  0.1307 -0.4330
 3598SOL     hw14390   2.117   3.998   3.973  0.1957 -2.0794 -0.8040
 3598SOL     hw14391   2.041   3.904   3.881 -1.0831  1.0717 -3.1777
 3598SOL     vw14392   2.051   3.982   3.919 -0.3254 -0.0367 -0.8439
 3599SOL     ow14393   3.370   6.188   0.242 -0.8215  0.4500 -0.0911
 3599SOL     hw14394   3.439   6.205   0.306 -0.6580  0.0508 -0.1597
 3599SOL     hw14395   3.415   6.149   0.168 -1.4999 -2.8713  1.0965
 3599SOL     vw14396   3.385   6.185   0.241 -0.8895 -0.0410  0.0565
 3600SOL     ow14397   6.746   7.415   2.570 -0.1881 -0.0462  0.2521
 3600SOL     hw14398   6.707   7.338   2.530  1.1189  0.3068 -1.8640
 3600SOL     hw14399   6.739   7.400   2.665 -1.6303 -1.8522 -0.0913
 3600SOL     vw14400   6.739   7.403   2.578 -0.2060 -0.2377 -0.0725
 3601SOL     ow14401   6.063   0.158   4.382  0.3853  0.0856 -0.7537
 3601SOL     hw14402   6.031   0.235   4.430 -1.5103 -1.6874  1.0320
 3601SOL     hw14403   6.084   0.094   4.450  2.6879 -0.7847 -2.1452
 3601SOL     vw14404   6.062   0.160   4.397  0.4389 -0.2631 -0.7017
 3602SOL     ow14405   3.016   1.114   4.324  0.0861  0.2166  0.3012
 3602SOL     hw14406   3.003   1.209   4.313  2.4116  0.8924  2.5171
 3602SOL     hw14407   2.971   1.093   4.406  0.0773 -0.4869  0.1219
 3602SOL     vw14408   3.008   1.124   4.334  0.3918  0.2130  0.5701
 3603SOL     ow14409   6.811   6.652   6.601 -0.7119 -0.2620 -0.3290
 3603SOL     hw14410   6.732   6.625   6.555 -0.4215 -0.5069 -0.6941
 3603SOL     hw14411   6.878   6.591   6.571 -0.1454  0.5669 -0.8107
 3603SOL     vw14412   6.810   6.641   6.591 -0.5989 -0.1848 -0.4408
 3604SOL     ow14413   5.855   2.176   0.772  0.5634  0.1746 -0.0430
 3604SOL     hw14414   5.880   2.087   0.797  2.2182  0.5652 -0.1751
 3604SOL     hw14415   5.811   2.212   0.849  1.2752 -0.2437  0.5615
 3604SOL     vw14416   5.852   2.169   0.785  0.8757  0.1708  0.0193
 3605SOL     ow14417   6.650   4.798   4.006  0.7873  0.1621  0.8074
 3605SOL     hw14418   6.733   4.750   4.013  1.8961  2.1158  2.4460
 3605SOL     hw14419   6.645   4.823   3.914  0.9144 -1.7596  0.2358
 3605SOL     vw14420   6.660   4.795   3.995  0.9506  0.1662  0.9481
 3606SOL     ow14421   3.510   7.250   3.081 -0.9984 -0.0274 -0.0506
 3606SOL     hw14422   3.532   7.313   3.149 -1.4249  1.3039 -1.0851
 3606SOL     hw14423   3.595   7.221   3.047 -0.7939 -0.0539  0.4780
 3606SOL     vw14424   3.524   7.255   3.085 -1.0277  0.1445 -0.1173
 3607SOL     ow14425   5.499   4.159   1.434 -0.4147  0.2802  0.1458
 3607SOL     hw14426   5.477   4.242   1.475  1.6314  0.4343  1.0648
 3607SOL     hw14427   5.493   4.095   1.505 -2.2692 -0.4582 -0.6182
 3607SOL     vw14428   5.495   4.161   1.449 -0.3893  0.2029  0.1662
 3608SOL     ow14429   4.313   5.178   7.502 -0.4487  0.2144 -0.3278
 3608SOL     hw14430   4.381   5.241   7.528  1.5234 -1.1981 -1.8152
 3608SOL     hw14431   4.309   5.185   7.407 -2.5626  0.3637 -0.2721
 3608SOL     vw14432   4.322   5.187   7.493 -0.4675  0.0477 -0.5167
 3609SOL     ow14433   6.590   1.972   1.285 -0.4465  0.0654  0.5782
 3609SOL     hw14434   6.609   1.887   1.325 -0.5043  0.1414  0.7692
 3609SOL     hw14435   6.676   2.013   1.273 -0.5154  1.0249  2.7909
 3609SOL     vw14436   6.604   1.966   1.289 -0.4632  0.2020  0.8954
 3610SOL     ow14437   1.463   1.448   3.762 -0.0625 -0.4358 -0.0989
 3610SOL     hw14438   1.387   1.445   3.821  0.2978  1.4614  0.5182
 3610SOL     hw14439   1.466   1.538   3.731  0.2842 -1.1724 -2.3994
 3610SOL     vw14440   1.453   1.459   3.766  0.0307 -0.2828 -0.3210
 3611SOL     ow14441   7.106   4.952   5.879  0.9234  0.2196 -0.1052
 3611SOL     hw14442   7.083   4.922   5.791 -0.0588  3.0074 -0.9054
 3611SOL     hw14443   7.059   4.893   5.938  0.9880 -1.2249 -1.4382
 3611SOL     vw14444   7.096   4.940   5.875  0.8023  0.3970 -0.3867
 3612SOL     ow14445   6.116   2.591   5.056 -0.0845 -0.0270 -0.6635
 3612SOL     hw14446   6.200   2.629   5.029  0.3723  0.1948  0.9351
 3612SOL     hw14447   6.051   2.655   5.029  0.3943  0.4538 -0.6990
 3612SOL     vw14448   6.119   2.605   5.049  0.0389  0.0658 -0.4575
 3613SOL     ow14449   5.134   1.605   5.808 -0.0817  0.7083 -0.0623
 3613SOL     hw14450   5.158   1.646   5.891  2.1403  1.1949 -0.8672
 3613SOL     hw14451   5.080   1.670   5.764 -0.7675  0.6898  0.7246
 3613SOL     vw14452   5.130   1.619   5.813  0.1209  0.7700 -0.0651
 3614SOL     ow14453   2.788   2.502   5.063  0.0507  0.2046  0.5767
 3614SOL     hw14454   2.752   2.577   5.016  1.7015  1.4499  1.2017
 3614SOL     hw14455   2.883   2.511   5.054  0.3040 -1.5472  1.0921
 3614SOL     vw14456   2.796   2.513   5.056  0.3018  0.1379  0.7272
 3615SOL     ow14457   1.003   1.697   0.843 -0.3864 -0.3810  0.0354
 3615SOL     hw14458   1.042   1.768   0.895 -0.9598 -0.0847  0.0655
 3615SOL     hw14459   1.073   1.671   0.783  0.3009 -0.7641  0.9809
 3615SOL     vw14460   1.018   1.703   0.842 -0.3715 -0.3925  0.1641
 3616SOL     ow14461   4.278   6.659   6.755  0.0463  0.1572 -0.2635
 3616SOL     hw14462   4.281   6.631   6.663 -1.4045 -2.0165  0.2589
 3616SOL     hw14463   4.253   6.751   6.751  0.4279  0.2188 -2.0598
 3616SOL     vw14464   4.275   6.667   6.742 -0.0949 -0.1214 -0.4315
 3617SOL     ow14465   6.085   5.654   4.380 -0.5518 -0.9786 -0.0211
 3617SOL     hw14466   6.135   5.725   4.339 -1.5627  0.4118  1.0319
 3617SOL     hw14467   5.998   5.660   4.340 -1.3732  0.0114  1.7653
 3617SOL     vw14468   6.080   5.664   4.370 -0.7939 -0.6645  0.3533
 3618SOL     ow14469   5.995   5.441   0.221  0.1257  0.4725  0.0947
 3618SOL     hw14470   5.912   5.488   0.218  0.6440  1.4432  0.4513
 3618SOL     hw14471   6.036   5.460   0.137 -0.6068 -1.2019 -0.7064
 3618SOL     vw14472   5.989   5.449   0.209  0.0975  0.3798  0.0361
 3619SOL     ow14473   7.219   7.054   6.918  1.0296  0.1398  0.0538
 3619SOL     hw14474   7.250   7.143   6.933 -0.6402  0.8245 -0.3856
 3619SOL     hw14475   7.243   7.036   6.827  0.9317  0.3322 -0.0113
 3619SOL     vw14476   7.226   7.063   6.908  0.7966  0.2558 -0.0126
 3620SOL     ow14477   6.676   2.163   1.088 -0.1925 -0.4303 -0.0121
 3620SOL     hw14478   6.643   2.088   1.039 -0.5262 -1.0455  1.1355
 3620SOL     hw14479   6.746   2.198   1.033 -0.6050 -1.0487 -0.9607
 3620SOL     vw14480   6.681   2.158   1.074 -0.2911 -0.5931  0.0141
 3621SOL     ow14481   7.414   5.665   7.490  0.0489 -0.5762  0.6878
 3621SOL     hw14482   7.483   5.615   7.446 -1.3686  0.1810 -2.7375
 3621SOL     hw14483   7.456   5.748   7.514  0.7002 -0.6865 -0.0330
 3621SOL     vw14484   7.429   5.670   7.487 -0.0522 -0.4909  0.1407
 3622SOL     ow14485   3.032   0.854   5.125  0.0287  0.3231  0.0826
 3622SOL     hw14486   2.970   0.789   5.091  1.3058 -1.2030  0.5561
 3622SOL     hw14487   3.085   0.806   5.188  1.1907  1.7825  0.2757
 3622SOL     vw14488   3.031   0.839   5.129  0.3506  0.3143  0.1705
 3623SOL     ow14489   1.675   7.531   3.006 -0.8308  0.0789 -0.8287
 3623SOL     hw14490   1.589   7.557   3.040 -0.3332  0.1081  0.4848
 3623SOL     hw14491   1.718   7.488   3.080  0.7139  1.0501 -1.1072
 3623SOL     vw14492   1.669   7.529   3.020 -0.5614  0.2105 -0.6922
 3624SOL     ow14493   6.055   5.020   2.351 -0.3626 -0.2196  0.1542
 3624SOL     hw14494   6.116   4.991   2.419  0.0539 -1.5499 -0.7434
 3624SOL     hw14495   5.969   4.989   2.380 -0.6768  1.6140  1.3966
 3624SOL     vw14496   6.052   5.012   2.364 -0.3490 -0.1533  0.1997
 3625SOL     ow14497   4.769   5.532   3.241  0.3469  0.9144  0.1677
 3625SOL     hw14498   4.838   5.483   3.196 -0.9452  0.1357 -1.0215
 3625SOL     hw14499   4.708   5.465   3.271 -0.7349  1.6851 -0.2429
 3625SOL     vw14500   4.770   5.517   3.239  0.0336  0.9134 -0.0434
 3626SOL     ow14501   3.921   2.828   7.528  0.3823 -0.2576 -0.3004
 3626SOL     hw14502   3.952   2.809   7.617  0.9644  1.5298 -0.0919
 3626SOL     hw14503   3.936   2.746   7.480 -2.3311 -2.2042  1.8116
 3626SOL     vw14504   3.927   2.814   7.534  0.1010 -0.2787  0.0060
 3627SOL     ow14505   7.248   0.831   7.183  0.6074  0.0253 -0.2766
 3627SOL     hw14506   7.196   0.851   7.105  0.3070 -1.2467 -0.4241
 3627SOL     hw14507   7.338   0.827   7.151  0.7266  1.4265 -0.1737
 3627SOL     vw14508   7.253   0.833   7.168  0.5834  0.0423 -0.2825
 3628SOL     ow14509   0.904   3.296   1.645 -0.0090  0.3595 -0.2330
 3628SOL     hw14510   0.928   3.233   1.577  0.8436  1.4907 -1.0200
 3628SOL     hw14511   0.880   3.242   1.721 -0.0582 -0.9103 -1.1147
 3628SOL     vw14512   0.904   3.280   1.646  0.0970  0.3413 -0.4532
 3629SOL     ow14513   0.097   3.987   3.833  0.1299  0.4514 -0.0872
 3629SOL     hw14514   0.129   3.898   3.848  1.0510  0.9678  1.2150
 3629SOL     hw14515   0.164   4.027   3.778  0.1399  0.5772  0.0159
 3629SOL     vw14516   0.110   3.980   3.828  0.2527  0.5362  0.0982
 3630SOL     ow14517   3.459   5.367   1.010 -0.1295 -0.3375  0.4564
 3630SOL     hw14518   3.498   5.343   1.094  1.5597 -0.2550 -0.2671
 3630SOL     hw14519   3.478   5.460   0.999 -2.9139  0.4283  1.2710
 3630SOL     vw14520   3.467   5.376   1.019 -0.2741 -0.2255  0.4685
 3631SOL     ow14521   5.573   7.484   3.349 -0.2247 -0.1656 -0.0006
 3631SOL     hw14522   5.580   7.579   3.361  0.9700 -0.2437  0.0946
 3631SOL     hw14523   5.650   7.449   3.394  0.3663 -1.0256 -1.5985
 3631SOL     vw14524   5.584   7.492   3.356  0.0107 -0.2892 -0.1988
 3632SOL     ow14525   0.173   0.102   7.056 -0.0620 -0.8310  0.5010
 3632SOL     hw14526   0.251   0.076   7.104  0.4073 -2.0369 -0.8414
 3632SOL     hw14527   0.169   0.197   7.065  1.0520 -0.8466  1.3277
 3632SOL     vw14528   0.182   0.111   7.064  0.1469 -0.9922  0.4327
 3633SOL     ow14529   2.217   1.740   0.056  0.1281  0.4585 -0.5380
 3633SOL     hw14530   2.210   1.829   0.089 -0.8623  0.6898 -1.3476
 3633SOL     hw14531   2.290   1.702   0.107  0.6979  1.7689 -0.3284
 3633SOL     vw14532   2.226   1.747   0.067  0.0727  0.6620 -0.6172
 3634SOL     ow14533   6.340   1.535   2.209 -0.3091 -0.3750 -0.0817
 3634SOL     hw14534   6.276   1.570   2.147  1.2209 -0.7236 -1.9697
 3634SOL     hw14535   6.382   1.612   2.246 -0.5997 -0.1748 -0.1614
 3634SOL     vw14536   6.337   1.550   2.205 -0.1457 -0.3946 -0.3413
 3635SOL     ow14537   2.133   1.623   7.392 -0.3821  0.1295 -0.4722
 3635SOL     hw14538   2.166   1.672   7.468 -3.2425  1.6251 -0.0723
 3635SOL     hw14539   2.100   1.541   7.428  0.7266 -0.3709 -0.5505
 3635SOL     vw14540   2.133   1.619   7.407 -0.6131  0.2609 -0.4301
 3636SOL     ow14541   6.976   0.097   3.100 -0.4853  0.3531 -0.0010
 3636SOL     hw14542   7.019   0.041   3.036 -0.0862  1.9560 -1.2159
 3636SOL     hw14543   6.992   0.054   3.185  2.4477  0.1979 -0.5197
 3636SOL     vw14544   6.984   0.084   3.103 -0.0455  0.5441 -0.2298
 3637SOL     ow14545   3.387   6.967   6.560  0.2219  0.2005 -0.7577
 3637SOL     hw14546   3.300   6.927   6.564  0.0085  0.6806 -0.4315
 3637SOL     hw14547   3.373   7.049   6.512  0.8850 -0.6955 -2.5505
 3637SOL     vw14548   3.373   6.973   6.554  0.2812  0.1454 -0.9513
 3638SOL     ow14549   0.388   4.698   5.062  0.2809  0.6025 -0.0211
 3638SOL     hw14550   0.358   4.742   5.141  3.5077  1.5656  0.8184
 3638SOL     hw14551   0.416   4.769   5.004  0.3510 -0.1871 -0.9852
 3638SOL     vw14552   0.388   4.713   5.065  0.7159  0.6256 -0.0374
 3639SOL     ow14553   0.668   2.392   4.977  0.5474  0.3418 -0.1809
 3639SOL     hw14554   0.581   2.423   5.001  0.8669  1.6121 -0.5750
 3639SOL     hw14555   0.653   2.306   4.937 -0.5755  0.7367 -0.6353
 3639SOL     vw14556   0.655   2.385   4.975  0.4414  0.5615 -0.2925
 3640SOL     ow14557   1.977   3.952   1.344 -1.0973  0.0679  0.0639
 3640SOL     hw14558   1.990   4.034   1.295  0.6398 -0.7897 -1.0321
 3640SOL     hw14559   1.982   3.884   1.277 -1.9704 -0.9828  1.0381
 3640SOL     vw14560   1.980   3.954   1.329 -0.9833 -0.1838  0.0478
 3641SOL     ow14561   1.764   1.171   0.271 -0.1552 -0.2606 -0.1886
 3641SOL     hw14562   1.681   1.128   0.291  0.2026 -0.2108  1.5827
 3641SOL     hw14563   1.752   1.261   0.301 -0.6353  0.7717 -3.1629
 3641SOL     vw14564   1.751   1.177   0.278 -0.1714 -0.1178 -0.3473
 3642SOL     ow14565   1.405   1.054   5.594 -0.0813 -0.4665 -0.3142
 3642SOL     hw14566   1.481   0.996   5.585 -1.4048 -2.3968  0.1732
 3642SOL     hw14567   1.387   1.084   5.505  0.0686 -1.6252 -0.7567
 3642SOL     vw14568   1.412   1.050   5.581 -0.2361 -0.8740 -0.3083
 3643SOL     ow14569   1.850   3.103   0.789 -0.2291 -0.2109  0.1662
 3643SOL     hw14570   1.822   3.062   0.708 -0.1250  1.8402 -0.9552
 3643SOL     hw14571   1.789   3.176   0.803 -0.1970 -0.4546  1.8936
 3643SOL     vw14572   1.838   3.107   0.780 -0.2112  0.0275  0.2462
 3644SOL     ow14573   2.724   4.171   7.373  0.5031  0.0462 -0.0225
 3644SOL     hw14574   2.734   4.104   7.440  1.9242 -1.4487 -1.6324
 3644SOL     hw14575   2.636   4.157   7.338  0.0399  0.3527  0.9787
 3644SOL     vw14576   2.713   4.160   7.377  0.6294 -0.1111 -0.1028
 3645SOL     ow14577   0.728   0.990   5.318 -0.1679  0.5379 -0.8315
 3645SOL     hw14578   0.722   0.951   5.405 -2.1551  0.1318 -1.0961
 3645SOL     hw14579   0.807   0.952   5.279  0.8609  0.8763  0.8297
 3645SOL     vw14580   0.738   0.980   5.324 -0.2944  0.5290 -0.6473
 3646SOL     ow14581   3.453   3.644   4.039  0.0924 -0.4645 -0.9344
 3646SOL     hw14582   3.423   3.665   3.950  1.2052  0.8493 -1.0182
 3646SOL     hw14583   3.540   3.607   4.027  1.2095  1.7729 -0.3018
 3646SOL     vw14584   3.460   3.642   4.026  0.3865  0.0042 -0.8619
 3647SOL     ow14585   3.740   1.190   0.036 -0.4825  0.1454  0.3358
 3647SOL     hw14586   3.676   1.139   0.085 -0.7118 -1.6498 -1.6720
 3647SOL     hw14587   3.797   1.125  -0.004  2.4545  1.6689  1.7293
 3647SOL     vw14588   3.739   1.175   0.037 -0.1253  0.1095  0.2549
 3648SOL     ow14589   6.459   4.802   0.592  0.2013 -0.1591  0.3727
 3648SOL     hw14590   6.527   4.749   0.551  1.1053  1.1951  0.0556
 3648SOL     hw14591   6.461   4.885   0.544 -1.8432 -0.1535  0.2099
 3648SOL     vw14592   6.468   4.806   0.580  0.0510  0.0205  0.3094
 3649SOL     ow14593   6.531   5.801   2.492 -0.5037 -0.2992 -0.1120
 3649SOL     hw14594   6.499   5.813   2.403  0.5463 -0.6041 -0.5489
 3649SOL     hw14595   6.588   5.876   2.508 -1.6812  0.4329  0.7859
 3649SOL     vw14596   6.534   5.812   2.483 -0.5205 -0.2427 -0.0513
 3650SOL     ow14597   7.014   5.744   7.429  0.4162  0.4558 -0.1512
 3650SOL     hw14598   7.043   5.736   7.339 -0.7672 -1.3464 -0.4274
 3650SOL     hw14599   7.079   5.695   7.480  0.4755  0.5284 -0.1567
 3650SOL     vw14600   7.026   5.736   7.424  0.2680  0.2277 -0.1884
 3651SOL     ow14601   1.822   2.647   1.299  0.4164 -0.0133 -0.1017
 3651SOL     hw14602   1.871   2.624   1.220 -0.4246  0.5484 -0.8038
 3651SOL     hw14603   1.880   2.708   1.346  0.5500  0.3703 -0.7494
 3651SOL     vw14604   1.836   2.652   1.295  0.3230  0.1116 -0.2797
 3652SOL     ow14605   2.398   1.553   7.297  0.0451  0.1836 -0.1675
 3652SOL     hw14606   2.306   1.579   7.305  0.1719  0.2741  1.4641
 3652SOL     hw14607   2.431   1.556   7.387  0.9551 -2.4093 -0.3326
 3652SOL     vw14608   2.390   1.557   7.310  0.1818 -0.1466  0.0262
 3653SOL     ow14609   6.501   0.883   2.008 -0.8902  0.1684  0.3038
 3653SOL     hw14610   6.509   0.887   2.103  1.0303  0.4626  0.1587
 3653SOL     hw14611   6.407   0.871   1.993 -1.4960  1.9378  2.1803
 3653SOL     vw14612   6.490   0.882   2.018 -0.7167  0.4407  0.5324
 3654SOL     ow14613   2.211   3.784   1.893 -0.0512  0.0756 -0.1716
 3654SOL     hw14614   2.251   3.798   1.978 -1.8162  0.8830  0.5857
 3654SOL     hw14615   2.260   3.712   1.854  0.7531 -0.3457  1.5548
 3654SOL     vw14616   2.223   3.776   1.899 -0.1781  0.1266  0.1561
 3655SOL     ow14617   1.938   1.725   1.589  0.1688  0.4470 -0.1615
 3655SOL     hw14618   1.883   1.800   1.611 -0.6507  0.2282 -1.3479
 3655SOL     hw14619   2.016   1.763   1.550 -0.6372  0.6891 -1.5955
 3655SOL     vw14620   1.941   1.740   1.587 -0.0457  0.4501 -0.5072
 3656SOL     ow14621   2.014   1.377   5.139 -0.4911 -0.4291 -0.4984
 3656SOL     hw14622   1.973   1.299   5.102 -0.8993  0.2774 -1.5848
 3656SOL     hw14623   2.082   1.401   5.077  2.2874 -2.0379  1.6513
 3656SOL     vw14624   2.017   1.370   5.126 -0.1783 -0.5481 -0.3583
 3657SOL     ow14625   7.429   4.254   3.812 -0.6433  0.2616  0.3717
 3657SOL     hw14626   7.341   4.231   3.839  0.3382  0.1428  3.8684
 3657SOL     hw14627   7.479   4.263   3.893  2.4068  1.1102 -1.4004
 3657SOL     vw14628   7.424   4.252   3.826 -0.1111  0.3576  0.5993
 3658SOL     ow14629   4.875   3.443   2.466  0.1696 -0.1082 -0.6176
 3658SOL     hw14630   4.938   3.412   2.401  0.4086  0.2398 -0.5526
 3658SOL     hw14631   4.803   3.478   2.414  1.3326  2.2627 -0.7758
 3658SOL     vw14632   4.874   3.443   2.451  0.3548  0.2506 -0.6298
 3659SOL     ow14633   1.704   0.974   4.633  0.5835  0.9047  0.2411
 3659SOL     hw14634   1.719   0.958   4.540  0.0033 -0.6248  0.3927
 3659SOL     hw14635   1.729   1.066   4.645 -0.8554  1.6471 -1.7599
 3659SOL     vw14636   1.709   0.984   4.622  0.3172  0.8008 -0.0029
 3660SOL     ow14637   4.681   5.814   1.095  0.3205 -0.0665 -0.1799
 3660SOL     hw14638   4.651   5.880   1.157 -0.5106 -1.2335  0.6969
 3660SOL     hw14639   4.754   5.770   1.139  0.3025 -0.3154 -0.3931
 3660SOL     vw14640   4.686   5.817   1.109  0.2084 -0.2532 -0.0923
 3661SOL     ow14641   6.001   0.108   2.026 -0.1089  0.8836  0.1015
 3661SOL     hw14642   5.963   0.196   2.019 -0.8242  0.4231 -2.8688
 3661SOL     hw14643   5.977   0.065   1.944  2.3150 -1.2787  0.4292
 3661SOL     vw14644   5.993   0.114   2.015  0.1163  0.5375 -0.2471
 3662SOL     ow14645   7.108   1.991   1.807 -0.3323  0.0555 -0.9132
 3662SOL     hw14646   7.177   1.944   1.856  1.2893  0.3347 -2.7966
 3662SOL     hw14647   7.149   2.074   1.783 -0.2065 -0.8667 -4.4726
 3662SOL     vw14648   7.123   1.996   1.810 -0.1020 -0.0294 -1.6313
 3663SOL     ow14649   5.811   2.089   1.927  0.0207 -0.3095 -0.5989
 3663SOL     hw14650   5.772   2.150   1.989  0.4163  0.3487 -0.9871
 3663SOL     hw14651   5.760   2.009   1.936 -0.7199  0.1888 -0.3314
 3663SOL     vw14652   5.799   2.087   1.936 -0.0248 -0.1570 -0.6148
 3664SOL     ow14653   2.745   6.091   2.494  0.3671 -0.1491 -0.1354
 3664SOL     hw14654   2.735   6.148   2.418 -0.1813  0.1110  0.1273
 3664SOL     hw14655   2.671   6.113   2.551  0.0674 -1.2082 -0.0854
 3664SOL     vw14656   2.734   6.102   2.492  0.2553 -0.2544 -0.0942
 3665SOL     ow14657   6.816   6.820   6.365 -0.1621 -0.2550  0.5264
 3665SOL     hw14658   6.766   6.886   6.317  0.5796 -0.1574 -0.1353
 3665SOL     hw14659   6.797   6.738   6.320 -0.2605 -0.3333  0.7053
 3665SOL     vw14660   6.807   6.818   6.353 -0.0772 -0.2525  0.4623
 3666SOL     ow14661   1.772   3.257   2.605  0.1375  0.0948 -0.1900
 3666SOL     hw14662   1.842   3.313   2.640  2.4481 -3.2052  0.9315
 3666SOL     hw14663   1.772   3.276   2.511  1.7224  1.0344 -0.0407
 3666SOL     vw14664   1.781   3.267   2.597  0.6515 -0.2166 -0.0224
 3667SOL     ow14665   6.515   5.323   5.994  0.3409  0.1164 -0.0401
 3667SOL     hw14666   6.598   5.276   5.988  1.1694  1.1821  1.9179
 3667SOL     hw14667   6.475   5.292   6.076  0.6767  2.3191  1.0458
 3667SOL     vw14668   6.520   5.313   6.004  0.4947  0.5476  0.3614
 3668SOL     ow14669   0.883   7.208   5.252  0.3190  0.0652 -0.4417
 3668SOL     hw14670   0.940   7.262   5.197  0.5153 -1.9661 -2.3654
 3668SOL     hw14671   0.943   7.164   5.312  0.4843 -0.1063 -0.7284
 3668SOL     vw14672   0.898   7.209   5.252  0.3667 -0.2255 -0.7331
 3669SOL     ow14673   6.669   6.946   1.206  0.4166 -0.1686 -0.4282
 3669SOL     hw14674   6.733   6.903   1.149 -0.3258 -0.3936 -1.1076
 3669SOL     hw14675   6.681   6.903   1.291  1.0193 -0.3513 -0.5986
 3669SOL     vw14676   6.679   6.934   1.210  0.3982 -0.2222 -0.5403
 3670SOL     ow14677   3.250   3.642   6.842 -0.3844 -1.3299 -0.7092
 3670SOL     hw14678   3.340   3.646   6.808 -0.5095 -0.3895 -0.9618
 3670SOL     hw14679   3.229   3.733   6.865 -0.8351 -1.7267  0.5212
 3670SOL     vw14680   3.259   3.655   6.840 -0.4604 -1.2581 -0.5803
 3671SOL     ow14681   5.105   6.150   4.097  0.8917  0.1138  0.2226
 3671SOL     hw14682   5.059   6.078   4.053  0.9544  1.3849 -2.0899
 3671SOL     hw14683   5.145   6.199   4.026  0.5470  2.6685  1.6833
 3671SOL     vw14684   5.104   6.147   4.082  0.8545  0.6185  0.1099
 3672SOL     ow14685   5.810   1.571   4.207  0.3712 -0.0969 -0.4482
 3672SOL     hw14686   5.867   1.645   4.185  0.6129 -0.3511 -0.6766
 3672SOL     hw14687   5.733   1.584   4.152 -0.1410  0.6662  0.4054
 3672SOL     vw14688   5.807   1.583   4.197  0.3357 -0.0297 -0.3657
 3673SOL     ow14689   1.821   7.000   1.327  0.3341 -0.0914 -0.4379
 3673SOL     hw14690   1.871   7.078   1.352 -0.9343 -0.2059  2.8096
 3673SOL     hw14691   1.734   7.033   1.306  0.6500 -0.3423 -2.3985
 3673SOL     vw14692   1.816   7.015   1.327  0.2084 -0.1397 -0.2680
 3674SOL     ow14693   2.693   4.910   1.265  0.2420 -0.4115  0.0437
 3674SOL     hw14694   2.659   4.880   1.350 -1.7603 -1.7187 -1.1186
 3674SOL     hw14695   2.767   4.853   1.248  1.5803  0.7940  1.4939
 3674SOL     vw14696   2.698   4.899   1.274  0.1545 -0.4249  0.0817
 3675SOL     ow14697   1.438   6.506   1.015 -0.1838  0.0794 -0.4564
 3675SOL     hw14698   1.369   6.573   1.010  2.0597  2.7194  0.9320
 3675SOL     hw14699   1.414   6.452   1.090 -2.0814 -0.8471 -1.6449
 3675SOL     vw14700   1.425   6.508   1.024 -0.1382  0.3057 -0.4299
 3676SOL     ow14701   6.667   6.751   0.316  0.0229 -0.3752  0.0877
 3676SOL     hw14702   6.697   6.678   0.262 -0.9104 -0.1177 -0.7983
 3676SOL     hw14703   6.575   6.731   0.334 -1.2474  2.0213 -2.8042
 3676SOL     vw14704   6.659   6.739   0.311 -0.2677 -0.0253 -0.4108
 3677SOL     ow14705   6.177   1.450   0.750  0.0728  0.0069 -0.7563
 3677SOL     hw14706   6.181   1.517   0.819  2.5900 -0.2463 -0.5851
 3677SOL     hw14707   6.185   1.367   0.797  1.3175 -0.1885 -1.2690
 3677SOL     vw14708   6.178   1.448   0.766  0.5691 -0.0523 -0.8014
 3678SOL     ow14709   1.884   0.098   2.768  0.2340  0.3881  1.3502
 3678SOL     hw14710   1.834   0.017   2.781  2.0175 -0.6568  2.1666
 3678SOL     hw14711   1.882   0.141   2.854  3.2376 -1.2646  2.4306
 3678SOL     vw14712   1.877   0.093   2.781  0.8657  0.0322  1.6005
 3679SOL     ow14713   1.370   7.235   4.020  0.4136  0.1948 -0.4725
 3679SOL     hw14714   1.327   7.170   3.965  0.9264  1.4459 -2.4612
 3679SOL     hw14715   1.299   7.289   4.055  0.1221 -0.2932 -0.3024
 3679SOL     vw14716   1.355   7.233   4.018  0.4427  0.2952 -0.7126
 3680SOL     ow14717   1.129   3.128   1.875  0.0103 -0.3352 -0.0712
 3680SOL     hw14718   1.162   3.074   1.947 -1.3982 -1.3789 -0.1514
 3680SOL     hw14719   1.034   3.132   1.890  0.0298  1.9191 -0.2364
 3680SOL     vw14720   1.121   3.121   1.886 -0.1730 -0.1756 -0.1037
 3681SOL     ow14721   6.457   5.528   2.252  0.6009  0.3496 -0.1457
 3681SOL     hw14722   6.446   5.622   2.263 -3.4615 -0.1293  1.8027
 3681SOL     hw14723   6.439   5.512   2.160 -0.2490  1.3728 -0.1737
 3681SOL     vw14724   6.454   5.538   2.241 -0.0472  0.4213  0.1078
 3682SOL     ow14725   0.363   0.101   3.955 -0.1217  0.2085 -0.3576
 3682SOL     hw14726   0.365   0.005   3.953 -2.3178  0.1113 -0.5647
 3682SOL     hw14727   0.385   0.123   4.046 -2.3253 -0.6703  0.4485
 3682SOL     vw14728   0.366   0.091   3.967 -0.7022  0.0797 -0.2786
 3683SOL     ow14729   1.046   3.499   1.311 -0.0477  0.0238 -0.3355
 3683SOL     hw14730   0.995   3.537   1.239  1.4889 -0.2009 -1.5971
 3683SOL     hw14731   1.072   3.412   1.278  0.2094 -0.3137  0.7254
 3683SOL     vw14732   1.042   3.492   1.297  0.1889 -0.0504 -0.3619
 3684SOL     ow14733   5.638   4.051   1.020  0.6385  0.1624 -0.0808
 3684SOL     hw14734   5.570   4.103   0.977  3.5503  1.5325 -3.5151
 3684SOL     hw14735   5.659   3.982   0.957  0.7791 -1.7985  1.9858
 3684SOL     vw14736   5.632   4.049   1.006  1.0412  0.0844 -0.2613
 3685SOL     ow14737   2.463   4.339   4.014 -0.3196 -0.0659 -0.1159
 3685SOL     hw14738   2.512   4.336   3.932  0.6823  1.2545  0.4059
 3685SOL     hw14739   2.399   4.409   4.000 -0.6485 -0.3462 -0.0249
 3685SOL     vw14740   2.461   4.348   4.001 -0.2308  0.0713 -0.0350
 3686SOL     ow14741   2.188   0.859   5.992  0.8517  0.1732 -0.2157
 3686SOL     hw14742   2.176   0.768   5.966 -0.1290  0.5810 -1.3200
 3686SOL     hw14743   2.123   0.874   6.061  0.8289  0.1058 -0.2229
 3686SOL     vw14744   2.177   0.849   5.997  0.7194  0.2181 -0.3624
 3687SOL     ow14745   5.531   2.451   2.845  0.3324 -0.3987  0.1326
 3687SOL     hw14746   5.476   2.476   2.919 -1.3175 -2.5215 -0.2810
 3687SOL     hw14747   5.614   2.423   2.885 -0.2863 -0.8488  1.1408
 3687SOL     vw14748   5.535   2.450   2.860  0.0329 -0.7380  0.2110
 3688SOL     ow14749   6.018   2.049   1.765  0.5121  0.7232  0.3948
 3688SOL     hw14750   5.963   2.076   1.838 -1.4223 -2.1499  0.1403
 3688SOL     hw14751   6.103   2.090   1.782 -0.2305  1.1669  3.5323
 3688SOL     vw14752   6.022   2.058   1.777  0.1588  0.4027  0.7752
 3689SOL     ow14753   4.415   6.699   6.180  0.3946  0.6413 -0.0872
 3689SOL     hw14754   4.402   6.706   6.275  0.3141 -0.3078 -0.0131
 3689SOL     hw14755   4.454   6.782   6.155  0.3102  0.9518  0.7611
 3689SOL     vw14756   4.418   6.711   6.190  0.3729  0.5569  0.0348
 3690SOL     ow14757   1.525   5.189   6.300 -0.0979 -0.1745  0.1606
 3690SOL     hw14758   1.485   5.236   6.226 -0.4267 -1.2870 -0.3901
 3690SOL     hw14759   1.557   5.108   6.261  0.7764 -0.2491  1.0309
 3690SOL     vw14760   1.524   5.184   6.285 -0.0259 -0.3309  0.2031
 3691SOL     ow14761   2.801   1.804   1.562 -0.0117 -0.8665  0.9442
 3691SOL     hw14762   2.794   1.880   1.506 -2.2348  0.3493  2.7102
 3691SOL     hw14763   2.893   1.778   1.556  0.4502  0.9491 -0.9286
 3691SOL     vw14764   2.812   1.810   1.554 -0.2440 -0.4665  0.9301
 3692SOL     ow14765   6.715   1.031   2.201 -0.7606  0.7308 -0.3770
 3692SOL     hw14766   6.638   1.031   2.258  1.3275 -0.2322  2.6621
 3692SOL     hw14767   6.765   1.108   2.228  0.4142  0.0946 -0.6838
 3692SOL     vw14768   6.711   1.041   2.212 -0.3302  0.5199 -0.0163
 3693SOL     ow14769   1.630   6.906   4.786 -0.1379  0.0269  0.3732
 3693SOL     hw14770   1.571   6.977   4.763 -0.2979 -0.9609 -2.7494
 3693SOL     hw14771   1.686   6.895   4.709  0.9435 -2.1686  1.3678
 3693SOL     vw14772   1.630   6.914   4.773 -0.0163 -0.3932  0.0925
 3694SOL     ow14773   3.669   5.093   0.160  0.3060  0.3367  0.0060
 3694SOL     hw14774   3.620   5.011   0.163  0.1819  0.3529 -1.2480
 3694SOL     hw14775   3.761   5.066   0.158  0.3483  0.2883  1.4448
 3694SOL     vw14776   3.674   5.078   0.160  0.2953  0.3321  0.0303
 3695SOL     ow14777   5.597   0.188   3.399  0.1886 -0.4472  0.1238
 3695SOL     hw14778   5.537   0.263   3.407  0.5306  0.1649 -2.2218
 3695SOL     hw14779   5.677   0.218   3.441 -0.1390 -0.0608  0.4888
 3695SOL     vw14780   5.599   0.202   3.406  0.1905 -0.3155 -0.1376
 3696SOL     ow14781   4.646   0.485   0.892 -0.5893  0.6545  0.0267
 3696SOL     hw14782   4.567   0.504   0.944 -1.1018 -1.0160 -0.0884
 3696SOL     hw14783   4.648   0.553   0.825 -1.8945  0.7788  0.0949
 3696SOL     vw14784   4.636   0.496   0.890 -0.8287  0.4505  0.0205
 3697SOL     ow14785   1.539   1.182   2.334  0.1849  0.8929 -0.5366
 3697SOL     hw14786   1.621   1.140   2.356  1.2270  2.6989 -0.7788
 3697SOL     hw14787   1.497   1.199   2.418 -0.1050 -0.2919 -0.4276
 3697SOL     vw14788   1.544   1.179   2.348  0.2841  0.9749 -0.5543
 3698SOL     ow14789   5.899   4.630   4.640 -0.0671  0.6836 -0.1111
 3698SOL     hw14790   5.960   4.678   4.696  2.3939 -2.3928  0.1211
 3698SOL     hw14791   5.910   4.538   4.666 -2.1366 -0.4009 -2.6293
 3698SOL     vw14792   5.908   4.624   4.651 -0.0153  0.1345 -0.4129
 3699SOL     ow14793   4.624   6.577   3.558  0.1979 -0.0780 -0.1540
 3699SOL     hw14794   4.573   6.648   3.520  1.4467 -0.0767 -1.9759
 3699SOL     hw14795   4.576   6.498   3.535  0.4368 -0.0073 -0.9338
 3699SOL     vw14796   4.611   6.576   3.550  0.3946 -0.0687 -0.4973
 3700SOL     ow14797   1.340   5.058   2.380  0.2037 -0.3004 -0.1206
 3700SOL     hw14798   1.262   5.058   2.326  1.6661 -1.6222 -2.4113
 3700SOL     hw14799   1.344   5.146   2.417 -2.3229 -0.2129  0.1081
 3700SOL     vw14800   1.331   5.069   2.378  0.0633 -0.4635 -0.3927
 3701SOL     ow14801   0.547   2.721   1.038 -0.4695 -0.8363 -1.0629
 3701SOL     hw14802   0.570   2.735   1.130 -1.0128  0.9832 -1.1775
 3701SOL     hw14803   0.522   2.628   1.034 -0.0618 -1.0470  0.5303
 3701SOL     vw14804   0.547   2.710   1.049 -0.4874 -0.6242 -0.8678
 3702SOL     ow14805   2.001   1.705   7.120 -0.4375 -0.7872  0.1054
 3702SOL     hw14806   1.948   1.645   7.067 -2.5004  0.1733  0.9838
 3702SOL     hw14807   2.002   1.786   7.069  1.3586 -1.1445 -0.5147
 3702SOL     vw14808   1.994   1.707   7.106 -0.4728 -0.7076  0.1392
 3703SOL     ow14809   4.140   1.686   7.304  0.2959 -0.4220 -0.1653
 3703SOL     hw14810   4.217   1.734   7.272  1.1023 -2.4868 -1.5298
 3703SOL     hw14811   4.089   1.668   7.225 -2.1415  1.6644  0.8156
 3703SOL     vw14812   4.144   1.690   7.289  0.0811 -0.4191 -0.2158
 3704SOL     ow14813   6.875   0.425   1.444  0.5367  0.0580 -0.5887
 3704SOL     hw14814   6.961   0.420   1.402  1.0281 -0.4315  0.4533
 3704SOL     hw14815   6.869   0.516   1.474  0.3387  0.3116 -1.3715
 3704SOL     vw14816   6.886   0.437   1.442  0.5753  0.0269 -0.5545
 3705SOL     ow14817   6.578   2.534   0.864  0.8650 -0.2459 -0.0922
 3705SOL     hw14818   6.604   2.485   0.787 -0.0760  0.0271 -0.6070
 3705SOL     hw14819   6.509   2.593   0.833  0.4860 -0.1117  0.9452
 3705SOL     vw14820   6.572   2.535   0.850  0.6912 -0.1923 -0.0232
 3706SOL     ow14821   0.464   4.543   4.345 -0.7362  0.5124 -0.0310
 3706SOL     hw14822   0.470   4.514   4.254  1.4205  1.5291 -0.2847
 3706SOL     hw14823   0.377   4.582   4.352 -0.9261  0.4611 -1.6765
 3706SOL     vw14824   0.453   4.544   4.334 -0.4767  0.6399 -0.2816
 3707SOL     ow14825   3.650   0.835   0.397  0.0512  0.2252 -0.2302
 3707SOL     hw14826   3.655   0.740   0.410  0.7883  0.1139 -1.2514
 3707SOL     hw14827   3.740   0.865   0.402 -0.1927  0.9022  0.2136
 3707SOL     vw14828   3.662   0.826   0.399  0.1162  0.2998 -0.3064
 3708SOL     ow14829   0.265   2.879   2.583 -0.6011 -0.4642  0.1863
 3708SOL     hw14830   0.260   2.970   2.612 -1.6479 -0.6480  0.6354
 3708SOL     hw14831   0.174   2.856   2.564 -0.6048 -1.9727  1.8139
 3708SOL     vw14832   0.252   2.888   2.584 -0.7397 -0.6875  0.4601
 3709SOL     ow14833   0.971   1.306   2.918 -0.0629 -0.0687 -0.7709
 3709SOL     hw14834   0.878   1.302   2.938  0.4233 -0.1927  1.8299
 3709SOL     hw14835   0.985   1.238   2.852 -1.5723 -1.0058 -0.1668
 3709SOL     vw14836   0.961   1.296   2.912 -0.1979 -0.2088 -0.3480
 3710SOL     ow14837   3.085   4.246   1.066  0.1587 -0.1547  0.1215
 3710SOL     hw14838   3.018   4.233   1.133  0.1219 -0.5546  0.0096
 3710SOL     hw14839   3.045   4.307   1.004  0.7593  1.4682  1.2468
 3710SOL     vw14840   3.071   4.252   1.067  0.2332  0.0064  0.2552
 3711SOL     ow14841   7.030   3.244   2.215 -0.1738  0.0097  0.2761
 3711SOL     hw14842   7.098   3.241   2.147 -0.9394  1.8099 -0.6108
 3711SOL     hw14843   7.063   3.306   2.279 -0.4377 -0.0433  0.4639
 3711SOL     vw14844   7.043   3.252   2.214 -0.3097  0.2404  0.1838
 3712SOL     ow14845   0.542   4.822   5.537  0.1518  0.7193 -0.0987
 3712SOL     hw14846   0.464   4.792   5.583  1.0631  0.0724  1.1052
 3712SOL     hw14847   0.509   4.868   5.460 -1.4350  1.4116  0.9411
 3712SOL     vw14848   0.528   4.824   5.533  0.0627  0.7255  0.1974
 3713SOL     ow14849   5.958   5.726   5.752 -0.2216 -0.4107  0.0433
 3713SOL     hw14850   5.973   5.794   5.817  0.5715 -0.9474  0.4322
 3713SOL     hw14851   5.875   5.750   5.711  0.7964  1.7078 -0.9686
 3713SOL     vw14852   5.949   5.738   5.755  0.0174 -0.2022 -0.0389
 3714SOL     ow14853   5.944   1.826   6.545 -0.1925  0.4088  0.2782
 3714SOL     hw14854   6.023   1.784   6.579 -0.4285 -0.7657 -0.5531
 3714SOL     hw14855   5.973   1.871   6.466 -0.4142 -0.4271 -0.2994
 3714SOL     vw14856   5.958   1.826   6.539 -0.2527  0.1435  0.0923
 3715SOL     ow14857   0.275   4.134   0.611 -0.1403 -0.1745 -0.1201
 3715SOL     hw14858   0.317   4.048   0.608 -0.8094 -0.6374  1.9279
 3715SOL     hw14859   0.324   4.186   0.547  1.7101 -1.4576  0.1369
 3715SOL     vw14860   0.287   4.129   0.602  0.0155 -0.4048  0.1841
 3716SOL     ow14861   1.163   2.360   2.140  0.2652 -0.5594 -1.0837
 3716SOL     hw14862   1.078   2.320   2.156  0.2166  0.1797  0.7870
 3716SOL     hw14863   1.223   2.287   2.129  0.2591 -1.3180  2.6696
 3716SOL     vw14864   1.160   2.345   2.141  0.2579 -0.5620 -0.3417
 3717SOL     ow14865   5.134   4.512   6.190  0.0903  0.4474  0.0179
 3717SOL     hw14866   5.080   4.553   6.257 -0.3344  0.8192 -0.5471
 3717SOL     hw14867   5.221   4.506   6.230 -0.2424  0.3168  0.7356
 3717SOL     vw14868   5.138   4.517   6.204 -0.0095  0.4790  0.0379
 3718SOL     ow14869   3.826   4.295   7.278 -0.0006 -0.5262 -0.2856
 3718SOL     hw14870   3.801   4.203   7.273  0.7256 -0.6670 -1.8587
 3718SOL     hw14871   3.791   4.334   7.197 -0.7232  0.7132  0.5723
 3718SOL     vw14872   3.818   4.288   7.267 -0.0002 -0.3812 -0.3800
 3719SOL     ow14873   6.417   0.021   5.384 -0.3196  0.2685 -0.0641
 3719SOL     hw14874   6.395  -0.056   5.332  0.0193  0.2308 -0.1541
 3719SOL     hw14875   6.502   0.049   5.351 -0.7314  1.0713 -0.4918
 3719SOL     vw14876   6.425   0.015   5.373 -0.3293  0.3695 -0.1323
 3720SOL     ow14877   6.617   0.466   2.878 -0.0611 -0.5017  0.5606
 3720SOL     hw14878   6.526   0.495   2.888  0.4720  0.9278  1.5719
 3720SOL     hw14879   6.655   0.527   2.815  0.4199 -0.5900  0.7641
 3720SOL     vw14880   6.610   0.478   2.871  0.0727 -0.3248  0.7209
 3721SOL     ow14881   5.434   5.050   6.888  0.1281  0.2016  0.4350
 3721SOL     hw14882   5.377   5.111   6.842  0.7969  0.7529  0.3259
 3721SOL     hw14883   5.510   5.040   6.831 -0.0374 -0.8505  0.3864
 3721SOL     vw14884   5.437   5.057   6.875  0.1945  0.1357  0.4141
 3722SOL     ow14885   2.914   4.705   6.880  0.2532 -0.2149 -0.5063
 3722SOL     hw14886   2.848   4.640   6.904 -0.7842  1.0430  0.2059
 3722SOL     hw14887   2.870   4.759   6.814  0.7376  0.3647 -0.3629
 3722SOL     vw14888   2.899   4.704   6.874  0.1801  0.0277 -0.3936
 3723SOL     ow14889   7.270   7.207   3.469  0.2170  0.3803 -0.2758
 3723SOL     hw14890   7.318   7.289   3.479  0.0550  0.4286  0.1097
 3723SOL     hw14891   7.178   7.231   3.483  0.2455  0.0008  0.5723
 3723SOL     vw14892   7.264   7.221   3.472  0.1996  0.3366 -0.1130
 3724SOL     ow14893   5.720   7.249   7.524 -0.1290 -0.2676 -0.1061
 3724SOL     hw14894   5.636   7.207   7.543 -1.7171  2.1145 -1.4217
 3724SOL     hw14895   5.775   7.225   7.598 -2.6889 -0.0555  2.0391
 3724SOL     vw14896   5.716   7.240   7.536 -0.6764  0.0746  0.0033
 3725SOL     ow14897   0.597   3.716   5.813 -0.8101  0.3497 -0.0847
 3725SOL     hw14898   0.638   3.681   5.892 -3.0872 -0.9259  0.5920
 3725SOL     hw14899   0.512   3.673   5.808 -1.5144  1.8221 -2.2099
 3725SOL     vw14900   0.592   3.706   5.823 -1.2035  0.3755 -0.2754
 3726SOL     ow14901   7.283   3.250   7.288 -0.4881 -0.0382  0.3603
 3726SOL     hw14902   7.325   3.164   7.294  0.6374  0.5850  2.0905
 3726SOL     hw14903   7.346   3.303   7.239  0.0747  0.4888  1.6237
 3726SOL     vw14904   7.297   3.245   7.282 -0.2654  0.1136  0.7551
 3727SOL     ow14905   4.395   5.857   0.963 -0.1807 -0.8615  0.1133
 3727SOL     hw14906   4.478   5.826   0.999 -0.4523 -1.1076  0.5239
 3727SOL     hw14907   4.411   5.861   0.868  0.8527  0.7351  0.3105
 3727SOL     vw14908   4.408   5.854   0.955 -0.0801 -0.6835  0.1935
 3728SOL     ow14909   4.321   0.677   4.500 -0.4403  0.0457  0.2278
 3728SOL     hw14910   4.330   0.762   4.457  0.3952  0.4088  1.0710
 3728SOL     hw14911   4.246   0.687   4.559 -0.3738  0.1901  0.2886
 3728SOL     vw14912   4.312   0.690   4.502 -0.3214  0.1126  0.3471
 3729SOL     ow14913   6.119   7.402   2.494  0.4438  0.4447  0.3396
 3729SOL     hw14914   6.148   7.312   2.509 -1.8461 -0.1484  1.7396
 3729SOL     hw14915   6.142   7.448   2.575 -1.3035  0.2611  0.9723
 3729SOL     vw14916   6.126   7.396   2.507 -0.0889  0.3424  0.6076
 3730SOL     ow14917   4.402   3.129   1.534  0.3004  0.0436  0.2941
 3730SOL     hw14918   4.363   3.079   1.606  0.9268  0.3635  0.8641
 3730SOL     hw14919   4.394   3.220   1.561 -0.0632  0.2115 -0.3551
 3730SOL     vw14920   4.396   3.134   1.547  0.3352  0.1080  0.2837
 3731SOL     ow14921   1.952   6.954   3.664  0.2267 -0.0433 -0.0146
 3731SOL     hw14922   2.039   6.994   3.664  0.7233 -1.0805 -0.0744
 3731SOL     hw14923   1.898   7.013   3.717  1.2502  0.0202  0.9982
 3731SOL     vw14924   1.957   6.967   3.671  0.4272 -0.1717  0.1110
 3732SOL     ow14925   3.553   3.233   0.978  0.2209 -0.2080 -0.1368
 3732SOL     hw14926   3.463   3.200   0.969  0.2047 -0.6205  1.2539
 3732SOL     hw14927   3.559   3.304   0.915 -1.0215 -0.3171 -0.4084
 3732SOL     vw14928   3.542   3.238   0.969  0.0548 -0.2768  0.0108
 3733SOL     ow14929   2.802   3.056   0.510  0.3309 -0.6115  0.5906
 3733SOL     hw14930   2.828   3.024   0.424 -0.2970 -0.4323  0.3301
 3733SOL     hw14931   2.717   3.016   0.527  0.3837 -0.5343  1.0666
 3733SOL     vw14932   2.795   3.047   0.501  0.2549 -0.5777  0.6190
 3734SOL     ow14933   4.033   1.967   7.092  0.0244  0.4114  0.5771
 3734SOL     hw14934   4.036   1.992   6.999 -1.6628 -0.7229  0.1794
 3734SOL     hw14935   3.985   2.038   7.134 -1.2716 -0.1630  0.1350
 3734SOL     vw14936   4.027   1.980   7.085 -0.3695  0.1860  0.4666
 3735SOL     ow14937   6.787   1.405   3.414 -0.3576 -0.5436  0.8275
 3735SOL     hw14938   6.785   1.313   3.441 -2.4895 -0.4888  1.0656
 3735SOL     hw14939   6.717   1.447   3.465 -2.4709  0.2297 -2.3359
 3735SOL     vw14940   6.777   1.399   3.424 -0.9177 -0.4343  0.4416
 3736SOL     ow14941   5.717   7.454   6.379  0.4684 -0.3255 -0.1496
 3736SOL     hw14942   5.750   7.509   6.309  0.1670 -1.7737 -1.4940
 3736SOL     hw14943   5.686   7.375   6.335  0.3070 -1.3115  1.6239
 3736SOL     vw14944   5.717   7.451   6.364  0.4075 -0.6466 -0.0930
 3737SOL     ow14945   7.081   5.888   6.351  0.4863 -0.3798 -0.1729
 3737SOL     hw14946   7.071   5.953   6.282 -0.5040  0.1842  0.4962
 3737SOL     hw14947   7.010   5.905   6.412  0.2537 -2.0340  0.0647
 3737SOL     vw14948   7.070   5.899   6.350  0.3250 -0.5236 -0.0529
 3738SOL     ow14949   7.417   6.823   6.903  0.8548  0.2173  0.4408
 3738SOL     hw14950   7.417   6.896   6.965 -0.0469  1.3754 -0.8907
 3738SOL     hw14951   7.346   6.766   6.934 -0.2795  1.3034 -0.0780
 3738SOL     vw14952   7.408   6.825   6.915  0.5860  0.5131  0.1967
 3739SOL     ow14953   6.505   6.057   3.867  0.3522  0.4129 -0.4469
 3739SOL     hw14954   6.559   6.029   3.941 -2.5399 -1.5767  1.1073
 3739SOL     hw14955   6.470   6.142   3.893  1.6897  1.1502 -0.9450
 3739SOL     vw14956   6.508   6.064   3.880  0.1471  0.2477 -0.3076
 3740SOL     ow14957   1.769   0.247   4.336  0.2207 -0.0881 -0.2921
 3740SOL     hw14958   1.724   0.331   4.326 -1.9846 -0.9340  1.6253
 3740SOL     hw14959   1.861   0.267   4.318  0.0529  3.0689  1.5647
 3740SOL     vw14960   1.775   0.261   4.332 -0.0924  0.2168  0.2060
 3741SOL     ow14961   6.527   4.428   3.905  0.0042  0.4576  0.4452
 3741SOL     hw14962   6.448   4.469   3.870  0.0276  0.3004  0.2068
 3741SOL     hw14963   6.585   4.419   3.830 -1.0701 -2.6173 -0.1959
 3741SOL     vw14964   6.524   4.432   3.891 -0.1345  0.0312  0.3293
 3742SOL     ow14965   0.112   2.832   4.463  0.0161  0.5713  0.2899
 3742SOL     hw14966   0.123   2.737   4.471 -1.5234  0.4111  0.9588
 3742SOL     hw14967   0.101   2.847   4.369  0.7375  0.1531  0.1339
 3742SOL     vw14968   0.112   2.821   4.452 -0.0918  0.4950  0.3576
 3743SOL     ow14969   1.787   7.096   3.823  0.3686  0.1748  0.6106
 3743SOL     hw14970   1.804   7.175   3.874  0.5302 -0.6823  1.9303
 3743SOL     hw14971   1.702   7.065   3.855  0.3369 -0.2175  0.1544
 3743SOL     vw14972   1.778   7.102   3.834  0.3858  0.0098  0.7244
 3744SOL     ow14973   6.091   7.313   6.465  0.3925 -0.4172  0.1639
 3744SOL     hw14974   6.166   7.280   6.514  0.7069  0.0491  0.0076
 3744SOL     hw14975   6.126   7.385   6.412  0.0892 -1.0056 -0.8548
 3744SOL     vw14976   6.105   7.318   6.464  0.3939 -0.4334  0.0091
 3745SOL     ow14977   2.947   4.765   1.884  0.2574  0.0401  0.2203
 3745SOL     hw14978   2.949   4.729   1.973 -1.3243  0.6087  0.5107
 3745SOL     hw14979   2.892   4.704   1.835  0.1026  0.3915 -0.0476
 3745SOL     vw14980   2.940   4.752   1.890  0.0283  0.1616  0.2233
 3746SOL     ow14981   2.052   2.236   1.650  0.0338 -0.5769  0.2742
 3746SOL     hw14982   2.099   2.209   1.729  2.3601  0.3171 -0.7151
 3746SOL     hw14983   2.058   2.160   1.591 -1.6947 -1.2419  0.8811
 3746SOL     vw14984   2.059   2.222   1.653  0.1125 -0.5467  0.2238
 3747SOL     ow14985   5.858   0.704   2.921  0.1703 -0.0510 -0.3981
 3747SOL     hw14986   5.904   0.690   3.004 -0.9714  0.5058  0.3511
 3747SOL     hw14987   5.866   0.798   2.906 -0.5326  0.0176 -0.3642
 3747SOL     vw14988   5.865   0.715   2.930 -0.0730  0.0315 -0.2949
 3748SOL     ow14989   3.202   3.524   7.084  0.3881 -0.0009  0.3619
 3748SOL     hw14990   3.217   3.563   6.998 -2.1726 -0.0455 -0.1956
 3748SOL     hw14991   3.135   3.458   7.068 -0.3656  0.2068  2.4485
 3748SOL     vw14992   3.195   3.520   7.070 -0.0492  0.0206  0.5639
 3749SOL     ow14993   2.453   6.805   0.147 -0.2691 -0.3589 -0.0977
 3749SOL     hw14994   2.380   6.774   0.200 -0.8809 -1.0148 -1.2580
 3749SOL     hw14995   2.531   6.768   0.189 -0.7594 -1.0582  0.2169
 3749SOL     vw14996   2.454   6.796   0.159 -0.4145 -0.5379 -0.2093
 3750SOL     ow14997   2.261   5.740   3.815  0.1183 -0.9980 -0.2821
 3750SOL     hw14998   2.268   5.796   3.893 -3.7185 -0.6455 -0.0093
 3750SOL     hw14999   2.311   5.787   3.748  0.0148  0.8964  0.8921
 3750SOL     vw15000   2.269   5.754   3.817 -0.4017 -0.7017 -0.0911
 3751SOL     ow15001   2.048   1.147   4.807  0.5041  0.0244  0.6595
 3751SOL     hw15002   2.001   1.136   4.890 -0.4358  0.0144  0.1445
 3751SOL     hw15003   2.139   1.159   4.832  0.3681 -0.8966  1.6431
 3751SOL     vw15004   2.054   1.147   4.821  0.3620 -0.0984  0.7212
 3752SOL     ow15005   7.504   0.298   3.945  0.0224  0.2385  0.3004
 3752SOL     hw15006   7.562   0.222   3.938 -0.0375  0.2379 -0.2666
 3752SOL     hw15007   7.429   0.276   3.889 -0.4870  0.2757  0.9575
 3752SOL     vw15008   7.501   0.285   3.936 -0.0527  0.2434  0.3122
 3753SOL     ow15009   4.699   6.194   4.202  0.5430 -0.4701 -0.0757
 3753SOL     hw15010   4.734   6.282   4.215 -0.0706 -0.0907 -0.9120
 3753SOL     hw15011   4.707   6.152   4.288 -2.0263  1.4479  1.2412
 3753SOL     vw15012   4.704   6.200   4.215  0.1233 -0.1669 -0.0122
 3754SOL     ow15013   3.037   1.021   4.028 -0.3789 -0.4958  0.4632
 3754SOL     hw15014   3.067   1.073   3.954 -3.4554  2.7092  1.1759
 3754SOL     hw15015   2.948   0.994   4.004 -1.3948  0.4605  2.8004
 3754SOL     vw15016   3.029   1.024   4.015 -0.9189  0.0532  0.8659
 3755SOL     ow15017   2.211   2.164   1.875  0.3110  0.2844  0.8160
 3755SOL     hw15018   2.274   2.233   1.857  1.2486 -0.9302 -0.8820
 3755SOL     hw15019   2.245   2.088   1.828 -0.2417 -1.5891  3.2689
 3755SOL     vw15020   2.224   2.163   1.866  0.3618 -0.1230  0.9156
 3756SOL     ow15021   2.983   4.516   0.207 -0.2566  0.0468  0.0167
 3756SOL     hw15022   2.937   4.460   0.145 -0.8395  1.3683 -0.7794
 3756SOL     hw15023   2.931   4.511   0.287  0.6989 -1.9527  0.5587
 3756SOL     vw15024   2.970   4.508   0.210 -0.2074 -0.0427 -0.0168
 3757SOL     ow15025   5.723   3.679   4.071  0.2011 -0.3799 -1.2258
 3757SOL     hw15026   5.799   3.703   4.017 -0.5308  0.1550 -2.0573
 3757SOL     hw15027   5.759   3.658   4.156  1.1104  1.7938 -1.0153
 3757SOL     vw15028   5.738   3.679   4.075  0.2246 -0.0224 -1.3080
 3758SOL     ow15029   0.350   7.105   2.106 -0.3842  0.0615 -0.0994
 3758SOL     hw15030   0.278   7.153   2.146 -0.2150  0.6166 -0.4412
 3758SOL     hw15031   0.429   7.147   2.140 -0.1391 -1.7204  1.7370
 3758SOL     vw15032   0.351   7.117   2.116 -0.3296 -0.1006  0.0978
 3759SOL     ow15033   3.510   6.291   0.464  0.1916  0.2197  0.8437
 3759SOL     hw15034   3.589   6.248   0.497  0.5309 -0.0714 -0.3034
 3759SOL     hw15035   3.453   6.298   0.541  1.7321  1.4167  1.9706
 3759SOL     vw15036   3.513   6.286   0.479  0.4396  0.3393  0.8410
 3760SOL     ow15037   7.435   3.829   5.713  0.0548 -0.1395 -0.6188
 3760SOL     hw15038   7.518   3.849   5.668  1.2652  0.2083  1.5910
 3760SOL     hw15039   7.395   3.915   5.727  0.0270 -0.1804 -0.4488
 3760SOL     vw15040   7.441   3.843   5.709  0.2108 -0.0991 -0.3047
 3761SOL     ow15041   3.239   5.477   0.701 -0.0368  0.0035 -0.5792
 3761SOL     hw15042   3.264   5.391   0.667 -0.2537  0.0790 -0.9400
 3761SOL     hw15043   3.153   5.494   0.663 -0.2854  0.0913  0.0270
 3761SOL     vw15044   3.231   5.468   0.691 -0.0981  0.0253 -0.5468
 3762SOL     ow15045   3.304   1.769   6.156  0.1366  0.7345 -0.3295
 3762SOL     hw15046   3.322   1.841   6.216 -1.8704 -0.3225  1.6901
 3762SOL     hw15047   3.248   1.807   6.088  0.7063  1.4787 -0.3960
 3762SOL     vw15048   3.299   1.783   6.155 -0.0529  0.6933 -0.0718
 3763SOL     ow15049   0.788   0.083   5.780 -0.1585  0.5511 -0.0757
 3763SOL     hw15050   0.864   0.057   5.727 -0.0526 -0.1147  0.3865
 3763SOL     hw15051   0.815   0.166   5.820  0.4008  0.2477  0.2036
 3763SOL     vw15052   0.802   0.090   5.778 -0.0708  0.4232  0.0224
 3764SOL     ow15053   1.633   3.041   1.012  0.0644  1.1641  0.1546
 3764SOL     hw15054   1.714   3.070   1.054  0.7379 -0.3771  0.0085
 3764SOL     hw15055   1.583   3.000   1.082  1.0003 -1.0226 -0.3732
 3764SOL     vw15056   1.637   3.039   1.027  0.2767  0.6723  0.0657
 3765SOL     ow15057   5.609   4.783   1.831 -0.4111  0.3765  0.3835
 3765SOL     hw15058   5.660   4.861   1.808 -0.0436  0.2603  0.7846
 3765SOL     hw15059   5.572   4.803   1.917 -1.9099  0.8765 -0.3462
 3765SOL     vw15060   5.611   4.796   1.840 -0.5603  0.4275  0.3401
 3766SOL     ow15061   4.526   2.025   4.166  0.1708  0.3380 -0.7310
 3766SOL     hw15062   4.482   2.029   4.251  1.6130 -0.4853  0.1030
 3766SOL     hw15063   4.456   2.035   4.102 -0.6509  3.7918  0.5166
 3766SOL     vw15064   4.511   2.027   4.169  0.2527  0.6852 -0.4566
 3767SOL     ow15065   6.607   5.107   6.209  0.3170  0.1178  0.3423
 3767SOL     hw15066   6.639   5.150   6.288 -0.9054 -1.2865  1.6576
 3767SOL     hw15067   6.517   5.139   6.199 -0.0188 -0.7895  0.3582
 3767SOL     vw15068   6.599   5.117   6.218  0.1118 -0.1874  0.5176
 3768SOL     ow15069   3.146   3.211   2.308 -0.0668 -0.0187 -0.3921
 3768SOL     hw15070   3.241   3.213   2.296  0.1111 -2.2754  0.3146
 3768SOL     hw15071   3.120   3.121   2.289 -1.5913 -0.3144  2.4401
 3768SOL     vw15072   3.155   3.200   2.304 -0.2444 -0.3556  0.0747
 3769SOL     ow15073   4.702   1.485   1.699  0.0514  0.0355 -1.0148
 3769SOL     hw15074   4.622   1.489   1.648 -1.6540 -0.6951  1.4064
 3769SOL     hw15075   4.744   1.570   1.686 -2.4402  1.4566 -0.4089
 3769SOL     vw15076   4.697   1.497   1.691 -0.5026  0.1266 -0.6154
 3770SOL     ow15077   0.919   4.926   5.741  0.4264  0.1357 -0.4462
 3770SOL     hw15078   0.879   4.887   5.818  1.6851  0.3059  0.3153
 3770SOL     hw15079   1.000   4.877   5.728  1.3671  1.5934 -0.2789
 3770SOL     vw15080   0.924   4.914   5.749  0.7166  0.3507 -0.3238
 3771SOL     ow15081   6.049   5.463   7.499 -0.1226 -1.0433 -0.5347
 3771SOL     hw15082   6.123   5.420   7.455  1.3440 -0.9078  1.6149
 3771SOL     hw15083   6.027   5.536   7.442 -0.4142 -2.6194 -2.5692
 3771SOL     vw15084   6.056   5.467   7.486  0.0324 -1.2331 -0.5195
 3772SOL     ow15085   5.474   0.275   1.147 -0.7487 -0.6694 -0.4036
 3772SOL     hw15086   5.437   0.197   1.189  2.2110 -2.2355 -0.4479
 3772SOL     hw15087   5.546   0.242   1.094 -1.7462  1.7310 -3.5809
 3772SOL     vw15088   5.478   0.260   1.146 -0.4900 -0.5594 -0.8286
 3773SOL     ow15089   6.941   3.032   6.306  0.0776  0.1631  0.0657
 3773SOL     hw15090   6.872   3.099   6.307  1.2280  1.4042  2.1034
 3773SOL     hw15091   7.019   3.078   6.275  0.9564 -0.0828  1.7626
 3773SOL     vw15092   6.942   3.047   6.302  0.3450  0.2944  0.5584
 3774SOL     ow15093   6.441   4.265   6.895  0.8843  0.0675  0.1689
 3774SOL     hw15094   6.379   4.260   6.968  0.5112  1.3987 -0.0308
 3774SOL     hw15095   6.492   4.343   6.913 -0.3859  1.4671 -1.8598
 3774SOL     vw15096   6.439   4.274   6.907  0.6676  0.4277 -0.1249
 3775SOL     ow15097   3.297   1.213   2.502 -0.1171 -0.3949 -0.6520
 3775SOL     hw15098   3.313   1.290   2.447  1.1262 -0.5232 -0.4893
 3775SOL     hw15099   3.357   1.223   2.576 -1.4798 -0.4176  0.5235
 3775SOL     vw15100   3.307   1.225   2.505 -0.1328 -0.4148 -0.4755
 3776SOL     ow15101   0.786   5.776   0.029  0.2031 -0.3557 -0.0833
 3776SOL     hw15102   0.739   5.770   0.112 -1.1097 -0.7553 -0.8246
 3776SOL     hw15103   0.868   5.820   0.051  0.7617 -2.1819  1.7725
 3776SOL     vw15104   0.791   5.781   0.043  0.1036 -0.6492  0.0637
 3777SOL     ow15105   4.105   7.319   6.571 -0.1046 -0.4054 -0.3998
 3777SOL     hw15106   4.011   7.300   6.571 -0.1891 -0.0213  0.2802
 3777SOL     hw15107   4.134   7.295   6.659  0.1857  0.6197 -0.2060
 3777SOL     vw15108   4.096   7.314   6.583 -0.0772 -0.2198 -0.2844
 3778SOL     ow15109   4.257   1.704   0.196  0.2057  0.0313 -0.2811
 3778SOL     hw15110   4.296   1.705   0.284  0.0446 -0.5557 -0.2012
 3778SOL     hw15111   4.218   1.617   0.188 -2.8006  1.1851  0.3846
 3778SOL     vw15112   4.257   1.693   0.207 -0.2122  0.1062 -0.1827
 3779SOL     ow15113   0.365   0.189   3.317 -0.3520  0.1888 -0.5631
 3779SOL     hw15114   0.323   0.139   3.247 -0.9790 -1.0439  0.6580
 3779SOL     hw15115   0.303   0.186   3.390 -0.3864  2.7001 -0.3742
 3779SOL     vw15116   0.351   0.182   3.317 -0.4392  0.3575 -0.3771
 3780SOL     ow15117   0.779   0.545   6.892 -0.0644  0.1065  0.4387
 3780SOL     hw15118   0.742   0.503   6.969  0.7624  0.3815  0.9961
 3780SOL     hw15119   0.766   0.482   6.821 -0.9399 -0.0929  0.7652
 3780SOL     vw15120   0.772   0.531   6.893 -0.0708  0.1164  0.5553
 3781SOL     ow15121   3.560   1.100   0.217  0.0909  1.2564  0.6519
 3781SOL     hw15122   3.506   1.157   0.162 -1.4237 -0.2168  0.5049
 3781SOL     hw15123   3.514   1.016   0.215  3.0250 -0.4535 -0.4150
 3781SOL     vw15124   3.547   1.096   0.210  0.2781  0.8365  0.4917
 3782SOL     ow15125   0.532   3.291   2.037 -0.2295 -0.5805  0.2785
 3782SOL     hw15126   0.495   3.238   2.108 -0.7142  2.2273  2.3134
 3782SOL     hw15127   0.595   3.348   2.081  0.2287  0.5697 -1.7550
 3782SOL     vw15128   0.536   3.292   2.053 -0.2330 -0.0583  0.2787
 3783SOL     ow15129   5.506   4.279   4.610 -0.1486  0.0070 -0.8996
 3783SOL     hw15130   5.568   4.267   4.682 -1.0451  2.2115  0.3399
 3783SOL     hw15131   5.434   4.220   4.631 -0.5632  0.8942  0.2460
 3783SOL     vw15132   5.505   4.269   4.622 -0.3219  0.4148 -0.5848
 3784SOL     ow15133   3.476   4.646   5.600  0.2307  0.0833 -0.5116
 3784SOL     hw15134   3.506   4.737   5.598 -1.9239  0.8466 -0.8366
 3784SOL     hw15135   3.467   4.622   5.507  0.0859 -0.2260 -0.4190
 3784SOL     vw15136   3.479   4.655   5.587 -0.0726  0.1431 -0.5422
 3785SOL     ow15137   2.452   1.580   4.235  0.5315 -0.4286 -0.4614
 3785SOL     hw15138   2.436   1.674   4.231  2.6595  0.0690  0.8002
 3785SOL     hw15139   2.466   1.553   4.145 -0.9061  0.2718 -0.9210
 3785SOL     vw15140   2.451   1.589   4.223  0.6225 -0.2704 -0.3555
 3786SOL     ow15141   4.169   5.698   6.376  0.1327 -0.1315  0.9083
 3786SOL     hw15142   4.241   5.732   6.324  1.5903 -0.6326  2.4954
 3786SOL     hw15143   4.130   5.629   6.322  1.5684 -0.6098  0.4419
 3786SOL     vw15144   4.173   5.693   6.362  0.5145 -0.2608  1.0562
 3787SOL     ow15145   3.818   2.878   4.116  0.5299  0.3197  0.4582
 3787SOL     hw15146   3.907   2.845   4.127 -0.0250 -0.9830  1.2169
 3787SOL     hw15147   3.824   2.971   4.137  1.6804  0.2124  0.6535
 3787SOL     vw15148   3.831   2.886   4.120  0.6087  0.1338  0.5841
 3788SOL     ow15149   1.499   0.769   4.794  0.7064  0.1281 -0.0635
 3788SOL     hw15150   1.413   0.774   4.751  1.1479  0.3999 -0.9394
 3788SOL     hw15151   1.483   0.801   4.883 -0.3147 -0.8387  0.1290
 3788SOL     vw15152   1.486   0.774   4.800  0.6300  0.0364 -0.1538
 3789SOL     ow15153   5.942   7.012   7.002  0.5114  0.4946  0.5221
 3789SOL     hw15154   6.028   6.971   7.000 -0.3312 -1.3586 -1.0309
 3789SOL     hw15155   5.937   7.062   6.920 -0.9451 -1.9314 -0.9862
 3789SOL     vw15156   5.953   7.013   6.991  0.2084 -0.0699  0.1183
 3790SOL     ow15157   5.938   1.334   4.060 -0.1102  0.0077  0.5239
 3790SOL     hw15158   6.002   1.264   4.069  0.6763  0.4533 -1.2578
 3790SOL     hw15159   5.974   1.391   3.993 -1.1942  1.6213  1.2506
 3790SOL     vw15160   5.951   1.332   4.053 -0.1493  0.2793  0.3848
 3791SOL     ow15161   6.204   6.848   2.956  0.5094  0.2901  0.4647
 3791SOL     hw15162   6.224   6.759   2.983 -1.1403 -0.1136  0.4602
 3791SOL     hw15163   6.272   6.870   2.892  1.4369 -0.6269  1.1072
 3791SOL     vw15164   6.216   6.839   2.951  0.4139  0.1159  0.5490
 3792SOL     ow15165   1.757   6.747   1.838  0.5583  0.7115  0.1657
 3792SOL     hw15166   1.852   6.738   1.846  0.5362 -0.8560 -0.9534
 3792SOL     hw15167   1.722   6.680   1.897  0.2032 -0.1398 -0.9800
 3792SOL     vw15168   1.765   6.737   1.847  0.5085  0.3922 -0.1332
 3793SOL     ow15169   0.915   5.981   2.959 -0.1744 -0.3805  0.0993
 3793SOL     hw15170   0.855   5.948   3.026 -0.4111 -2.2379 -0.9474
 3793SOL     hw15171   0.910   5.917   2.888  2.1007  0.0813 -0.5811
 3793SOL     vw15172   0.906   5.968   2.958  0.0946 -0.5646 -0.1285
 3794SOL     ow15173   1.689   5.756   3.522 -0.2959 -0.4153 -0.4010
 3794SOL     hw15174   1.599   5.731   3.540 -0.0371  1.0519  4.1241
 3794SOL     hw15175   1.689   5.852   3.526  1.5692 -0.4120  0.8128
 3794SOL     vw15176   1.677   5.766   3.525 -0.0157 -0.2213  0.3562
 3795SOL     ow15177   4.793   0.633   4.926 -0.1945 -0.0805 -0.2932
 3795SOL     hw15178   4.817   0.610   5.016 -0.6894 -0.1506 -0.1780
 3795SOL     hw15179   4.708   0.591   4.913 -0.3286  0.3012 -0.6466
 3795SOL     vw15180   4.785   0.624   4.936 -0.2775 -0.0394 -0.3245
 3796SOL     ow15181   6.407   2.781   0.903  0.0313  0.0733  0.4187
 3796SOL     hw15182   6.434   2.853   0.960  1.0521  0.9375 -1.0939
 3796SOL     hw15183   6.405   2.819   0.815 -0.5105 -1.4724 -0.2706
 3796SOL     vw15184   6.411   2.796   0.899  0.0944 -0.0165  0.1282
 3797SOL     ow15185   5.105   0.506   7.040  0.3381 -0.0730  0.2520
 3797SOL     hw15186   5.044   0.469   6.977 -0.4845 -0.3736  1.1832
 3797SOL     hw15187   5.182   0.529   6.989  0.5477 -2.2659 -0.5086
 3797SOL     vw15188   5.107   0.505   7.025  0.2573 -0.4020  0.2744
 3798SOL     ow15189   6.872   0.198   3.852 -0.7922  0.0147 -0.6426
 3798SOL     hw15190   6.939   0.255   3.890 -1.2682 -0.0403  0.2970
 3798SOL     hw15191   6.921   0.121   3.821 -0.5978 -0.8893  1.7206
 3798SOL     vw15192   6.887   0.195   3.853 -0.8292 -0.1119 -0.2069
 3799SOL     ow15193   5.120   5.187   3.182 -1.2069 -0.4244 -0.0181
 3799SOL     hw15194   5.107   5.138   3.101 -0.7254  0.7646 -0.8519
 3799SOL     hw15195   5.212   5.213   3.179 -2.1443  3.4577 -1.4129
 3799SOL     vw15196   5.131   5.184   3.171 -1.2674  0.2446 -0.3121
 3800SOL     ow15197   2.958   4.337   7.150  0.2877  0.3032 -0.3628
 3800SOL     hw15198   2.964   4.248   7.185 -1.1328  0.4267  0.2861
 3800SOL     hw15199   2.871   4.341   7.111  1.2791  0.6371 -2.6916
 3800SOL     vw15200   2.947   4.326   7.150  0.2311  0.3633 -0.5844
 3801SOL     ow15201   5.931   5.361   7.092 -0.5428 -0.5189 -0.4493
 3801SOL     hw15202   5.987   5.431   7.127 -0.9955 -0.6537  0.5973
 3801SOL     hw15203   5.974   5.334   7.011  0.6386 -0.2810  0.0727
 3801SOL     vw15204   5.945   5.367   7.086 -0.4466 -0.5052 -0.2425
 3802SOL     ow15205   4.958   5.396   3.131 -0.0628 -0.6670  0.2663
 3802SOL     hw15206   5.018   5.328   3.163  0.5145 -0.7129 -0.8524
 3802SOL     hw15207   5.016   5.465   3.098 -0.6415 -0.0289  0.5722
 3802SOL     vw15208   4.974   5.396   3.131 -0.0632 -0.5889  0.1590
 3803SOL     ow15209   1.882   2.783   6.692 -0.2058  0.3474 -0.2650
 3803SOL     hw15210   1.922   2.698   6.672 -1.4054 -0.2545 -0.1576
 3803SOL     hw15211   1.918   2.842   6.626  3.2420  0.5849  1.5712
 3803SOL     vw15212   1.892   2.779   6.681  0.0908  0.2993 -0.0088
 3804SOL     ow15213   4.134   0.750   1.866  0.6736  0.0138  0.8015
 3804SOL     hw15214   4.189   0.745   1.944  0.3017  1.2788  1.1727
 3804SOL     hw15215   4.156   0.834   1.826 -1.8533  1.1948  1.6867
 3804SOL     vw15216   4.144   0.761   1.871  0.2911  0.3365  0.9673
 3805SOL     ow15217   1.761   6.388   0.877  0.8858 -0.3085  0.0265
 3805SOL     hw15218   1.742   6.296   0.855  0.9346 -0.2418 -0.2932
 3805SOL     hw15219   1.848   6.404   0.841  0.6468  0.0276 -0.4147
 3805SOL     vw15220   1.770   6.378   0.869  0.8607 -0.2553 -0.0738
 3806SOL     ow15221   6.126   3.696   2.065  0.0521  0.3733  0.4175
 3806SOL     hw15222   6.137   3.706   1.971  0.3688  0.4331  0.4614
 3806SOL     hw15223   6.033   3.676   2.076  0.2786 -1.0009 -0.0088
 3806SOL     vw15224   6.115   3.695   2.054  0.1237  0.1998  0.3672
 3807SOL     ow15225   2.304   4.435   2.856  0.4661  0.5111 -0.0045
 3807SOL     hw15226   2.319   4.402   2.944  1.6896 -1.4534 -0.8690
 3807SOL     hw15227   2.243   4.372   2.817 -1.3431  2.2316 -0.1100
 3807SOL     vw15228   2.298   4.422   2.862  0.3887  0.4790 -0.1326
 3808SOL     ow15229   7.080   6.727   0.529 -0.3691  0.2909  0.2622
 3808SOL     hw15230   7.156   6.775   0.496  0.8724 -0.4411  1.9062
 3808SOL     hw15231   7.116   6.662   0.590 -2.0441 -2.1831 -1.1794
 3808SOL     vw15232   7.094   6.725   0.533 -0.4263 -0.1321  0.2889
 3809SOL     ow15233   2.816   3.522   7.174  0.0594  0.5103 -0.1494
 3809SOL     hw15234   2.746   3.587   7.175  1.9990  2.7515 -0.4578
 3809SOL     hw15235   2.866   3.539   7.254 -2.3969 -4.3962  2.9287
 3809SOL     vw15236   2.813   3.533   7.185 -0.0088  0.1587  0.2160
 3810SOL     ow15237   1.384   1.549   2.690  0.0873  0.2890  0.1077
 3810SOL     hw15238   1.369   1.578   2.780 -1.0577 -0.3048  0.1228
 3810SOL     hw15239   1.439   1.618   2.651 -1.8756  2.1016  0.3818
 3810SOL     vw15240   1.390   1.562   2.696 -0.3228  0.4498  0.1458
 3811SOL     ow15241   4.649   7.373   0.315 -0.0642  0.4232 -0.1038
 3811SOL     hw15242   4.560   7.386   0.285  0.1110  1.0726 -0.3575
 3811SOL     hw15243   4.689   7.460   0.313  1.3797 -0.2005 -2.5815
 3811SOL     vw15244   4.643   7.386   0.311  0.1495  0.4268 -0.4642
 3812SOL     ow15245   6.392   1.824   1.479 -0.0030 -0.5693  0.5684
 3812SOL     hw15246   6.402   1.917   1.459  1.0695 -1.1714 -2.2579
 3812SOL     hw15247   6.297   1.809   1.476 -0.2341  0.4937  1.6580
 3812SOL     vw15248   6.381   1.834   1.476  0.1082 -0.5085  0.3393
 3813SOL     ow15249   7.379   2.283   2.655  0.5782 -1.0002 -0.3339
 3813SOL     hw15250   7.467   2.251   2.633  1.2665 -0.3417  1.3291
 3813SOL     hw15251   7.371   2.267   2.749 -0.8240 -0.4209 -0.3442
 3813SOL     vw15252   7.390   2.277   2.664  0.4840 -0.8368 -0.1160
 3814SOL     ow15253   1.858   3.071   5.589 -0.3132 -0.2258  0.3600
 3814SOL     hw15254   1.845   3.080   5.684 -0.6237  0.5484  0.2496
 3814SOL     hw15255   1.952   3.061   5.578 -0.1971  0.4711  0.6933
 3814SOL     vw15256   1.868   3.071   5.600 -0.3388 -0.0317  0.3896
 3815SOL     ow15257   6.946   2.894   5.214  0.2627 -0.4640 -0.4270
 3815SOL     hw15258   6.958   2.821   5.276  0.3177 -1.0876 -1.1498
 3815SOL     hw15259   6.953   2.853   5.128  0.6402  0.4661 -0.8517
 3815SOL     vw15260   6.949   2.879   5.211  0.3200 -0.4236 -0.5782
 3816SOL     ow15261   1.520   4.831   6.568 -0.1019  0.0840  0.5155
 3816SOL     hw15262   1.610   4.846   6.541  0.1447 -0.1364  1.2021
 3816SOL     hw15263   1.476   4.915   6.554 -0.0948 -0.1305 -0.9592
 3816SOL     vw15264   1.526   4.844   6.563 -0.0685  0.0265  0.4115
 3817SOL     ow15265   5.099   4.134   2.759  0.0971  0.0739  0.3657
 3817SOL     hw15266   5.089   4.130   2.664 -0.0361 -1.1875  0.4144
 3817SOL     hw15267   5.193   4.124   2.774  0.0924  0.0405  0.3725
 3817SOL     vw15268   5.110   4.132   2.749  0.0792 -0.0973  0.3731
 3818SOL     ow15269   3.748   2.310   4.070  0.2421 -0.0520 -0.2309
 3818SOL     hw15270   3.788   2.360   3.998  0.6580 -1.3755 -0.9495
 3818SOL     hw15271   3.821   2.259   4.107 -0.3243 -0.7496 -0.0518
 3818SOL     vw15272   3.763   2.310   4.066  0.2223 -0.3188 -0.3021
 3819SOL     ow15273   7.063   6.090   1.759 -0.3525 -0.2753 -0.0976
 3819SOL     hw15274   7.149   6.057   1.784 -0.5838 -0.9278 -0.1501
 3819SOL     hw15275   7.001   6.033   1.805 -0.7608  1.0570  1.0769
 3819SOL     vw15276   7.066   6.078   1.769 -0.4370 -0.1855  0.0504
 3820SOL     ow15277   6.769   6.703   5.634  0.7766  0.3051  0.0132
 3820SOL     hw15278   6.835   6.700   5.703  0.8695  0.3403 -0.0733
 3820SOL     hw15279   6.764   6.612   5.602  2.0419  0.6035 -1.1530
 3820SOL     vw15280   6.777   6.690   5.639  0.9558  0.3493 -0.1523
 3821SOL     ow15281   1.771   3.283   5.437  0.3015 -0.5184 -0.0620
 3821SOL     hw15282   1.815   3.217   5.491 -3.1218 -0.8000  2.7841
 3821SOL     hw15283   1.740   3.236   5.361 -0.6970 -1.8841  1.1461
 3821SOL     vw15284   1.773   3.268   5.434 -0.2819 -0.7359  0.4730
 3822SOL     ow15285   0.184   5.753   7.188 -0.4579 -0.1066 -0.5178
 3822SOL     hw15286   0.253   5.799   7.235 -0.6411 -1.2323  0.9334
 3822SOL     hw15287   0.103   5.779   7.232 -1.1968  2.2649 -3.0544
 3822SOL     vw15288   0.182   5.762   7.200 -0.5796  0.0575 -0.6609
 3823SOL     ow15289   0.763   6.866   6.066 -0.4363  0.0670  0.6212
 3823SOL     hw15290   0.743   6.825   6.150  1.7458  0.5335  1.4361
 3823SOL     hw15291   0.804   6.796   6.015 -1.1455 -0.0335  0.1779
 3823SOL     vw15292   0.766   6.851   6.070 -0.2419  0.1154  0.6704
 3824SOL     ow15293   3.050   7.112   6.087  0.3907  0.4630  0.2985
 3824SOL     hw15294   3.062   7.029   6.041  1.7893  1.3340 -1.0130
 3824SOL     hw15295   2.965   7.104   6.130 -0.9689 -0.4622 -2.3455
 3824SOL     vw15296   3.041   7.100   6.086  0.3958  0.4559 -0.2234
 3825SOL     ow15297   1.879   4.660   5.669 -0.5953 -0.0648  0.2075
 3825SOL     hw15298   1.927   4.601   5.610 -0.7951  1.2867 -1.3790
 3825SOL     hw15299   1.937   4.736   5.677 -0.9666  0.1325  1.0947
 3825SOL     vw15300   1.893   4.662   5.663 -0.6706  0.1395  0.1154
 3826SOL     ow15301   4.364   6.999   4.405  0.5440  0.3208 -0.7402
 3826SOL     hw15302   4.351   6.967   4.494  1.6974 -1.0944 -1.0409
 3826SOL     hw15303   4.288   6.966   4.356 -0.8816  2.3668 -0.0191
 3826SOL     vw15304   4.352   6.990   4.410  0.5081  0.4041 -0.6847
 3827SOL     ow15305   2.986   0.106   2.178  0.2843 -0.8272  0.2303
 3827SOL     hw15306   2.966   0.172   2.112  0.1115 -1.3064 -0.2045
 3827SOL     hw15307   2.930   0.031   2.156  0.6174 -1.1968  0.5959
 3827SOL     vw15308   2.976   0.105   2.167  0.3054 -0.9392  0.2213
 3828SOL     ow15309   2.699   5.208   1.604 -0.1426  0.0403  0.4417
 3828SOL     hw15310   2.713   5.298   1.631 -2.1315  0.5909 -0.2142
 3828SOL     hw15311   2.761   5.195   1.532  1.6014  0.1778  1.8555
 3828SOL     vw15312   2.709   5.218   1.598 -0.1750  0.1311  0.5417
 3829SOL     ow15313   7.168   4.324   4.005  0.3603 -0.2251  0.0008
 3829SOL     hw15314   7.220   4.249   4.034  1.2300 -0.3349 -1.7528
 3829SOL     hw15315   7.080   4.289   3.993  1.0225 -1.3269 -2.0393
 3829SOL     vw15316   7.163   4.310   4.007  0.5624 -0.3850 -0.4997
 3830SOL     ow15317   4.005   1.144   0.466  0.2825  0.9393  0.1347
 3830SOL     hw15318   4.081   1.151   0.523 -0.5867 -0.6788  1.5853
 3830SOL     hw15319   3.989   1.050   0.459 -0.7377  1.1898 -1.3006
 3830SOL     vw15320   4.013   1.132   0.473  0.0331  0.7589  0.1368
 3831SOL     ow15321   4.160   4.723   4.788 -0.3381  0.2273 -0.3401
 3831SOL     hw15322   4.252   4.738   4.808  0.2556 -0.9491 -1.9819
 3831SOL     hw15323   4.120   4.810   4.792  0.9662  0.8441 -0.1826
 3831SOL     vw15324   4.167   4.737   4.791 -0.0880  0.1533 -0.5360
 3832SOL     ow15325   7.551   3.882   6.147  0.3978  0.0624 -0.3329
 3832SOL     hw15326   7.564   3.953   6.209  1.1355 -0.5295  0.2155
 3832SOL     hw15327   7.463   3.849   6.164 -1.0958  2.5799 -2.4491
 3832SOL     vw15328   7.541   3.887   6.157  0.2980  0.3165 -0.5398
 3833SOL     ow15329   0.844   0.023   0.750 -0.5270 -0.1059 -0.4016
 3833SOL     hw15330   0.894  -0.051   0.716  0.0279  0.8927 -1.8094
 3833SOL     hw15331   0.764   0.025   0.697 -1.8044 -1.2576  1.3638
 3833SOL     vw15332   0.840   0.014   0.739 -0.6223 -0.1261 -0.3544
 3834SOL     ow15333   3.819   1.050   4.449  0.1551  0.2216  0.3554
 3834SOL     hw15334   3.768   0.969   4.450 -0.7755  0.6766 -2.0051
 3834SOL     hw15335   3.811   1.085   4.537 -2.3934 -0.5175  0.5005
 3834SOL     vw15336   3.811   1.044   4.461 -0.3040  0.1841  0.0632
 3835SOL     ow15337   4.428   2.167   4.380 -0.1501 -0.3687 -0.0013
 3835SOL     hw15338   4.415   2.261   4.373  0.8521 -0.3600 -2.4521
 3835SOL     hw15339   4.457   2.154   4.471  0.1953  1.7359  0.2448
 3835SOL     vw15340   4.430   2.177   4.391  0.0279 -0.0898 -0.2923
 3836SOL     ow15341   4.297   0.835   3.717 -0.2999 -0.3129  0.2183
 3836SOL     hw15342   4.257   0.856   3.633  0.7209  1.7529  0.1732
 3836SOL     hw15343   4.249   0.759   3.749 -1.2946 -0.5952 -1.8106
 3836SOL     vw15344   4.285   0.828   3.710 -0.2966 -0.0775 -0.0553
 3837SOL     ow15345   5.563   0.646   2.344 -0.0729  0.0710 -0.3093
 3837SOL     hw15346   5.633   0.707   2.320  0.1127 -0.6128 -1.5943
 3837SOL     hw15347   5.482   0.689   2.315 -0.0844  0.3316  0.0971
 3837SOL     vw15348   5.561   0.660   2.337 -0.0498  0.0152 -0.4251
 3838SOL     ow15349   2.914   4.527   5.896 -0.2885 -0.1467  0.0485
 3838SOL     hw15350   2.929   4.613   5.934 -0.3223 -0.0558 -0.1467
 3838SOL     hw15351   2.819   4.523   5.882 -0.4080 -0.5777  0.9347
 3838SOL     vw15352   2.904   4.538   5.899 -0.3086 -0.1915  0.1397
 3839SOL     ow15353   1.445   0.247   1.010  0.1247  0.1506 -0.3551
 3839SOL     hw15354   1.472   0.251   0.919  0.9809  1.4319 -0.0671
 3839SOL     hw15355   1.470   0.332   1.047 -1.2953  0.1152  0.7800
 3839SOL     vw15356   1.452   0.259   1.003  0.0502  0.3150 -0.1674
 3840SOL     ow15357   6.176   0.567   3.883 -0.2286  0.2615  0.2049
 3840SOL     hw15358   6.180   0.495   3.946  0.4573  0.8658  0.8617
 3840SOL     hw15359   6.098   0.548   3.831 -0.0132 -1.0121  0.2987
 3840SOL     vw15360   6.166   0.555   3.884 -0.1097  0.1732  0.3040
 3841SOL     ow15361   2.161   7.048   7.436 -0.6453  0.3167 -0.0933
 3841SOL     hw15362   2.166   7.057   7.531 -1.9408 -2.6163  0.3533
 3841SOL     hw15363   2.087   7.103   7.410  0.5224  2.1725  0.3497
 3841SOL     vw15364   2.152   7.056   7.445 -0.6622  0.1745  0.0241
 3842SOL     ow15365   3.153   2.777   4.470 -0.1851 -0.6835  0.1157
 3842SOL     hw15366   3.145   2.785   4.565  0.2400  0.8133  0.0514
 3842SOL     hw15367   3.232   2.726   4.456  0.8456  0.7426  0.5686
 3842SOL     vw15368   3.162   2.772   4.481  0.0069 -0.2979  0.1671
 3843SOL     ow15369   3.915   0.842   2.473 -0.5837 -0.1758  0.1506
 3843SOL     hw15370   3.959   0.782   2.413  3.5042  0.5316  2.1070
 3843SOL     hw15371   3.940   0.929   2.443  1.0226  0.2075  2.3109
 3843SOL     vw15372   3.924   0.845   2.461  0.1675 -0.0319  0.6939
 3844SOL     ow15373   5.282   0.977   2.988 -0.8896 -0.0289 -0.2769
 3844SOL     hw15374   5.300   1.029   3.066 -1.3490 -1.4937  0.8343
 3844SOL     hw15375   5.196   0.939   3.003 -1.2695  0.1528 -1.7925
 3844SOL     vw15376   5.273   0.979   3.000 -1.0002 -0.1982 -0.3303
 3845SOL     ow15377   1.963   3.071   3.706 -0.0588 -0.3977  0.4058
 3845SOL     hw15378   1.990   3.137   3.642 -0.1962 -1.1737 -0.4733
 3845SOL     hw15379   1.868   3.076   3.707 -0.1373 -1.3380 -0.5159
 3845SOL     vw15380   1.954   3.080   3.698 -0.0873 -0.6242  0.1682
 3846SOL     ow15381   3.317   4.798   2.027  0.3272  0.6134  0.5726
 3846SOL     hw15382   3.387   4.863   2.018  0.5779  0.2624 -0.0784
 3846SOL     hw15383   3.240   4.850   2.050  0.8040  0.9996  1.3449
 3846SOL     vw15384   3.316   4.814   2.029  0.4233  0.6180  0.5888
 3847SOL     ow15385   4.376   5.695   3.647 -0.2638 -0.1647  0.2684
 3847SOL     hw15386   4.283   5.680   3.632 -0.1351 -0.2140 -0.4873
 3847SOL     hw15387   4.407   5.614   3.688 -0.3351 -0.5533 -0.4416
 3847SOL     vw15388   4.368   5.682   3.651 -0.2561 -0.2224  0.0751
 3848SOL     ow15389   7.276   5.948   4.696  0.0195  0.4780 -0.5146
 3848SOL     hw15390   7.206   5.906   4.646  0.9458 -1.2130 -0.5038
 3848SOL     hw15391   7.243   6.034   4.719 -1.4008  0.3319 -1.9051
 3848SOL     vw15392   7.263   5.954   4.692 -0.0455  0.2353 -0.6964
 3849SOL     ow15393   1.510   2.943   7.002  0.2536  0.4489  0.1600
 3849SOL     hw15394   1.479   2.866   6.954 -0.8523  0.0339  1.4730
 3849SOL     hw15395   1.606   2.937   6.997  0.1873  0.2587 -1.6761
 3849SOL     vw15396   1.519   2.932   6.995  0.0989  0.3692  0.0911
 3850SOL     ow15397   6.914   7.099   5.672 -0.4665 -0.5876 -0.4842
 3850SOL     hw15398   6.902   7.165   5.603  2.0799 -0.6930 -1.1431
 3850SOL     hw15399   6.936   7.149   5.750 -1.1989 -0.5625 -0.2883
 3850SOL     vw15400   6.916   7.114   5.673 -0.2275 -0.5982 -0.5450
 3851SOL     ow15401   3.765   1.209   0.860 -0.1353  0.3260  0.1441
 3851SOL     hw15402   3.741   1.241   0.946  0.8972  0.0308  0.5564
 3851SOL     hw15403   3.823   1.135   0.877 -0.3302 -0.0642 -0.8027
 3851SOL     vw15404   3.769   1.203   0.873 -0.0248  0.2356  0.0736
 3852SOL     ow15405   3.191   1.956   5.957 -0.4818 -0.3377 -0.0034
 3852SOL     hw15406   3.121   2.020   5.944  1.8369  2.1206 -1.1691
 3852SOL     hw15407   3.264   2.006   5.992  1.8669 -2.0276 -2.1034
 3852SOL     vw15408   3.191   1.971   5.960  0.1340 -0.2363 -0.4344
 3853SOL     ow15409   5.750   5.509   0.224 -0.5811  0.2854  0.3091
 3853SOL     hw15410   5.723   5.589   0.180 -2.6557  0.0334  0.9744
 3853SOL     hw15411   5.701   5.439   0.180  1.0912 -0.6474 -0.1851
 3853SOL     vw15412   5.740   5.510   0.213 -0.6340  0.1290  0.3317
 3854SOL     ow15413   1.336   4.541   7.306 -0.5489  0.0105  0.0650
 3854SOL     hw15414   1.376   4.470   7.357  0.0691 -1.1674 -1.9706
 3854SOL     hw15415   1.270   4.498   7.253 -1.0211  1.1746 -0.3122
 3854SOL     vw15416   1.333   4.526   7.306 -0.5296  0.0086 -0.2532
 3855SOL     ow15417   3.689   4.336   2.795 -0.0126  0.7086  0.2443
 3855SOL     hw15418   3.654   4.323   2.707 -1.6992  0.2066  0.9656
 3855SOL     hw15419   3.715   4.429   2.797 -2.5746  1.4897  0.0890
 3855SOL     vw15420   3.688   4.347   2.783 -0.5733  0.7453  0.3189
 3856SOL     ow15421   4.173   4.125   6.809 -0.0818  0.1138 -0.1943
 3856SOL     hw15422   4.200   4.159   6.894 -3.0936 -0.1896  1.0177
 3856SOL     hw15423   4.183   4.198   6.748  0.4859  0.8686  0.7901
 3856SOL     vw15424   4.178   4.139   6.812 -0.4041  0.1733  0.0954
 3857SOL     ow15425   7.531   4.105   2.702  0.3156  0.0983  0.4063
 3857SOL     hw15426   7.462   4.153   2.748  0.7216  0.8946  0.1982
 3857SOL     hw15427   7.512   4.118   2.609  0.9853  0.6943  0.3416
 3857SOL     vw15428   7.520   4.113   2.696  0.4575  0.2818  0.3701
 3858SOL     ow15429   1.304   1.855   1.593 -0.3385  0.9542  0.2559
 3858SOL     hw15430   1.214   1.826   1.606 -0.0821 -0.5908 -0.9971
 3858SOL     hw15431   1.354   1.806   1.658 -0.2593  0.7507  0.0466
 3858SOL     vw15432   1.299   1.844   1.603 -0.2941  0.7235  0.0630
 3859SOL     ow15433   0.756   5.823   6.819  0.3769 -0.3785  0.2855
 3859SOL     hw15434   0.807   5.767   6.761  3.4777  0.2849  2.1102
 3859SOL     hw15435   0.803   5.906   6.819 -1.0647  0.4860  1.6532
 3859SOL     vw15436   0.769   5.826   6.812  0.5957 -0.1769  0.7069
 3860SOL     ow15437   0.106   0.717   0.515  0.0864 -0.2171  0.0381
 3860SOL     hw15438   0.178   0.657   0.530  0.4699 -0.0819 -1.1420
 3860SOL     hw15439   0.126   0.758   0.430  0.0105  1.7958  0.9230
 3860SOL     vw15440   0.118   0.715   0.506  0.1270  0.0663 -0.0009
 3861SOL     ow15441   6.465   1.050   2.330 -0.0367 -0.2912 -0.0190
 3861SOL     hw15442   6.515   1.067   2.410  5.2302 -2.9408 -2.2453
 3861SOL     hw15443   6.455   1.136   2.290  2.2560  0.5125  0.9617
 3861SOL     vw15444   6.470   1.064   2.335  0.9608 -0.5347 -0.1833
 3862SOL     ow15445   0.122   7.031   3.944 -0.5849  0.1566  0.9388
 3862SOL     hw15446   0.200   7.055   3.994 -0.5044 -0.3478  1.0545
 3862SOL     hw15447   0.077   7.115   3.929 -0.4983  0.3405  1.6608
 3862SOL     vw15448   0.126   7.045   3.949 -0.5629  0.1147  1.0494
 3863SOL     ow15449   2.937   0.837   2.153 -0.1706 -0.7228  0.4902
 3863SOL     hw15450   2.927   0.758   2.205  0.4645 -0.5324  0.9145
 3863SOL     hw15451   2.868   0.832   2.087  1.4064 -2.9520 -1.1619
 3863SOL     vw15452   2.927   0.826   2.151  0.1212 -0.9918  0.3283
 3864SOL     ow15453   4.082   6.287   4.482 -0.0107  0.0773  0.3216
 3864SOL     hw15454   4.149   6.261   4.545  0.4793  1.2695  0.3288
 3864SOL     hw15455   4.113   6.253   4.398  0.6842  0.7309  0.3033
 3864SOL     vw15456   4.095   6.279   4.480  0.1459  0.3211  0.3202
 3865SOL     ow15457   6.220   0.069   4.020 -0.4080 -0.0699 -0.3415
 3865SOL     hw15458   6.130   0.060   4.052 -0.0797 -0.2246  0.5831
 3865SOL     hw15459   6.275   0.047   4.096  0.4094  1.0262 -0.5927
 3865SOL     vw15460   6.216   0.065   4.034 -0.2568  0.0543 -0.2527
 3866SOL     ow15461   5.537   5.996   7.313 -0.5716  0.1921 -0.0336
 3866SOL     hw15462   5.614   6.039   7.277 -0.0802 -1.3894 -0.9302
 3866SOL     hw15463   5.479   5.982   7.238 -2.0790  1.9565  0.7195
 3866SOL     vw15464   5.539   6.000   7.299 -0.7057  0.2165 -0.0525
 3867SOL     ow15465   6.288   5.076   0.629  0.3688 -0.0287 -0.2816
 3867SOL     hw15466   6.211   5.098   0.577  0.6658  0.8418 -0.3625
 3867SOL     hw15467   6.358   5.063   0.566  0.5792  0.4068 -0.1438
 3867SOL     vw15468   6.287   5.077   0.614  0.4358  0.1433 -0.2742
 3868SOL     ow15469   4.998   5.085   4.224  0.0628  0.2019  0.1805
 3868SOL     hw15470   5.045   5.153   4.177 -0.1640  1.1304  1.2389
 3868SOL     hw15471   5.061   5.050   4.286  0.4321 -1.1794 -0.9290
 3868SOL     vw15472   5.012   5.089   4.226  0.0815  0.1421  0.1738
 3869SOL     ow15473   2.431   7.075   2.853 -0.3330 -0.1379  0.4084
 3869SOL     hw15474   2.399   7.031   2.775  0.8561  1.1478 -0.8556
 3869SOL     hw15475   2.516   7.036   2.870  0.2389  0.8593 -0.0721
 3869SOL     vw15476   2.438   7.064   2.845 -0.1007  0.1636  0.1782
 3870SOL     ow15477   5.770   3.895   1.865  0.6064  0.4483  0.0756
 3870SOL     hw15478   5.710   3.938   1.926 -0.8199 -1.7558  0.3545
 3870SOL     hw15479   5.730   3.910   1.779  0.5806  0.4199  0.0826
 3870SOL     vw15480   5.757   3.903   1.862  0.4148  0.1537  0.1134
 3871SOL     ow15481   3.761   1.733   5.254  0.4301 -0.2716 -0.6486
 3871SOL     hw15482   3.795   1.801   5.312  1.2352 -1.1800 -0.0069
 3871SOL     hw15483   3.669   1.757   5.239  0.9530  1.4888 -1.2823
 3871SOL     vw15484   3.753   1.745   5.260  0.6055 -0.1592 -0.6475
 3872SOL     ow15485   6.508   0.945   6.427  0.8219  0.0743 -0.4138
 3872SOL     hw15486   6.556   0.995   6.361 -0.1594  2.4925  0.6264
 3872SOL     hw15487   6.416   0.959   6.405  0.4627 -2.7593 -1.1087
 3872SOL     vw15488   6.503   0.953   6.415  0.6449  0.0195 -0.3684
 3873SOL     ow15489   2.491   6.395   2.433  0.0039 -0.4914  0.0942
 3873SOL     hw15490   2.522   6.468   2.379 -2.9826  1.6397  1.0119
 3873SOL     hw15491   2.447   6.337   2.372 -0.8591  0.4415 -0.1999
 3873SOL     vw15492   2.490   6.397   2.418 -0.5040 -0.0873  0.1767
 3874SOL     ow15493   0.316   0.307   0.796 -0.3463  0.0008 -0.2393
 3874SOL     hw15494   0.339   0.319   0.704 -1.0059  1.1875 -0.2775
 3874SOL     hw15495   0.254   0.378   0.814 -2.8375 -2.1199  0.2217
 3874SOL     vw15496   0.311   0.318   0.786 -0.7620 -0.1224 -0.1835
 3875SOL     ow15497   4.383   1.065   2.995  0.6022 -0.6222  0.7343
 3875SOL     hw15498   4.290   1.087   2.993  0.8734  0.6677  1.5004
 3875SOL     hw15499   4.385   0.971   2.975 -1.0815 -1.3133  3.3163
 3875SOL     vw15500   4.371   1.055   2.992  0.4158 -0.5432  1.1761
 3876SOL     ow15501   1.329   5.921   1.113 -0.2193 -0.1722  0.2326
 3876SOL     hw15502   1.393   5.989   1.091  0.8062 -1.1961 -0.0764
 3876SOL     hw15503   1.289   5.898   1.029 -2.6622  1.9903  0.6849
 3876SOL     vw15504   1.332   5.927   1.099 -0.4063 -0.0222  0.2516
 3877SOL     ow15505   5.438   7.022   7.312 -0.2237  0.2109 -0.5253
 3877SOL     hw15506   5.370   6.981   7.366  0.3293 -0.9988 -0.7100
 3877SOL     hw15507   5.390   7.065   7.241 -0.8033 -0.9148 -0.8462
 3877SOL     vw15508   5.422   7.022   7.310 -0.2270 -0.0970 -0.5920
 3878SOL     ow15509   4.485   4.103   5.167  0.8502 -0.5131  0.3300
 3878SOL     hw15510   4.400   4.116   5.207  1.2466 -0.3529  1.1381
 3878SOL     hw15511   4.526   4.190   5.168  0.1634 -0.0546 -2.1631
 3878SOL     vw15512   4.479   4.116   5.172  0.8121 -0.4313  0.1078
 3879SOL     ow15513   0.459   1.509   7.187 -0.6451  0.2952  0.2521
 3879SOL     hw15514   0.373   1.495   7.148 -0.9294 -1.4599  1.4040
 3879SOL     hw15515   0.481   1.425   7.226  1.0153  1.1009  1.1235
 3879SOL     vw15516   0.450   1.496   7.187 -0.4635  0.1699  0.5190
 3880SOL     ow15517   0.025   6.904   3.212  0.7267  0.5362  0.5395
 3880SOL     hw15518   0.081   6.835   3.178 -1.0438 -0.1201 -1.2441
 3880SOL     hw15519   0.083   6.978   3.228  2.3101 -0.6237  0.3598
 3880SOL     vw15520   0.040   6.905   3.210  0.7020  0.2966  0.2804
 3881SOL     ow15521   6.473   2.162   4.614  0.1434 -0.3793 -0.2003
 3881SOL     hw15522   6.481   2.253   4.584  0.7788 -0.8635 -1.6198
 3881SOL     hw15523   6.380   2.152   4.633 -0.2304  0.1556 -1.5552
 3881SOL     vw15524   6.462   2.173   4.612  0.1779 -0.3726 -0.5662
 3882SOL     ow15525   0.145   3.456   4.262  0.3534  0.6011 -0.6325
 3882SOL     hw15526   0.235   3.429   4.282  0.9689  0.6063 -3.1523
 3882SOL     hw15527   0.134   3.537   4.313  1.7922  0.6564 -0.3342
 3882SOL     vw15528   0.156   3.463   4.272  0.6245  0.6090 -0.9255
 3883SOL     ow15529   0.259   6.498   6.741 -0.1172 -0.3020  0.2646
 3883SOL     hw15530   0.307   6.522   6.662 -0.7372  0.6076  0.1424
 3883SOL     hw15531   0.208   6.421   6.716 -1.1555  0.6190 -0.5857
 3883SOL     vw15532   0.258   6.491   6.727 -0.3360 -0.0606  0.1364
 3884SOL     ow15533   3.754   4.590   2.820 -0.1195  0.0922 -0.2052
 3884SOL     hw15534   3.813   4.629   2.755 -0.0024 -0.7954 -0.6417
 3884SOL     hw15535   3.795   4.609   2.904  0.3444  0.2293 -0.4594
 3884SOL     vw15536   3.767   4.598   2.823 -0.0429 -0.0067 -0.2965
 3885SOL     ow15537   0.975   2.925   6.903 -0.8340 -0.1461  0.7703
 3885SOL     hw15538   1.033   2.977   6.848 -0.6283  0.2775  1.3779
 3885SOL     hw15539   1.025   2.845   6.921 -1.4780 -0.9681 -0.8588
 3885SOL     vw15540   0.989   2.922   6.898 -0.8918 -0.1987  0.6359
 3886SOL     ow15541   2.842   5.894   5.305  0.1355  0.0605  0.3038
 3886SOL     hw15542   2.804   5.846   5.231 -0.8535 -0.4941  1.1438
 3886SOL     hw15543   2.914   5.838   5.335 -0.1137 -0.2123  0.3991
 3886SOL     vw15544   2.846   5.880   5.299 -0.0278 -0.0486  0.4272
 3887SOL     ow15545   2.467   2.379   6.161 -0.0469  0.1828  0.8766
 3887SOL     hw15546   2.385   2.329   6.155 -0.2475  0.6212 -0.2315
 3887SOL     hw15547   2.472   2.427   6.078  1.7579 -0.5054  0.5359
 3887SOL     vw15548   2.456   2.378   6.149  0.1646  0.1497  0.6857
 3888SOL     ow15549   5.218   4.845   1.267  0.4588 -0.5146  0.1612
 3888SOL     hw15550   5.164   4.891   1.203  0.5506  0.7070  0.9269
 3888SOL     hw15551   5.302   4.833   1.225  0.5233  0.2922  0.0483
 3888SOL     vw15552   5.222   4.849   1.253  0.4795 -0.2470  0.2473
 3889SOL     ow15553   5.076   3.361   4.953  0.0384 -1.0222 -0.4484
 3889SOL     hw15554   5.088   3.455   4.961  0.2613 -1.0571 -0.3685
 3889SOL     hw15555   5.057   3.347   4.860  0.1599 -0.9152 -0.4900
 3889SOL     vw15556   5.075   3.371   4.941  0.0837 -1.0127 -0.4435
 3890SOL     ow15557   1.203   1.348   1.373 -0.0723  0.3119  0.4828
 3890SOL     hw15558   1.288   1.392   1.364  0.0677  0.1178  0.8513
 3890SOL     hw15559   1.148   1.389   1.307  0.4119  0.1934 -0.0007
 3890SOL     vw15560   1.207   1.359   1.363  0.0101  0.2707  0.4677
 3891SOL     ow15561   0.879   6.648   4.390 -0.0293  0.4544 -0.3679
 3891SOL     hw15562   0.786   6.625   4.388 -0.4142  1.9273 -0.7286
 3891SOL     hw15563   0.925   6.566   4.371 -1.1744 -0.6253  1.2860
 3891SOL     vw15564   0.873   6.634   4.387 -0.2311  0.5062 -0.1976
 3892SOL     ow15565   5.273   4.534   2.302  0.8746  0.1623 -0.4510
 3892SOL     hw15566   5.232   4.573   2.380 -1.6968  0.4473 -1.8206
 3892SOL     hw15567   5.249   4.441   2.307  1.5358 -0.0145 -0.4472
 3892SOL     vw15568   5.264   4.527   2.313  0.6225  0.1767 -0.6312
 3893SOL     ow15569   2.743   5.515   7.017 -0.0866 -0.0887  0.2524
 3893SOL     hw15570   2.700   5.579   6.961 -1.0580 -1.0357 -0.1148
 3893SOL     hw15571   2.678   5.445   7.028  0.2039 -0.1018  2.2719
 3893SOL     vw15572   2.729   5.514   7.011 -0.1764 -0.2155  0.4706
 3894SOL     ow15573   6.840   1.725   1.557  0.0723 -0.1749  0.4666
 3894SOL     hw15574   6.822   1.698   1.647 -1.0467 -0.0935  0.2853
 3894SOL     hw15575   6.919   1.779   1.563  2.8931 -3.9395  0.7768
 3894SOL     vw15576   6.848   1.729   1.570  0.2971 -0.6608  0.4836
 3895SOL     ow15577   3.223   5.663   6.595 -0.1849 -0.2411 -0.4322
 3895SOL     hw15578   3.212   5.694   6.685  0.4439 -0.4722 -0.2688
 3895SOL     hw15579   3.146   5.609   6.579  0.2789 -1.1809  0.3920
 3895SOL     vw15580   3.212   5.660   6.605 -0.0408 -0.3955 -0.3018
 3896SOL     ow15581   4.941   2.449   6.301  0.4174  0.1836  0.0598
 3896SOL     hw15582   5.005   2.380   6.317  0.2039  0.0756  0.4626
 3896SOL     hw15583   4.919   2.482   6.388 -0.1054  0.1877 -0.0699
 3896SOL     vw15584   4.946   2.444   6.314  0.3202  0.1700  0.0958
 3897SOL     ow15585   1.913   1.132   5.039 -0.8580 -0.0764  0.1245
 3897SOL     hw15586   1.830   1.163   5.074 -0.9656 -0.9584  0.6946
 3897SOL     hw15587   1.934   1.055   5.092  0.8505  0.7149  0.6742
 3897SOL     vw15588   1.904   1.126   5.050 -0.6468 -0.0884  0.2723
 3898SOL     ow15589   5.315   3.257   4.682 -0.5544  0.1962  0.1033
 3898SOL     hw15590   5.401   3.276   4.719 -0.6449  2.1112 -0.5549
 3898SOL     hw15591   5.333   3.198   4.609  0.1338  0.1257  0.3208
 3898SOL     vw15592   5.329   3.251   4.678 -0.4759  0.4395  0.0453
 3899SOL     ow15593   4.939   6.403   1.149 -1.0844 -0.4809  0.1078
 3899SOL     hw15594   4.863   6.359   1.111  0.1135 -0.8716 -2.0003
 3899SOL     hw15595   5.014   6.365   1.103  0.0877  2.9966 -1.1859
 3899SOL     vw15596   4.939   6.392   1.138 -0.7715 -0.0739 -0.3411
 3900SOL     ow15597   5.418   6.443   4.907  0.5985  0.2714 -0.4215
 3900SOL     hw15598   5.412   6.358   4.951 -1.0359 -0.1761 -1.4175
 3900SOL     hw15599   5.412   6.507   4.977 -0.4379 -0.4408  0.1732
 3900SOL     vw15600   5.416   6.440   4.922  0.2460  0.1185 -0.4742
 3901SOL     ow15601   6.657   0.422   6.042  0.0103  0.1380  0.1710
 3901SOL     hw15602   6.736   0.380   6.075  1.0879  1.1917 -0.9573
 3901SOL     hw15603   6.686   0.508   6.013 -1.5295  0.4894 -0.4291
 3901SOL     vw15604   6.671   0.428   6.043 -0.0505  0.3234 -0.0572
 3902SOL     ow15605   3.325   1.508   0.740  0.4281  0.6471  0.2326
 3902SOL     hw15606   3.295   1.429   0.696  1.6530  0.8067 -0.9563
 3902SOL     hw15607   3.285   1.504   0.827 -0.2337 -0.8195 -0.1115
 3902SOL     vw15608   3.316   1.497   0.746  0.5023  0.4746  0.0303
 3903SOL     ow15609   0.394   5.158   6.188 -0.1770 -0.3929 -0.4404
 3903SOL     hw15610   0.341   5.185   6.263  0.2792  0.2399 -0.3426
 3903SOL     hw15611   0.460   5.100   6.225  0.7735  0.8381 -0.1528
 3903SOL     vw15612   0.396   5.154   6.203  0.0086 -0.1469 -0.3896
 3904SOL     ow15613   2.136   1.313   3.947  0.7450  0.2392  0.7641
 3904SOL     hw15614   2.131   1.235   4.002  0.7303  0.3683  0.9505
 3904SOL     hw15615   2.211   1.298   3.890 -0.6410 -0.9391 -0.8258
 3904SOL     vw15616   2.145   1.301   3.947  0.5602  0.1007  0.5791
 3905SOL     ow15617   4.036   3.149   2.656  0.2537  0.8320 -0.3069
 3905SOL     hw15618   4.121   3.140   2.699 -1.0335 -0.3485  2.2856
 3905SOL     hw15619   4.021   3.243   2.653  1.1560  1.0170  0.3136
 3905SOL     vw15620   4.045   3.160   2.661  0.2029  0.7006  0.1168
 3906SOL     ow15621   2.193   2.031   3.767 -0.7599  0.6338 -0.1365
 3906SOL     hw15622   2.145   1.996   3.692  0.4625  2.2885 -1.7938
 3906SOL     hw15623   2.130   2.031   3.839 -2.6380  0.9282 -1.7111
 3906SOL     vw15624   2.178   2.026   3.767 -0.8465  0.8910 -0.5628
 3907SOL     ow15625   3.254   7.529   0.198  0.5289  0.5935  0.1468
 3907SOL     hw15626   3.237   7.437   0.179  2.3229  0.7368 -3.0148
 3907SOL     hw15627   3.332   7.528   0.254  1.3887  0.1418 -1.0142
 3907SOL     vw15628   3.262   7.517   0.203  0.8790  0.5527 -0.4235
 3908SOL     ow15629   7.000   2.891   0.979 -0.4366  0.5112 -0.2198
 3908SOL     hw15630   7.010   2.910   0.886  0.6295 -0.0919 -0.2419
 3908SOL     hw15631   7.089   2.888   1.013 -0.8413  2.1112  1.1295
 3908SOL     vw15632   7.013   2.893   0.971 -0.3493  0.6429 -0.0447
 3909SOL     ow15633   0.528   4.278   3.128 -0.1092 -0.6492  0.2715
 3909SOL     hw15634   0.469   4.338   3.083  0.9096 -1.1405 -1.8166
 3909SOL     hw15635   0.542   4.319   3.214 -0.8570  1.1439 -0.4119
 3909SOL     vw15636   0.522   4.291   3.133 -0.0734 -0.4776 -0.0942
 3910SOL     ow15637   7.081   3.247   7.102  0.4346 -0.7420 -0.1065
 3910SOL     hw15638   7.111   3.173   7.050  1.2112  0.0902 -0.8964
 3910SOL     hw15639   7.153   3.264   7.163  1.5387  1.0142 -1.7424
 3910SOL     vw15640   7.095   3.240   7.103  0.6828 -0.4005 -0.4263
 3911SOL     ow15641   2.952   5.654   0.926 -0.1169 -0.0943  0.3053
 3911SOL     hw15642   2.925   5.563   0.941  0.3925 -0.3406 -0.2221
 3911SOL     hw15643   3.044   5.656   0.950  0.0492  0.1167 -0.3200
 3911SOL     vw15644   2.960   5.642   0.931 -0.0279 -0.0989  0.1532
 3912SOL     ow15645   0.954   1.380   7.030  0.3929  0.2078 -0.3981
 3912SOL     hw15646   1.036   1.420   7.003  0.7030  0.4145  0.8066
 3912SOL     hw15647   0.927   1.428   7.108  0.2420 -1.2244  0.4788
 3912SOL     vw15648   0.961   1.391   7.037  0.4140  0.0462 -0.1235
 3913SOL     ow15649   0.851   4.643   4.573 -0.0252 -0.1374  0.2704
 3913SOL     hw15650   0.841   4.561   4.526 -0.5606 -0.2680  0.5998
 3913SOL     hw15651   0.763   4.664   4.603  0.3769 -0.3267  1.6538
 3913SOL     vw15652   0.838   4.635   4.571 -0.0428 -0.1798  0.4964
 3914SOL     ow15653   7.388   0.915   5.276  0.1550  0.0960  0.0176
 3914SOL     hw15654   7.414   0.990   5.223  0.8425 -0.6939 -0.7926
 3914SOL     hw15655   7.464   0.896   5.330 -0.1432  0.1825  0.4809
 3914SOL     vw15656   7.401   0.922   5.276  0.2060  0.0032 -0.0281
 3915SOL     ow15657   4.499   4.388   7.182 -0.0699 -0.3152  0.8217
 3915SOL     hw15658   4.477   4.337   7.260  0.5240 -2.0291 -0.0859
 3915SOL     hw15659   4.590   4.366   7.163  0.2957  1.3126  0.5270
 3915SOL     vw15660   4.508   4.378   7.190  0.0567 -0.3269  0.6630
 3916SOL     ow15661   3.103   6.853   6.869  0.9674  0.1990  0.2227
 3916SOL     hw15662   3.187   6.892   6.891  0.5304  0.2629  1.8694
 3916SOL     hw15663   3.110   6.762   6.898  0.7436 -0.0266 -0.3976
 3916SOL     vw15664   3.115   6.846   6.875  0.8802  0.1776  0.3581
 3917SOL     ow15665   2.878   3.182   0.021 -0.4442 -0.0088  1.0010
 3917SOL     hw15666   2.868   3.144   0.109  1.7869 -1.2073  0.8003
 3917SOL     hw15667   2.936   3.256   0.034  0.1230 -0.3621  0.5130
 3917SOL     vw15668   2.884   3.187   0.034 -0.0751 -0.2136  0.9103
 3918SOL     ow15669   6.916   6.912   0.785  0.3407 -0.7280 -0.1385
 3918SOL     hw15670   6.934   6.965   0.863 -1.7402 -0.1168 -0.0170
 3918SOL     hw15671   7.002   6.888   0.753  1.3182  0.8995  1.0698
 3918SOL     vw15672   6.930   6.916   0.791  0.1953 -0.4325  0.0370
 3919SOL     ow15673   5.964   4.405   2.081 -0.0573  0.7703 -0.1479
 3919SOL     hw15674   6.031   4.363   2.135  0.5806  2.8149  0.7323
 3919SOL     hw15675   5.994   4.391   1.991 -1.3142 -2.9864 -0.1475
 3919SOL     vw15676   5.977   4.397   2.076 -0.1388  0.5445 -0.0317
 3920SOL     ow15677   5.157   7.167   5.121  0.2514 -0.2849 -0.4739
 3920SOL     hw15678   5.180   7.113   5.196  0.6193  0.0404 -0.3476
 3920SOL     hw15679   5.135   7.105   5.052 -0.1905 -0.5845 -0.0674
 3920SOL     vw15680   5.157   7.152   5.122  0.2415 -0.2816 -0.4034
 3921SOL     ow15681   2.078   0.245   5.568 -0.0156  0.1899  0.2013
 3921SOL     hw15682   2.141   0.256   5.497 -0.5196 -0.6704 -0.4072
 3921SOL     hw15683   2.062   0.334   5.600  0.3619  0.5795 -0.6415
 3921SOL     vw15684   2.084   0.258   5.563 -0.0324  0.1277  0.0100
 3922SOL     ow15685   6.875   2.519   6.134 -0.1068  0.0948 -0.5541
 3922SOL     hw15686   6.797   2.463   6.134  0.7028 -1.0468 -0.6926
 3922SOL     hw15687   6.933   2.480   6.070  0.6960  0.7983 -0.2707
 3922SOL     vw15688   6.872   2.506   6.126  0.1061  0.0368 -0.5350
 3923SOL     ow15689   0.796   7.458   1.082  0.3725  0.4822  0.1213
 3923SOL     hw15690   0.842   7.414   1.154 -0.6142  0.2545  0.6313
 3923SOL     hw15691   0.844   7.432   1.004  0.9017 -0.0253  0.6048
 3923SOL     vw15692   0.808   7.449   1.082  0.3121  0.3850  0.2524
 3924SOL     ow15693   6.492   2.884   0.626 -0.5491 -0.9052 -0.2602
 3924SOL     hw15694   6.541   2.916   0.550 -2.5541  0.1331 -1.2029
 3924SOL     hw15695   6.484   2.790   0.611 -0.0912 -0.8599 -0.8248
 3924SOL     vw15696   6.498   2.876   0.614 -0.7534 -0.7622 -0.4590
 3925SOL     ow15697   4.670   3.834   1.753 -0.1792  0.2991 -0.6614
 3925SOL     hw15698   4.758   3.803   1.775  0.0743  1.4397  0.0516
 3925SOL     hw15699   4.616   3.805   1.826 -0.2743  0.0922 -0.8152
 3925SOL     vw15700   4.675   3.826   1.766 -0.1583  0.4224 -0.5877
 3926SOL     ow15701   5.014   7.413   0.240 -0.1076 -0.2209 -0.1048
 3926SOL     hw15702   5.062   7.429   0.321 -1.3194  0.3173  0.5334
 3926SOL     hw15703   4.937   7.469   0.246 -1.6469 -2.1816 -0.3411
 3926SOL     vw15704   5.010   7.422   0.252 -0.4704 -0.4084 -0.0518
 3927SOL     ow15705   5.907   5.303   2.302 -0.5280  0.0997  0.2683
 3927SOL     hw15706   5.934   5.314   2.211  2.6085  2.1973  1.2780
 3927SOL     hw15707   5.812   5.303   2.299 -0.5929 -1.7513 -3.1161
 3927SOL     vw15708   5.898   5.304   2.290 -0.1225  0.1323 -0.0451
 3928SOL     ow15709   5.218   7.384   6.971 -0.8570  0.2423 -0.2371
 3928SOL     hw15710   5.301   7.416   6.936 -0.2602 -0.8413  0.1310
 3928SOL     hw15711   5.167   7.359   6.894 -1.2542  1.7964 -0.5231
 3928SOL     vw15712   5.222   7.385   6.957 -0.8307  0.3045 -0.2263
 3929SOL     ow15713   0.551   4.656   3.440 -0.5762 -0.1058 -0.2271
 3929SOL     hw15714   0.643   4.633   3.452 -0.6830 -0.3957  0.0607
 3929SOL     hw15715   0.504   4.600   3.503 -0.8955  0.4651  0.0498
 3929SOL     vw15716   0.557   4.645   3.450 -0.6324 -0.0687 -0.1525
 3930SOL     ow15717   6.590   0.780   6.628  0.3427  0.2379 -0.0881
 3930SOL     hw15718   6.569   0.858   6.578  2.4956  0.8681 -0.0896
 3930SOL     hw15719   6.607   0.713   6.562  0.9649  0.4579 -0.1538
 3930SOL     vw15720   6.589   0.781   6.613  0.7088  0.3501 -0.0968
 3931SOL     ow15721   6.656   4.881   1.763  0.6417 -0.3002 -0.6534
 3931SOL     hw15722   6.680   4.912   1.850  0.9026  1.7743 -1.4035
 3931SOL     hw15723   6.563   4.902   1.755  0.5449 -0.7723 -0.7500
 3931SOL     vw15724   6.647   4.888   1.773  0.6633 -0.0889 -0.7651
 3932SOL     ow15725   6.619   6.464   0.019 -0.6648 -0.0488 -0.8737
 3932SOL     hw15726   6.666   6.409  -0.044  0.8336  0.8695 -0.6002
 3932SOL     hw15727   6.560   6.404   0.064  0.8861 -1.4549 -0.6125
 3932SOL     vw15728   6.617   6.449   0.017 -0.2623 -0.1132 -0.8032
 3933SOL     ow15729   0.066   4.951   1.863  0.5545 -0.2682 -0.0907
 3933SOL     hw15730  -0.011   4.934   1.917  0.5367 -1.2919 -0.4289
 3933SOL     hw15731   0.111   5.022   1.908  0.1906 -0.6528  0.8986
 3933SOL     vw15732   0.061   4.958   1.876  0.5041 -0.4537 -0.0049
 3934SOL     ow15733   1.342   4.766   2.828 -0.1958 -0.1132  0.3593
 3934SOL     hw15734   1.298   4.836   2.876 -0.3442  2.1961 -2.8258
 3934SOL     hw15735   1.435   4.783   2.842 -0.2409  0.0262  0.4942
 3934SOL     vw15736   1.349   4.778   2.836 -0.2214  0.2098 -0.0429
 3935SOL     ow15737   5.216   4.306   6.871  0.3916  0.3339  0.2843
 3935SOL     hw15738   5.260   4.250   6.936  1.2625  0.9869  0.2825
 3935SOL     hw15739   5.191   4.246   6.801  2.4173  0.0757 -0.3001
 3935SOL     vw15740   5.219   4.291   6.870  0.7737  0.3860  0.2067
 3936SOL     ow15741   3.715   5.262   6.934 -0.2978  1.0116 -0.1999
 3936SOL     hw15742   3.679   5.217   7.010 -3.0673 -0.0994 -2.0025
 3936SOL     hw15743   3.754   5.193   6.881 -0.5085  1.4125 -0.8860
 3936SOL     vw15744   3.715   5.247   6.937 -0.6909  0.9179 -0.5283
 3937SOL     ow15745   0.416   7.273   5.586  0.3626 -0.1661 -0.4992
 3937SOL     hw15746   0.322   7.285   5.572  0.7033  0.2600 -2.9216
 3937SOL     hw15747   0.432   7.180   5.569  0.4848 -0.0560 -1.0218
 3937SOL     vw15748   0.406   7.263   5.582  0.4237 -0.0954 -0.8876
 3938SOL     ow15749   2.179   0.278   2.779 -0.0515 -0.1482 -0.0506
 3938SOL     hw15750   2.146   0.196   2.743 -1.7834  0.3662  0.2475
 3938SOL     hw15751   2.100   0.332   2.791  1.0315  1.5550 -0.2314
 3938SOL     vw15752   2.164   0.275   2.776 -0.1372  0.1444 -0.0352
 3939SOL     ow15753   6.137   6.785   6.946  1.1806  0.1729  0.4378
 3939SOL     hw15754   6.193   6.725   6.994 -1.3444 -2.4601  0.3374
 3939SOL     hw15755   6.123   6.743   6.861  0.5160  1.6670 -0.2389
 3939SOL     vw15756   6.143   6.772   6.941  0.7598  0.0229  0.3352
 3940SOL     ow15757   7.240   4.633   4.106  0.3173  0.1492  0.9930
 3940SOL     hw15758   7.226   4.630   4.200  0.7491  0.4878  1.0703
 3940SOL     hw15759   7.298   4.707   4.092  0.3496  0.0347  0.4702
 3940SOL     vw15760   7.245   4.642   4.116  0.3784  0.1786  0.9344
 3941SOL     ow15761   0.156   5.225   5.470 -0.3039 -0.1389  0.8326
 3941SOL     hw15762   0.213   5.264   5.404  0.8634  2.1370  3.0260
 3941SOL     hw15763   0.076   5.277   5.467  0.0675  0.5102  1.6982
 3941SOL     vw15764   0.153   5.237   5.461 -0.1009  0.2470  1.2364
 3942SOL     ow15765   0.915   5.159   1.862  0.2110  0.0959  0.0404
 3942SOL     hw15766   0.958   5.210   1.931  0.2331 -0.6572  0.5887
 3942SOL     hw15767   0.821   5.174   1.876  0.2245  0.1758  0.0477
 3942SOL     vw15768   0.908   5.168   1.873  0.2158  0.0072  0.1137
 3943SOL     ow15769   4.660   1.498   2.847 -0.4781  0.7017 -0.1390
 3943SOL     hw15770   4.754   1.494   2.861 -0.7368  1.1564  2.1171
 3943SOL     hw15771   4.649   1.559   2.774  0.9936 -0.3694 -1.3212
 3943SOL     vw15772   4.671   1.506   2.839 -0.3181  0.6204  0.0027
 3944SOL     ow15773   4.141   1.897   1.965  0.6834  0.3993  0.4582
 3944SOL     hw15774   4.217   1.857   1.924  0.7628  0.8014  0.2069
 3944SOL     hw15775   4.079   1.824   1.976  0.4495  0.3722 -0.8661
 3944SOL     vw15776   4.143   1.882   1.961  0.6633  0.4488  0.2504
 3945SOL     ow15777   5.321   4.335   3.386  0.1728 -0.1798 -0.1977
 3945SOL     hw15778   5.410   4.322   3.354 -0.0227  2.2247 -1.9386
 3945SOL     hw15779   5.332   4.368   3.475  0.9433 -0.8663 -0.0205
 3945SOL     vw15780   5.334   4.337   3.393  0.2484  0.0470 -0.4041
 3946SOL     ow15781   3.468   2.855   2.175 -0.3401  0.1322  0.6028
 3946SOL     hw15782   3.482   2.887   2.085 -2.1921 -0.7254 -0.0424
 3946SOL     hw15783   3.470   2.760   2.167  0.7561  0.0310  1.7400
 3946SOL     vw15784   3.470   2.847   2.162 -0.4396  0.0058  0.6678
 3947SOL     ow15785   5.209   1.553   7.048 -0.2480 -0.1622  0.0716
 3947SOL     hw15786   5.275   1.537   7.115 -1.6604  1.2876  1.9244
 3947SOL     hw15787   5.240   1.631   7.002  1.2412 -1.7404 -1.7597
 3947SOL     vw15788   5.222   1.561   7.051 -0.2379 -0.1792  0.0746
 3948SOL     ow15789   5.238   4.819   6.807  0.2862  0.0340  0.3059
 3948SOL     hw15790   5.180   4.860   6.742 -0.4558 -0.0580  0.8861
 3948SOL     hw15791   5.322   4.862   6.795 -0.0771  0.6488 -0.1241
 3948SOL     vw15792   5.241   4.830   6.797  0.1404  0.1032  0.3259
 3949SOL     ow15793   0.088   4.497   2.917  0.2001  0.3893  0.1795
 3949SOL     hw15794  -0.001   4.533   2.912  0.0711  0.3455  1.7734
 3949SOL     hw15795   0.120   4.502   2.827 -2.1538 -1.5275 -0.8793
 3949SOL     vw15796   0.080   4.503   2.904 -0.1275  0.1304  0.2501
 3950SOL     ow15797   5.235   6.922   3.711 -0.2808  1.2587 -0.0188
 3950SOL     hw15798   5.144   6.915   3.680 -0.0305 -1.8934 -0.3723
 3950SOL     hw15799   5.275   6.987   3.653 -1.3410 -0.2061 -2.5736
 3950SOL     vw15800   5.228   6.930   3.699 -0.3877  0.6495 -0.4025
 3951SOL     ow15801   7.287   4.552   3.820  0.3088  0.0850  0.3215
 3951SOL     hw15802   7.308   4.643   3.797  0.6725 -0.0663  0.0402
 3951SOL     hw15803   7.298   4.503   3.739  0.1872 -0.2247  0.4884
 3951SOL     vw15804   7.292   4.558   3.807  0.3409  0.0238  0.3062
 3952SOL     ow15805   4.534   0.639   4.296 -0.1842  0.2820 -0.9105
 3952SOL     hw15806   4.478   0.596   4.232  0.3430 -1.4704 -0.2692
 3952SOL     hw15807   4.622   0.604   4.278 -0.1128 -0.7149  1.0863
 3952SOL     vw15808   4.538   0.628   4.285 -0.1054 -0.0808 -0.5624
 3953SOL     ow15809   2.042   2.090   5.756  0.2919  0.1644  0.4964
 3953SOL     hw15810   1.996   2.157   5.705  1.0420  0.2351 -0.1170
 3953SOL     hw15811   2.037   2.011   5.703  1.4399  0.3427  0.0892
 3953SOL     vw15812   2.036   2.089   5.742  0.5424  0.1972  0.3619
 3954SOL     ow15813   4.218   4.588   4.538  0.6085  0.3127  0.3239
 3954SOL     hw15814   4.192   4.640   4.462  1.7400  0.5301  0.0728
 3954SOL     hw15815   4.204   4.646   4.613  1.0624  0.6768  0.1266
 3954SOL     vw15816   4.213   4.603   4.538  0.8175  0.3893  0.2644
 3955SOL     ow15817   0.556   5.007   0.385 -0.2848  0.0183  0.1536
 3955SOL     hw15818   0.532   5.063   0.458  0.3632 -0.0180  0.3934
 3955SOL     hw15819   0.632   4.957   0.415  1.0948  1.2548 -1.1211
 3955SOL     vw15820   0.563   5.008   0.398 -0.0173  0.1767  0.0171
 3956SOL     ow15821   7.181   4.120   1.762 -0.5707 -0.5176 -0.4558
 3956SOL     hw15822   7.252   4.064   1.791 -0.9995 -1.1150 -0.5396
 3956SOL     hw15823   7.112   4.109   1.828  0.1325  1.5865  0.7283
 3956SOL     vw15824   7.181   4.111   1.775 -0.5345 -0.3190 -0.3107
 3957SOL     ow15825   4.391   6.436   6.090 -0.3334  0.0546  0.1424
 3957SOL     hw15826   4.397   6.529   6.113 -0.7094 -0.0858  0.8357
 3957SOL     hw15827   4.299   6.413   6.106  0.2685 -1.0532  2.5063
 3957SOL     vw15828   4.380   6.445   6.095 -0.3035 -0.1104  0.5460
 3958SOL     ow15829   6.004   5.970   0.849 -0.4118 -0.0541 -0.5820
 3958SOL     hw15830   6.021   5.905   0.918 -2.4701  1.0076  1.0654
 3958SOL     hw15831   5.909   5.970   0.840 -0.3672  1.8151 -1.4561
 3958SOL     vw15832   5.994   5.961   0.857 -0.6773  0.3331 -0.4800
 3959SOL     ow15833   4.053   0.408   6.778  0.9366 -0.1525  0.0767
 3959SOL     hw15834   4.109   0.340   6.742  0.9323  0.4828 -1.1920
 3959SOL     hw15835   3.968   0.364   6.792  0.9347 -0.4111 -0.7203
 3959SOL     vw15836   4.049   0.393   6.775  0.9358 -0.1028 -0.1960
 3960SOL     ow15837   6.065   0.281   2.659 -0.2770 -0.1141  0.7713
 3960SOL     hw15838   6.117   0.315   2.732  0.6729 -0.5088  0.2963
 3960SOL     hw15839   6.035   0.195   2.689  0.7009 -0.5846  0.4530
 3960SOL     vw15840   6.068   0.274   2.672 -0.0224 -0.2282  0.6665
 3961SOL     ow15841   6.768   2.050   1.810  0.2377 -0.6543 -0.0224
 3961SOL     hw15842   6.703   2.118   1.829  0.6693  0.3093 -1.7655
 3961SOL     hw15843   6.766   2.041   1.715  1.9603 -1.2954 -0.0339
 3961SOL     vw15844   6.760   2.058   1.800  0.5221 -0.6117 -0.2539
 3962SOL     ow15845   2.564   2.494   6.409 -0.2886  0.5347 -0.6756
 3962SOL     hw15846   2.627   2.549   6.363  0.8779 -0.1025  0.1224
 3962SOL     hw15847   2.523   2.442   6.340  2.4954 -1.5054 -0.9593
 3962SOL     vw15848   2.567   2.494   6.394  0.2326  0.1814 -0.6075
 3963SOL     ow15849   7.250   0.904   0.731  0.4538  0.6582 -0.3089
 3963SOL     hw15850   7.297   0.861   0.660  1.0454 -0.3035  0.6341
 3963SOL     hw15851   7.291   0.990   0.739  1.0227  0.4080 -0.5079
 3963SOL     vw15852   7.262   0.910   0.723  0.6070  0.4983 -0.2108
 3964SOL     ow15853   1.308   1.996   1.358 -0.3401  0.4390 -0.3925
 3964SOL     hw15854   1.287   1.921   1.301  0.0444  0.2211 -0.2471
 3964SOL     hw15855   1.297   1.962   1.447  0.0540  0.4936 -0.3241
 3964SOL     vw15856   1.304   1.982   1.362 -0.2374  0.4175 -0.3644
 3965SOL     ow15857   5.590   4.520   0.939  0.0277 -0.9446  0.2689
 3965SOL     hw15858   5.555   4.457   0.876  0.2247 -1.4889  0.6956
 3965SOL     hw15859   5.626   4.590   0.886 -3.0740  0.4449 -0.2113
 3965SOL     vw15860   5.590   4.521   0.924 -0.3552 -0.8333  0.2618
 3966SOL     ow15861   6.328   6.601   4.639  0.2253  0.2133 -0.4495
 3966SOL     hw15862   6.321   6.507   4.626  0.4582  0.4349 -2.4513
 3966SOL     hw15863   6.393   6.630   4.575  0.1058  1.7403  0.0767
 3966SOL     vw15864   6.335   6.593   4.629  0.2401  0.4439 -0.6440
 3967SOL     ow15865   2.346   4.916   5.031  0.1849  0.0520  0.4072
 3967SOL     hw15866   2.282   4.987   5.033 -2.3023 -1.9896 -0.8305
 3967SOL     hw15867   2.416   4.948   4.975 -0.9479  1.4829 -0.2497
 3967SOL     vw15868   2.347   4.929   5.024 -0.2927 -0.0284  0.1571
 3968SOL     ow15869   5.869   5.318   0.631 -0.1897  0.7203 -0.4862
 3968SOL     hw15870   5.944   5.375   0.649 -0.5861  1.0049  0.2976
 3968SOL     hw15871   5.903   5.254   0.568  0.1809  1.9896 -1.6356
 3968SOL     vw15872   5.883   5.317   0.625 -0.1931  0.9255 -0.5344
 3969SOL     ow15873   6.073   4.119   6.509 -0.1034 -0.1115 -0.3008
 3969SOL     hw15874   6.118   4.135   6.592  0.5580  0.6899 -0.8058
 3969SOL     hw15875   6.021   4.040   6.525  2.7930 -2.1414 -0.2192
 3969SOL     vw15876   6.072   4.111   6.522  0.3657 -0.2739 -0.3567
 3970SOL     ow15877   3.198   2.703   3.912 -0.4631  0.4095 -0.0112
 3970SOL     hw15878   3.126   2.733   3.857  1.4830  1.9957 -1.8887
 3970SOL     hw15879   3.268   2.680   3.851  0.8913 -0.3841  1.7299
 3970SOL     vw15880   3.198   2.704   3.897 -0.0275  0.5140 -0.0293
 3971SOL     ow15881   3.881   6.373   4.686  0.4336 -0.8006  0.2995
 3971SOL     hw15882   3.880   6.468   4.682  0.9475 -0.8479 -1.5360
 3971SOL     hw15883   3.799   6.350   4.729  0.1614  0.4522  0.4823
 3971SOL     vw15884   3.870   6.382   4.691  0.4654 -0.6418  0.0815
 3972SOL     ow15885   4.393   2.732   7.363 -0.1979  0.0875  0.1146
 3972SOL     hw15886   4.371   2.639   7.373 -0.7350  0.3802  2.0975
 3972SOL     hw15887   4.486   2.737   7.384  0.9619 -0.5055 -3.9880
 3972SOL     vw15888   4.403   2.720   7.367 -0.1156  0.0479 -0.1650
 3973SOL     ow15889   7.340   4.732   2.129  0.0513  0.0697  0.5774
 3973SOL     hw15890   7.315   4.649   2.088 -2.1514  0.3129  1.2971
 3973SOL     hw15891   7.418   4.712   2.179 -0.9981 -1.8582  1.5377
 3973SOL     vw15892   7.347   4.719   2.130 -0.3779 -0.1526  0.7991
 3974SOL     ow15893   3.692   3.213   0.119 -0.1042  0.0544 -0.6035
 3974SOL     hw15894   3.605   3.177   0.139  0.5986 -0.2012  2.4516
 3974SOL     hw15895   3.702   3.286   0.180  0.7712  1.9386 -2.8484
 3974SOL     vw15896   3.682   3.218   0.129  0.1040  0.2692 -0.4966
 3975SOL     ow15897   4.338   1.258   4.129  0.1564 -0.0110 -0.9487
 3975SOL     hw15898   4.380   1.322   4.072  0.5392 -2.9442 -4.3586
 3975SOL     hw15899   4.409   1.218   4.178  0.3459  0.1081 -1.1263
 3975SOL     vw15900   4.353   1.261   4.128  0.2322 -0.3823 -1.4219
 3976SOL     ow15901   4.192   1.191   0.671 -0.3339 -0.1984 -0.7818
 3976SOL     hw15902   4.279   1.154   0.657  0.8337  2.1112 -0.1474
 3976SOL     hw15903   4.151   1.133   0.735  1.0800 -0.8362 -0.4217
 3976SOL     vw15904   4.198   1.178   0.677  0.0069  0.0222 -0.6506
 3977SOL     ow15905   7.371   4.421   3.562  0.3302  0.0349 -0.1755
 3977SOL     hw15906   7.417   4.365   3.625  0.2274  0.7535  0.5632
 3977SOL     hw15907   7.293   4.371   3.537  0.7390 -0.5583 -0.2900
 3977SOL     vw15908   7.367   4.407   3.567  0.3705  0.0517 -0.0932
 3978SOL     ow15909   0.293   3.102   0.810 -0.7069 -0.7582 -0.1591
 3978SOL     hw15910   0.240   3.181   0.821  0.1248 -0.1364 -0.5478
 3978SOL     hw15911   0.250   3.037   0.865 -2.4204 -0.5454 -1.1812
 3978SOL     vw15912   0.280   3.104   0.819 -0.8232 -0.6481 -0.3452
 3979SOL     ow15913   5.887   5.296   6.092 -0.2047 -0.7338 -0.1535
 3979SOL     hw15914   5.803   5.291   6.138 -0.9325  0.2777 -1.3404
 3979SOL     hw15915   5.934   5.218   6.121 -1.6607 -1.4725  0.3104
 3979SOL     vw15916   5.882   5.285   6.102 -0.4930 -0.6976 -0.2489
 3980SOL     ow15917   2.131   7.520   5.553  0.4803  0.1167 -0.3488
 3980SOL     hw15918   2.221   7.504   5.580 -0.1276  0.4411  2.0997
 3980SOL     hw15919   2.104   7.597   5.603 -1.2871 -0.2290 -0.6968
 3980SOL     vw15920   2.139   7.528   5.563  0.1670  0.1139 -0.0718
 3981SOL     ow15921   2.893   1.838   5.689  0.9012  0.0016  0.3118
 3981SOL     hw15922   2.930   1.926   5.691  0.9948 -0.0221 -0.3059
 3981SOL     hw15923   2.803   1.851   5.659  1.0209 -0.1510 -0.1119
 3981SOL     vw15924   2.886   1.852   5.685  0.9292 -0.0216  0.1740
 3982SOL     ow15925   5.282   5.028   1.897 -0.3288  0.3775 -0.1346
 3982SOL     hw15926   5.376   5.043   1.899  0.2105 -2.4054 -0.3168
 3982SOL     hw15927   5.267   4.983   1.814 -2.2404  2.6926 -1.1626
 3982SOL     vw15928   5.292   5.024   1.886 -0.5097  0.3157 -0.2943
 3983SOL     ow15929   2.368   2.654   4.966 -0.1685 -0.4215  0.1190
 3983SOL     hw15930   2.435   2.667   4.899  0.3005 -0.5820  0.5531
 3983SOL     hw15931   2.290   2.695   4.930  0.2345  0.0075 -0.2729
 3983SOL     vw15932   2.366   2.661   4.952 -0.0534 -0.3860  0.1245
 3984SOL     ow15933   5.634   6.950   6.907  0.3047  0.3957  0.5217
 3984SOL     hw15934   5.596   6.895   6.839  3.6366 -0.4216 -0.8536
 3984SOL     hw15935   5.650   7.034   6.865 -0.0098  0.7371  1.0741
 3984SOL     vw15936   5.631   6.954   6.893  0.7026  0.3331  0.4132
 3985SOL     ow15937   6.521   1.397   7.149 -0.0032  0.6753 -0.4096
 3985SOL     hw15938   6.475   1.433   7.225 -0.4243  1.5884 -1.0748
 3985SOL     hw15939   6.459   1.334   7.111  0.7412 -0.8146  0.7656
 3985SOL     vw15940   6.507   1.394   7.154  0.0396  0.5992 -0.3424
 3986SOL     ow15941   7.452   4.901   1.181  0.4062 -0.0014 -0.2109
 3986SOL     hw15942   7.383   4.857   1.132  1.0112  1.0637 -2.1429
 3986SOL     hw15943   7.489   4.964   1.119  2.8120 -0.2120  0.8738
 3986SOL     vw15944   7.448   4.903   1.166  0.8035  0.1113 -0.3227
 3987SOL     ow15945   5.002   2.308   4.117  0.1737  0.1000 -0.2023
 3987SOL     hw15946   5.013   2.379   4.179  5.2321 -0.0805 -0.5171
 3987SOL     hw15947   4.952   2.242   4.164  1.6412  0.9864  2.8172
 3987SOL     vw15948   4.997   2.309   4.131  1.0350  0.1930  0.1547
 3988SOL     ow15949   3.494   5.194   4.611  0.4166  0.6029  0.2749
 3988SOL     hw15950   3.559   5.134   4.647  0.3789  0.8830  0.8262
 3988SOL     hw15951   3.480   5.259   4.680 -2.0317 -0.6315  1.0660
 3988SOL     vw15952   3.501   5.195   4.625  0.0885  0.4768  0.4518
 3989SOL     ow15953   6.632   0.151   4.337 -0.0120 -0.5332 -0.3446
 3989SOL     hw15954   6.641   0.089   4.409 -0.2969 -0.7093 -0.4560
 3989SOL     hw15955   6.669   0.105   4.261  0.1649 -0.4006 -0.3400
 3989SOL     vw15956   6.638   0.137   4.337 -0.0260 -0.5389 -0.3588
 3990SOL     ow15957   5.878   5.097   7.231 -0.0826  0.2781  0.0293
 3990SOL     hw15958   5.927   5.107   7.312  2.2473 -0.3786 -1.2225
 3990SOL     hw15959   5.909   5.014   7.193 -2.0751 -0.1130 -0.9307
 3990SOL     vw15960   5.888   5.087   7.237 -0.0379  0.1395 -0.2625
 3991SOL     ow15961   6.958   6.564   5.362 -0.2333  0.0084  0.4233
 3991SOL     hw15962   7.020   6.636   5.376  0.6126 -0.3758 -1.0671
 3991SOL     hw15963   7.000   6.488   5.401  1.5867 -0.8192 -2.7987
 3991SOL     vw15964   6.972   6.564   5.369  0.1183 -0.1514 -0.1986
 3992SOL     ow15965   6.581   5.387   0.784 -0.3418  0.2035  0.0902
 3992SOL     hw15966   6.583   5.399   0.879 -1.8061  3.3560 -0.1500
 3992SOL     hw15967   6.630   5.462   0.750 -3.0005  1.2906 -1.6449
 3992SOL     vw15968   6.588   5.399   0.792 -0.8860  0.7629 -0.1704
 3993SOL     ow15969   0.485   2.855   6.524 -0.5153 -0.1390 -0.6375
 3993SOL     hw15970   0.462   2.926   6.584 -1.6465 -0.4201 -0.7115
 3993SOL     hw15971   0.438   2.779   6.558  1.7650 -1.2497  0.2566
 3993SOL     vw15972   0.476   2.855   6.537 -0.3637 -0.3226 -0.5293
 3994SOL     ow15973   4.623   2.881   4.455 -0.0991  0.0485  0.4690
 3994SOL     hw15974   4.549   2.898   4.397  0.9848  1.5800 -0.5568
 3994SOL     hw15975   4.693   2.852   4.396  0.1061 -1.5269  1.4319
 3994SOL     vw15976   4.623   2.880   4.439  0.0710  0.0428  0.4606
 3995SOL     ow15977   4.448   1.371   6.965 -0.2536  0.5337  0.3145
 3995SOL     hw15978   4.445   1.413   6.879 -1.1558 -0.7570 -0.3189
 3995SOL     hw15979   4.473   1.281   6.947 -0.3152  0.2734  1.4319
 3995SOL     vw15980   4.451   1.365   6.951 -0.3808  0.3291  0.3784
 3996SOL     ow15981   3.726   7.415   5.934  0.3137  0.1253 -0.3015
 3996SOL     hw15982   3.678   7.498   5.941  1.8026  1.0045 -0.1514
 3996SOL     hw15983   3.757   7.413   5.844  1.2308  0.2907 -0.0008
 3996SOL     vw15984   3.723   7.426   5.923  0.6312  0.2632 -0.2422
 3997SOL     ow15985   4.261   6.575   4.117 -0.2382 -0.0171  0.6026
 3997SOL     hw15986   4.196   6.616   4.059  1.1116  0.5804 -0.5417
 3997SOL     hw15987   4.252   6.622   4.200  0.8535  2.2570 -0.4916
 3997SOL     vw15988   4.251   6.586   4.120  0.0837  0.3614  0.3073
 3998SOL     ow15989   7.470   2.090   7.501 -0.1435 -0.1874 -0.3345
 3998SOL     hw15990   7.426   2.129   7.426  0.7572  0.3839 -0.5822
 3998SOL     hw15991   7.434   2.001   7.507  0.3409 -0.5172 -1.9171
 3998SOL     vw15992   7.459   2.083   7.492  0.0393 -0.1556 -0.5760
 3999SOL     ow15993   6.740   5.167   5.985  0.0493 -0.2106  0.1915
 3999SOL     hw15994   6.741   5.166   6.080  0.3412 -1.0312  0.1849
 3999SOL     hw15995   6.831   5.183   5.960 -0.0649  0.2304  0.0487
 3999SOL     vw15996   6.752   5.169   5.994  0.0727 -0.2608  0.1717
 4000SOL     ow15997   7.547   1.054   6.091 -0.1955 -0.2215 -0.2823
 4000SOL     hw15998   7.592   0.988   6.039  2.7987  0.3535  1.3439
 4000SOL     hw15999   7.583   1.044   6.179 -0.9394  2.4207  0.4233
 4000SOL     vw16000   7.557   1.044   6.096  0.1014  0.2030  0.0250
 4001SOL     ow16001   0.093   5.576   7.382  0.4116 -0.8663 -0.0321
 4001SOL     hw16002   0.149   5.599   7.308  0.7173 -0.5201  0.2968
 4001SOL     hw16003   0.118   5.487   7.405 -0.2296 -1.2643 -0.8293
 4001SOL     vw16004   0.103   5.568   7.375  0.3673 -0.8733 -0.0939
 4002SOL     ow16005   2.500   0.083   4.761  0.0294 -0.0265  0.6711
 4002SOL     hw16006   2.454   0.009   4.722 -1.0884  1.2549 -0.5090
 4002SOL     hw16007   2.448   0.106   4.838 -0.8814  0.9074 -0.2059
 4002SOL     vw16008   2.487   0.076   4.766 -0.2382  0.2658  0.3998
 4003SOL     ow16009   0.357   1.394   3.161  0.4080 -0.4156 -0.9966
 4003SOL     hw16010   0.323   1.327   3.221 -0.6217 -0.8273 -1.9966
 4003SOL     hw16011   0.431   1.434   3.208  0.3603 -1.5154  0.0495
 4003SOL     vw16012   0.362   1.391   3.175  0.2658 -0.6150 -0.9904
 4004SOL     ow16013   5.106   0.141   7.348 -0.6220 -0.3221 -0.1088
 4004SOL     hw16014   5.122   0.140   7.443  1.0463  2.2157 -0.2758
 4004SOL     hw16015   5.187   0.108   7.309 -0.2218  1.2487 -0.6769
 4004SOL     vw16016   5.118   0.137   7.356 -0.3490  0.2200 -0.2058
 4005SOL     ow16017   4.163   3.411   3.248  0.7704 -0.5502 -0.8963
 4005SOL     hw16018   4.117   3.387   3.328  0.0273 -1.2297 -1.5157
 4005SOL     hw16019   4.202   3.497   3.268 -0.2142 -0.2605 -0.1413
 4005SOL     vw16020   4.162   3.420   3.261  0.5424 -0.6015 -0.8785
 4006SOL     ow16021   7.223   1.549   1.820 -0.6353  0.1886  0.5880
 4006SOL     hw16022   7.132   1.530   1.843 -0.7212  1.2062  1.1461
 4006SOL     hw16023   7.263   1.463   1.807 -1.4923 -0.2960  1.0469
 4006SOL     vw16024   7.216   1.536   1.821 -0.7596  0.2589  0.7222
 4007SOL     ow16025   3.872   1.357   0.384  0.8132  0.0899  0.3006
 4007SOL     hw16026   3.911   1.367   0.297 -1.0104  0.4962 -0.5199
 4007SOL     hw16027   3.908   1.275   0.417  1.1008 -0.3684 -1.0916
 4007SOL     vw16028   3.882   1.347   0.377  0.6106  0.0831  0.0086
 4008SOL     ow16029   1.497   1.252   2.809 -0.1753  0.1725  0.0296
 4008SOL     hw16030   1.520   1.163   2.838 -0.6593  0.0276 -0.0274
 4008SOL     hw16031   1.582   1.293   2.791  0.0288 -0.5377 -0.7097
 4008SOL     vw16032   1.511   1.246   2.810 -0.2122  0.0597 -0.0753
 4009SOL     ow16033   7.053   3.616   6.889 -0.9043 -0.0746 -0.1523
 4009SOL     hw16034   7.143   3.621   6.922  0.0878  0.1517 -2.6542
 4009SOL     hw16035   7.013   3.543   6.937 -0.3843  1.6094  3.0901
 4009SOL     vw16036   7.060   3.607   6.899 -0.7048  0.1773 -0.0548
 4010SOL     ow16037   4.807   4.398   5.865 -0.3013 -0.2116 -0.3671
 4010SOL     hw16038   4.899   4.406   5.891 -0.5759  2.7963  0.0604
 4010SOL     hw16039   4.757   4.418   5.944 -1.2386  1.3243 -1.2948
 4010SOL     vw16040   4.813   4.402   5.879 -0.4613  0.3877 -0.4330
 4011SOL     ow16041   3.072   6.121   7.491 -0.2511 -0.3900 -0.0989
 4011SOL     hw16042   3.157   6.102   7.531 -0.3909 -1.2234 -0.1836
 4011SOL     hw16043   3.087   6.116   7.397 -0.3231 -0.2106 -0.1209
 4011SOL     vw16044   3.085   6.118   7.484 -0.2789 -0.4764 -0.1130
 4012SOL     ow16045   7.498   0.097   3.631  0.3494  0.7199 -0.0760
 4012SOL     hw16046   7.426   0.158   3.646  0.0300  0.2979  0.1167
 4012SOL     hw16047   7.531   0.077   3.719 -0.2758 -0.2591 -0.0608
 4012SOL     vw16048   7.493   0.103   3.645  0.2248  0.5351 -0.0485
 4013SOL     ow16049   1.967   7.490   1.250  0.1420  0.1205 -0.4542
 4013SOL     hw16050   1.879   7.453   1.239  0.4318 -0.5144 -0.6688
 4013SOL     hw16051   1.953   7.570   1.300 -0.7299  0.7726 -1.6809
 4013SOL     vw16052   1.953   7.496   1.255  0.0651  0.1228 -0.6444
 4014SOL     ow16053   0.409   1.476   4.308  0.2512  0.2173  0.2806
 4014SOL     hw16054   0.376   1.424   4.235 -0.6475  0.4761  0.4908
 4014SOL     hw16055   0.455   1.412   4.364 -1.1336 -0.4386  0.7179
 4014SOL     vw16056   0.411   1.460   4.306 -0.0501  0.1650  0.3660
 4015SOL     ow16057   5.699   7.519   7.511 -0.2224 -0.1399 -0.2173
 4015SOL     hw16058   5.755   7.536   7.435 -0.2529  0.2291 -0.1575
 4015SOL     hw16059   5.699   7.423   7.519 -0.4513 -0.2005 -0.8525
 4015SOL     vw16060   5.707   7.508   7.502 -0.2568 -0.0992 -0.2930
 4016SOL     ow16061   1.453   3.274   1.320 -0.7529  0.1284  0.4927
 4016SOL     hw16062   1.487   3.351   1.365 -0.2533  0.1117  0.1553
 4016SOL     hw16063   1.386   3.239   1.379  0.9592 -0.8076  2.0145
 4016SOL     vw16064   1.449   3.279   1.334 -0.4610  0.0029  0.6490
 4017SOL     ow16065   5.149   0.667   0.650  0.1587 -0.1672  0.4960
 4017SOL     hw16066   5.202   0.653   0.729  1.6447 -3.6664 -0.8906
 4017SOL     hw16067   5.076   0.605   0.658  0.0680 -0.2365 -0.5977
 4017SOL     vw16068   5.147   0.657   0.661  0.3426 -0.6380  0.1687
 4018SOL     ow16069   2.221   5.941   0.483 -0.6720 -0.5863 -0.4331
 4018SOL     hw16070   2.144   5.975   0.529  0.6011 -0.8045  2.0033
 4018SOL     hw16071   2.209   5.969   0.393 -1.8286  2.5658  0.5723
 4018SOL     vw16072   2.209   5.949   0.477 -0.6566 -0.1991  0.0210
 4019SOL     ow16073   6.398   1.158   5.711  0.0214 -0.3498  0.2384
 4019SOL     hw16074   6.446   1.076   5.722  0.6050 -0.4319 -2.3206
 4019SOL     hw16075   6.354   1.149   5.626 -1.2268  1.3593  0.6493
 4019SOL     vw16076   6.398   1.146   5.701 -0.0665 -0.1351 -0.0451
 4020SOL     ow16077   5.073   6.788   3.990 -0.4208 -0.0536 -0.1877
 4020SOL     hw16078   5.161   6.754   4.004 -0.5016  0.5038  2.0068
 4020SOL     hw16079   5.028   6.720   3.940  0.9351 -0.7848 -0.4522
 4020SOL     vw16080   5.079   6.775   3.985 -0.2525 -0.0765  0.0669
 4021SOL     ow16081   7.538   5.817   6.979 -0.5824  0.3126 -0.2991
 4021SOL     hw16082   7.536   5.863   6.895 -1.6022  2.2322  0.7046
 4021SOL     hw16083   7.449   5.783   6.990 -0.3914 -0.1237 -0.0829
 4021SOL     vw16084   7.526   5.819   6.969 -0.6919  0.5081 -0.1380
 4022SOL     ow16085   4.605   5.975   1.315 -0.2128 -0.7314 -0.6474
 4022SOL     hw16086   4.638   5.919   1.385  0.5690 -1.9630 -1.9490
 4022SOL     hw16087   4.630   6.064   1.341  1.6935 -1.3417 -0.2308
 4022SOL     vw16088   4.613   5.980   1.328  0.1419 -0.9739 -0.7642
 4023SOL     ow16089   5.360   4.608   2.075  0.1251 -0.0036 -0.2034
 4023SOL     hw16090   5.319   4.572   2.154  1.3412 -0.1366  0.3874
 4023SOL     hw16091   5.288   4.650   2.028 -1.0490 -1.9059 -0.1764
 4023SOL     vw16092   5.345   4.609   2.080  0.1307 -0.2720 -0.1218
 4024SOL     ow16093   5.109   4.403   2.813 -0.1171  0.2228 -0.7274
 4024SOL     hw16094   5.116   4.316   2.852  1.8821  0.9963  0.8231
 4024SOL     hw16095   5.053   4.453   2.872  1.9847  1.0690  0.6497
 4024SOL     vw16096   5.103   4.398   2.826  0.4241  0.4365 -0.3412
 4025SOL     ow16097   4.648   6.624   4.244 -0.0554  0.0053  0.7550
 4025SOL     hw16098   4.697   6.706   4.243 -1.3090  0.8251 -2.1869
 4025SOL     hw16099   4.590   6.632   4.320 -0.2064  1.9097  0.4843
 4025SOL     vw16100   4.647   6.636   4.254 -0.2408  0.3648  0.3312
 4026SOL     ow16101   0.235   5.069   2.897 -0.0813 -0.0425 -0.1320
 4026SOL     hw16102   0.244   4.990   2.842 -1.0391 -1.6553  1.9059
 4026SOL     hw16103   0.143   5.093   2.890 -0.3815 -0.7162  1.3262
 4026SOL     vw16104   0.224   5.062   2.889 -0.2473 -0.3443  0.3294
 4027SOL     ow16105   0.485   0.997   4.066 -0.1464 -0.6968  0.1165
 4027SOL     hw16106   0.399   1.034   4.046 -0.3693 -2.2684 -2.1682
 4027SOL     hw16107   0.476   0.962   4.155 -1.1559  1.0288  0.7355
 4027SOL     vw16108   0.473   0.997   4.075 -0.3090 -0.6765 -0.1032
 4028SOL     ow16109   7.321   0.634   7.397 -0.8614  0.4322  0.1195
 4028SOL     hw16110   7.354   0.556   7.352 -0.2329 -0.5563  2.1693
 4028SOL     hw16111   7.308   0.698   7.327 -1.8362 -1.6241 -1.7006
 4028SOL     vw16112   7.324   0.632   7.381 -0.9069  0.0305  0.1497
 4029SOL     ow16113   2.572   6.347   6.637  0.3087 -0.4949 -0.2244
 4029SOL     hw16114   2.588   6.440   6.622  1.8436 -0.6274  0.3540
 4029SOL     hw16115   2.647   6.303   6.597  1.2715 -1.2445  2.1896
 4029SOL     vw16116   2.584   6.354   6.630  0.6382 -0.6111  0.1705
 4030SOL     ow16117   5.620   7.019   4.686 -0.3893  0.6209  0.5951
 4030SOL     hw16118   5.600   7.073   4.763 -0.8081  0.6376  0.4782
 4030SOL     hw16119   5.715   7.008   4.688 -0.1669  2.2113  0.0691
 4030SOL     vw16120   5.630   7.025   4.697 -0.4151  0.8330  0.5105
 4031SOL     ow16121   6.430   6.912   1.120  0.1644  0.4393 -0.2442
 4031SOL     hw16122   6.514   6.916   1.166 -0.7782 -0.3667  1.6212
 4031SOL     hw16123   6.441   6.841   1.056  0.0642 -1.5697  1.8520
 4031SOL     vw16124   6.443   6.903   1.117  0.0267  0.0679  0.2785
 4032SOL     ow16125   6.853   0.821   2.772 -0.3854  0.3379 -0.3950
 4032SOL     hw16126   6.884   0.911   2.784 -0.0998  0.4123 -1.5010
 4032SOL     hw16127   6.762   0.823   2.801  0.0884  0.5774  1.1310
 4032SOL     vw16128   6.845   0.833   2.777 -0.2851  0.3794 -0.3397
 4033SOL     ow16129   0.634   5.477   2.352 -0.3270  0.3071 -0.0793
 4033SOL     hw16130   0.620   5.434   2.267  0.1321 -1.2528  0.5962
 4033SOL     hw16131   0.726   5.505   2.348 -0.4214  0.5939 -0.2510
 4033SOL     vw16132   0.644   5.475   2.340 -0.2789  0.1392 -0.0129
 4034SOL     ow16133   6.778   2.677   5.110  0.3920  0.2913  0.1973
 4034SOL     hw16134   6.718   2.698   5.039  0.5245  1.0631  0.2950
 4034SOL     hw16135   6.772   2.582   5.120  0.2325  0.1927 -0.7127
 4034SOL     vw16136   6.770   2.667   5.102  0.3884  0.3802  0.0901
 4035SOL     ow16137   5.606   3.064   1.101  0.4457  0.2978 -0.0517
 4035SOL     hw16138   5.535   3.123   1.125  0.5763  0.2005  0.5943
 4035SOL     hw16139   5.627   3.017   1.182  1.6493  0.7636 -0.0720
 4035SOL     vw16140   5.599   3.066   1.114  0.6216  0.3463  0.0309
 4036SOL     ow16141   6.757   6.534   0.239  0.2638  0.1574  0.1189
 4036SOL     hw16142   6.720   6.512   0.153 -0.8417 -0.2600  0.6862
 4036SOL     hw16143   6.851   6.546   0.222  0.2223 -0.8475 -0.9790
 4036SOL     vw16144   6.765   6.533   0.225  0.1125 -0.0300  0.0489
 4037SOL     ow16145   1.193   1.591   0.695  0.2203  0.0621  0.5603
 4037SOL     hw16146   1.148   1.519   0.739  2.7004 -1.8743  0.1958
 4037SOL     hw16147   1.148   1.600   0.612  0.3955 -1.7963  0.2036
 4037SOL     vw16148   1.181   1.582   0.690  0.5707 -0.4386  0.4652
 4038SOL     ow16149   6.657   3.196   4.786 -0.0525 -0.2092 -0.5941
 4038SOL     hw16150   6.644   3.223   4.877  3.4896 -2.0154  0.6412
 4038SOL     hw16151   6.673   3.278   4.739  0.6819  0.5893  0.9610
 4038SOL     vw16152   6.657   3.211   4.792  0.5121 -0.3421 -0.2258
 4039SOL     ow16153   6.948   5.213   6.206 -0.3234  0.0255  0.2968
 4039SOL     hw16154   6.948   5.303   6.236  0.1076  0.4942 -1.0223
 4039SOL     hw16155   7.004   5.213   6.128  0.2517 -1.5208  0.6659
 4039SOL     vw16156   6.955   5.225   6.200 -0.1907 -0.1163  0.1714
 4040SOL     ow16157   3.166   7.299   6.317 -0.6341 -0.5397 -0.1586
 4040SOL     hw16158   3.236   7.296   6.382 -0.3123 -0.1789 -0.4838
 4040SOL     hw16159   3.134   7.389   6.320 -0.5436 -0.4915 -0.5745
 4040SOL     vw16160   3.171   7.310   6.326 -0.5797 -0.4859 -0.2565
 4041SOL     ow16161   6.138   4.083   4.091 -0.2998 -0.0381 -0.1182
 4041SOL     hw16162   6.145   4.116   4.181 -1.2390  0.4062 -0.2017
 4041SOL     hw16163   6.161   4.158   4.036  2.1315 -0.7985 -0.2568
 4041SOL     vw16164   6.142   4.097   4.096 -0.1028 -0.0799 -0.1473
 4042SOL     ow16165   3.286   1.040   4.213  0.3630  0.2605 -0.1488
 4042SOL     hw16166   3.355   1.043   4.147  0.3437  1.0852 -0.1399
 4042SOL     hw16167   3.325   1.079   4.291 -0.2084  1.0312 -0.2398
 4042SOL     vw16168   3.300   1.045   4.215  0.2850  0.4710 -0.1597
 4043SOL     ow16169   3.915   5.108   0.601  0.1134 -0.2236  0.4552
 4043SOL     hw16170   3.828   5.069   0.615 -0.2013  1.0949  2.6358
 4043SOL     hw16171   3.905   5.160   0.521 -1.0294 -0.3014  0.5317
 4043SOL     vw16172   3.902   5.110   0.592 -0.0790 -0.0598  0.7530
 4044SOL     ow16173   0.288   0.286   3.774 -0.3176  0.0891 -0.0959
 4044SOL     hw16174   0.335   0.221   3.827  0.7240 -0.2483 -1.3810
 4044SOL     hw16175   0.352   0.314   3.708 -1.8149 -0.1141 -1.7010
 4044SOL     vw16176   0.303   0.281   3.772 -0.3777  0.0178 -0.4773
 4045SOL     ow16177   3.766   2.448   2.058  0.4078 -1.0155  0.5825
 4045SOL     hw16178   3.766   2.395   2.138 -0.3908  0.1185  1.3681
 4045SOL     hw16179   3.793   2.535   2.088  2.3672 -1.0884 -0.7867
 4045SOL     vw16180   3.770   2.452   2.073  0.5611 -0.8756  0.5056
 4046SOL     ow16181   7.340   5.455   3.618  0.0966  0.5492 -0.3727
 4046SOL     hw16182   7.284   5.505   3.677 -0.2470 -1.1909  0.8590
 4046SOL     hw16183   7.282   5.427   3.547 -0.7220 -1.4203  1.0028
 4046SOL     vw16184   7.325   5.458   3.616 -0.0567  0.0598 -0.0286
 4047SOL     ow16185   5.143   4.855   3.211 -0.4586  0.1659 -0.1026
 4047SOL     hw16186   5.183   4.891   3.132  1.6576 -1.4244  0.1615
 4047SOL     hw16187   5.097   4.930   3.251 -2.0832  0.9032 -3.0366
 4047SOL     vw16188   5.142   4.870   3.206 -0.3936  0.0534 -0.4549
 4048SOL     ow16189   3.105   0.937   4.812  0.0831  0.3619 -0.5030
 4048SOL     hw16190   3.170   0.999   4.846 -2.5477  3.3470 -0.3957
 4048SOL     hw16191   3.093   0.873   4.882 -0.7567  2.8145  1.7588
 4048SOL     vw16192   3.112   0.937   4.826 -0.3748  1.0793 -0.1905
 4049SOL     ow16193   5.458   6.868   2.579 -0.3497 -0.6235 -0.3326
 4049SOL     hw16194   5.495   6.917   2.505 -1.8609  0.2328 -0.5707
 4049SOL     hw16195   5.372   6.908   2.593 -1.0147 -2.2460  0.4536
 4049SOL     vw16196   5.451   6.880   2.571 -0.6368 -0.7246 -0.2602
 4050SOL     ow16197   5.814   1.420   0.265  0.1224 -0.1539  0.1159
 4050SOL     hw16198   5.870   1.361   0.214  0.0081 -1.6032  1.5875
 4050SOL     hw16199   5.754   1.458   0.201  1.3228 -0.2938 -1.1371
 4050SOL     vw16200   5.814   1.418   0.250  0.2656 -0.3635  0.1448
 4051SOL     ow16201   6.679   1.359   3.170 -0.2180  0.3721  0.2239
 4051SOL     hw16202   6.591   1.392   3.187  0.5293  1.0385  3.5550
 4051SOL     hw16203   6.722   1.361   3.256  2.4603 -1.6951 -0.9285
 4051SOL     vw16204   6.673   1.363   3.184  0.2341  0.1873  0.5114
 4052SOL     ow16205   0.739   4.578   6.289  0.2044 -0.2585  0.2228
 4052SOL     hw16206   0.687   4.633   6.348 -0.4202 -0.2707 -0.3060
 4052SOL     hw16207   0.725   4.616   6.202  0.1092 -0.9986 -0.0876
 4052SOL     vw16208   0.731   4.591   6.285  0.1095 -0.3576  0.1121
 4053SOL     ow16209   3.493   1.290   6.411 -0.7040 -0.3851  0.3749
 4053SOL     hw16210   3.587   1.291   6.427 -0.7086  0.6138  0.3595
 4053SOL     hw16211   3.466   1.201   6.435  0.2298 -0.6740  0.3996
 4053SOL     vw16212   3.502   1.278   6.416 -0.5814 -0.2914  0.3760
 4054SOL     ow16213   0.819   5.666   7.304  0.8809  0.5868 -0.2706
 4054SOL     hw16214   0.887   5.730   7.325  1.6062 -0.3375  0.2826
 4054SOL     hw16215   0.859   5.610   7.237  0.0222  1.0809 -1.2291
 4054SOL     vw16216   0.833   5.667   7.298  0.8633  0.5300 -0.3242
 4055SOL     ow16217   5.687   5.441   0.489 -0.4315 -0.7302 -0.1432
 4055SOL     hw16218   5.705   5.467   0.398 -1.2688  1.2970  0.2083
 4055SOL     hw16219   5.765   5.393   0.516  1.4134  1.6732 -0.8464
 4055SOL     vw16220   5.699   5.438   0.481 -0.2985 -0.1457 -0.1896
 4056SOL     ow16221   7.431   1.556   2.320  0.0892 -0.5357 -0.4006
 4056SOL     hw16222   7.485   1.477   2.324 -0.5982 -1.0319 -0.7047
 4056SOL     hw16223   7.473   1.611   2.254  0.3262 -0.8351 -0.4980
 4056SOL     vw16224   7.444   1.553   2.312  0.0298 -0.6406 -0.4536
 4057SOL     ow16225   4.002   6.520   6.585  0.1560 -0.5214  0.2417
 4057SOL     hw16226   4.047   6.437   6.569 -0.5955 -0.6649 -1.3652
 4057SOL     hw16227   3.947   6.502   6.662 -0.7005 -1.8540 -0.6188
 4057SOL     vw16228   4.001   6.506   6.593 -0.0563 -0.7162 -0.0839
 4058SOL     ow16229   6.696   4.913   5.989  0.0063  0.0696  0.2024
 4058SOL     hw16230   6.655   4.920   6.075  1.4537 -2.3591  1.1998
 4058SOL     hw16231   6.734   4.999   5.973 -1.6018  1.0306  1.2358
 4058SOL     vw16232   6.695   4.925   5.999 -0.0148 -0.1242  0.4702
 4059SOL     ow16233   0.353   5.157   1.714  0.3237  0.2759 -0.2003
 4059SOL     hw16234   0.266   5.196   1.702  0.3562  0.2059 -0.6780
 4059SOL     hw16235   0.374   5.172   1.806  0.3347  1.4051 -0.3729
 4059SOL     vw16236   0.344   5.164   1.725  0.3295  0.4156 -0.2860
 4060SOL     ow16237   7.552   4.728   5.217 -0.0317 -0.3116  0.1077
 4060SOL     hw16238   7.459   4.707   5.225 -0.2828  0.3815 -0.8304
 4060SOL     hw16239   7.587   4.716   5.306 -0.7859 -1.5835  0.2627
 4060SOL     vw16240   7.544   4.724   5.230 -0.1645 -0.3877  0.0045
 4061SOL     ow16241   1.793   5.772   3.810  0.1880  0.3698 -0.1309
 4061SOL     hw16242   1.779   5.768   3.715  1.0089  0.1173 -0.2472
 4061SOL     hw16243   1.706   5.789   3.846 -0.5513 -1.8328 -0.7569
 4061SOL     vw16244   1.780   5.774   3.802  0.1988  0.0460 -0.2286
 4062SOL     ow16245   2.666   1.919   5.501  0.2833  0.2521  0.3619
 4062SOL     hw16246   2.677   1.854   5.432 -1.3599  0.7062 -0.3647
 4062SOL     hw16247   2.590   1.889   5.551 -1.3406  2.2354 -0.7887
 4062SOL     vw16248   2.658   1.907   5.498 -0.1478  0.5737  0.1142
 4063SOL     ow16249   3.319   0.068   3.111 -0.1166  0.1097  0.0950
 4063SOL     hw16250   3.249   0.085   3.175 -0.5615 -1.7508  0.1442
 4063SOL     hw16251   3.368   0.150   3.108 -2.8315  1.8489 -0.6295
 4063SOL     vw16252   3.316   0.081   3.119 -0.5336  0.0937  0.0060
 4064SOL     ow16253   5.424   5.252   3.166  0.2526 -0.2446  0.2955
 4064SOL     hw16254   5.484   5.179   3.149  1.0325  0.1264  1.3361
 4064SOL     hw16255   5.467   5.301   3.236 -1.6617 -0.4086  1.6459
 4064SOL     vw16256   5.438   5.249   3.173  0.1030 -0.2172  0.6109
 4065SOL     ow16257   7.216   0.654   0.089  0.0337 -0.0951  0.5309
 4065SOL     hw16258   7.235   0.635  -0.003  0.2107  0.9448  0.3415
 4065SOL     hw16259   7.137   0.707   0.087  1.5036  2.2690  0.7346
 4065SOL     vw16260   7.208   0.658   0.077  0.2508  0.3540  0.5328
 4066SOL     ow16261   2.325   7.283   6.788  0.3807  0.4614 -0.0798
 4066SOL     hw16262   2.368   7.205   6.823  1.4455  0.4321 -1.3997
 4066SOL     hw16263   2.388   7.353   6.801  0.4639  0.6021 -1.1926
 4066SOL     vw16264   2.339   7.282   6.795  0.5322  0.4761 -0.4005
 4067SOL     ow16265   5.369   4.067   2.783  0.6536 -0.8021  0.6080
 4067SOL     hw16266   5.347   3.977   2.760 -0.1601 -0.1776 -1.2103
 4067SOL     hw16267   5.436   4.059   2.851  1.3363 -2.7742 -0.2481
 4067SOL     vw16268   5.375   4.054   2.789  0.6361 -0.9801  0.2551
 4068SOL     ow16269   5.644   6.605   2.672  0.0892  0.4885  0.3389
 4068SOL     hw16270   5.692   6.600   2.755 -0.2360 -1.5373  0.4670
 4068SOL     hw16271   5.689   6.543   2.614 -0.2374  1.1974 -0.7181
 4068SOL     vw16272   5.656   6.596   2.675  0.0031  0.3147  0.2162
 4069SOL     ow16273   3.843   5.528   6.551 -0.2287 -0.6162 -0.4164
 4069SOL     hw16274   3.811   5.492   6.468  0.6842 -0.9976 -0.6159
 4069SOL     hw16275   3.785   5.491   6.617 -0.2399 -1.2428 -0.7741
 4069SOL     vw16276   3.831   5.518   6.549 -0.1098 -0.7493 -0.4900
 4070SOL     ow16277   7.238   1.125   5.564  0.1611  0.4794  0.4124
 4070SOL     hw16278   7.288   1.202   5.589 -2.7778  2.6138  0.3442
 4070SOL     hw16279   7.230   1.130   5.469 -0.4344  0.3946  0.4481
 4070SOL     vw16280   7.243   1.136   5.555 -0.3049  0.7498  0.4084
 4071SOL     ow16281   6.478   3.043   1.740  0.6076 -0.4971  0.5833
 4071SOL     hw16282   6.472   3.001   1.654 -0.8912  0.5308  0.1422
 4071SOL     hw16283   6.564   3.018   1.773  1.6075 -0.1792 -1.6144
 4071SOL     vw16284   6.489   3.034   1.733  0.5419 -0.3196  0.2352
 4072SOL     ow16285   3.238   0.851   7.057  0.0319  0.1071  0.1787
 4072SOL     hw16286   3.271   0.864   6.968  1.4479 -1.3153  0.4434
 4072SOL     hw16287   3.180   0.775   7.050 -0.7772  0.7081  0.2762
 4072SOL     vw16288   3.235   0.843   7.044  0.1118 -0.0013  0.2263
 4073SOL     ow16289   3.265   4.161   0.827  0.2571  0.0372 -0.1686
 4073SOL     hw16290   3.276   4.235   0.767  0.1033 -0.2309 -0.5339
 4073SOL     hw16291   3.185   4.118   0.798 -0.4208  0.5222  0.9112
 4073SOL     vw16292   3.256   4.165   0.815  0.1473  0.0658 -0.0743
 4074SOL     ow16293   5.168   0.870   2.530  0.3333  0.5601 -0.0841
 4074SOL     hw16294   5.125   0.812   2.593  0.2832  1.1918  0.4699
 4074SOL     hw16295   5.164   0.822   2.447  1.2467 -0.7152  0.5654
 4074SOL     vw16296   5.162   0.856   2.527  0.4475  0.4751  0.0745
 4075SOL     ow16297   2.381   7.304   3.212  0.5402  0.6149 -0.3223
 4075SOL     hw16298   2.295   7.336   3.239 -0.4583 -0.9697 -1.4178
 4075SOL     hw16299   2.443   7.356   3.263 -1.1087 -0.4078  2.9805
 4075SOL     vw16300   2.378   7.315   3.222  0.1910  0.2711 -0.0309
 4076SOL     ow16301   2.987   5.172   7.043 -0.5874  0.0575 -0.1794
 4076SOL     hw16302   2.957   5.211   7.125 -1.0108  2.3374 -1.3379
 4076SOL     hw16303   2.909   5.129   7.007 -0.3557 -1.1092  0.6496
 4076SOL     vw16304   2.973   5.171   7.049 -0.6126  0.2041 -0.2227
 4077SOL     ow16305   7.307   6.290   1.933  0.3244  0.0587  0.0071
 4077SOL     hw16306   7.308   6.199   1.905 -1.4934 -0.4982  1.5051
 4077SOL     hw16307   7.384   6.329   1.893  0.6961 -1.9263 -1.3338
 4077SOL     vw16308   7.317   6.283   1.924  0.1335 -0.2766  0.0279
 4078SOL     ow16309   2.683   0.596   4.645  0.1199  0.0739 -0.1790
 4078SOL     hw16310   2.646   0.673   4.603  1.1746  0.3908 -0.5545
 4078SOL     hw16311   2.689   0.531   4.575 -1.2817 -0.5673  0.2536
 4078SOL     vw16312   2.679   0.597   4.630  0.0741  0.0311 -0.1714
 4079SOL     ow16313   0.724   2.839   6.837  0.7881  0.8277  0.2033
 4079SOL     hw16314   0.735   2.744   6.831  1.4829  0.9719 -1.0492
 4079SOL     hw16315   0.805   2.869   6.879  0.5111  0.8647  0.7218
 4079SOL     vw16316   0.736   2.830   6.842  0.8433  0.8516  0.1066
 4080SOL     ow16317   3.284   2.703   7.395 -0.1332  0.0891 -0.1942
 4080SOL     hw16318   3.226   2.630   7.419  0.8754 -0.1499  1.7823
 4080SOL     hw16319   3.363   2.661   7.361 -0.0787  0.3074 -0.3395
 4080SOL     vw16320   3.287   2.688   7.394  0.0070  0.0864  0.0472
 4081SOL     ow16321   2.191   7.323   2.775 -0.1039 -0.0549  0.1942
 4081SOL     hw16322   2.175   7.416   2.761 -0.5232  0.2020  2.0990
 4081SOL     hw16323   2.105   7.282   2.766 -0.0208 -0.1899 -0.0170
 4081SOL     vw16324   2.178   7.330   2.772 -0.1484 -0.0391  0.4176
 4082SOL     ow16325   1.063   0.388   6.771 -0.6491  0.2570  0.4345
 4082SOL     hw16326   1.037   0.321   6.707  1.0207 -0.1609  0.1541
 4082SOL     hw16327   1.042   0.349   6.856 -1.0069 -0.0180  0.2237
 4082SOL     vw16328   1.057   0.374   6.774 -0.4760  0.1656  0.3695
 4083SOL     ow16329   6.228   2.650   3.616  0.6777 -0.6284 -0.9193
 4083SOL     hw16330   6.199   2.621   3.702  1.4430  0.9604 -0.0792
 4083SOL     hw16331   6.169   2.722   3.594  0.8719 -0.6292 -1.4463
 4083SOL     vw16332   6.217   2.656   3.625  0.8042 -0.4188 -0.8780
 4084SOL     ow16333   3.597   5.735   7.252  0.1918  0.1672  0.9194
 4084SOL     hw16334   3.662   5.804   7.267  0.1437  0.8985 -1.7290
 4084SOL     hw16335   3.516   5.782   7.231 -0.0038 -0.6694 -0.2909
 4084SOL     vw16336   3.595   5.750   7.251  0.1596  0.1533  0.4101
 4085SOL     ow16337   4.335   1.977   3.435  0.4867  0.0100  1.0969
 4085SOL     hw16338   4.366   2.064   3.412 -0.9039  0.4878  0.9067
 4085SOL     hw16339   4.285   1.989   3.516 -0.6678 -0.3821  0.4687
 4085SOL     vw16340   4.332   1.990   3.443  0.1509  0.0212  0.9890
 4086SOL     ow16341   2.212   4.036   1.843  0.6623 -0.4767 -0.1996
 4086SOL     hw16342   2.216   3.941   1.837  1.5487 -0.5040  0.5477
 4086SOL     hw16343   2.223   4.066   1.753 -0.3890 -1.0806 -0.5518
 4086SOL     vw16344   2.214   4.027   1.831  0.6405 -0.5598 -0.1474
 4087SOL     ow16345   4.485   6.546   5.869 -0.9086  0.6883  0.5484
 4087SOL     hw16346   4.483   6.478   5.937  1.3564  2.1707  2.2309
 4087SOL     hw16347   4.441   6.621   5.909 -0.4779  1.2538 -0.0361
 4087SOL     vw16348   4.479   6.547   5.884 -0.5527  0.9584  0.6931
 4088SOL     ow16349   2.152   7.498   6.563 -0.2133  0.1852 -0.2705
 4088SOL     hw16350   2.183   7.567   6.622  0.1544 -0.0016 -0.2377
 4088SOL     hw16351   2.179   7.527   6.476  0.0743  0.0135 -0.2399
 4088SOL     vw16352   2.160   7.511   6.559 -0.1267  0.1378 -0.2620
 4089SOL     ow16353   0.320   1.925   6.085 -0.3583  0.1323  0.1084
 4089SOL     hw16354   0.353   2.013   6.103 -1.7207  0.6714  0.0813
 4089SOL     hw16355   0.387   1.885   6.029  0.2467  1.1653  0.0707
 4089SOL     vw16356   0.333   1.931   6.080 -0.4582  0.3397  0.0999
 4090SOL     ow16357   4.820   6.311   1.743 -0.4301  0.2825  0.4156
 4090SOL     hw16358   4.855   6.379   1.801 -0.0282  1.6529 -1.3364
 4090SOL     hw16359   4.728   6.304   1.768 -0.1110  0.3307  1.6688
 4090SOL     vw16360   4.813   6.319   1.754 -0.3347  0.4697  0.3499
 4091SOL     ow16361   0.173   3.853   3.031 -0.2903 -0.3883 -0.8382
 4091SOL     hw16362   0.113   3.855   2.956  0.3931  0.8322 -1.3831
 4091SOL     hw16363   0.260   3.857   2.992  0.0627  0.7620  0.0290
 4091SOL     vw16364   0.177   3.854   3.016 -0.1536 -0.0757 -0.7957
 4092SOL     ow16365   0.110   2.977   4.214 -0.1775  0.1738 -0.1000
 4092SOL     hw16366   0.179   2.980   4.147 -0.4267 -0.2525 -0.3780
 4092SOL     hw16367   0.115   3.063   4.257 -0.9163  0.9994 -1.5876
 4092SOL     vw16368   0.120   2.989   4.211 -0.3079  0.2264 -0.3328
 4093SOL     ow16369   3.908   1.427   1.625 -0.5397  0.4973 -0.1657
 4093SOL     hw16370   3.819   1.393   1.628 -1.3912  2.5383 -0.7060
 4093SOL     hw16371   3.962   1.352   1.600 -2.1567 -0.6721 -0.2455
 4093SOL     vw16372   3.904   1.413   1.622 -0.8655  0.6123 -0.2475
 4094SOL     ow16373   1.414   3.134   0.822 -0.3828  0.2360 -0.6100
 4094SOL     hw16374   1.403   3.174   0.736  2.3946  0.5362 -0.9349
 4094SOL     hw16375   1.425   3.040   0.804 -0.4741  0.2095 -0.5267
 4094SOL     vw16376   1.414   3.127   0.809 -0.0284  0.2719 -0.6418
 4095SOL     ow16377   4.918   4.545   2.910 -0.6227  0.1681  0.6064
 4095SOL     hw16378   4.849   4.538   2.977  0.2956  0.6626  1.6413
 4095SOL     hw16379   4.937   4.639   2.906  0.4138 -0.0205  0.7884
 4095SOL     vw16380   4.911   4.557   2.918 -0.3648  0.2081  0.7670
 4096SOL     ow16381   2.800   0.961   6.216  0.5224 -0.2819 -0.3711
 4096SOL     hw16382   2.764   1.046   6.191  0.3092  0.1124  1.1430
 4096SOL     hw16383   2.757   0.941   6.300  1.4710 -1.3113 -0.1060
 4096SOL     vw16384   2.789   0.969   6.224  0.6195 -0.3657 -0.1361
 4097SOL     ow16385   2.207   4.422   4.068 -0.0893  0.4732 -0.2223
 4097SOL     hw16386   2.256   4.390   4.143  1.1335  1.1460 -0.7041
 4097SOL     hw16387   2.206   4.517   4.078 -1.0925  0.4954 -0.3643
 4097SOL     vw16388   2.213   4.430   4.079 -0.0603  0.5651 -0.3047
 4098SOL     ow16389   2.977   5.201   6.150 -0.4930  0.4002 -0.8021
 4098SOL     hw16390   2.933   5.120   6.178 -1.0730  1.2240  0.8033
 4098SOL     hw16391   2.907   5.266   6.145  0.3497  1.5462  0.9969
 4098SOL     vw16392   2.962   5.199   6.153 -0.4582  0.6602 -0.3529
 4099SOL     ow16393   5.274   2.955   2.942 -0.1305 -0.3244 -0.5262
 4099SOL     hw16394   5.367   2.948   2.963 -0.1622 -0.5702 -0.4617
 4099SOL     hw16395   5.230   2.913   3.015 -0.3779  1.1484  0.1970
 4099SOL     vw16396   5.281   2.949   2.954 -0.1676 -0.1625 -0.4221
 4100SOL     ow16397   6.971   2.183   1.541 -0.6922  0.4764 -0.1654
 4100SOL     hw16398   6.950   2.262   1.590 -2.0870  0.3528 -0.5005
 4100SOL     hw16399   6.897   2.124   1.559  0.7765 -1.1715  0.8980
 4100SOL     vw16400   6.958   2.186   1.550 -0.6826  0.2427 -0.0693
 4101SOL     ow16401   0.679   7.520   4.335 -0.0030 -0.3302 -0.2172
 4101SOL     hw16402   0.584   7.533   4.344  0.0959 -1.1978  3.6802
 4101SOL     hw16403   0.717   7.606   4.350 -0.1233 -0.3980  0.4986
 4101SOL     vw16404   0.671   7.533   4.338 -0.0059 -0.4536  0.3915
 4102SOL     ow16405   3.892   4.718   0.685  0.6340 -0.0774 -0.4476
 4102SOL     hw16406   3.964   4.777   0.664 -0.0661  0.9908  0.0381
 4102SOL     hw16407   3.934   4.640   0.721  1.4957  1.7508  2.8563
 4102SOL     vw16408   3.907   4.715   0.687  0.6554  0.3045  0.0524
 4103SOL     ow16409   3.066   5.775   0.666  0.0383  0.0873 -0.3744
 4103SOL     hw16410   3.138   5.828   0.701  1.1866 -1.2770 -0.5469
 4103SOL     hw16411   3.066   5.794   0.572  0.7119 -0.4786 -0.5009
 4103SOL     vw16412   3.076   5.785   0.658  0.2786 -0.1671 -0.4138
 4104SOL     ow16413   2.933   5.846   0.050  0.0172 -0.2367  0.1844
 4104SOL     hw16414   2.969   5.814  -0.033 -0.8326 -1.9090  0.4376
 4104SOL     hw16415   2.848   5.804   0.058  0.5651 -1.0566  2.4675
 4104SOL     vw16416   2.927   5.836   0.040 -0.0225 -0.5653  0.5191
 4105SOL     ow16417   5.222   7.200   3.612 -0.0186  0.0735 -0.2700
 4105SOL     hw16418   5.277   7.136   3.568 -0.2186 -1.1376  1.1667
 4105SOL     hw16419   5.157   7.225   3.547  0.0464 -1.2020 -0.8437
 4105SOL     vw16420   5.221   7.195   3.597 -0.0362 -0.2546 -0.1560
 4106SOL     ow16421   7.351   2.144   2.391  0.3393  0.1710 -0.0233
 4106SOL     hw16422   7.325   2.052   2.402  2.5719 -0.7433 -1.6778
 4106SOL     hw16423   7.447   2.142   2.388  0.4509  2.5838 -0.0893
 4106SOL     vw16424   7.360   2.131   2.392  0.6483  0.3690 -0.2503
 4107SOL     ow16425   4.634   5.185   0.518  0.5913  0.8491 -0.6256
 4107SOL     hw16426   4.711   5.239   0.536  2.0843 -1.5562  0.7332
 4107SOL     hw16427   4.667   5.096   0.514 -2.1100 -0.2998 -0.0555
 4107SOL     vw16428   4.648   5.181   0.520  0.4320  0.3800 -0.3711
 4108SOL     ow16429   1.525   3.530   6.532  0.1540  0.0837  0.5291
 4108SOL     hw16430   1.494   3.442   6.551  1.8408 -0.6915 -0.1656
 4108SOL     hw16431   1.523   3.575   6.616 -1.4496 -0.3525  0.7545
 4108SOL     vw16432   1.521   3.525   6.545  0.1649 -0.0762  0.4671
 4109SOL     ow16433   2.930   5.289   7.273  0.0683  0.4487 -0.1141
 4109SOL     hw16434   2.931   5.381   7.247  1.2915  0.4537 -0.1470
 4109SOL     hw16435   2.843   5.275   7.310  0.3922  2.0702  1.4240
 4109SOL     vw16436   2.919   5.299   7.274  0.2724  0.6633  0.0844
 4110SOL     ow16437   5.156   2.982   2.410  0.1930  0.0448  0.0161
 4110SOL     hw16438   5.246   2.951   2.414 -0.2176 -1.5068 -1.3727
 4110SOL     hw16439   5.103   2.904   2.431 -0.8432  0.5215 -0.7372
 4110SOL     vw16440   5.161   2.968   2.413  0.0024 -0.0969 -0.2664
 4111SOL     ow16441   2.896   4.910   1.641  0.4526 -0.2529  0.0363
 4111SOL     hw16442   2.912   4.836   1.582  1.0061 -0.7305  0.7750
 4111SOL     hw16443   2.890   4.871   1.728  1.1946  0.6175  0.4934
 4111SOL     vw16444   2.897   4.895   1.645  0.6236 -0.2010  0.1940
 4112SOL     ow16445   0.133   1.317   6.093  0.0980 -0.4061 -0.3845
 4112SOL     hw16446   0.206   1.287   6.039  1.0933  2.8804 -1.0355
 4112SOL     hw16447   0.170   1.386   6.148 -1.8718 -0.7454  1.5351
 4112SOL     vw16448   0.147   1.322   6.093 -0.0306 -0.0173 -0.2170
 4113SOL     ow16449   0.751   5.530   4.277  0.1271  0.4038 -0.4651
 4113SOL     hw16450   0.710   5.525   4.363  1.0101 -1.7516 -0.1058
 4113SOL     hw16451   0.714   5.609   4.237 -1.9232  0.2745  1.0346
 4113SOL     vw16452   0.741   5.540   4.283 -0.0269  0.1020 -0.2198
 4114SOL     ow16453   6.122   2.546   3.851  0.1408 -0.2787  0.0243
 4114SOL     hw16454   6.028   2.531   3.849  0.3112 -1.3918 -0.2637
 4114SOL     hw16455   6.160   2.463   3.823  1.2807 -0.5159  2.0895
 4114SOL     vw16456   6.115   2.533   3.847  0.3135 -0.4569  0.2588
 4115SOL     ow16457   0.395   2.194   6.105 -0.4997 -0.2157  0.2447
 4115SOL     hw16458   0.305   2.221   6.084  0.3234  1.6591 -1.1175
 4115SOL     hw16459   0.444   2.208   6.024  1.4562  0.7973  1.5250
 4115SOL     vw16460   0.389   2.199   6.091 -0.1330  0.1653  0.2339
 4116SOL     ow16461   7.064   4.347   2.044  0.1410  0.8601  0.8792
 4116SOL     hw16462   7.041   4.264   2.003  0.3304  1.1564  0.1617
 4116SOL     hw16463   6.986   4.401   2.035  0.7594  1.5479 -0.7351
 4116SOL     vw16464   7.051   4.343   2.037  0.2475  0.9897  0.5716
 4117SOL     ow16465   2.904   2.666   1.357  0.0196  0.5931 -0.0242
 4117SOL     hw16466   2.965   2.602   1.392  0.1163  0.7989  0.1860
 4117SOL     hw16467   2.818   2.624   1.365  0.2791 -0.4076 -1.9080
 4117SOL     vw16468   2.901   2.652   1.362  0.0666  0.4883 -0.2450
 4118SOL     ow16469   7.546   3.693   5.921  0.7494  0.2387  0.3847
 4118SOL     hw16470   7.508   3.753   5.856  1.5902 -1.0936 -1.4417
 4118SOL     hw16471   7.623   3.656   5.877  2.2669  0.3683  2.7295
 4118SOL     vw16472   7.551   3.696   5.906  1.0606  0.0801  0.4530
 4119SOL     ow16473   1.427   1.820   2.635 -0.1648  0.4211 -0.0185
 4119SOL     hw16474   1.385   1.794   2.717  1.7002 -0.6131  0.6543
 4119SOL     hw16475   1.358   1.810   2.569 -1.8780  1.8541  1.4595
 4119SOL     vw16476   1.412   1.815   2.637 -0.1447  0.4737  0.2654
 4120SOL     ow16477   3.958   5.374   6.819 -0.5164  0.2110 -0.0188
 4120SOL     hw16478   4.004   5.450   6.856 -2.1221  1.2119  0.0265
 4120SOL     hw16479   3.886   5.358   6.880 -1.5109  0.0619 -1.2011
 4120SOL     vw16480   3.954   5.382   6.832 -0.8594  0.3233 -0.1688
 4121SOL     ow16481   0.847   0.931   0.557  0.2988  0.1108  0.3831
 4121SOL     hw16482   0.801   0.854   0.590  2.3448 -1.2411  0.2436
 4121SOL     hw16483   0.876   0.978   0.635  1.4198 -0.7788  0.5301
 4121SOL     vw16484   0.845   0.927   0.571  0.7167 -0.1850  0.3841
 4122SOL     ow16485   2.714   4.474   7.031 -0.2674 -0.5044 -0.7156
 4122SOL     hw16486   2.697   4.385   7.002  0.0138 -0.7286 -0.2040
 4122SOL     hw16487   2.638   4.524   7.002 -0.1524 -0.7869 -1.5348
 4122SOL     vw16488   2.702   4.469   7.023 -0.2152 -0.5713 -0.7560
 4123SOL     ow16489   4.266   5.747   4.039  0.5159  0.1930 -0.1047
 4123SOL     hw16490   4.283   5.684   4.109 -0.0306  0.4551  0.2664
 4123SOL     hw16491   4.196   5.706   3.987 -0.3585  0.8107  0.5614
 4123SOL     vw16492   4.259   5.733   4.041  0.3283  0.3090  0.0319
 4124SOL     ow16493   6.484   2.838   5.884  0.6302 -0.4391  0.5409
 4124SOL     hw16494   6.427   2.761   5.872  0.7720 -0.3543 -0.8545
 4124SOL     hw16495   6.430   2.912   5.855  0.9680 -0.1878  0.5573
 4124SOL     vw16496   6.469   2.837   5.879  0.6933 -0.3947  0.3591
 4125SOL     ow16497   7.151   4.014   3.617 -0.6659  0.1786  0.7560
 4125SOL     hw16498   7.148   4.106   3.590  0.0532  0.2747  0.9931
 4125SOL     hw16499   7.224   4.009   3.678  0.6262 -0.9537 -0.8176
 4125SOL     vw16500   7.160   4.025   3.621 -0.4003  0.0420  0.5796
 4126SOL     ow16501   4.397   3.421   3.546  0.5163 -0.3589 -0.0559
 4126SOL     hw16502   4.367   3.468   3.468  0.2147 -0.6947 -0.1464
 4126SOL     hw16503   4.403   3.487   3.614  0.8335 -0.0519 -0.3767
 4126SOL     vw16504   4.394   3.436   3.544  0.5186 -0.3628 -0.1101
 4127SOL     ow16505   6.998   2.952   0.693  0.6161  0.1803  0.6404
 4127SOL     hw16506   7.000   2.952   0.597 -0.4682  0.9721  0.5985
 4127SOL     hw16507   6.905   2.953   0.715  0.8502 -0.5085  1.7159
 4127SOL     vw16508   6.986   2.952   0.683  0.5038  0.1940  0.7768
 4128SOL     ow16509   6.139   1.758   1.441 -0.0933 -0.1719 -0.0487
 4128SOL     hw16510   6.096   1.739   1.524 -0.2036  1.4093  0.2858
 4128SOL     hw16511   6.168   1.672   1.408 -0.6861 -0.8930  1.2532
 4128SOL     vw16512   6.137   1.744   1.448 -0.1862 -0.0585  0.1672
 4129SOL     ow16513   2.062   5.975   6.873 -0.4727 -0.3087  0.1001
 4129SOL     hw16514   2.143   5.928   6.893 -0.3190  0.3754  1.1503
 4129SOL     hw16515   2.010   5.968   6.954 -1.8383 -1.4609 -0.8218
 4129SOL     vw16516   2.066   5.968   6.886 -0.6326 -0.3705  0.1171
 4130SOL     ow16517   7.116   1.606   4.031  0.4913  0.6803  0.2157
 4130SOL     hw16518   7.209   1.626   4.019  0.5301  1.5064  1.6352
 4130SOL     hw16519   7.102   1.525   3.982  2.2467 -0.1547  1.0204
 4130SOL     vw16520   7.126   1.598   4.023  0.7277  0.6791  0.5093
 4131SOL     ow16521   0.977   2.943   3.049 -0.0255 -0.1839  0.7754
 4131SOL     hw16522   0.900   2.920   3.101 -0.2326 -1.0806  0.0932
 4131SOL     hw16523   0.949   2.930   2.958  0.7702 -0.0049  0.4981
 4131SOL     vw16524   0.963   2.938   3.043  0.0522 -0.2787  0.6487
 4132SOL     ow16525   1.612   6.180   7.184 -0.0544  0.6032  0.4147
 4132SOL     hw16526   1.578   6.097   7.218 -1.7093  1.2045  0.3226
 4132SOL     hw16527   1.707   6.175   7.199 -0.0526 -1.4722  0.0040
 4132SOL     vw16528   1.620   6.168   7.190 -0.2726  0.4089  0.3483
 4133SOL     ow16529   6.990   4.902   1.434 -0.2763  0.1362  0.4163
 4133SOL     hw16530   6.974   4.885   1.527 -1.9490  1.1404  0.3500
 4133SOL     hw16531   6.917   4.861   1.389 -0.4008  1.1211 -0.3095
 4133SOL     vw16532   6.979   4.895   1.440 -0.5136  0.3984  0.3119
 4134SOL     ow16533   2.621   6.838   7.209  0.0220 -0.1778  0.4588
 4134SOL     hw16534   2.609   6.932   7.219  2.6147  0.0710  2.1540
 4134SOL     hw16535   2.559   6.799   7.271 -1.9194  0.2862 -1.1013
 4134SOL     vw16536   2.611   6.845   7.219  0.1079 -0.0839  0.4766
 4135SOL     ow16537   0.451   2.930   6.277  0.2609  0.1883  0.1103
 4135SOL     hw16538   0.458   2.917   6.372  0.1739 -1.1232 -0.0423
 4135SOL     hw16539   0.383   2.996   6.266 -0.1949 -0.1317  0.9394
 4135SOL     vw16540   0.443   2.937   6.288  0.1893 -0.0271  0.1996
 4136SOL     ow16541   2.220   7.171   1.279 -0.2809  0.0837 -1.0061
 4136SOL     hw16542   2.243   7.084   1.246 -1.5633  0.5202 -3.2300
 4136SOL     hw16543   2.140   7.157   1.330  0.3094 -0.2089 -0.1209
 4136SOL     vw16544   2.213   7.157   1.281 -0.3722  0.1028 -1.1828
 4137SOL     ow16545   1.651   3.798   1.214 -0.2955  0.0320  0.7795
 4137SOL     hw16546   1.695   3.728   1.263 -1.0480 -1.2645 -0.3204
 4137SOL     hw16547   1.570   3.814   1.263 -0.6854 -0.7319  0.4165
 4137SOL     vw16548   1.646   3.791   1.227 -0.4462 -0.2400  0.5866
 4138SOL     ow16549   3.095   0.820   4.282 -0.3185 -0.4805  0.4610
 4138SOL     hw16550   3.135   0.743   4.240 -0.3141  0.6954 -1.7993
 4138SOL     hw16551   3.126   0.815   4.373  1.8911 -1.6925 -0.2635
 4138SOL     vw16552   3.105   0.809   4.288 -0.0265 -0.4853  0.0675
 4139SOL     ow16553   3.725   1.753   0.449  0.8295 -0.3894 -0.2442
 4139SOL     hw16554   3.645   1.757   0.501  1.5834  0.9610  0.8845
 4139SOL     hw16555   3.695   1.759   0.359 -0.3919 -0.8719  0.1013
 4139SOL     vw16556   3.710   1.755   0.444  0.7678 -0.2749 -0.0497
 4140SOL     ow16557   1.696   0.130   4.929 -0.2515  0.3440 -0.2669
 4140SOL     hw16558   1.722   0.129   5.021  1.0114  1.0128 -0.6019
 4140SOL     hw16559   1.635   0.203   4.922  0.5999  1.0689 -0.2027
 4140SOL     vw16560   1.691   0.139   4.940  0.0274  0.5279 -0.3026
 4141SOL     ow16561   7.401   5.676   1.296  0.1848  0.0611  0.6501
 4141SOL     hw16562   7.345   5.753   1.290 -0.1168 -0.2521 -2.8101
 4141SOL     hw16563   7.488   5.708   1.270  0.4363 -0.4351  0.8764
 4141SOL     vw16564   7.405   5.691   1.292  0.1781 -0.0455  0.2234
 4142SOL     ow16565   5.762   6.043   2.102 -0.2913  0.4618 -0.7945
 4142SOL     hw16566   5.837   6.041   2.161 -0.3601  0.5109 -0.7044
 4142SOL     hw16567   5.733   5.952   2.096 -0.2112  0.4395 -0.8472
 4142SOL     vw16568   5.768   6.031   2.109 -0.2899  0.4652 -0.7895
 4143SOL     ow16569   0.889   2.274   0.592  0.2235  0.3340  0.1635
 4143SOL     hw16570   0.823   2.344   0.595  0.6404  0.7241  0.3028
 4143SOL     hw16571   0.897   2.254   0.499 -0.5335 -0.1425  0.1926
 4143SOL     vw16572   0.881   2.281   0.580  0.1787  0.3227  0.1858
 4144SOL     ow16573   6.583   0.561   2.154 -0.2468  0.1971 -0.1683
 4144SOL     hw16574   6.543   0.627   2.209 -2.7031  0.7412 -2.4168
 4144SOL     hw16575   6.510   0.508   2.123  1.0435 -0.3405 -2.5253
 4144SOL     vw16576   6.568   0.562   2.157 -0.4005  0.1980 -0.7761
 4145SOL     ow16577   0.168   3.117   4.606 -0.0321  0.3054 -0.1525
 4145SOL     hw16578   0.165   3.154   4.517  0.7352  0.0500 -0.2910
 4145SOL     hw16579   0.166   3.194   4.663 -0.9780  0.4583 -0.3666
 4145SOL     vw16580   0.167   3.132   4.601 -0.0556  0.2918 -0.1991
 4146SOL     ow16581   6.886   1.949   1.291 -0.0177  0.6232 -0.0856
 4146SOL     hw16582   6.903   1.855   1.289  1.0088  0.7948 -1.2889
 4146SOL     hw16583   6.970   1.988   1.318 -0.7779  1.1421  1.6050
 4146SOL     vw16584   6.900   1.942   1.294  0.0176  0.7142 -0.0213
 4147SOL     ow16585   0.857   2.120   0.813 -0.2675  0.1132  0.1066
 4147SOL     hw16586   0.889   2.134   0.724  1.5827 -0.7401  0.5941
 4147SOL     hw16587   0.768   2.154   0.812  0.2256  1.5232 -1.6616
 4147SOL     vw16588   0.850   2.127   0.801  0.0417  0.1867 -0.0624
 4148SOL     ow16589   5.972   1.944   0.814  0.1112 -0.1068  0.0934
 4148SOL     hw16590   5.928   1.896   0.744 -2.6576 -1.5932  2.5706
 4148SOL     hw16591   6.054   1.974   0.776  0.8365 -4.5526 -2.5184
 4148SOL     vw16592   5.977   1.941   0.800 -0.1585 -0.8895  0.0756
 4149SOL     ow16593   6.019   0.866   1.764 -0.5235 -0.0335 -0.0130
 4149SOL     hw16594   5.971   0.918   1.828  0.3561 -1.6536  2.1134
 4149SOL     hw16595   5.961   0.793   1.745 -0.2601 -0.2488 -0.0072
 4149SOL     vw16596   6.005   0.863   1.770 -0.3726 -0.2757  0.2683
 4150SOL     ow16597   4.527   6.896   3.643  0.3706  0.5561  0.3959
 4150SOL     hw16598   4.517   6.921   3.551 -0.3694  1.3245  0.6753
 4150SOL     hw16599   4.437   6.887   3.675  0.5889 -1.4993  0.5948
 4150SOL     vw16600   4.513   6.898   3.635  0.3016  0.3862  0.4590
 4151SOL     ow16601   3.019   3.939   3.984 -0.1664 -0.0182 -0.7872
 4151SOL     hw16602   3.048   3.891   3.907 -0.8311 -0.7432 -0.6008
 4151SOL     hw16603   2.937   3.980   3.958 -0.1615  0.1090 -0.6062
 4151SOL     vw16604   3.012   3.938   3.971 -0.2534 -0.0969 -0.7386
 4152SOL     ow16605   5.142   5.008   2.237  0.6606 -0.1690 -0.1828
 4152SOL     hw16606   5.155   4.950   2.162 -0.5094  0.3564 -0.8218
 4152SOL     hw16607   5.110   4.951   2.307 -1.5477 -0.1628 -1.1379
 4152SOL     vw16608   5.140   4.993   2.236  0.2148 -0.0989 -0.3932
 4153SOL     ow16609   6.667   5.370   2.316  0.6818 -0.0727  0.0943
 4153SOL     hw16610   6.753   5.411   2.324  0.9163 -0.3872 -0.7363
 4153SOL     hw16611   6.610   5.441   2.286  0.8141 -0.0414 -0.0870
 4153SOL     vw16612   6.671   5.385   2.313  0.7300 -0.1101 -0.0391
 4154SOL     ow16613   7.197   1.610   1.571  0.1251  0.0726 -0.1992
 4154SOL     hw16614   7.195   1.591   1.665  0.8612 -0.4224 -0.2754
 4154SOL     hw16615   7.287   1.634   1.554  0.1967 -0.6759 -0.9385
 4154SOL     vw16616   7.208   1.611   1.581  0.2315 -0.0916 -0.3067
 4155SOL     ow16617   5.593   5.968   3.656 -0.3913  0.1550 -0.4079
 4155SOL     hw16618   5.598   6.000   3.746 -2.1632 -1.6583  0.4156
 4155SOL     hw16619   5.500   5.958   3.639 -0.0381 -2.6121 -1.2499
 4155SOL     vw16620   5.582   5.971   3.666 -0.5784 -0.4494 -0.4103
 4156SOL     ow16621   3.061   0.852   6.062  0.1786 -0.9198 -0.0084
 4156SOL     hw16622   3.046   0.786   5.994  3.0946 -0.7084 -0.9858
 4156SOL     hw16623   3.116   0.918   6.020 -0.6884  0.9628  1.6366
 4156SOL     vw16624   3.066   0.852   6.048  0.4488 -0.6435  0.0796
 4157SOL     ow16625   7.005   0.769   5.253  0.2810 -0.4216 -0.5619
 4157SOL     hw16626   6.992   0.842   5.313  1.4788 -0.7543  0.1518
 4157SOL     hw16627   6.956   0.697   5.292  1.5943 -0.8232  0.4325
 4157SOL     vw16628   6.997   0.769   5.266  0.6125 -0.5185 -0.3364
 4158SOL     ow16629   5.334   2.739   5.085 -0.5123 -0.1919  0.0391
 4158SOL     hw16630   5.318   2.833   5.092 -1.4061 -0.3787  0.8074
 4158SOL     hw16631   5.345   2.710   5.175 -0.0785 -0.7977 -0.2057
 4158SOL     vw16632   5.333   2.747   5.098 -0.5729 -0.2964  0.1080
 4159SOL     ow16633   5.833   2.717   0.587 -0.0349 -0.1724 -0.8192
 4159SOL     hw16634   5.771   2.738   0.517 -0.5453 -0.5763 -0.5037
 4159SOL     hw16635   5.839   2.798   0.638 -0.0099 -0.0153 -1.0693
 4159SOL     vw16636   5.825   2.731   0.585 -0.0989 -0.2050 -0.8106
 4160SOL     ow16637   2.094   2.383   2.343  0.3852  0.1100  0.0962
 4160SOL     hw16638   2.013   2.410   2.300  0.5314 -1.4276 -1.2371
 4160SOL     hw16639   2.073   2.384   2.436 -1.8261 -1.9709 -0.2704
 4160SOL     vw16640   2.081   2.386   2.350  0.1128 -0.3674 -0.1281
 4161SOL     ow16641   2.053   0.560   0.063  0.0156  0.2423  0.2294
 4161SOL     hw16642   1.971   0.521   0.034 -0.0605 -0.5139  1.4325
 4161SOL     hw16643   2.118   0.490   0.055  0.9262  1.2434 -2.1777
 4161SOL     vw16644   2.051   0.546   0.058  0.1258  0.2746  0.0706
 4162SOL     ow16645   3.094   1.612   4.417  0.1797  0.0195  0.4078
 4162SOL     hw16646   3.114   1.534   4.364  0.8986  0.8349 -0.5577
 4162SOL     hw16647   3.061   1.576   4.499  0.3420 -1.3113 -0.0660
 4162SOL     vw16648   3.092   1.597   4.421  0.2960 -0.0485  0.2179
 4163SOL     ow16649   1.322   5.613   1.582  0.0818  0.0268 -0.2713
 4163SOL     hw16650   1.323   5.609   1.678  1.6220  1.3563 -0.2056
 4163SOL     hw16651   1.285   5.528   1.556 -1.4311  0.0827  1.4944
 4163SOL     vw16652   1.317   5.601   1.591  0.0854  0.2096 -0.0297
 4164SOL     ow16653   3.810   7.468   7.127 -0.3606 -1.3773  0.1645
 4164SOL     hw16654   3.797   7.396   7.190 -1.2006 -1.3096  0.0772
 4164SOL     hw16655   3.833   7.424   7.045 -0.5355 -1.5319  0.1977
 4164SOL     vw16656   3.812   7.452   7.125 -0.4945 -1.3888  0.1571
 4165SOL     ow16657   2.246   6.848   7.272  0.0387  0.0359 -0.1122
 4165SOL     hw16658   2.224   6.912   7.340  0.4107 -0.0505  0.0962
 4165SOL     hw16659   2.188   6.774   7.289  0.2427 -0.0541  0.2202
 4165SOL     vw16660   2.236   6.847   7.284  0.1147  0.0129 -0.0408
 4166SOL     ow16661   1.867   4.230   5.501 -0.5169  0.0559 -0.2035
 4166SOL     hw16662   1.852   4.226   5.406  0.6008  0.0540 -0.3944
 4166SOL     hw16663   1.937   4.167   5.517 -0.7314  0.0158  0.6445
 4166SOL     vw16664   1.874   4.221   5.490 -0.3978  0.0503 -0.1168
 4167SOL     ow16665   7.486   0.369   1.004  0.1089  0.0002  0.5533
 4167SOL     hw16666   7.519   0.336   1.088  0.4318  0.0143  0.4347
 4167SOL     hw16667   7.542   0.444   0.985 -0.9102  0.9039  1.0388
 4167SOL     vw16668   7.498   0.374   1.013  0.0172  0.1213  0.6018
 4168SOL     ow16669   6.690   1.852   0.090  0.4400  0.2394 -0.1609
 4168SOL     hw16670   6.613   1.908   0.079 -0.9240 -1.7081 -1.2167
 4168SOL     hw16671   6.762   1.913   0.106 -0.1291  2.7309 -5.0025
 4168SOL     vw16672   6.690   1.867   0.090  0.1855  0.3111 -0.9390
 4169SOL     ow16673   0.443   4.893   3.506 -0.1752 -0.2030  0.1827
 4169SOL     hw16674   0.474   4.807   3.478  0.9389 -0.0570  0.9186
 4169SOL     hw16675   0.434   4.886   3.601 -0.3580  0.4016  0.2130
 4169SOL     vw16676   0.446   4.881   3.514 -0.0523 -0.1042  0.2840
 4170SOL     ow16677   3.437   2.785   4.320  0.2247  0.4192  1.0645
 4170SOL     hw16678   3.473   2.765   4.234  0.2408  1.1014  0.9044
 4170SOL     hw16679   3.507   2.765   4.381  0.7927  1.4493  0.7806
 4170SOL     vw16680   3.451   2.780   4.317  0.3016  0.6452  1.0059
 4171SOL     ow16681   6.079   7.413   0.569 -0.7805 -0.3157  0.6924
 4171SOL     hw16682   6.064   7.456   0.485 -0.2857 -0.6904  0.4058
 4171SOL     hw16683   6.026   7.462   0.631  0.3580  1.2033  0.5294
 4171SOL     vw16684   6.070   7.425   0.566 -0.5648 -0.1647  0.6330
 4172SOL     ow16685   1.341   1.624   2.940  0.6686 -0.0699 -0.4952
 4172SOL     hw16686   1.415   1.625   3.002 -1.5593 -1.6317  2.4507
 4172SOL     hw16687   1.295   1.706   2.956  0.1450 -0.4308 -0.1108
 4172SOL     vw16688   1.345   1.635   2.951  0.3055 -0.3235 -0.0557
 4173SOL     ow16689   7.471   0.547   0.098  0.0209 -0.2744  0.1083
 4173SOL     hw16690   7.449   0.559   0.005  1.8548  1.6073 -0.1532
 4173SOL     hw16691   7.561   0.579   0.105 -0.1316 -0.2374  2.5787
 4173SOL     vw16692   7.480   0.553   0.086  0.2425 -0.0212  0.3997
 4174SOL     ow16693   3.531   5.235   0.769  0.4088  0.4225  0.2593
 4174SOL     hw16694   3.469   5.263   0.702  0.3171  2.0034  0.9634
 4174SOL     hw16695   3.496   5.270   0.851  0.6488 -1.2531  1.1288
 4174SOL     vw16696   3.519   5.244   0.771  0.4283  0.4101  0.4669
 4175SOL     ow16697   2.792   4.987   7.496 -0.5566  0.0138  0.1914
 4175SOL     hw16698   2.810   5.047   7.569  0.2768 -0.1029  0.0985
 4175SOL     hw16699   2.698   4.997   7.479 -0.7707  0.0019  1.3062
 4175SOL     vw16700   2.782   4.997   7.503 -0.4748 -0.0036  0.3262
 4176SOL     ow16701   0.115   3.102   6.725  0.8840  0.0163  0.5693
 4176SOL     hw16702   0.113   3.019   6.771 -4.6085  0.0224  1.0241
 4176SOL     hw16703   0.106   3.079   6.632  0.8052  0.0968  0.5558
 4176SOL     vw16704   0.113   3.088   6.719  0.1489  0.0278  0.6278
 4177SOL     ow16705   7.336   3.441   7.486 -0.6625  0.5000 -0.4980
 4177SOL     hw16706   7.328   3.525   7.442 -2.1039  0.4182 -0.4450
 4177SOL     hw16707   7.307   3.377   7.421 -0.6070  0.1617 -0.1963
 4177SOL     vw16708   7.331   3.443   7.472 -0.8452  0.4445 -0.4513
 4178SOL     ow16709   6.989   4.128   0.521 -0.1652  0.4773 -0.0839
 4178SOL     hw16710   7.034   4.181   0.587  0.8951  0.8528 -1.0869
 4178SOL     hw16711   7.056   4.108   0.456 -0.8376 -1.1131 -0.3345
 4178SOL     vw16712   7.004   4.132   0.521 -0.1142  0.3169 -0.2493
 4179SOL     ow16713   1.642   7.477   2.734  0.0551 -0.1844  0.0518
 4179SOL     hw16714   1.642   7.475   2.830 -1.2645 -0.3147  0.0691
 4179SOL     hw16715   1.576   7.542   2.712 -0.5114 -1.0179 -0.7714
 4179SOL     vw16716   1.633   7.485   2.744 -0.1938 -0.3116 -0.0546
 4180SOL     ow16717   5.691   5.706   4.649 -0.0699 -0.3076 -0.1440
 4180SOL     hw16718   5.603   5.739   4.669 -0.2540  0.2394 -1.7190
 4180SOL     hw16719   5.677   5.639   4.582  0.6742 -0.5703 -0.0444
 4180SOL     vw16720   5.678   5.702   4.643  0.0041 -0.2704 -0.3388
 4181SOL     ow16721   0.593   1.378   5.949 -0.2797  0.0255  0.2535
 4181SOL     hw16722   0.670   1.334   5.984  1.4442  0.4518 -2.7388
 4181SOL     hw16723   0.615   1.471   5.951 -1.6159  0.3652  1.2727
 4181SOL     vw16724   0.606   1.385   5.954 -0.2286  0.1266 -0.0069
 4182SOL     ow16725   2.753   6.106   0.045  0.2780  0.2340  0.0895
 4182SOL     hw16726   2.664   6.075   0.028 -0.2893  1.6768  0.2185
 4182SOL     hw16727   2.741   6.198   0.069  1.3428 -0.4983  4.3161
 4182SOL     vw16728   2.740   6.114   0.046  0.3437  0.3278  0.6642
 4183SOL     ow16729   5.641   6.873   1.387 -0.4752  0.5385 -0.7884
 4183SOL     hw16730   5.646   6.798   1.328  2.2626 -0.5063  0.6199
 4183SOL     hw16731   5.624   6.948   1.329 -0.3077 -0.7482 -2.5880
 4183SOL     vw16732   5.639   6.873   1.372 -0.0918  0.2310 -0.8400
 4184SOL     ow16733   7.059   7.483   4.033 -0.5297  0.1422  0.2273
 4184SOL     hw16734   7.045   7.388   4.033 -0.9619  0.1845  1.8739
 4184SOL     hw16735   7.139   7.496   4.083 -0.3114  0.6325 -0.2404
 4184SOL     vw16736   7.068   7.472   4.039 -0.5579  0.2127  0.3829
 4185SOL     ow16737   6.310   5.710   2.658  0.3219 -0.3987 -0.4018
 4185SOL     hw16738   6.370   5.732   2.587 -0.5785  2.2245 -0.4544
 4185SOL     hw16739   6.272   5.794   2.684 -3.6008 -1.8901 -0.6262
 4185SOL     vw16740   6.313   5.724   2.652 -0.3145 -0.2494 -0.4385
 4186SOL     ow16741   7.218   4.347   1.420 -0.3655 -0.0549  0.1509
 4186SOL     hw16742   7.265   4.313   1.344 -0.0957 -1.8433  1.0525
 4186SOL     hw16743   7.167   4.272   1.452 -2.3391  1.2934  0.3442
 4186SOL     vw16744   7.217   4.332   1.414 -0.5903 -0.1128  0.2953
 4187SOL     ow16745   5.925   5.921   1.656  0.5401  0.4280  0.2040
 4187SOL     hw16746   5.833   5.901   1.671  0.6778  0.7506  1.5717
 4187SOL     hw16747   5.924   5.989   1.588 -0.3392  1.6004  1.3260
 4187SOL     vw16748   5.913   5.927   1.649  0.4420  0.6254  0.5324
 4188SOL     ow16749   3.785   4.814   1.823 -0.3107  0.5480 -0.2124
 4188SOL     hw16750   3.831   4.785   1.745  0.4270  0.1618  0.3585
 4188SOL     hw16751   3.693   4.816   1.797 -0.0999  0.1752 -1.0105
 4188SOL     vw16752   3.779   4.811   1.809 -0.1856  0.4475 -0.2424
 4189SOL     ow16753   5.175   7.397   4.069  0.1232 -0.3038  0.0219
 4189SOL     hw16754   5.203   7.306   4.080  1.0739 -0.3025 -1.9664
 4189SOL     hw16755   5.101   7.406   4.129  3.5117 -0.6240  4.7971
 4189SOL     vw16756   5.169   7.386   4.078  0.6957 -0.3459  0.3896
 4190SOL     ow16757   3.176   3.751   4.552 -0.1637  0.3558 -0.0493
 4190SOL     hw16758   3.247   3.688   4.566 -1.4025 -0.8793  1.0178
 4190SOL     hw16759   3.202   3.828   4.603  0.5413  0.0412  0.0792
 4190SOL     vw16760   3.188   3.753   4.561 -0.2342  0.1513  0.1085
 4191SOL     ow16761   2.591   6.005   3.745  0.3888 -0.3313 -0.4894
 4191SOL     hw16762   2.499   5.997   3.720  0.4447 -1.4796 -0.3808
 4191SOL     hw16763   2.601   6.097   3.770 -0.4767  0.0467 -1.4567
 4191SOL     vw16764   2.580   6.016   3.745  0.2820 -0.4330 -0.6027
 4192SOL     ow16765   6.707   1.716   4.837  0.2093  0.2798  0.6804
 4192SOL     hw16766   6.747   1.658   4.771 -1.3598 -1.6981  1.3649
 4192SOL     hw16767   6.772   1.719   4.907  1.2011  1.0879 -0.2380
 4192SOL     vw16768   6.721   1.708   4.837  0.1333  0.1254  0.6497
 4193SOL     ow16769   6.754   2.731   0.912 -0.8844 -0.3931 -0.3268
 4193SOL     hw16770   6.738   2.789   0.837  0.8616  0.5649 -0.0102
 4193SOL     hw16771   6.713   2.648   0.887 -0.8571  0.0731 -2.0909
 4193SOL     vw16772   6.747   2.728   0.899 -0.6506 -0.2052 -0.5178
 4194SOL     ow16773   7.507   4.738   3.204  0.0999  0.4850 -0.1425
 4194SOL     hw16774   7.473   4.664   3.255  1.4844 -0.7686 -0.9581
 4194SOL     hw16775   7.447   4.810   3.224 -0.8518 -0.6364  1.2799
 4194SOL     vw16776   7.494   4.738   3.213  0.1569  0.1717 -0.0622
 4195SOL     ow16777   0.593   4.997   6.283 -0.7338  0.4011 -0.5702
 4195SOL     hw16778   0.579   4.918   6.336  0.6385  0.3132 -0.2927
 4195SOL     hw16779   0.636   4.965   6.203  3.5823  1.1188  1.1689
 4195SOL     vw16780   0.597   4.982   6.279  0.0167  0.4842 -0.3040
 4196SOL     ow16781   2.278   0.530   6.635 -0.5539 -0.2265 -0.5111
 4196SOL     hw16782   2.362   0.572   6.651 -0.5833  0.2274 -1.4919
 4196SOL     hw16783   2.215   0.602   6.629 -1.5670 -0.6340  2.9234
 4196SOL     vw16784   2.281   0.545   6.636 -0.6915 -0.2204 -0.1874
 4197SOL     ow16785   0.099   7.495   0.596 -0.3303  0.3050  0.5447
 4197SOL     hw16786   0.027   7.535   0.646 -0.7537  0.9537 -0.5533
 4197SOL     hw16787   0.058   7.423   0.549  0.1779 -0.6388  1.5159
 4197SOL     vw16788   0.084   7.491   0.596 -0.3191  0.2661  0.5280
 4198SOL     ow16789   6.961   6.333   5.851  0.4170 -0.3928 -0.0429
 4198SOL     hw16790   7.056   6.342   5.840  1.0216 -0.3145  3.8360
 4198SOL     hw16791   6.928   6.423   5.851  0.6595 -0.2981  0.4431
 4198SOL     vw16792   6.969   6.346   5.850  0.5291 -0.3700  0.5331
 4199SOL     ow16793   6.938   0.025   4.290 -0.2140 -0.1027 -0.0338
 4199SOL     hw16794   6.874  -0.011   4.351 -0.5576  0.0784 -0.2837
 4199SOL     hw16795   6.961  -0.049   4.233  0.1899 -0.2997  0.3811
 4199SOL     vw16796   6.932   0.010   4.291 -0.2060 -0.1048 -0.0119
 4200SOL     ow16797   3.401   5.539   6.193  0.1078  0.1497 -0.2670
 4200SOL     hw16798   3.447   5.596   6.132  1.3759  0.1964  0.6879
 4200SOL     hw16799   3.385   5.594   6.270  0.2228 -0.4119  0.1691
 4200SOL     vw16800   3.405   5.554   6.195  0.2904  0.0818 -0.0834
 4201SOL     ow16801   3.057   2.083   0.601 -0.1925 -0.5041  0.1041
 4201SOL     hw16802   3.033   2.132   0.680  0.9822 -1.6130  1.1974
 4201SOL     hw16803   2.973   2.067   0.557 -1.1403 -1.4211  2.0730
 4201SOL     vw16804   3.042   2.087   0.606 -0.1625 -0.7713  0.5081
 4202SOL     ow16805   3.365   4.326   1.910  0.0001 -0.4037  0.0404
 4202SOL     hw16806   3.376   4.233   1.930 -0.2080 -0.3206  0.5497
 4202SOL     hw16807   3.437   4.369   1.956  0.1664 -0.3221 -0.2922
 4202SOL     vw16808   3.376   4.320   1.919 -0.0055 -0.3819  0.0637
 4203SOL     ow16809   5.019   4.879   2.471 -0.1326  0.3539  0.7439
 4203SOL     hw16810   5.058   4.851   2.554  0.3783  1.5042  0.9067
 4203SOL     hw16811   4.936   4.831   2.466  0.3717 -0.6262  1.3410
 4203SOL     vw16812   5.013   4.869   2.481  0.0014  0.3767  0.8441
 4204SOL     ow16813   2.431   2.323   1.824  0.6024 -0.3120  0.1111
 4204SOL     hw16814   2.388   2.370   1.752 -1.7327  0.1246  1.6498
 4204SOL     hw16815   2.443   2.390   1.892 -1.4322 -1.5173  1.7876
 4204SOL     vw16816   2.427   2.338   1.823  0.0259 -0.4134  0.5354
 4205SOL     ow16817   6.847   6.370   2.767  0.1421  0.7426  0.0260
 4205SOL     hw16818   6.778   6.383   2.702 -0.6564  0.9070  0.8880
 4205SOL     hw16819   6.815   6.414   2.846 -0.0945 -1.6017  1.3400
 4205SOL     vw16820   6.834   6.378   2.769  0.0055  0.4547  0.3130
 4206SOL     ow16821   5.284   0.815   6.606  0.5434 -0.7267 -0.6852
 4206SOL     hw16822   5.211   0.867   6.638  1.1651  0.4869 -1.1719
 4206SOL     hw16823   5.315   0.768   6.683  1.6656  1.7138  0.4903
 4206SOL     vw16824   5.279   0.816   6.620  0.7734 -0.2445 -0.5944
 4207SOL     ow16825   0.942   1.492   6.635  0.1627  0.2116 -0.2150
 4207SOL     hw16826   0.895   1.493   6.552 -1.4133  0.9767  0.6281
 4207SOL     hw16827   0.891   1.434   6.691  0.7209  0.3584  0.4650
 4207SOL     vw16828   0.929   1.485   6.632  0.0284  0.3319 -0.0141
 4208SOL     ow16829   7.448   4.412   4.055  0.3800  0.2742  0.6608
 4208SOL     hw16830   7.501   4.492   4.059  1.8976 -0.3421 -2.8638
 4208SOL     hw16831   7.485   4.354   4.121  2.0927  1.0250  0.4090
 4208SOL     vw16832   7.460   4.415   4.064  0.8063  0.2921  0.1624
 4209SOL     ow16833   2.622   3.459   4.406 -0.4889 -0.2560  0.0949
 4209SOL     hw16834   2.531   3.489   4.398 -0.1020  1.0205  0.1529
 4209SOL     hw16835   2.649   3.439   4.316 -0.9097 -0.9111  0.1112
 4209SOL     vw16836   2.613   3.461   4.393 -0.4934 -0.1739  0.1047
 4210SOL     ow16837   1.522   4.609   5.758 -0.4634 -0.5672 -0.2497
 4210SOL     hw16838   1.592   4.565   5.807  0.0312  1.9201  1.4632
 4210SOL     hw16839   1.448   4.610   5.818 -0.0109  2.0701  0.3958
 4210SOL     vw16840   1.522   4.603   5.773 -0.3385  0.1090  0.0615
 4211SOL     ow16841   0.689   7.169   1.223 -0.6155  0.3378  0.2343
 4211SOL     hw16842   0.598   7.143   1.237 -0.1344 -1.5341  0.1986
 4211SOL     hw16843   0.740   7.105   1.273  0.6877  1.5031  0.4675
 4211SOL     vw16844   0.684   7.157   1.231 -0.3801  0.2444  0.2604
 4212SOL     ow16845   5.743   0.477   2.489  0.0924 -0.3363  0.3712
 4212SOL     hw16846   5.697   0.442   2.566  0.3473 -0.2721  0.5533
 4212SOL     hw16847   5.673   0.512   2.434 -0.2997 -2.4242 -0.5060
 4212SOL     vw16848   5.727   0.477   2.492  0.0744 -0.6033  0.2794
 4213SOL     ow16849   5.073   7.509   4.983 -0.2110  0.1539 -0.5025
 4213SOL     hw16850   5.089   7.430   4.932  0.7126 -0.1768  0.2730
 4213SOL     hw16851   5.159   7.550   4.991 -0.3290  0.1811  0.7941
 4213SOL     vw16852   5.087   7.504   4.977 -0.1044  0.1140 -0.2289
 4214SOL     ow16853   6.996   2.261   1.272 -0.3703 -0.0379  0.0527
 4214SOL     hw16854   6.987   2.234   1.363  0.2928 -2.1138 -0.4581
 4214SOL     hw16855   7.065   2.327   1.274 -1.1477  0.7921  1.1714
 4214SOL     vw16856   7.004   2.266   1.285 -0.3853 -0.2023  0.1329
 4215SOL     ow16857   6.410   4.085   3.746  0.4386 -0.0374 -0.5212
 4215SOL     hw16858   6.415   4.113   3.837  3.1258 -0.2592 -0.5351
 4215SOL     hw16859   6.341   4.018   3.746 -1.2737  1.5823  0.8178
 4215SOL     vw16860   6.401   4.080   3.758  0.5672  0.1473 -0.3463
 4216SOL     ow16861   3.370   4.521   5.814  0.0904  0.2432 -0.0220
 4216SOL     hw16862   3.279   4.493   5.811 -0.7736  2.8558 -0.8070
 4216SOL     hw16863   3.390   4.548   5.724  2.1944 -1.7397 -0.2396
 4216SOL     vw16864   3.361   4.521   5.801  0.2539  0.3262 -0.1543
 4217SOL     ow16865   4.888   0.167   7.142  0.2097 -0.3954 -0.6084
 4217SOL     hw16866   4.885   0.123   7.057  0.2674 -1.2038 -0.1979
 4217SOL     hw16867   4.806   0.217   7.146  0.1574 -0.4411 -1.0908
 4217SOL     vw16868   4.877   0.168   7.132  0.2105 -0.5081 -0.6180
 4218SOL     ow16869   6.508   1.045   3.515  0.2476  0.3484 -0.3084
 4218SOL     hw16870   6.524   0.953   3.539  1.4853  0.8957  1.1475
 4218SOL     hw16871   6.587   1.072   3.469 -0.5627  0.3994 -1.7004
 4218SOL     vw16872   6.521   1.036   3.512  0.3040  0.4272 -0.3000
 4219SOL     ow16873   5.451   7.433   6.861 -0.2263  0.5174  0.6961
 4219SOL     hw16874   5.528   7.465   6.909  0.7567  1.3319 -1.3073
 4219SOL     hw16875   5.482   7.355   6.815 -0.3914  1.1585 -0.5543
 4219SOL     vw16876   5.465   7.427   6.861 -0.1185  0.7095  0.2668
 4220SOL     ow16877   2.562   4.865   5.627  0.2287 -0.0794  0.0751
 4220SOL     hw16878   2.485   4.920   5.645 -0.4363 -0.7990 -0.4905
 4220SOL     hw16879   2.526   4.788   5.583  1.4865  0.3679 -1.8486
 4220SOL     vw16880   2.547   4.862   5.624  0.3067 -0.1152 -0.2534
 4221SOL     ow16881   3.141   2.984   0.179 -0.0753 -0.0324  0.2854
 4221SOL     hw16882   3.206   2.949   0.241 -0.9313  0.9066  1.7688
 4221SOL     hw16883   3.160   3.077   0.174 -1.0173  0.1749  0.3857
 4221SOL     vw16884   3.152   2.991   0.187 -0.3127  0.1190  0.4944
 4222SOL     ow16885   0.431   7.149   1.072 -0.2832 -0.0201 -0.2594
 4222SOL     hw16886   0.336   7.141   1.061 -0.7143  2.7277  0.6857
 4222SOL     hw16887   0.464   7.160   0.983 -0.8442 -0.8231 -0.5853
 4222SOL     vw16888   0.423   7.150   1.059 -0.4141  0.2365 -0.1777
 4223SOL     ow16889   6.226   3.757   3.904  0.3296  0.6004  0.3969
 4223SOL     hw16890   6.199   3.829   3.848  4.5596  1.2898 -1.0778
 4223SOL     hw16891   6.292   3.794   3.963  1.9234 -1.7591  0.2643
 4223SOL     vw16892   6.231   3.771   3.905  1.0979  0.3800  0.1848
 4224SOL     ow16893   5.075   5.015   0.837  0.3160  0.3893 -0.5213
 4224SOL     hw16894   5.109   4.965   0.763  0.7056 -0.8738  0.4847
 4224SOL     hw16895   4.980   5.013   0.826  0.3020 -0.9239 -0.2903
 4224SOL     vw16896   5.067   5.008   0.825  0.3657  0.0494 -0.3581
 4225SOL     ow16897   1.281   4.659   5.912 -0.4341  0.3575 -0.5576
 4225SOL     hw16898   1.222   4.634   5.983  0.1709 -1.2481 -0.5836
 4225SOL     hw16899   1.324   4.738   5.945 -1.9848  1.0984 -0.2124
 4225SOL     vw16900   1.279   4.666   5.926 -0.5588  0.2434 -0.5152
 4226SOL     ow16901   0.726   0.007   6.580 -0.6235 -0.0330 -0.0266
 4226SOL     hw16902   0.634   0.028   6.598 -1.6141 -1.9221 -2.3430
 4226SOL     hw16903   0.744  -0.071   6.633  0.2429  1.2953  1.7225
 4226SOL     vw16904   0.716  -0.001   6.589 -0.6398 -0.1070 -0.1016
 4227SOL     ow16905   2.813   0.604   3.048  0.0703 -0.1870  0.1737
 4227SOL     hw16906   2.871   0.599   3.124 -0.3665  2.2551  0.7699
 4227SOL     hw16907   2.872   0.602   2.972  0.6942 -0.4431  0.6565
 4227SOL     vw16908   2.829   0.603   3.048  0.0950  0.1014  0.3161
 4228SOL     ow16909   1.948   7.293   3.074 -0.5169  0.3562 -0.3865
 4228SOL     hw16910   1.883   7.284   3.005 -0.5843  1.7071 -0.5356
 4228SOL     hw16911   1.897   7.315   3.152 -0.3877 -0.5375 -0.0373
 4228SOL     vw16912   1.933   7.295   3.075 -0.5087  0.4160 -0.3601
 4229SOL     ow16913   5.176   6.684   6.023 -0.4295 -0.4752 -0.3199
 4229SOL     hw16914   5.260   6.712   5.986 -0.3789 -1.1553 -0.7492
 4229SOL     hw16915   5.149   6.757   6.079  0.9969 -0.7050  0.7384
 4229SOL     vw16916   5.184   6.697   6.025 -0.2346 -0.5951 -0.2370
 4230SOL     ow16917   0.363   4.473   1.692 -0.2448  0.1612 -1.3342
 4230SOL     hw16918   0.363   4.427   1.776 -3.3018 -1.3840 -2.0113
 4230SOL     hw16919   0.410   4.555   1.708  0.6683 -0.8097  1.3969
 4230SOL     vw16920   0.369   4.478   1.705 -0.5276 -0.1707 -1.0633
 4231SOL     ow16921   7.342   4.095   5.789 -0.2243 -0.2667 -0.4422
 4231SOL     hw16922   7.328   4.086   5.883  1.6168  0.5426 -0.0439
 4231SOL     hw16923   7.323   4.187   5.770 -1.6818 -0.6708 -1.1102
 4231SOL     vw16924   7.337   4.106   5.799 -0.1736 -0.2129 -0.4780
 4232SOL     ow16925   0.675   2.661   4.789 -0.6109  0.2299  0.0910
 4232SOL     hw16926   0.705   2.749   4.764  1.7355 -0.4268  0.3807
 4232SOL     hw16927   0.584   2.659   4.761  0.0306  1.7696 -2.5477
 4232SOL     vw16928   0.667   2.672   4.782 -0.2167  0.3465 -0.2191
 4233SOL     ow16929   4.181   0.549   4.305 -0.2767  0.3280  1.1204
 4233SOL     hw16930   4.244   0.596   4.360 -0.8107  0.6283  1.4767
 4233SOL     hw16931   4.115   0.614   4.283 -0.4880  0.0019  0.7793
 4233SOL     vw16932   4.181   0.564   4.309 -0.3748  0.3246  1.1225
 4234SOL     ow16933   4.101   3.570   0.227 -0.2264 -0.6780 -0.4465
 4234SOL     hw16934   4.057   3.545   0.146  0.5439 -1.8953 -0.5166
 4234SOL     hw16935   4.124   3.487   0.268 -1.8487 -0.1205  1.7518
 4234SOL     vw16936   4.098   3.555   0.222 -0.3388 -0.7651 -0.1657
 4235SOL     ow16937   7.358   0.134   2.617 -0.1224 -0.3842  0.3601
 4235SOL     hw16938   7.430   0.093   2.664  1.5908  3.1364  1.1517
 4235SOL     hw16939   7.392   0.149   2.529  0.9075  2.7183  1.1634
 4235SOL     vw16940   7.372   0.131   2.611  0.2394  0.4896  0.5705
 4236SOL     ow16941   3.499   5.772   3.203  0.4577 -0.0358  0.2411
 4236SOL     hw16942   3.468   5.688   3.168  0.6188 -0.0583  0.1490
 4236SOL     hw16943   3.548   5.749   3.282 -1.1658  0.1363  1.3447
 4236SOL     vw16944   3.501   5.758   3.208  0.2649 -0.0157  0.3746
 4237SOL     ow16945   6.430   1.818   0.300 -0.1586 -0.2191  0.2422
 4237SOL     hw16946   6.440   1.897   0.247  2.7747 -0.1529  0.7224
 4237SOL     hw16947   6.466   1.748   0.246  1.2282 -0.4398  1.3688
 4237SOL     vw16948   6.436   1.820   0.286  0.4113 -0.2395  0.4542
 4238SOL     ow16949   2.430   6.747   7.433  0.0053  0.3795  0.7202
 4238SOL     hw16950   2.356   6.794   7.392  0.7938  1.3404  0.3431
 4238SOL     hw16951   2.434   6.783   7.521  0.8720  1.3870  0.2999
 4238SOL     vw16952   2.421   6.758   7.439  0.2238  0.6387  0.6151
 4239SOL     ow16953   6.063   5.237   2.555  0.0364 -0.2248 -0.8419
 4239SOL     hw16954   5.994   5.202   2.612 -0.6499  1.3737 -0.6431
 4239SOL     hw16955   6.132   5.265   2.615 -0.9503  2.0462 -0.6502
 4239SOL     vw16956   6.063   5.236   2.570 -0.1843  0.2856 -0.7904
 4240SOL     ow16957   0.059   4.880   4.996 -0.2699  0.0995  0.1445
 4240SOL     hw16958   0.041   4.825   4.919 -3.7790  1.6157 -0.2974
 4240SOL     hw16959   0.020   4.833   5.069  1.7636 -0.6163  0.8530
 4240SOL     vw16960   0.052   4.866   4.995 -0.4646  0.2050  0.1798
 4241SOL     ow16961   1.362   1.574   7.067  0.4008 -0.1678 -0.2655
 4241SOL     hw16962   1.365   1.657   7.115 -1.6064 -0.6282  0.7801
 4241SOL     hw16963   1.435   1.523   7.103  0.4098  0.3999  0.5623
 4241SOL     vw16964   1.372   1.578   7.078  0.1371 -0.1536 -0.0186
 4242SOL     ow16965   7.489   4.405   6.112  0.2344 -0.4241 -0.3937
 4242SOL     hw16966   7.422   4.339   6.095  0.6394 -1.0388  0.3243
 4242SOL     hw16967   7.563   4.355   6.147  0.9863  0.2686 -0.9608
 4242SOL     vw16968   7.490   4.389   6.114  0.3870 -0.4139 -0.3738
 4243SOL     ow16969   6.664   3.691   6.577  0.0981 -0.1739 -0.3148
 4243SOL     hw16970   6.598   3.646   6.630 -1.3747  0.2009 -1.7568
 4243SOL     hw16971   6.674   3.776   6.620 -0.2793 -0.2818 -0.0075
 4243SOL     vw16972   6.657   3.696   6.590 -0.1462 -0.1388 -0.4644
 4244SOL     ow16973   6.155   3.952   3.727  0.1445  0.3372 -0.3693
 4244SOL     hw16974   6.121   4.041   3.733  0.3825  0.6411 -2.6220
 4244SOL     hw16975   6.129   3.922   3.640  0.4629 -1.6367  0.1651
 4244SOL     vw16976   6.147   3.960   3.716  0.2182  0.1167 -0.5960
 4245SOL     ow16977   1.806   4.396   3.675 -0.0461 -0.0144  0.2476
 4245SOL     hw16978   1.836   4.399   3.584 -1.7851  0.0748 -0.3553
 4245SOL     hw16979   1.728   4.451   3.677 -0.2072 -0.2467  1.7414
 4245SOL     vw16980   1.800   4.404   3.663 -0.2968 -0.0336  0.3651
 4246SOL     ow16981   6.503   4.892   5.422  0.5093 -0.6877 -0.2584
 4246SOL     hw16982   6.524   4.809   5.380  0.4598  0.2333 -2.2294
 4246SOL     hw16983   6.507   4.956   5.351 -0.2208  0.8750  1.0502
 4246SOL     vw16984   6.506   4.890   5.407  0.4065 -0.3603 -0.3459
 4247SOL     ow16985   6.112   6.169   1.705 -0.5742  0.4521 -0.0715
 4247SOL     hw16986   6.194   6.147   1.662  0.3910  1.5322  1.1092
 4247SOL     hw16987   6.103   6.264   1.693 -1.0846  0.5199  0.7327
 4247SOL     vw16988   6.121   6.179   1.698 -0.5143  0.6037  0.1905
 4248SOL     ow16989   4.756   2.528   3.618 -0.3874 -0.9591  0.1154
 4248SOL     hw16990   4.766   2.566   3.705 -0.2107 -1.2954  0.2435
 4248SOL     hw16991   4.716   2.443   3.634 -0.4582 -0.9750 -0.1431
 4248SOL     vw16992   4.752   2.522   3.632 -0.3736 -1.0056  0.0982
 4249SOL     ow16993   4.307   6.008   4.424 -0.1232 -0.2332 -0.1360
 4249SOL     hw16994   4.382   6.061   4.451  0.1240 -0.1027 -1.0240
 4249SOL     hw16995   4.321   5.923   4.467 -0.6842  0.4857  1.5328
 4249SOL     vw16996   4.319   6.004   4.433 -0.1650 -0.1214 -0.0329
 4250SOL     ow16997   2.962   3.601   1.006 -0.6626 -0.0836  0.9207
 4250SOL     hw16998   2.935   3.655   1.080 -1.3661  0.5043  0.2443
 4250SOL     hw16999   2.924   3.643   0.929 -0.1945 -0.8512  0.2450
 4250SOL     vw17000   2.954   3.613   1.006 -0.6937 -0.1073  0.7423
 4251SOL     ow17001   2.669   0.161   4.496 -0.9055 -0.2831  0.3184
 4251SOL     hw17002   2.648   0.098   4.426 -0.6293 -0.8881  0.7736
 4251SOL     hw17003   2.764   0.167   4.494 -0.6451 -2.4067  2.4143
 4251SOL     vw17004   2.678   0.153   4.486 -0.8348 -0.6431  0.6549
 4252SOL     ow17005   6.279   2.913   4.583  0.0962  0.0314 -0.7237
 4252SOL     hw17006   6.256   2.820   4.587 -1.0302  0.3109 -0.3132
 4252SOL     hw17007   6.216   2.951   4.522  0.4281  0.5710 -0.7448
 4252SOL     vw17008   6.268   2.906   4.575 -0.0086  0.1395 -0.6723
 4253SOL     ow17009   0.115   0.501   5.581 -0.0989  0.4317 -0.0483
 4253SOL     hw17010   0.141   0.417   5.618 -0.2883  0.1766 -0.4832
 4253SOL     hw17011   0.147   0.566   5.643 -1.8103 -0.0462  1.3961
 4253SOL     vw17012   0.122   0.499   5.594 -0.3497  0.3349  0.0849
 4254SOL     ow17013   5.233   5.427   3.718  0.3042  0.1061  0.2287
 4254SOL     hw17014   5.226   5.520   3.739 -1.9744  0.2996 -1.1269
 4254SOL     hw17015   5.326   5.414   3.698  0.6380  2.0856  0.3244
 4254SOL     vw17016   5.245   5.437   3.718  0.0477  0.3927  0.0623
 4255SOL     ow17017   1.717   0.527   6.893 -0.5565 -0.1553 -0.5259
 4255SOL     hw17018   1.804   0.531   6.933 -1.0091 -1.3672  0.6384
 4255SOL     hw17019   1.665   0.590   6.943 -0.9583 -1.2105  0.4232
 4255SOL     vw17020   1.722   0.536   6.905 -0.6693 -0.4544 -0.2472
 4256SOL     ow17021   4.977   4.990   3.375 -0.0152  0.0346  0.3569
 4256SOL     hw17022   4.896   4.948   3.347  0.8846 -0.9569 -0.9023
 4256SOL     hw17023   4.960   5.084   3.366 -1.0219 -0.1583  0.1188
 4256SOL     vw17024   4.964   4.997   3.370 -0.0293 -0.1218  0.1594
 4257SOL     ow17025   4.168   1.447   0.222  0.8288 -0.3530 -0.4341
 4257SOL     hw17026   4.242   1.387   0.219  0.0508 -1.5376  1.9908
 4257SOL     hw17027   4.115   1.423   0.145  2.9148  0.6149 -2.2929
 4257SOL     vw17028   4.170   1.436   0.211  1.0016 -0.3815 -0.3594
 4258SOL     ow17029   3.975   0.397   5.349  0.7923 -0.5273 -0.8285
 4258SOL     hw17030   4.014   0.313   5.327 -0.6447 -1.7740  1.0769
 4258SOL     hw17031   3.904   0.408   5.286  1.8444 -0.0044 -1.9743
 4258SOL     vw17032   3.971   0.388   5.338  0.7414 -0.6228 -0.7286
 4259SOL     ow17033   4.247   7.273   0.917 -0.5347 -0.1626 -0.2981
 4259SOL     hw17034   4.209   7.305   0.835 -1.0918 -0.6685 -0.2449
 4259SOL     hw17035   4.212   7.184   0.926 -0.8653  0.0571  0.7270
 4259SOL     vw17036   4.237   7.265   0.907 -0.6518 -0.2003 -0.1558
 4260SOL     ow17037   0.499   6.851   2.070  0.6071  0.0817  0.1192
 4260SOL     hw17038   0.529   6.830   1.981  1.6057  1.8687 -0.0022
 4260SOL     hw17039   0.579   6.857   2.122  0.2107  1.2504  0.6339
 4260SOL     vw17040   0.514   6.849   2.065  0.6866  0.4716  0.1708
 4261SOL     ow17041   1.202   1.479   2.410  0.2248  0.2474 -0.5515
 4261SOL     hw17042   1.132   1.438   2.358 -1.1191  0.1777  1.2242
 4261SOL     hw17043   1.168   1.479   2.499  2.5099  0.2489  0.3716
 4261SOL     vw17044   1.188   1.473   2.415  0.3489  0.2384 -0.1955
 4262SOL     ow17045   6.509   5.071   5.222 -0.0673  0.7374  0.6284
 4262SOL     hw17046   6.456   5.145   5.251 -0.5091  0.8082 -0.2962
 4262SOL     hw17047   6.456   5.030   5.153  1.3368  1.2312 -0.8218
 4262SOL     vw17048   6.495   5.076   5.216  0.0596  0.8118  0.3152
 4263SOL     ow17049   6.470   1.779   1.730  0.2371  0.2769  0.0005
 4263SOL     hw17050   6.449   1.863   1.771 -0.3536  0.5651 -0.8868
 4263SOL     hw17051   6.454   1.792   1.637 -0.1220 -0.9028 -0.1235
 4263SOL     vw17052   6.465   1.791   1.723  0.1118  0.1593 -0.1330
 4264SOL     ow17053   1.680   6.086   1.517 -0.9894 -0.3608  0.1016
 4264SOL     hw17054   1.724   6.095   1.601 -0.8998 -0.0839  0.0242
 4264SOL     hw17055   1.672   6.175   1.484 -0.5414 -0.5112 -0.4340
 4264SOL     vw17056   1.685   6.099   1.524 -0.9184 -0.3440  0.0207
 4265SOL     ow17057   6.764   2.648   3.283  0.2549  1.1254 -0.0840
 4265SOL     hw17058   6.690   2.709   3.272  0.7417  2.2324  2.1226
 4265SOL     hw17059   6.765   2.629   3.377 -0.3514 -3.0152 -0.7330
 4265SOL     vw17060   6.754   2.654   3.294  0.2394  0.7252  0.1214
 4266SOL     ow17061   4.997   6.558   6.513  0.1949 -0.0897 -0.1192
 4266SOL     hw17062   5.032   6.518   6.592 -1.0543  0.7691  0.9026
 4266SOL     hw17063   5.058   6.629   6.494  1.3834 -1.2604 -0.8820
 4266SOL     vw17064   5.010   6.562   6.521  0.1869 -0.1307 -0.0851
 4267SOL     ow17065   0.355   7.456   3.597  0.0366 -0.4151 -0.4357
 4267SOL     hw17066   0.305   7.537   3.603  0.0383 -0.5166  1.7911
 4267SOL     hw17067   0.324   7.414   3.516 -1.6886  0.6655 -0.3875
 4267SOL     vw17068   0.344   7.461   3.587 -0.1908 -0.2859 -0.1357
 4268SOL     ow17069   6.269   4.803   5.660 -0.4448  0.9526 -1.0861
 4268SOL     hw17070   6.327   4.825   5.732  1.5023  1.3444 -2.6770
 4268SOL     hw17071   6.183   4.792   5.700  0.9731 -1.4085  1.6893
 4268SOL     vw17072   6.265   4.805   5.674 -0.0012  0.6928 -0.9298
 4269SOL     ow17073   1.054   0.952   0.203 -0.6250  0.4221 -0.0305
 4269SOL     hw17074   0.975   0.952   0.149 -1.7157  1.5840  1.4893
 4269SOL     hw17075   1.115   1.008   0.155 -0.3738 -1.1286 -1.6242
 4269SOL     vw17076   1.052   0.959   0.190 -0.7358  0.3709 -0.0403
 4270SOL     ow17077   6.561   0.067   3.537  0.4044  0.4180  0.3797
 4270SOL     hw17078   6.609  -0.008   3.501 -0.2825 -0.0086  0.3311
 4270SOL     hw17079   6.532   0.116   3.461 -0.3527 -0.0424  0.3615
 4270SOL     vw17080   6.564   0.063   3.523  0.2139  0.3010  0.3709
 4271SOL     ow17081   6.010   1.618   0.449 -0.0993 -0.5845 -0.2886
 4271SOL     hw17082   6.028   1.709   0.425 -1.5423 -0.6235 -1.7162
 4271SOL     hw17083   6.094   1.585   0.482  0.7170  0.9608 -0.7080
 4271SOL     vw17084   6.024   1.625   0.450 -0.1819 -0.3858 -0.5323
 4272SOL     ow17085   4.159   0.934   2.777  0.2206 -0.6109  0.1599
 4272SOL     hw17086   4.189   0.922   2.687  2.7154  3.4342  0.1821
 4272SOL     hw17087   4.218   0.880   2.829  0.1139 -1.3711 -0.4817
 4272SOL     vw17088   4.171   0.926   2.772  0.5357 -0.1775  0.0783
 4273SOL     ow17089   5.783   5.088   0.199  0.0230  0.2948 -0.6553
 4273SOL     hw17090   5.716   5.122   0.140 -0.2763 -3.7928 -3.0606
 4273SOL     hw17091   5.861   5.140   0.181 -1.1165  1.6899 -1.7326
 4273SOL     vw17092   5.784   5.099   0.189 -0.1669 -0.0603 -1.1148
 4274SOL     ow17093   4.347   6.024   4.747  0.2840 -0.3842  0.2143
 4274SOL     hw17094   4.401   6.018   4.826 -0.5882 -1.3235  0.7812
 4274SOL     hw17095   4.371   5.947   4.695 -0.4729 -0.8135  0.4735
 4274SOL     vw17096   4.357   6.013   4.751  0.0689 -0.5651  0.3233
 4275SOL     ow17097   0.111   0.713   2.671 -0.0673 -0.3273  0.0457
 4275SOL     hw17098   0.161   0.783   2.630 -1.0381  1.1683  1.2975
 4275SOL     hw17099   0.166   0.684   2.744 -0.3038  0.1699  0.4242
 4275SOL     vw17100   0.125   0.718   2.675 -0.2266 -0.0643  0.2608
 4276SOL     ow17101   4.518   6.664   4.446 -0.0949 -0.6686  0.5697
 4276SOL     hw17102   4.524   6.679   4.540  1.4384  0.7906  0.2805
 4276SOL     hw17103   4.430   6.694   4.423  0.7516  2.6212  1.0212
 4276SOL     vw17104   4.507   6.670   4.455  0.2189 -0.0420  0.5913
 4277SOL     ow17105   1.667   1.260   4.124  0.3960  0.9975 -0.6847
 4277SOL     hw17106   1.679   1.267   4.029  1.2475 -0.0247 -0.6631
 4277SOL     hw17107   1.573   1.246   4.135  0.3415  0.7388 -1.4052
 4277SOL     vw17108   1.657   1.259   4.113  0.5012  0.8286 -0.7770
 4278SOL     ow17109   0.275   4.868   1.621 -0.3124  0.1149 -0.8050
 4278SOL     hw17110   0.346   4.931   1.629  0.2044 -0.4517 -0.8183
 4278SOL     hw17111   0.296   4.817   1.543 -1.4952  0.8596 -1.6396
 4278SOL     vw17112   0.287   4.869   1.612 -0.4002  0.1383 -0.9168
 4279SOL     ow17113   1.126   0.952   0.509  0.0356 -0.5851 -0.0600
 4279SOL     hw17114   1.218   0.928   0.498  0.0939  0.0610 -1.0617
 4279SOL     hw17115   1.110   0.940   0.603  1.5810  0.7598  0.4322
 4279SOL     vw17116   1.136   0.947   0.520  0.2472 -0.3224 -0.1272
 4280SOL     ow17117   2.698   0.895   6.455  0.4800  0.3563 -0.2792
 4280SOL     hw17118   2.707   0.802   6.473 -0.8751  0.4908  1.4041
 4280SOL     hw17119   2.632   0.925   6.518 -0.2082  2.1595 -1.7705
 4280SOL     vw17120   2.690   0.887   6.466  0.2104  0.6120 -0.2537
 4281SOL     ow17121   2.484   2.483   5.911  0.4364 -0.4438 -0.1017
 4281SOL     hw17122   2.471   2.552   5.975 -0.3478 -0.7419  0.0733
 4281SOL     hw17123   2.565   2.439   5.938 -1.2473 -2.3085  2.3310
 4281SOL     vw17124   2.493   2.486   5.923  0.1109 -0.7292  0.2425
 4282SOL     ow17125   1.962   7.138   0.837 -0.0369  0.2230  0.0593
 4282SOL     hw17126   2.018   7.062   0.819 -0.4544 -0.5303  1.7577
 4282SOL     hw17127   1.935   7.168   0.750  1.4890 -0.5358 -0.7170
 4282SOL     vw17128   1.965   7.132   0.823  0.1094  0.0236  0.1810
 4283SOL     ow17129   6.310   3.793   2.244 -0.1464  0.9050 -0.3145
 4283SOL     hw17130   6.227   3.788   2.196 -0.5283 -1.8914  0.4490
 4283SOL     hw17131   6.370   3.837   2.184 -1.0057 -1.0041 -2.7509
 4283SOL     vw17132   6.307   3.798   2.230 -0.3099  0.2842 -0.5352
 4284SOL     ow17133   7.505   5.316   4.778 -0.2034  0.2742  0.3737
 4284SOL     hw17134   7.564   5.279   4.844 -0.7068 -2.3320 -0.5082
 4284SOL     hw17135   7.555   5.312   4.696  0.2499  3.0574  0.4115
 4284SOL     vw17136   7.519   5.311   4.776 -0.2100  0.2978  0.2623
 4285SOL     ow17137   5.633   6.729   4.320 -0.7176 -0.1241  0.2483
 4285SOL     hw17138   5.713   6.728   4.373 -0.5028 -1.6880 -0.0825
 4285SOL     hw17139   5.643   6.656   4.260 -1.4209  1.0017 -1.2954
 4285SOL     vw17140   5.645   6.720   4.319 -0.7820 -0.1817  0.0007
 4286SOL     ow17141   6.550   0.101   1.964 -0.3180 -0.7084 -0.2662
 4286SOL     hw17142   6.604   0.042   2.017 -1.1943 -2.0445 -0.8093
 4286SOL     hw17143   6.597   0.107   1.881 -0.3229 -0.7802 -0.2743
 4286SOL     vw17144   6.564   0.094   1.960 -0.4342 -0.8942 -0.3389
 4287SOL     ow17145   7.425   5.841   3.702  0.1372 -0.2338  0.1921
 4287SOL     hw17146   7.358   5.842   3.634 -0.1897  0.4581  0.5146
 4287SOL     hw17147   7.376   5.845   3.784  0.5518 -0.2400  0.4418
 4287SOL     vw17148   7.410   5.842   3.704  0.1485 -0.1433  0.2675
 4288SOL     ow17149   4.356   7.137   7.364  0.0092  0.7016 -0.5734
 4288SOL     hw17150   4.349   7.221   7.319 -0.8213  0.0262 -1.7518
 4288SOL     hw17151   4.281   7.086   7.333 -1.4578  0.6341  2.5833
 4288SOL     vw17152   4.345   7.141   7.354 -0.2940  0.6037 -0.3123
 4289SOL     ow17153   5.721   1.684   0.422  0.4048 -0.1289  0.3240
 4289SOL     hw17154   5.638   1.676   0.470 -0.5043 -1.9500 -1.3962
 4289SOL     hw17155   5.695   1.716   0.336  1.6330  0.2010  0.0629
 4289SOL     vw17156   5.706   1.687   0.417  0.4468 -0.3256  0.0626
 4290SOL     ow17157   7.220   2.872   3.086 -0.5080  0.2384  0.2812
 4290SOL     hw17158   7.129   2.843   3.080 -0.0339 -1.3762  0.2457
 4290SOL     hw17159   7.229   2.901   3.177 -0.1913 -3.0671  1.4477
 4290SOL     vw17160   7.209   2.872   3.098 -0.4034 -0.4107  0.4303
 4291SOL     ow17161   4.742   6.016   4.998  0.2099 -0.5867 -0.2149
 4291SOL     hw17162   4.756   5.951   4.929 -0.6779 -0.0824 -0.8884
 4291SOL     hw17163   4.753   5.967   5.080  0.6973 -1.3210 -0.7051
 4291SOL     vw17164   4.745   6.001   5.000  0.1569 -0.6173 -0.3684
 4292SOL     ow17165   3.626   1.766   7.398  0.2851  0.7330 -0.3020
 4292SOL     hw17166   3.627   1.678   7.436  0.6998 -0.0616 -2.0423
 4292SOL     hw17167   3.571   1.818   7.458 -2.2196 -1.3577 -0.5995
 4292SOL     vw17168   3.619   1.761   7.411  0.0094  0.3523 -0.5708
 4293SOL     ow17169   4.574   0.428   1.628 -0.5770 -0.0602 -0.0257
 4293SOL     hw17170   4.521   0.376   1.689 -0.6478 -1.9699 -1.6202
 4293SOL     hw17171   4.663   0.398   1.643 -0.2683  1.1277  0.6808
 4293SOL     vw17172   4.579   0.417   1.638 -0.5455 -0.1555 -0.1429
 4294SOL     ow17173   2.981   4.747   7.359  0.3042  0.3177  0.6153
 4294SOL     hw17174   3.018   4.662   7.333  0.6250  1.0680 -1.5435
 4294SOL     hw17175   3.010   4.808   7.291 -1.5799  1.7583  1.0220
 4294SOL     vw17176   2.990   4.744   7.346  0.0980  0.6070  0.3841
 4295SOL     ow17177   3.655   4.817   4.062  0.8757  0.1697 -0.1288
 4295SOL     hw17178   3.607   4.883   4.012  0.2866  1.8803  2.4869
 4295SOL     hw17179   3.594   4.789   4.130  1.8473 -1.5822  0.0913
 4295SOL     vw17180   3.641   4.822   4.065  0.9261  0.1640  0.2456
 4296SOL     ow17181   0.334   4.046   1.870 -0.0321  0.3835  0.2591
 4296SOL     hw17182   0.310   4.034   1.961 -0.2686  1.0110  0.2848
 4296SOL     hw17183   0.276   3.987   1.822 -0.8031  0.9992  0.4176
 4296SOL     vw17184   0.324   4.036   1.875 -0.1650  0.5479  0.2834
 4297SOL     ow17185   3.375   6.903   6.825 -0.2225  0.3860 -0.0071
 4297SOL     hw17186   3.411   6.974   6.878 -2.6093  2.0467 -0.4549
 4297SOL     hw17187   3.387   6.932   6.735  0.0091 -0.4464 -0.2563
 4297SOL     vw17188   3.382   6.916   6.820 -0.5068  0.4954 -0.0989
 4298SOL     ow17189   1.702   3.197   2.330 -0.0874 -0.2845 -0.0587
 4298SOL     hw17190   1.618   3.242   2.331 -0.3650 -0.6982  3.0641
 4298SOL     hw17191   1.736   3.211   2.241 -2.0382  2.4487 -0.4747
 4298SOL     vw17192   1.696   3.205   2.318 -0.3815  0.0215  0.2984
 4299SOL     ow17193   0.011   0.425   1.801 -0.1063 -0.4802 -0.9491
 4299SOL     hw17194   0.016   0.372   1.722  0.0033 -1.6147 -0.2151
 4299SOL     hw17195  -0.030   0.507   1.774 -1.3990 -1.4115 -1.8893
 4299SOL     vw17196   0.007   0.429   1.787 -0.2624 -0.7528 -0.9764
 4300SOL     ow17197   3.148   4.373   0.417  0.1370 -0.3212 -0.5708
 4300SOL     hw17198   3.147   4.327   0.333 -0.9071  0.0244 -0.7618
 4300SOL     hw17199   3.091   4.449   0.403 -0.6819 -0.6729  0.6690
 4300SOL     vw17200   3.140   4.377   0.404 -0.1090 -0.3221 -0.4324
 4301SOL     ow17201   5.019   4.885   5.943 -0.5787 -0.5558  0.2033
 4301SOL     hw17202   5.114   4.872   5.946 -0.6151 -0.9199 -0.0588
 4301SOL     hw17203   5.004   4.970   5.984 -0.1608 -0.6080  0.4636
 4301SOL     vw17204   5.029   4.894   5.949 -0.5283 -0.6108  0.2031
 4302SOL     ow17205   3.569   0.060   5.960 -0.0380  0.0214  0.0693
 4302SOL     hw17206   3.597   0.145   5.927 -1.6686  0.8226  0.6377
 4302SOL     hw17207   3.570   0.070   6.055  1.4376 -1.1833  0.2093
 4302SOL     vw17208   3.573   0.073   5.968 -0.0585 -0.0319  0.1626
 4303SOL     ow17209   4.795   3.022   2.674 -0.5792  0.0428 -0.1902
 4303SOL     hw17210   4.758   2.965   2.608 -2.2649  0.2106  0.5672
 4303SOL     hw17211   4.720   3.065   2.715  0.5302  1.5265  0.4200
 4303SOL     vw17212   4.780   3.020   2.671 -0.6552  0.2607 -0.0097
 4304SOL     ow17213   3.457   1.524   6.299  0.4591  0.4565 -0.3558
 4304SOL     hw17214   3.469   1.444   6.350 -0.1910  1.9678  2.3774
 4304SOL     hw17215   3.545   1.547   6.270  0.7531 -0.8229 -0.5270
 4304SOL     vw17216   3.470   1.516   6.302  0.4120  0.4871 -0.0179
 4305SOL     ow17217   3.520   5.541   7.399  0.3208 -0.1664  1.0773
 4305SOL     hw17218   3.556   5.610   7.344 -0.1313 -1.3509 -0.7764
 4305SOL     hw17219   3.510   5.466   7.341 -0.9011 -1.2549  2.5992
 4305SOL     vw17220   3.524   5.540   7.384  0.0999 -0.4663  1.0335
 4306SOL     ow17221   2.277   1.932   1.751 -0.6178  0.6102  0.3633
 4306SOL     hw17222   2.277   1.843   1.784 -1.2981 -0.1335 -1.5265
 4306SOL     hw17223   2.369   1.951   1.733 -0.4150  0.4975  1.2245
 4306SOL     vw17224   2.289   1.923   1.753 -0.6809  0.4972  0.2276
 4307SOL     ow17225   2.877   0.280   0.523 -0.1092  0.0896  0.1735
 4307SOL     hw17226   2.924   0.347   0.474 -0.6211  2.2077  2.4249
 4307SOL     hw17227   2.785   0.294   0.501 -0.3941  1.4245  2.0870
 4307SOL     vw17228   2.871   0.290   0.513 -0.2145  0.5451  0.7230
 4308SOL     ow17229   7.156   4.902   4.696  0.1080 -0.1969  0.2067
 4308SOL     hw17230   7.161   4.813   4.733  2.3397  0.0900  0.6922
 4308SOL     hw17231   7.204   4.897   4.614 -1.9324  0.0146 -1.0916
 4308SOL     vw17232   7.163   4.889   4.690  0.1335 -0.1311  0.0994
 4309SOL     ow17233   2.168   2.889   1.262 -0.1304 -0.1318  0.0603
 4309SOL     hw17234   2.106   2.842   1.318 -0.8468  0.3884 -0.2829
 4309SOL     hw17235   2.245   2.903   1.318 -0.4026 -0.5996  0.5576
 4309SOL     vw17236   2.170   2.885   1.277 -0.2608 -0.1248  0.0806
 4310SOL     ow17237   5.317   2.023   4.908  0.4610 -0.2114  0.4879
 4310SOL     hw17238   5.347   2.093   4.965  1.2715  1.0576 -1.3797
 4310SOL     hw17239   5.318   2.062   4.820  1.2994 -2.6560 -0.6738
 4310SOL     vw17240   5.321   2.037   4.904  0.6785 -0.3664  0.0880
 4311SOL     ow17241   5.661   5.715   3.470 -0.5143 -0.4758  0.4485
 4311SOL     hw17242   5.649   5.754   3.557 -0.4079 -0.1535  0.3181
 4311SOL     hw17243   5.687   5.624   3.489 -0.4091 -0.3850  0.7550
 4311SOL     vw17244   5.663   5.708   3.484 -0.4861 -0.4215  0.4718
 4312SOL     ow17245   6.765   0.448   0.837  0.3163 -0.2952  0.0235
 4312SOL     hw17246   6.799   0.412   0.755 -0.8311 -0.7639 -0.2683
 4312SOL     hw17247   6.699   0.385   0.865 -2.3913  1.9201 -0.9490
 4312SOL     vw17248   6.761   0.435   0.830 -0.1924 -0.0648 -0.1433
 4313SOL     ow17249   0.599   6.897   0.177 -0.0291  0.0394  0.3535
 4313SOL     hw17250   0.534   6.938   0.120  0.2328  0.2871  0.2323
 4313SOL     hw17251   0.586   6.803   0.164 -0.1801  0.0914  0.1196
 4313SOL     vw17252   0.589   6.890   0.168 -0.0145  0.0789  0.3067
 4314SOL     ow17253   1.017   1.157   7.164 -0.5974  0.4934  0.3159
 4314SOL     hw17254   1.086   1.166   7.230  0.7999 -1.6656 -0.7214
 4314SOL     hw17255   1.000   1.246   7.135  2.1256  1.0981  0.2788
 4314SOL     vw17256   1.024   1.170   7.169 -0.0538  0.2883  0.1740
 4315SOL     ow17257   4.532   4.884   4.373 -0.3581 -0.0981  0.3230
 4315SOL     hw17258   4.511   4.821   4.442  2.2896 -0.3574  0.9890
 4315SOL     hw17259   4.513   4.970   4.413 -0.5061 -0.3144  0.7271
 4315SOL     vw17260   4.527   4.887   4.388 -0.0281 -0.1607  0.4642
 4316SOL     ow17261   4.494   1.798   3.231  0.4791  0.0796  0.6361
 4316SOL     hw17262   4.533   1.721   3.190 -0.0036  0.1229  0.0778
 4316SOL     hw17263   4.544   1.872   3.196 -0.1429  0.1416 -0.1445
 4316SOL     vw17264   4.505   1.798   3.221  0.3333  0.0935  0.4594
 4317SOL     ow17265   0.227   6.015   7.370 -0.4413 -0.0758  0.2293
 4317SOL     hw17266   0.147   5.992   7.323  0.6644 -1.0568 -1.2752
 4317SOL     hw17267   0.199   6.079   7.436 -2.7243 -1.5732  0.8308
 4317SOL     vw17268   0.213   6.020   7.372 -0.5966 -0.4029  0.1101
 4318SOL     ow17269   6.767   2.023   1.550 -0.1588  0.1873  0.0598
 4318SOL     hw17270   6.759   1.928   1.546 -0.4523  0.1800  0.6612
 4318SOL     hw17271   6.777   2.050   1.459  0.8391 -0.4893 -0.0434
 4318SOL     vw17272   6.767   2.014   1.538 -0.0658  0.0970  0.1255
 4319SOL     ow17273   6.239   5.313   2.360  0.4587 -0.1017 -0.5477
 4319SOL     hw17274   6.312   5.284   2.414  0.0467  0.0966  0.1247
 4319SOL     hw17275   6.275   5.316   2.271  1.6194  1.1660 -0.0686
 4319SOL     vw17276   6.253   5.309   2.355  0.5574  0.0916 -0.3959
 4320SOL     ow17277   2.320   1.556   3.989  0.1919  0.4252  0.1365
 4320SOL     hw17278   2.343   1.534   3.899 -1.3802  2.0315 -0.7141
 4320SOL     hw17279   2.253   1.492   4.013 -0.3899  0.8519 -0.3408
 4320SOL     vw17280   2.314   1.544   3.980 -0.0923  0.6934 -0.0387
 4321poe    c3117281   0.790   0.752   4.776  0.1660 -0.5839  0.1516
 4321poe     o217282   0.684   0.784   4.864  0.4076 -0.1745  0.2932
 4321poe    c2317283   0.559   0.774   4.800  0.4843 -0.2981  0.1635
 4321poe    c2317284   0.447   0.833   4.887  0.6805  0.0298  0.1956
 4321poe     o217285   0.397   0.759   4.996 -0.3716 -0.2752 -0.4723
 4321poe    c2317286   0.286   0.817   5.060  0.0850 -0.0842  0.1685
 4321poe    c2317287   0.154   0.753   5.011 -0.1370  0.3682  0.1673
 4321poe     o217288   0.123   0.626   5.063  0.2087  0.1603 -0.1339
 4321poe    c2317289   0.101   0.617   5.202 -0.1387 -0.1834 -0.2077
 4321poe    c2317290   0.071   0.473   5.246  0.1132  0.0963  0.9079
 4321poe     o217291   0.172   0.378   5.220  0.0745  0.1698  0.4736
 4321poe    c3117292   0.160   0.286   5.326 -0.9829 -0.3057 -0.0489
 4322poe    c3117293   2.278   3.435   2.014 -0.3379 -0.2497  0.2577
 4322poe     o217294   2.252   3.499   1.891  0.1802 -0.1768  0.1828
 4322poe    c2317295   2.189   3.403   1.810 -0.2794  0.3080 -0.0484
 4322poe    c2317296   2.120   3.481   1.697 -0.4080 -0.5027 -0.5358
 4322poe     o217297   2.212   3.564   1.630 -0.3374 -0.5378 -0.4834
 4322poe    c2317298   2.133   3.654   1.555 -0.2595 -0.0032  0.0747
 4322poe    c2317299   2.240   3.740   1.485 -0.2874  0.0604  0.1096
 4322poe     o217300   2.267   3.852   1.565  0.3344  0.2906 -0.4130
 4322poe    c2317301   2.360   3.937   1.503  0.5241  0.5694  0.2394
 4322poe    c2317302   2.322   4.086   1.486  0.3822  0.4608 -0.4417
 4322poe     o217303   2.262   4.126   1.607  0.2260 -0.7022 -0.1154
 4322poe    c3117304   2.233   4.264   1.602 -0.0977 -0.7758 -0.2591
 4323poe    c3117305   6.803   7.369   0.833 -0.3591 -0.1415 -0.1939
 4323poe     o217306   6.805   7.254   0.915 -0.2675 -0.2589 -0.3600
 4323poe    c2317307   6.940   7.253   0.956 -0.3718  0.1012 -0.0067
 4323poe    c2317308   6.945   7.148   1.068  0.3340 -0.0891 -0.2139
 4323poe     o217309   6.948   7.014   1.026 -0.5891 -0.0317 -0.4851
 4323poe    c2317310   6.998   6.947   1.140 -0.2480  0.6819 -0.2112
 4323poe    c2317311   6.970   6.796   1.129 -0.2978  0.6902 -0.1923
 4323poe     o217312   6.834   6.762   1.115 -0.0477 -0.3186 -0.2402
 4323poe    c2317313   6.836   6.622   1.098  0.2270 -0.3975  0.4287
 4323poe    c2317314   6.697   6.568   1.136  0.2243 -0.2128  0.6862
 4323poe     o217315   6.649   6.592   1.266 -0.4365  0.7538  0.2718
 4323poe    c3117316   6.526   6.538   1.307  0.0154 -0.3101  0.2478
 4324poe    c3117317   4.691   5.869   4.061  0.0692  0.2355 -0.9062
 4324poe     o217318   4.564   5.824   4.104  0.1422  0.6488 -0.2357
 4324poe    c2317319   4.572   5.769   4.233 -0.5024 -0.3240 -0.6029
 4324poe    c2317320   4.547   5.617   4.240  0.0446 -0.4125 -0.5684
 4324poe     o217321   4.410   5.599   4.214 -0.1674 -0.0228  0.2425
 4324poe    c2317322   4.368   5.471   4.255 -0.2812 -0.2628 -0.6072
 4324poe    c2317323   4.263   5.428   4.151 -0.5815 -0.1567 -0.3486
 4324poe     o217324   4.161   5.525   4.160 -0.2497  0.1694 -0.1064
 4324poe    c2317325   4.060   5.465   4.083 -0.0265 -0.3587  0.0084
 4324poe    c2317326   3.991   5.568   3.992  0.1420 -0.2218  0.0362
 4324poe     o217327   4.077   5.628   3.897 -0.0016  0.1207  0.1196
 4324poe    c3117328   4.015   5.713   3.803  0.3294  0.4293  0.1771
 4325poe    c3117329   1.544   2.652   5.775 -0.2431  0.2182 -0.3495
 4325poe     o217330   1.665   2.665   5.704  0.2244  0.3571  0.4666
 4325poe    c2317331   1.650   2.664   5.564  0.2099 -1.0090  0.4643
 4325poe    c2317332   1.779   2.686   5.482  0.0401  0.1120  0.4901
 4325poe     o217333   1.872   2.582   5.498 -0.2942 -0.4273 -0.8853
 4325poe    c2317334   1.970   2.598   5.397  0.1793 -0.2181 -0.4013
 4325poe    c2317335   2.110   2.541   5.427  0.0996 -0.1234  0.1748
 4325poe     o217336   2.133   2.404   5.452  0.3997 -0.1480 -0.2232
 4325poe    c2317337   2.120   2.318   5.341  0.2404 -0.0959 -0.2448
 4325poe    c2317338   2.183   2.180   5.369 -0.6324 -0.2421  1.1351
 4325poe     o217339   2.314   2.177   5.420 -0.1426  0.6604 -0.0141
 4325poe    c3117340   2.322   2.053   5.488  0.1122  0.2109 -0.8384
 4326poe    c3117341   6.654   3.545   1.895 -0.1051 -0.0996  0.2355
 4326poe     o217342   6.726   3.437   1.951 -0.3528 -0.4408 -0.0975
 4326poe    c2317343   6.844   3.426   1.874 -0.2859 -0.0991 -0.0490
 4326poe    c2317344   6.842   3.314   1.767 -0.3287  0.3661 -0.5367
 4326poe     o217345   6.838   3.183   1.817  0.7529  0.4244 -0.2858
 4326poe    c2317346   6.832   3.099   1.704  0.4793  0.3304 -0.2023
 4326poe    c2317347   6.826   2.958   1.765 -0.2963  0.3866 -0.1357
 4326poe     o217348   6.695   2.925   1.803 -0.2880  0.6749  0.1493
 4326poe    c2317349   6.693   2.791   1.848 -0.3046  0.4923 -0.3911
 4326poe    c2317350   6.605   2.768   1.971  0.9256 -0.3151  0.3604
 4326poe     o217351   6.626   2.872   2.063  0.5785 -0.4908  0.6420
 4326poe    c3117352   6.579   2.847   2.194  0.2309  0.2625  0.6666
 4327poe    c3117353   1.878   7.357   5.099  0.2687  0.1599 -0.2871
 4327poe     o217354   1.864   7.265   5.205  0.1085 -0.2648 -0.6728
 4327poe    c2317355   1.821   7.141   5.155 -1.1808  0.0632 -0.4049
 4327poe    c2317356   1.802   7.038   5.268  0.3014  0.4069  0.1784
 4327poe     o217357   1.749   7.118   5.372  0.2622  0.4877  0.0967
 4327poe    c2317358   1.705   7.043   5.483 -0.3927  0.1476 -0.3844
 4327poe    c2317359   1.628   7.123   5.591 -0.3252 -0.3369  0.0235
 4327poe     o217360   1.705   7.231   5.637 -0.6270 -0.2347  0.2859
 4327poe    c2317361   1.641   7.314   5.732  0.0649  0.3624  0.2431
 4327poe    c2317362   1.712   7.450   5.748 -0.3225  0.5231  0.6244
 4327poe     o217363   1.760   7.518   5.634 -0.0644  0.3942  0.6568
 4327poe    c3117364   1.790   7.652   5.669  0.0319  0.4253  0.4545
 4328poe    c3117365   7.486   3.401   0.890  0.3072 -0.1765 -0.1802
 4328poe     o217366   7.449   3.477   0.777 -0.2600 -0.0096  0.1114
 4328poe    c2317367   7.515   3.599   0.801  0.2451 -0.2256 -0.1629
 4328poe    c2317368   7.459   3.706   0.706  0.7724  0.4526  0.2805
 4328poe     o217369   7.321   3.723   0.733  0.5734 -0.5354 -0.0864
 4328poe    c2317370   7.279   3.845   0.677 -0.1826 -0.7687 -0.0406
 4328poe    c2317371   7.132   3.890   0.688 -0.0346 -0.2558 -0.1177
 4328poe     o217372   7.078   3.911   0.816  0.4411 -0.0559  0.0519
 4328poe    c2317373   6.941   3.945   0.811  0.4400 -0.0100  0.3338
 4328poe    c2317374   6.867   3.988   0.938 -0.4122  0.2533 -0.2468
 4328poe     o217375   6.825   3.885   1.025  0.1485  0.2951  0.0736
 4328poe    c3117376   6.708   3.930   1.089 -0.1666 -0.5121  0.0713
 4329poe    c3117377   6.980   0.539   7.089  0.7262  0.1613  0.3702
 4329poe     o217378   6.991   0.631   6.982  0.1854  0.0654  0.2243
 4329poe    c2317379   7.128   0.651   6.955  0.0691 -0.2354 -0.5969
 4329poe    c2317380   7.154   0.778   6.872  0.0071  0.2341  0.1021
 4329poe     o217381   7.133   0.900   6.940 -0.2899  0.1095  0.2378
 4329poe    c2317382   7.005   0.947   6.905 -0.3544  0.1238  0.4879
 4329poe    c2317383   6.948   1.060   6.993 -0.1677  0.4288  0.2204
 4329poe     o217384   6.898   1.009   7.114  0.0354 -0.1617  0.0606
 4329poe    c2317385   6.823   1.114   7.171  0.3977  0.2485 -0.2162
 4329poe    c2317386   6.697   1.066   7.246  0.4324  0.3387 -0.1001
 4329poe     o217387   6.606   1.015   7.152  0.4365  0.0472  0.0542
 4329poe    c3117388   6.474   1.001   7.197  0.4756 -0.1276  0.1164
 4330poe    c3117389   5.545   4.453   6.958  0.0515 -0.3306 -0.5244
 4330poe     o217390   5.571   4.471   7.096  0.2190 -0.3147 -0.5573
 4330poe    c2317391   5.668   4.381   7.143  0.5017  0.2500 -0.0398
 4330poe    c2317392   5.668   4.382   7.297  0.0180  0.4371 -0.0377
 4330poe     o217393   5.537   4.362   7.343 -0.0403  0.0471 -0.3610
 4330poe    c2317394   5.519   4.367   7.483  0.1420  0.1658 -0.3419
 4330poe    c2317395   5.372   4.356   7.528  0.1755  0.8288 -0.0532
 4330poe     o217396   5.291   4.462   7.484 -0.5404  0.0266 -0.6955
 4330poe    c2317397   5.174   4.472   7.562 -0.1806  0.1435 -0.1625
 4330poe    c2317398   5.063   4.378   7.510  0.0222  0.0958 -0.5149
 4330poe     o217399   5.011   4.394   7.380 -0.1727  0.4184 -0.3996
 4330poe    c3117400   4.969   4.267   7.335  0.0232  0.1181  0.2604
 4331poe    c3117401   5.493   6.087   4.408 -0.0648 -0.1079  0.2714
 4331poe     o217402   5.444   6.030   4.528  1.1041 -0.7559  0.4534
 4331poe    c2317403   5.357   5.923   4.499  0.6389 -0.2284 -0.1121
 4331poe    c2317404   5.302   5.873   4.634 -0.0785  0.1107 -0.2701
 4331poe     o217405   5.391   5.790   4.706 -0.1462  0.6519  0.4463
 4331poe    c2317406   5.325   5.728   4.815 -0.0886 -0.0152  0.1076
 4331poe    c2317407   5.406   5.618   4.886  0.1001  0.3013  0.3856
 4331poe     o217408   5.522   5.662   4.954  0.4444 -0.0195  0.0116
 4331poe    c2317409   5.590   5.555   5.015 -0.3829 -0.3114  0.4420
 4331poe    c2317410   5.669   5.601   5.140 -0.3873 -0.1053  0.3682
 4331poe     o217411   5.780   5.687   5.136 -0.6812  0.2696  0.2234
 4331poe    c3117412   5.825   5.704   5.268  0.3654 -0.1713 -0.0660
 4332poe    c3117413   2.226   3.894   3.484 -0.1767  0.1520  0.4986
 4332poe     o217414   2.166   3.834   3.372  0.5298 -0.1575  0.2785
 4332poe    c2317415   2.032   3.868   3.344  0.8183  0.8775  0.0849
 4332poe    c2317416   1.928   3.834   3.453  1.0308 -0.2177 -0.0379
 4332poe     o217417   1.929   3.902   3.577 -0.6902  0.0005 -0.1233
 4332poe    c2317418   1.821   3.880   3.665 -0.2613 -0.0252  0.3998
 4332poe    c2317419   1.832   3.755   3.755  0.1168 -0.2499  0.0479
 4332poe     o217420   1.938   3.761   3.847  0.0387  0.2864  0.1044
 4332poe    c2317421   1.928   3.670   3.953  0.6320  0.2449  0.1282
 4332poe    c2317422   1.998   3.539   3.912 -0.1514 -0.3174  0.5483
 4332poe     o217423   2.139   3.551   3.909 -0.1857  0.0392  0.3399
 4332poe    c3117424   2.196   3.567   3.781  0.3868 -0.3170  0.5470
 4333poe    c3117425   6.351   0.620   6.421  0.2989  0.6233  0.0017
 4333poe     o217426   6.414   0.523   6.502 -0.4774 -0.2587 -0.4375
 4333poe    c2317427   6.491   0.442   6.416  0.2290  0.1682 -0.2114
 4333poe    c2317428   6.639   0.452   6.459  0.2665 -0.1139 -0.2706
 4333poe     o217429   6.696   0.581   6.457  0.4124 -0.1577  0.6602
 4333poe    c2317430   6.834   0.565   6.481  0.4971 -0.7626 -0.1867
 4333poe    c2317431   6.904   0.697   6.441 -0.4447 -0.2013 -0.0211
 4333poe     o217432   6.861   0.808   6.516 -0.1001 -0.0199 -0.0913
 4333poe    c2317433   6.950   0.911   6.479 -0.1677  0.3022  0.6227
 4333poe    c2317434   6.870   1.038   6.511 -0.7198  0.1664 -0.2034
 4333poe     o217435   6.824   1.027   6.644  0.4959  0.1690  0.2323
 4333poe    c3117436   6.796   1.160   6.680 -0.2474  0.1063 -0.0793
 4334poe    c3117437   3.098   0.180   5.509 -0.3494 -0.1487 -0.3561
 4334poe     o217438   2.966   0.192   5.462 -0.5891 -0.0586  0.3265
 4334poe    c2317439   2.925   0.317   5.411 -0.0732 -0.0324 -0.0291
 4334poe    c2317440   2.892   0.314   5.260 -0.2600 -0.1889  0.0145
 4334poe     o217441   2.780   0.239   5.217 -0.3719  0.2385 -0.4538
 4334poe    c2317442   2.805   0.210   5.082  0.4273 -0.4664 -0.1622
 4334poe    c2317443   2.695   0.113   5.035 -0.2478  0.1855  0.0731
 4334poe     o217444   2.684  -0.007   5.107 -0.2534 -0.0155 -0.2634
 4334poe    c2317445   2.560  -0.072   5.088 -0.4083  0.1592  0.1292
 4334poe    c2317446   2.536  -0.160   5.212  0.1498 -0.0899  0.0659
 4334poe     o217447   2.539  -0.083   5.330 -0.6122 -0.0664  0.0758
 4334poe    c3117448   2.531  -0.154   5.451 -0.6032  0.0317  0.1332
 4335poe    c3117449   3.015   5.626   0.373 -0.0958  0.7358  0.4021
 4335poe     o217450   2.984   5.567   0.497  0.1083  0.2344  0.2196
 4335poe    c2317451   2.922   5.441   0.484  0.3249  0.1589 -0.0834
 4335poe    c2317452   2.867   5.383   0.615 -0.2561  0.3649 -0.2296
 4335poe     o217453   2.965   5.345   0.709  0.0802  0.2262 -0.6309
 4335poe    c2317454   2.902   5.287   0.821  0.6685  0.6780 -0.0569
 4335poe    c2317455   2.994   5.262   0.942  0.0626 -0.3142  0.2130
 4335poe     o217456   3.027   5.385   1.003  0.4321 -0.1219 -0.3648
 4335poe    c2317457   3.126   5.376   1.103  0.1636 -0.0890 -0.0938
 4335poe    c2317458   3.111   5.478   1.217  0.4237 -0.0448 -0.0988
 4335poe     o217459   2.994   5.455   1.293  0.6483 -0.3422  0.1621
 4335poe    c3117460   2.947   5.575   1.351  0.2084 -0.4704  0.0707
 4336poe    c3117461   1.889   5.936   4.877  0.7092 -0.0385  0.0221
 4336poe     o217462   1.925   6.072   4.887 -0.1723  0.1772  0.3525
 4336poe    c2317463   1.824   6.144   4.821  0.2644  0.0078 -0.5171
 4336poe    c2317464   1.830   6.294   4.859 -0.0520 -0.1252  0.0748
 4336poe     o217465   1.956   6.355   4.842 -0.1665  0.0421 -0.1807
 4336poe    c2317466   1.954   6.495   4.853  0.6230  0.0564 -0.1735
 4336poe    c2317467   2.098   6.549   4.860  0.6416 -0.0127 -0.0287
 4336poe     o217468   2.181   6.471   4.944  0.5922 -0.2249 -0.1763
 4336poe    c2317469   2.300   6.539   4.976  0.0228  0.5599  0.3043
 4336poe    c2317470   2.387   6.421   5.024 -0.0679  0.1477 -0.5345
 4336poe     o217471   2.308   6.337   5.104  0.1910  0.0466 -0.3832
 4336poe    c3117472   2.392   6.268   5.193 -0.3803  0.0190  0.1438
 4337poe    c3117473   3.962   3.944   5.824  0.0114  0.4793 -0.2957
 4337poe     o217474   3.854   3.866   5.776  0.5003 -0.0528 -0.5475
 4337poe    c2317475   3.896   3.762   5.691  0.4728 -0.2253 -0.3515
 4337poe    c2317476   3.777   3.668   5.665  0.0089  0.4343 -0.6502
 4337poe     o217477   3.675   3.759   5.631  0.0071  0.5060 -0.4490
 4337poe    c2317478   3.555   3.691   5.603 -0.1351  0.3506  0.4794
 4337poe    c2317479   3.431   3.776   5.571  0.0193  0.3126 -0.2579
 4337poe     o217480   3.409   3.861   5.682  0.2800  0.1306 -0.0638
 4337poe    c2317481   3.294   3.941   5.662  0.3007  0.2669  0.3608
 4337poe    c2317482   3.308   4.070   5.578 -0.0702  0.1088  0.0525
 4337poe     o217483   3.400   4.162   5.633 -0.1265  0.0637  0.2243
 4337poe    c3117484   3.404   4.283   5.560 -0.4219 -0.0310  0.0489
 4338poe    c3117485   2.512   1.112   6.651 -0.4660  0.1312 -0.0351
 4338poe     o217486   2.531   0.978   6.690  0.1730  0.2561  0.0972
 4338poe    c2317487   2.408   0.926   6.735  0.1733  0.3151  0.1686
 4338poe    c2317488   2.438   0.791   6.804 -0.2064  0.0851 -0.1101
 4338poe     o217489   2.507   0.700   6.722 -0.4141 -0.1532 -0.0212
 4338poe    c2317490   2.645   0.686   6.751 -0.3755  0.2872  0.0084
 4338poe    c2317491   2.729   0.593   6.662  0.2455  0.4665  0.4056
 4338poe     o217492   2.756   0.637   6.531 -0.3071 -0.4964 -0.0364
 4338poe    c2317493   2.822   0.539   6.454 -0.3142 -0.6165  0.1103
 4338poe    c2317494   2.861   0.587   6.313 -0.3132 -0.1691  0.2629
 4338poe     o217495   2.955   0.689   6.286 -0.2360 -0.3089  0.0013
 4338poe    c3117496   3.084   0.647   6.325 -0.0486  0.1707 -0.0961
 4339poe    c3117497   6.135   0.078   0.365  0.2220 -0.0548  0.1052
 4339poe     o217498   6.050  -0.033   0.345  0.3968 -0.2052  0.1939
 4339poe    c2317499   5.966  -0.012   0.234  0.5020 -0.1717  0.1194
 4339poe    c2317500   5.843  -0.099   0.268 -0.1337  0.6224 -0.0892
 4339poe     o217501   5.863  -0.234   0.231 -0.7485  0.4530  0.1927
 4339poe    c2317502   5.805  -0.322   0.325  0.4302  0.0574  0.5641
 4339poe    c2317503   5.864  -0.461   0.294  0.7407  0.2457  0.3041
 4339poe     o217504   5.833  -0.501   0.162  0.5340 -0.4018  0.5426
 4339poe    c2317505   5.880  -0.629   0.126  0.3700 -0.2309 -0.3064
 4339poe    c2317506   5.788  -0.663   0.007  0.1614 -0.0378 -0.2021
 4339poe     o217507   5.655  -0.641   0.047  0.3296  0.0722  0.3052
 4339poe    c3117508   5.586  -0.759   0.080 -0.5893  0.6783  0.6106
 4340poe    c3117509   7.511   2.199   7.148  0.0357 -0.0567 -0.5364
 4340poe     o217510   7.402   2.169   7.233 -0.0902  0.6156 -0.4541
 4340poe    c2317511   7.327   2.083   7.150  0.3175 -0.5888  0.4061
 4340poe    c2317512   7.192   2.019   7.190 -0.0832 -0.0514 -0.0717
 4340poe     o217513   7.093   2.118   7.201  0.0100  0.0981 -0.5127
 4340poe    c2317514   6.968   2.053   7.214  0.2015 -0.0671  0.6920
 4340poe    c2317515   6.876   2.106   7.325 -0.0593  0.5621  0.1810
 4340poe     o217516   6.912   2.059   7.453  0.0981  0.0717 -0.0412
 4340poe    c2317517   6.899   2.168   7.542  0.6916  0.2884 -0.2177
 4340poe    c2317518   6.959   2.127   7.678  0.0019 -0.4407 -0.1312
 4340poe     o217519   6.879   2.040   7.755 -0.3224  0.0975  0.1428
 4340poe    c3117520   6.943   1.984   7.867 -0.4227  0.3537  0.3296
 4341poe    c3117521   2.709   2.535   1.125  0.3232  0.2390 -0.6423
 4341poe     o217522   2.599   2.619   1.152 -0.1328 -0.4892 -0.2027
 4341poe    c2317523   2.483   2.540   1.140 -0.4742 -0.0142 -0.0411
 4341poe    c2317524   2.421   2.542   0.999 -0.4345  0.2363 -0.0564
 4341poe     o217525   2.503   2.469   0.911 -0.5051  0.2092 -0.0997
 4341poe    c2317526   2.460   2.462   0.776  0.2750 -0.0304 -0.3396
 4341poe    c2317527   2.547   2.379   0.681  0.3156  0.3791 -0.6639
 4341poe     o217528   2.657   2.458   0.641  0.2960  0.7199 -0.0548
 4341poe    c2317529   2.711   2.406   0.521 -0.3090 -0.2481  0.0798
 4341poe    c2317530   2.846   2.454   0.467 -0.3930  0.3469  0.3890
 4341poe     o217531   2.847   2.568   0.383  0.2742  0.1398  0.1027
 4341poe    c3117532   2.974   2.627   0.374  0.5629 -0.5312 -0.2787
 4342poe    c3117533   3.894   3.446   2.705 -0.0755  0.2138  0.0709
 4342poe     o217534   4.031   3.436   2.674 -0.1248 -0.0292 -0.0699
 4342poe    c2317535   4.107   3.554   2.673 -0.3481  0.1154  0.0449
 4342poe    c2317536   4.149   3.611   2.810  0.1558  1.0133 -0.4717
 4342poe     o217537   4.037   3.639   2.892  0.0690  0.3172 -0.3515
 4342poe    c2317538   4.078   3.691   3.017  0.6737  0.4621 -0.6065
 4342poe    c2317539   3.952   3.744   3.086  0.7113  0.0583 -0.2240
 4342poe     o217540   3.884   3.648   3.164  0.1921  0.2471 -0.4358
 4342poe    c2317541   3.759   3.696   3.209  0.3578 -0.2826  0.6281
 4342poe    c2317542   3.694   3.635   3.334 -0.7325  0.2008  0.3116
 4342poe     o217543   3.722   3.694   3.459 -0.8965  0.3899  0.2592
 4342poe    c3117544   3.641   3.637   3.559 -0.6711  0.2436  0.3597
 4343poe    c3117545   4.888   5.528   6.807 -0.5144 -0.2233 -0.0773
 4343poe     o217546   4.757   5.546   6.758 -0.4574 -0.1762 -0.2126
 4343poe    c2317547   4.659   5.618   6.829 -0.1697 -0.1513  0.1648
 4343poe    c2317548   4.587   5.688   6.712  0.1795 -0.3118 -0.1452
 4343poe     o217549   4.547   5.586   6.623  0.8119 -0.4334 -0.2986
 4343poe    c2317550   4.487   5.644   6.510  0.5530  0.3827  0.2544
 4343poe    c2317551   4.440   5.533   6.414  0.2333  0.1529  0.6740
 4343poe     o217552   4.551   5.451   6.384  0.2501  0.4725 -0.1424
 4343poe    c2317553   4.534   5.378   6.264  0.0854  0.0041  0.1640
 4343poe    c2317554   4.609   5.244   6.276  0.3840  0.1618  0.0596
 4343poe     o217555   4.556   5.180   6.389 -0.2393  0.7037  0.0816
 4343poe    c3117556   4.582   5.041   6.395 -0.0299  0.7337 -0.1228
 4344poe    c3117557   4.015   4.067   2.765 -0.4841  0.1216  0.7267
 4344poe     o217558   3.898   3.990   2.780 -0.3967 -0.0856  0.3548
 4344poe    c2317559   3.871   3.920   2.661  0.2688  0.0181  0.1415
 4344poe    c2317560   3.781   3.805   2.708  0.5325 -0.1490  0.2435
 4344poe     o217561   3.659   3.863   2.750  0.0766 -0.3060 -0.8282
 4344poe    c2317562   3.587   3.754   2.804 -0.4372  0.3274 -0.2134
 4344poe    c2317563   3.483   3.806   2.905 -0.7964  0.0854 -0.4576
 4344poe     o217564   3.537   3.856   3.025  0.0720 -0.4578 -0.6099
 4344poe    c2317565   3.454   3.826   3.135  0.1580  0.1152 -0.3853
 4344poe    c2317566   3.494   3.933   3.239 -0.4370 -0.1550  0.1241
 4344poe     o217567   3.435   4.060   3.223  0.4931  0.2295 -0.2880
 4344poe    c3117568   3.294   4.067   3.224  0.5190  0.7390 -0.0804
 4345poe    c3117569   3.750   4.770   4.506  0.6283 -0.0656 -0.0746
 4345poe     o217570   3.786   4.840   4.389  0.1009  0.3195 -0.0131
 4345poe    c2317571   3.798   4.979   4.407  0.4501  0.2664  0.1872
 4345poe    c2317572   3.771   5.053   4.275  0.2800  0.0627  0.1069
 4345poe     o217573   3.852   5.025   4.163 -0.0893  0.1283 -0.1779
 4345poe    c2317574   3.836   5.116   4.056  0.3987 -0.1440 -0.4899
 4345poe    c2317575   3.946   5.084   3.954  0.5056 -0.1126 -0.3849
 4345poe     o217576   3.932   4.947   3.924  0.1313 -0.0983 -0.2830
 4345poe    c2317577   4.028   4.925   3.822  0.6111  0.2500  0.0886
 4345poe    c2317578   4.086   4.783   3.833 -0.0111 -0.0663 -0.6315
 4345poe     o217579   3.993   4.680   3.809  0.0581 -0.4016  0.4784
 4345poe    c3117580   4.046   4.553   3.840  0.1967 -0.5973 -0.5035
 4346poe    c3117581   3.455   2.357   1.976  0.0373 -0.2699  0.0376
 4346poe     o217582   3.547   2.373   1.870 -0.1484  0.3521 -0.0354
 4346poe    c2317583   3.491   2.309   1.757 -0.0342 -0.1711  0.2004
 4346poe    c2317584   3.598   2.313   1.647  0.0045 -0.3964  0.2301
 4346poe     o217585   3.658   2.441   1.653  0.1566 -0.4689  0.2604
 4346poe    c2317586   3.748   2.470   1.548 -0.1578  0.0723  0.1408
 4346poe    c2317587   3.819   2.604   1.575 -0.0002  0.1019 -0.4156
 4346poe     o217588   3.715   2.698   1.578 -0.1611 -0.0815 -0.2041
 4346poe    c2317589   3.770   2.827   1.596 -0.4131 -0.0370  0.2693
 4346poe    c2317590   3.679   2.947   1.565 -0.0354  0.0696 -0.4546
 4346poe     o217591   3.591   2.950   1.675  0.2453 -0.4145 -0.2184
 4346poe    c3117592   3.522   3.073   1.680  0.6385 -0.1812 -0.5094
 4347poe    c3117593   2.580   5.708   5.090  0.1274  0.1048 -0.3519
 4347poe     o217594   2.711   5.751   5.118  0.3240 -0.6618 -0.0636
 4347poe    c2317595   2.801   5.720   5.014  0.2158 -0.1144 -0.3273
 4347poe    c2317596   2.867   5.845   4.954  0.0434  0.0478 -0.1801
 4347poe     o217597   2.942   5.916   5.051 -0.1177  0.0862 -0.0831
 4347poe    c2317598   3.012   6.027   4.999 -0.2210  0.1985  0.0158
 4347poe    c2317599   3.081   6.104   5.113  0.3166 -0.6970  0.3123
 4347poe     o217600   2.997   6.165   5.208  0.6858  0.3886 -0.0369
 4347poe    c2317601   3.049   6.245   5.312  0.0902  0.5365  0.1509
 4347poe    c2317602   2.924   6.316   5.368 -0.2120  0.2549 -0.1664
 4347poe     o217603   2.823   6.225   5.407 -0.3263  0.1558 -0.6809
 4347poe    c3117604   2.713   6.292   5.465 -0.2156  0.0622 -0.3632
 4348poe    c3117605   4.060   6.809   3.909 -0.2287 -0.2980  0.5093
 4348poe     o217606   4.164   6.815   4.004  0.6422  0.7668 -0.4862
 4348poe    c2317607   4.211   6.944   4.033  0.8596  0.4757  0.4873
 4348poe    c2317608   4.133   7.013   4.146  0.0586  0.3454  0.0156
 4348poe     o217609   4.137   6.933   4.262  0.1891 -0.1622 -0.3378
 4348poe    c2317610   4.031   6.981   4.341 -0.1832 -0.7393 -0.4782
 4348poe    c2317611   4.015   6.917   4.480  0.1063  0.2293  0.0101
 4348poe     o217612   4.133   6.942   4.553  0.2538 -0.7171  0.1119
 4348poe    c2317613   4.099   6.910   4.686 -0.2168  0.1277  0.2056
 4348poe    c2317614   4.200   6.978   4.780  0.0458  0.4577 -0.3065
 4348poe     o217615   4.318   6.901   4.774 -0.1622  0.1326 -0.2921
 4348poe    c3117616   4.375   6.920   4.902 -0.3262  0.4347 -0.2621
 4349poe    c3117617   5.241   3.450   2.469  0.6392  0.4021  0.1852
 4349poe     o217618   5.283   3.333   2.536 -0.2585 -0.2548 -0.3745
 4349poe    c2317619   5.386   3.358   2.628 -0.2933 -0.4410 -0.2851
 4349poe    c2317620   5.407   3.217   2.686  0.7080  0.1842  0.9343
 4349poe     o217621   5.446   3.131   2.582 -0.9258  0.2332  0.2547
 4349poe    c2317622   5.438   2.994   2.615 -0.3371  0.0378 -0.3766
 4349poe    c2317623   5.493   2.896   2.510 -0.3788 -0.4629  0.0652
 4349poe     o217624   5.397   2.873   2.409 -0.0431 -0.0786 -0.3437
 4349poe    c2317625   5.454   2.796   2.306 -0.2411 -0.3595 -0.2434
 4349poe    c2317626   5.419   2.859   2.170  0.1842  0.0116 -0.1847
 4349poe     o217627   5.498   2.975   2.162  0.5429 -0.2311 -0.1598
 4349poe    c3117628   5.443   3.039   2.049 -0.2710 -0.3064  0.1885
 4350poe    c3117629   2.767   6.430   0.030  0.2629 -0.2933  0.4775
 4350poe     o217630   2.684   6.343   0.104 -0.1096  0.0540  0.4679
 4350poe    c2317631   2.615   6.422   0.198 -0.1422  0.5470  0.0331
 4350poe    c2317632   2.527   6.344   0.297 -0.1886 -0.0327 -0.4575
 4350poe     o217633   2.415   6.298   0.225  0.0411 -0.7417 -0.3656
 4350poe    c2317634   2.366   6.184   0.292  0.3551 -0.5752  0.1530
 4350poe    c2317635   2.257   6.119   0.205 -0.7689  0.6000  0.6467
 4350poe     o217636   2.176   6.013   0.250 -0.4091 -0.1851 -0.4902
 4350poe    c2317637   2.105   5.950   0.145 -0.2392 -0.1882 -0.6034
 4350poe    c2317638   2.053   5.808   0.172 -0.6598  0.0987  0.1355
 4350poe     o217639   1.966   5.817   0.282 -0.2230 -0.3345  0.5230
 4350poe    c3117640   1.878   5.707   0.282  0.4391 -0.8685 -0.2064
 4351poe    c3117641   6.321   4.939   3.816 -0.0517 -0.4805  0.2703
 4351poe     o217642   6.390   4.920   3.694  0.5783 -0.0602  0.5570
 4351poe    c2317643   6.405   5.045   3.631  0.5905 -0.1718  0.3403
 4351poe    c2317644   6.481   5.037   3.497  0.1002  0.3833  0.0260
 4351poe     o217645   6.618   5.016   3.524  0.0711  0.6032  0.3501
 4351poe    c2317646   6.685   5.008   3.400 -0.1190  0.6929  0.2399
 4351poe    c2317647   6.836   4.983   3.415 -0.1750  0.2005  0.0044
 4351poe     o217648   6.852   4.867   3.494 -0.1398  0.4234  0.3292
 4351poe    c2317649   6.982   4.843   3.544 -0.2361 -0.8424 -0.0027
 4351poe    c2317650   7.016   4.907   3.679 -0.4863 -0.0088 -0.3291
 4351poe     o217651   6.948   4.845   3.785  0.1411 -0.2118 -0.0382
 4351poe    c3117652   6.993   4.904   3.905 -0.8310 -0.3249  0.4007
 4352poe    c3117653   4.759   4.514   6.710 -0.9211  0.0673 -0.3402
 4352poe     o217654   4.803   4.384   6.680 -0.0553  0.4184 -0.6171
 4352poe    c2317655   4.895   4.375   6.573  0.3109  0.3067 -0.2910
 4352poe    c2317656   4.943   4.231   6.549 -0.0732  0.0367  0.4941
 4352poe     o217657   5.065   4.205   6.616  0.3100  0.3724 -0.0595
 4352poe    c2317658   5.115   4.080   6.574 -0.5634 -0.2715  0.7783
 4352poe    c2317659   5.247   4.043   6.645  0.0813  0.1751 -0.1773
 4352poe     o217660   5.211   4.039   6.781 -0.2496 -0.5197 -0.2796
 4352poe    c2317661   5.301   3.975   6.868  0.0446 -0.0700 -0.2452
 4352poe    c2317662   5.304   4.017   7.016 -0.1911 -0.4265 -0.1377
 4352poe     o217663   5.331   4.154   7.031 -0.3270 -0.4286  0.1230
 4352poe    c3117664   5.328   4.182   7.170 -0.0566 -0.4116  0.1255
 4353poe    c3117665   3.486   1.427   5.330 -0.5823 -0.6824  0.0382
 4353poe     o217666   3.478   1.421   5.470 -0.1822  0.7340  0.1364
 4353poe    c2317667   3.606   1.416   5.529  0.0448  0.0393 -0.4063
 4353poe    c2317668   3.601   1.412   5.683 -0.1173 -0.2647 -0.4176
 4353poe     o217669   3.543   1.291   5.726  0.3841 -0.4421 -0.2322
 4353poe    c2317670   3.576   1.287   5.863 -0.0793  0.1124 -0.0974
 4353poe    c2317671   3.461   1.234   5.951 -0.4455 -0.3551 -0.8502
 4353poe     o217672   3.348   1.319   5.952 -0.2693 -0.1244 -0.2208
 4353poe    c2317673   3.234   1.267   6.017 -0.2651  0.0905 -0.0400
 4353poe    c2317674   3.207   1.325   6.157  0.8074  0.4717  0.0192
 4353poe     o217675   3.198   1.465   6.163  0.3367  0.4499 -0.1624
 4353poe    c3117676   3.099   1.516   6.250 -0.5645 -0.3312 -0.7032
 4354poe    c3117677   5.394   4.790   7.433 -0.0088 -0.2488 -0.0251
 4354poe     o217678   5.359   4.905   7.360  0.2999 -0.0050  0.2092
 4354poe    c2317679   5.306   5.001   7.449 -0.1037 -0.1506  0.1276
 4354poe    c2317680   5.214   5.100   7.376  0.3898  0.2945  0.1052
 4354poe     o217681   5.282   5.175   7.278 -0.2421  0.2325 -0.3833
 4354poe    c2317682   5.206   5.286   7.236 -0.7048  0.1611  0.2518
 4354poe    c2317683   5.248   5.354   7.104 -0.2326 -0.1591  0.2373
 4354poe     o217684   5.371   5.423   7.098 -0.6264  0.5279  0.0546
 4354poe    c2317685   5.368   5.486   6.972 -0.5064 -0.1904 -0.3129
 4354poe    c2317686   5.501   5.556   6.942 -0.2379 -0.4470  0.2585
 4354poe     o217687   5.547   5.646   7.041  0.0650 -0.4046  0.0828
 4354poe    c3117688   5.647   5.734   6.996 -0.3458 -0.0754 -0.1956
 4355poe    c3117689   2.950   2.265   5.215 -0.0166  0.3415 -0.0685
 4355poe     o217690   2.866   2.153   5.203  0.3190  0.1257 -0.4126
 4355poe    c2317691   2.884   2.093   5.077 -0.2708 -0.4040 -0.2548
 4355poe    c2317692   2.807   1.964   5.044  0.0744 -0.3791 -1.1972
 4355poe     o217693   2.673   1.957   5.000 -0.2518 -0.3095 -0.2290
 4355poe    c2317694   2.581   2.022   5.085  0.4401  0.4254 -0.0195
 4355poe    c2317695   2.450   2.061   5.015  0.2664 -0.3712 -0.1499
 4355poe     o217696   2.466   2.176   4.936  0.1915 -0.1707  0.1244
 4355poe    c2317697   2.486   2.138   4.801 -0.1437 -0.1929  0.0818
 4355poe    c2317698   2.483   2.268   4.719  0.4035  0.0368  0.4177
 4355poe     o217699   2.363   2.341   4.733  0.2606 -0.1018 -0.0577
 4355poe    c3117700   2.360   2.444   4.637  0.1718  0.0386  0.0954
 4356poe    c3117701   0.165   6.496   3.356  0.1446 -0.4430 -0.0719
 4356poe     o217702   0.247   6.531   3.466  0.0294  0.4525 -0.2616
 4356poe    c2317703   0.333   6.636   3.428  0.4067  0.1709 -0.1947
 4356poe    c2317704   0.448   6.665   3.526 -0.1019  0.7653  0.2348
 4356poe     o217705   0.408   6.676   3.661 -0.4104  0.4831  0.1664
 4356poe    c2317706   0.522   6.670   3.744  0.0933  0.2141 -0.5277
 4356poe    c2317707   0.496   6.703   3.892  0.8082 -0.2347 -0.3001
 4356poe     o217708   0.384   6.625   3.927  0.1944  0.7142 -0.1329
 4356poe    c2317709   0.345   6.664   4.057 -0.1637 -0.0733  0.0034
 4356poe    c2317710   0.196   6.626   4.061 -0.0917 -0.3632 -0.0597
 4356poe     o217711   0.126   6.674   3.948  0.1373 -0.6788 -0.3389
 4356poe    c3117712  -0.012   6.643   3.953 -0.1199  0.4748  0.2861
 4357poe    c3117713   5.862   3.319   1.906 -0.1443 -0.5429  0.0569
 4357poe     o217714   5.981   3.245   1.901  0.0290 -0.2495 -0.2781
 4357poe    c2317715   6.024   3.195   1.776  0.5336 -0.1965 -0.1271
 4357poe    c2317716   6.143   3.098   1.794  0.5840 -0.0927  0.1128
 4357poe     o217717   6.086   2.977   1.840  0.7444 -0.2288 -0.0435
 4357poe    c2317718   6.170   2.874   1.793  0.2307 -0.5026 -0.3632
 4357poe    c2317719   6.154   2.734   1.856  0.5544 -0.3482  0.0685
 4357poe     o217720   6.203   2.738   1.988  0.2160  0.4954  0.1806
 4357poe    c2317721   6.240   2.607   2.028 -0.3830  0.2756  0.0207
 4357poe    c2317722   6.306   2.619   2.167 -0.3534  0.2222  0.0114
 4357poe     o217723   6.205   2.663   2.255 -0.0956  0.1103  0.3658
 4357poe    c3117724   6.254   2.665   2.387 -0.4821 -0.2551  0.5186
 4358poe    c3117725   3.690   3.068   6.942  0.6119  0.2875 -0.6209
 4358poe     o217726   3.806   3.064   7.023  0.1568  0.3640  0.0474
 4358poe    c2317727   3.902   3.154   6.972  0.2749 -0.1539 -0.6671
 4358poe    c2317728   3.982   3.198   7.096  0.0122 -0.5026 -0.3708
 4358poe     o217729   4.123   3.194   7.092  0.0928  1.2293  0.0899
 4358poe    c2317730   4.181   3.234   7.214  0.1185 -0.2513  0.5867
 4358poe    c2317731   4.335   3.227   7.226  0.1828 -0.0643 -0.0972
 4358poe     o217732   4.404   3.315   7.140  0.1468 -0.3983 -0.4698
 4358poe    c2317733   4.543   3.314   7.166  0.0128  0.2559  0.3167
 4358poe    c2317734   4.619   3.405   7.068 -0.3378  0.1208 -0.0855
 4358poe     o217735   4.626   3.352   6.938 -0.0736  0.0694 -0.0526
 4358poe    c3117736   4.729   3.417   6.867  0.0672 -0.1360 -0.0346
 4359poe    c3117737   3.435   7.414   3.393  0.4531 -0.0077  0.6692
 4359poe     o217738   3.547   7.370   3.319 -0.1643  0.4162 -0.5522
 4359poe    c2317739   3.669   7.379   3.388 -0.3136 -0.1061 -0.2168
 4359poe    c2317740   3.783   7.366   3.285  0.0916 -0.7851  0.3093
 4359poe     o217741   3.790   7.483   3.208  0.1985 -0.7488  0.3755
 4359poe    c2317742   3.914   7.480   3.141 -0.0502 -0.0395 -0.1312
 4359poe    c2317743   3.916   7.586   3.029 -0.5277  0.1803  0.0660
 4359poe     o217744   3.831   7.559   2.920  0.1566 -0.1183 -0.4032
 4359poe    c2317745   3.852   7.648   2.813 -0.0094  0.4018 -0.0081
 4359poe    c2317746   3.751   7.641   2.697 -0.0911 -0.6800  0.1240
 4359poe     o217747   3.639   7.721   2.723  0.1742 -0.0965 -0.4888
 4359poe    c3117748   3.525   7.679   2.652 -0.2087 -0.0419  0.0831
 4360poe    c3117749   7.120   7.065   1.436 -0.8359  0.9961 -0.6250
 4360poe     o217750   7.031   7.026   1.538  0.3779  0.2482  0.1721
 4360poe    c2317751   6.971   7.134   1.607  0.2971  0.1835  0.2024
 4360poe    c2317752   6.911   7.090   1.742  0.1505  0.1436  0.1242
 4360poe     o217753   6.801   7.002   1.739  0.0055  0.3298 -0.0205
 4360poe    c2317754   6.758   6.950   1.863  0.5912 -0.5632 -0.1852
 4360poe    c2317755   6.664   6.832   1.830 -0.4383  0.0998  0.3344
 4360poe     o217756   6.569   6.840   1.727 -0.2968 -0.5497  0.1490
 4360poe    c2317757   6.540   6.714   1.670  0.2619 -0.4568 -0.3482
 4360poe    c2317758   6.419   6.735   1.578  0.2650  0.0682 -0.2348
 4360poe     o217759   6.438   6.823   1.469 -0.0100  0.1132 -0.2474
 4360poe    c3117760   6.316   6.842   1.400 -0.2812  0.8698  0.4230
 4361poe    c3117761   4.054   5.375   2.606 -0.1731 -0.1016 -0.2251
 4361poe     o217762   4.169   5.305   2.566 -0.1506 -0.0143 -0.3133
 4361poe    c2317763   4.190   5.187   2.641  0.0055  0.4038  0.3117
 4361poe    c2317764   4.340   5.155   2.635 -0.0754  0.1516 -0.4857
 4361poe     o217765   4.379   5.120   2.504 -0.0195  0.1979 -0.4820
 4361poe    c2317766   4.518   5.097   2.501 -0.0204  0.1610 -0.2356
 4361poe    c2317767   4.565   5.003   2.389 -0.3047 -0.0976 -0.1390
 4361poe     o217768   4.524   4.869   2.397  0.0065 -0.1830  0.0424
 4361poe    c2317769   4.446   4.845   2.281 -0.1823  0.7740 -0.0356
 4361poe    c2317770   4.329   4.750   2.315  0.1201  0.4761  0.1757
 4361poe     o217771   4.212   4.804   2.371  0.4688  0.4828  0.9158
 4361poe    c3117772   4.206   4.789   2.511  0.2699  0.1428  0.8733
 4362poe    c3117773   3.328   4.373   3.407 -0.6456  0.5192 -0.0595
 4362poe     o217774   3.367   4.353   3.541 -0.2778  0.2431 -0.2056
 4362poe    c2317775   3.342   4.217   3.568 -0.7720  0.4450  0.3948
 4362poe    c2317776   3.365   4.179   3.715  0.0876  0.5574  0.2899
 4362poe     o217777   3.501   4.189   3.752  0.1491  0.3507  0.1241
 4362poe    c2317778   3.517   4.105   3.864  0.2841 -0.2030 -0.3075
 4362poe    c2317779   3.664   4.086   3.908  0.2281  0.3224  0.1081
 4362poe     o217780   3.732   4.025   3.801 -0.1752 -0.1840  0.1395
 4362poe    c2317781   3.842   4.094   3.747  0.3296 -0.7043  0.4884
 4362poe    c2317782   3.864   4.061   3.598 -0.5650 -0.1623  0.2295
 4362poe     o217783   3.793   4.145   3.509  0.0987  0.0255 -0.1283
 4362poe    c3117784   3.809   4.113   3.373 -0.1076 -0.1337 -0.1156
 4363poe    c3117785   2.871   6.137   3.508  0.2906 -1.2334 -0.4272
 4363poe     o217786   2.824   6.204   3.394  0.1608 -0.0854  0.2843
 4363poe    c2317787   2.880   6.136   3.284 -0.0709  0.3529 -0.1110
 4363poe    c2317788   2.895   6.230   3.163 -0.2777  0.1399 -0.3028
 4363poe     o217789   2.768   6.274   3.120 -0.4096 -0.2623 -0.3248
 4363poe    c2317790   2.763   6.346   2.999 -0.6488  0.0835 -0.1088
 4363poe    c2317791   2.768   6.496   3.034 -0.3925 -0.0422  0.3872
 4363poe     o217792   2.887   6.531   3.102 -0.2587 -0.0516  0.1579
 4363poe    c2317793   2.889   6.667   3.139 -0.5332  0.0884 -0.3265
 4363poe    c2317794   3.014   6.696   3.225 -0.5468  0.1425 -0.3251
 4363poe     o217795   3.008   6.635   3.352 -0.1421 -0.0578 -0.3998
 4363poe    c3117796   3.141   6.634   3.398 -0.2635  0.2977 -0.0302
 4364poe    c3117797   3.308   3.967   1.639 -0.0291  0.2309 -0.2209
 4364poe     o217798   3.393   3.901   1.731 -0.6805 -0.2846  0.0248
 4364poe    c2317799   3.494   3.827   1.666 -0.1348  0.3047  0.1847
 4364poe    c2317800   3.546   3.737   1.779  0.5311 -0.0054 -0.3645
 4364poe     o217801   3.614   3.804   1.883  0.2172  0.4470 -0.4518
 4364poe    c2317802   3.686   3.721   1.972 -0.2019  0.6701  0.1036
 4364poe    c2317803   3.673   3.752   2.122 -0.2580 -0.0517  0.2500
 4364poe     o217804   3.544   3.752   2.180 -0.3667  0.9312  0.0207
 4364poe    c2317805   3.528   3.803   2.310  0.6989 -0.5579  0.7657
 4364poe    c2317806   3.406   3.897   2.313  0.4916 -0.8153  0.4288
 4364poe     o217807   3.281   3.834   2.296  0.1822 -0.1080  0.0364
 4364poe    c3117808   3.180   3.894   2.375 -0.4830 -0.7707 -0.2871
 4365poe    c3117809   6.906   3.401   3.602 -0.2100 -0.4226  0.4488
 4365poe     o217810   6.809   3.339   3.520 -0.1904  0.4573 -0.2625
 4365poe    c2317811   6.827   3.199   3.517 -0.3120  0.4411 -0.2486
 4365poe    c2317812   6.723   3.135   3.424 -0.1360 -0.4353  0.1468
 4365poe     o217813   6.747   3.188   3.295  0.0594 -0.7781  0.0391
 4365poe    c2317814   6.630   3.203   3.217  0.3217 -0.6718 -0.3379
 4365poe    c2317815   6.673   3.252   3.078  0.6849 -0.0017  0.0047
 4365poe     o217816   6.745   3.373   3.073  0.4910  0.1133 -0.0321
 4365poe    c2317817   6.761   3.418   2.940 -0.3798  0.4768 -0.0210
 4365poe    c2317818   6.832   3.554   2.951  0.4870  0.0659 -0.3749
 4365poe     o217819   6.943   3.519   3.030 -0.0944  0.1296  0.4876
 4365poe    c3117820   7.040   3.620   3.011 -0.0593 -0.0113 -0.1013
 4366poe    c3117821   3.329   0.850   0.498  0.7065  0.2315 -0.4783
 4366poe     o217822   3.235   0.895   0.403  0.3773  0.0785 -0.2291
 4366poe    c2317823   3.123   0.947   0.471  0.4424  0.1002 -0.1384
 4366poe    c2317824   3.002   0.956   0.376 -0.0986  0.1472  0.5469
 4366poe     o217825   2.886   1.020   0.422 -0.5103 -0.6890  0.6889
 4366poe    c2317826   2.791   1.046   0.321  0.2449  0.1479  0.1787
 4366poe    c2317827   2.713   0.918   0.284  0.0166  0.2279  0.3770
 4366poe     o217828   2.629   0.865   0.384 -0.1765 -0.6494 -0.2388
 4366poe    c2317829   2.699   0.805   0.491  0.2532  0.4727  0.1273
 4366poe    c2317830   2.603   0.740   0.592 -0.1999  0.2802 -0.4232
 4366poe     o217831   2.545   0.636   0.517  0.6591 -0.4848 -0.0374
 4366poe    c3117832   2.415   0.605   0.563  0.5081  0.2922  0.0658
 4367poe    c3117833   1.942   4.074   4.982  0.3449  0.0201  0.8160
 4367poe     o217834   2.033   3.980   4.929 -0.2613 -0.0493 -0.1411
 4367poe    c2317835   2.047   3.863   5.007  0.3685  0.3835  0.4065
 4367poe    c2317836   1.941   3.756   4.976  0.6120  0.1975  0.2170
 4367poe     o217837   1.810   3.797   5.008  0.3911 -0.1291 -0.2490
 4367poe    c2317838   1.708   3.732   4.936 -0.0805 -0.2328  0.5026
 4367poe    c2317839   1.607   3.648   5.016 -0.8809  0.1691 -0.0734
 4367poe     o217840   1.650   3.530   5.080  0.0394  0.5822  0.0819
 4367poe    c2317841   1.669   3.414   5.003 -0.1460  0.0448  0.8276
 4367poe    c2317842   1.710   3.299   5.097 -0.0542 -0.6062  0.0020
 4367poe     o217843   1.628   3.261   5.205 -0.0735  0.1463  0.2539
 4367poe    c3117844   1.520   3.191   5.148  0.3403 -0.1918 -0.1196
 4368poe    c3117845   5.761   7.017   6.540  0.1842  0.3409  0.2773
 4368poe     o217846   5.713   7.067   6.417 -0.0334 -0.2316  0.1311
 4368poe    c2317847   5.579   7.109   6.429  0.0699  0.1669 -0.0855
 4368poe    c2317848   5.522   7.142   6.290  0.3071  0.3071 -0.1478
 4368poe     o217849   5.600   7.241   6.225  0.2050  0.5403  0.0811
 4368poe    c2317850   5.580   7.223   6.087  0.1858  0.1379  0.1349
 4368poe    c2317851   5.621   7.340   5.996 -0.2943 -0.4987 -0.9228
 4368poe     o217852   5.539   7.452   5.969 -0.3961 -0.3044  0.1559
 4368poe    c2317853   5.494   7.517   6.086 -0.4806 -0.4067  0.1797
 4368poe    c2317854   5.410   7.644   6.064  0.2042  0.0502  0.1555
 4368poe     o217855   5.303   7.606   5.980 -0.0395  0.4149  0.3020
 4368poe    c3117856   5.177   7.648   6.027 -0.4306 -0.5103  0.0944
 4369poe    c3117857   0.439   2.633   5.981 -0.3123  0.3758 -0.8086
 4369poe     o217858   0.344   2.693   6.065 -0.3616  0.3332 -0.8339
 4369poe    c2317859   0.231   2.730   5.990 -0.5347 -0.3151 -0.8943
 4369poe    c2317860   0.102   2.760   6.068 -0.1437 -0.3749 -0.2245
 4369poe     o217861   0.057   2.643   6.133 -0.2416 -0.1898  0.0466
 4369poe    c2317862  -0.083   2.646   6.146 -0.2455  0.5270 -0.1108
 4369poe    c2317863  -0.130   2.563   6.267  0.1162  0.0970 -0.2621
 4369poe     o217864  -0.103   2.630   6.388  0.0944 -0.0365 -0.1830
 4369poe    c2317865  -0.198   2.580   6.480 -0.0704 -0.1640 -0.4196
 4369poe    c2317866  -0.183   2.619   6.628  0.0022 -0.5025 -0.3377
 4369poe     o217867  -0.206   2.748   6.679  0.5847 -0.4809 -0.1196
 4369poe    c3117868  -0.344   2.776   6.693  0.6565 -0.1769 -0.0106
 4370poe    c3117869   0.772   2.348   6.475  0.6723 -0.1470 -0.1190
 4370poe     o217870   0.723   2.446   6.386 -0.2765 -0.0487  0.4980
 4370poe    c2317871   0.749   2.578   6.428  0.2539  0.2185 -0.6470
 4370poe    c2317872   0.715   2.692   6.329 -0.2566  0.3039 -0.3783
 4370poe     o217873   0.803   2.710   6.221 -0.4632  1.0475 -0.4240
 4370poe    c2317874   0.815   2.605   6.128  0.3463  0.7444  0.0133
 4370poe    c2317875   0.906   2.650   6.012  0.3504 -0.4971 -0.4799
 4370poe     o217876   0.867   2.772   5.955 -0.3720 -0.6067 -0.2271
 4370poe    c2317877   0.955   2.820   5.855 -0.6158 -0.1221 -0.2132
 4370poe    c2317878   0.893   2.951   5.802  0.3320  0.2052 -0.5240
 4370poe     o217879   0.844   3.031   5.907  0.1742 -0.8881  0.2560
 4370poe    c3117880   0.852   3.167   5.872  0.3228 -0.8560  0.4114
 4371poe    c3117881   5.766   3.506   4.394 -0.2924 -0.8451  0.3524
 4371poe     o217882   5.654   3.584   4.358  0.1035 -0.3534  0.1795
 4371poe    c2317883   5.584   3.618   4.475  0.4548  0.7160  0.0884
 4371poe    c2317884   5.468   3.715   4.442 -0.0204  0.0920 -0.0924
 4371poe     o217885   5.525   3.837   4.402  0.1144  0.0209 -0.1199
 4371poe    c2317886   5.415   3.923   4.383  0.1149  0.1092  0.2713
 4371poe    c2317887   5.420   3.991   4.245 -0.1729  0.0354  0.2238
 4371poe     o217888   5.384   3.904   4.140 -0.0097  0.0127  0.1859
 4371poe    c2317889   5.268   3.944   4.071  0.0235  0.2321  0.2564
 4371poe    c2317890   5.218   3.853   3.957  0.0356  0.4708  0.0585
 4371poe     o217891   5.164   3.745   4.030  0.3296  0.4032  0.1791
 4371poe    c3117892   5.125   3.646   3.938  0.2109  0.5841  0.0334
 4372poe    c3117893   5.187   2.383   7.300  0.1914  0.2311 -0.1838
 4372poe     o217894   5.296   2.449   7.361 -0.0116  0.3440  0.0618
 4372poe    c2317895   5.396   2.379   7.432 -0.1655  0.0464 -0.0132
 4372poe    c2317896   5.365   2.313   7.568  0.4634 -0.0604  0.0811
 4372poe     o217897   5.334   2.415   7.659  0.6415  0.0718 -0.0077
 4372poe    c2317898   5.218   2.374   7.727  0.5204  0.0510 -0.2300
 4372poe    c2317899   5.193   2.471   7.843 -0.2324 -0.2797 -0.1101
 4372poe     o217900   5.221   2.606   7.812  0.5249 -0.3799  0.1191
 4372poe    c2317901   5.161   2.706   7.891  0.3059 -0.3849 -0.0390
 4372poe    c2317902   5.193   2.843   7.829 -0.1322 -0.0951  0.3654
 4372poe     o217903   5.316   2.835   7.761 -0.0209  0.4503  0.5041
 4372poe    c3117904   5.378   2.961   7.748  0.2548  0.1845 -1.0036
 4373poe    c3117905   3.749   1.932   5.523 -0.1084  0.7568 -0.4270
 4373poe     o217906   3.817   1.918   5.400 -0.0187  0.0232 -0.3017
 4373poe    c2317907   3.934   1.996   5.393  0.0468 -0.1017 -0.6049
 4373poe    c2317908   4.005   1.977   5.257  0.0113 -0.0982 -0.6236
 4373poe     o217909   4.023   1.848   5.204 -0.2113 -0.1279 -0.6295
 4373poe    c2317910   4.147   1.834   5.137 -0.0303  0.0223 -0.3301
 4373poe    c2317911   4.142   1.688   5.088 -0.2154 -0.2022  0.3376
 4373poe     o217912   4.017   1.666   5.026 -0.0637  0.2177 -0.1238
 4373poe    c2317913   3.999   1.536   4.975 -0.0625  0.0702  0.2469
 4373poe    c2317914   3.861   1.514   4.910  0.1443 -0.0834 -0.1452
 4373poe     o217915   3.778   1.571   5.008  0.2172 -0.3703  0.0820
 4373poe    c3117916   3.645   1.523   5.008 -0.2445  0.8672  0.1269
 4374poe    c3117917   6.654   3.996   5.158  0.3416  0.1192 -0.0222
 4374poe     o217918   6.577   3.955   5.047  0.1234 -0.4669  0.3446
 4374poe    c2317919   6.478   3.863   5.090 -0.2677 -0.2920 -0.1839
 4374poe    c2317920   6.403   3.826   4.960 -0.1864 -1.0224 -0.0272
 4374poe     o217921   6.483   3.822   4.845  0.2435 -0.5706  0.2523
 4374poe    c2317922   6.467   3.720   4.749 -0.0226  0.0878 -0.4087
 4374poe    c2317923   6.521   3.791   4.623  0.1888  0.2971 -0.2014
 4374poe     o217924   6.627   3.883   4.635  0.5966 -0.2482  0.4206
 4374poe    c2317925   6.679   3.929   4.512 -0.2038 -0.4838 -0.0086
 4374poe    c2317926   6.769   4.053   4.521 -0.1914 -0.5476  0.8082
 4374poe     o217927   6.904   4.034   4.559  0.2271  0.7714  0.0452
 4374poe    c3117928   6.972   4.157   4.572  1.0905  0.2984  0.0124
 4375poe    c3117929   5.194   3.729   4.942 -0.2700 -0.0646  0.6285
 4375poe     o217930   5.081   3.647   4.960 -0.1096 -0.3740  0.2361
 4375poe    c2317931   4.971   3.721   5.008 -0.1277  0.1281 -0.5687
 4375poe    c2317932   4.832   3.677   4.960 -0.2359 -0.1661  0.0039
 4375poe     o217933   4.787   3.735   4.839  0.3904 -0.1842 -0.2395
 4375poe    c2317934   4.825   3.668   4.721 -0.6757 -0.4065 -0.4646
 4375poe    c2317935   4.870   3.753   4.601  0.0859  0.2077  0.2461
 4375poe     o217936   4.908   3.661   4.501 -0.1109  0.4049 -0.0121
 4375poe    c2317937   5.006   3.711   4.413  0.2843 -0.1511  0.1067
 4375poe    c2317938   5.085   3.598   4.344  0.1076  0.0455 -0.4188
 4375poe     o217939   5.157   3.540   4.450  0.3867  0.8064 -0.1818
 4375poe    c3117940   5.247   3.448   4.392 -0.1011 -0.0246  0.3507
 4376poe    c3117941   6.156   3.620   4.162  0.2163  0.6844 -0.3999
 4376poe     o217942   6.115   3.566   4.038 -0.1336 -0.1422  0.0686
 4376poe    c2317943   6.064   3.435   4.052  0.0620 -0.2664 -0.3657
 4376poe    c2317944   6.027   3.404   3.906 -0.4057  0.2573 -0.3614
 4376poe     o217945   6.143   3.424   3.828 -0.2724  0.6126 -0.0790
 4376poe    c2317946   6.106   3.413   3.692 -0.5518  0.2937  0.0207
 4376poe    c2317947   6.220   3.479   3.612  0.0396 -0.4068  0.2703
 4376poe     o217948   6.283   3.586   3.679 -0.3255 -0.1761  0.2502
 4376poe    c2317949   6.369   3.656   3.593 -0.4326  0.0188  0.3002
 4376poe    c2317950   6.472   3.745   3.664 -0.4500 -0.1036  0.4777
 4376poe     o217951   6.569   3.652   3.705 -0.0435  0.0291 -0.1635
 4376poe    c3117952   6.665   3.728   3.775 -0.1869  0.0282  0.0358
 4377poe    c3117953   0.057   4.183   1.690  0.6534 -0.7217  0.1963
 4377poe     o217954   0.027   4.060   1.626  0.1337 -0.3750 -0.2301
 4377poe    c2317955  -0.096   4.077   1.558  0.2772  0.1306 -0.3704
 4377poe    c2317956  -0.170   3.945   1.529  0.4685 -0.0165 -0.1983
 4377poe     o217957  -0.195   3.877   1.650  0.3456 -0.1102 -0.2764
 4377poe    c2317958  -0.278   3.771   1.608 -0.3725  0.4261 -0.2289
 4377poe    c2317959  -0.313   3.655   1.703  0.2468  0.3232 -0.1211
 4377poe     o217960  -0.385   3.698   1.816 -0.1698  0.0388 -0.2738
 4377poe    c2317961  -0.380   3.593   1.910  0.5549  0.2628 -0.0571
 4377poe    c2317962  -0.439   3.634   2.046  0.4656  0.3761 -0.1299
 4377poe     o217963  -0.366   3.740   2.105 -0.3796  0.9945 -0.1697
 4377poe    c3117964  -0.403   3.776   2.236 -0.5923  0.3301 -0.0431
 4378poe    c3117965   1.899   5.176   2.156  0.4088 -0.0189 -0.1971
 4378poe     o217966   1.773   5.189   2.093  0.1046 -0.5527  0.2964
 4378poe    c2317967   1.675   5.197   2.195  0.2897 -0.0243  0.4355
 4378poe    c2317968   1.545   5.216   2.114  0.8470 -0.1722 -0.5096
 4378poe     o217969   1.536   5.101   2.032 -0.2030 -0.2470 -0.3051
 4378poe    c2317970   1.419   5.087   1.955 -0.2170 -0.4924 -0.2397
 4378poe    c2317971   1.423   4.955   1.877 -0.4356 -0.5919 -0.0847
 4378poe     o217972   1.548   4.947   1.811 -0.0785  0.2558  0.4754
 4378poe    c2317973   1.555   4.840   1.720  0.0949  0.6149  0.0623
 4378poe    c2317974   1.691   4.821   1.650 -0.1119 -0.0524 -0.1708
 4378poe     o217975   1.782   4.771   1.745 -0.0586 -0.0424 -0.2173
 4378poe    c3117976   1.898   4.762   1.665  0.3136  0.4116  0.2638
 4379poe    c3117977   0.446   6.525   7.125  0.1806  0.0128 -0.6780
 4379poe     o217978   0.340   6.457   7.061 -0.0463 -0.4351  0.1664
 4379poe    c2317979   0.268   6.370   7.146  0.0473 -0.3375  0.3468
 4379poe    c2317980   0.180   6.278   7.060 -0.3012 -0.0428  0.3839
 4379poe     o217981   0.125   6.360   6.960  0.4835  0.1843  0.1257
 4379poe    c2317982   0.008   6.302   6.906  0.5742  0.1063  0.0128
 4379poe    c2317983  -0.035   6.350   6.765  0.0205  0.2472  0.2275
 4379poe     o217984   0.077   6.335   6.681 -0.0433  0.1727  0.1558
 4379poe    c2317985   0.026   6.295   6.556  0.2928 -0.3604  0.1869
 4379poe    c2317986   0.129   6.229   6.463 -0.2725 -0.2551 -0.5263
 4379poe     o217987   0.187   6.120   6.532 -0.1648  0.0252 -0.1686
 4379poe    c3117988   0.297   6.085   6.451 -0.0322  0.6815 -0.2791
 4380poe    c3117989   0.286   5.758   2.196 -0.0680  0.2811  0.3964
 4380poe     o217990   0.356   5.789   2.315  0.0580 -0.2369  0.4589
 4380poe    c2317991   0.286   5.892   2.380 -0.1786  0.0513 -0.2488
 4380poe    c2317992   0.185   5.866   2.493  0.1125 -0.3637 -0.0841
 4380poe     o217993   0.244   5.786   2.593 -0.4837 -0.2529  0.3588
 4380poe    c2317994   0.161   5.781   2.708 -0.1558 -0.2169  0.5973
 4380poe    c2317995   0.209   5.675   2.808 -0.1086 -0.3339  0.4518
 4380poe     o217996   0.350   5.668   2.795 -0.1462 -0.0186 -0.1582
 4380poe    c2317997   0.382   5.596   2.912  0.3037  0.4905  0.0356
 4380poe    c2317998   0.535   5.580   2.908  0.2337 -0.1960 -0.0382
 4380poe     o217999   0.580   5.545   2.780  0.0145  0.2463 -0.2373
 4380poe    c3118000   0.698   5.470   2.797 -0.2529 -0.2237 -0.4250
 4381poe    c3118001   3.221   7.223   5.762 -0.1940  0.1396  0.0054
 4381poe     o218002   3.148   7.344   5.772 -0.0978  0.2068 -0.1042
 4381poe    c2318003   3.220   7.438   5.848  0.2150  0.2655 -0.4683
 4381poe    c2318004   3.130   7.562   5.851 -0.0878  0.0393 -0.0224
 4381poe     o218005   2.997   7.516   5.861 -0.0564  0.0359  0.4285
 4381poe    c2318006   2.915   7.624   5.900  0.2782  0.3313  0.3277
 4381poe    c2318007   2.792   7.564   5.971  0.1339  0.1544 -0.0711
 4381poe     o218008   2.724   7.468   5.892  0.1847  0.1017 -0.0496
 4381poe    c2318009   2.631   7.394   5.969  0.4518 -0.0223  0.1559
 4381poe    c2318010   2.521   7.328   5.884  0.5892  0.0596 -0.0865
 4381poe     o218011   2.582   7.230   5.803 -0.4078 -0.2930 -0.4255
 4381poe    c3118012   2.492   7.137   5.747 -0.6056 -0.4867  0.2035
 4382poe    c3118013   0.459   3.367   7.213 -0.6356  0.2760 -0.3338
 4382poe     o218014   0.369   3.432   7.301  0.0385  0.1119  0.4902
 4382poe    c2318015   0.240   3.375   7.304 -0.0410  0.2579  0.0173
 4382poe    c2318016   0.140   3.441   7.401  0.1483 -0.2165  0.5420
 4382poe     o218017   0.168   3.447   7.539  0.2466  0.6649  0.4871
 4382poe    c2318018   0.075   3.527   7.609 -0.4346  0.1826  0.1429
 4382poe    c2318019   0.114   3.527   7.758 -0.1383 -0.0991  0.0664
 4382poe     o218020   0.088   3.401   7.815 -0.0955  0.0004  0.3042
 4382poe    c2318021   0.158   3.381   7.936  0.0897  0.4731  0.2751
 4382poe    c2318022   0.082   3.283   8.027  0.3577 -0.0071 -0.0204
 4382poe     o218023   0.069   3.151   7.978  0.7425 -0.0987  0.1114
 4382poe    c3118024   0.022   3.071   8.084 -0.1627  0.4435  0.1368
 4383poe    c3118025   5.538   7.385   2.271 -0.4080  0.0640 -0.4937
 4383poe     o218026   5.648   7.474   2.273 -0.3033 -0.0654 -0.4962
 4383poe    c2318027   5.608   7.605   2.306  0.4183 -0.0144  0.2027
 4383poe    c2318028   5.612   7.635   2.457 -0.1690 -0.3323  0.2823
 4383poe     o218029   5.732   7.640   2.531  0.1574  0.8387 -0.3032
 4383poe    c2318030   5.712   7.625   2.669  0.4482  0.1999 -0.3268
 4383poe    c2318031   5.821   7.549   2.748  0.0425 -0.0612 -0.0171
 4383poe     o218032   5.949   7.608   2.749  0.0419 -0.0621  0.4744
 4383poe    c2318033   6.036   7.529   2.826  0.5271  0.3063  0.3099
 4383poe    c2318034   6.186   7.562   2.817  0.5336  0.3012  0.3909
 4383poe     o218035   6.235   7.513   2.694 -0.1203  0.2769  0.1354
 4383poe    c3118036   6.361   7.449   2.696 -0.1268  0.2645  0.1402
 4384poe    c3118037   6.845   6.292   7.332  0.0298 -0.0457 -0.3350
 4384poe     o218038   6.847   6.399   7.424  0.1106  0.2096 -0.6335
 4384poe    c2318039   6.980   6.428   7.461 -0.0560 -0.6683  0.7393
 4384poe    c2318040   6.997   6.545   7.561  0.3591 -0.4634  0.4341
 4384poe     o218041   6.995   6.509   7.697  0.2395 -0.1013  0.5277
 4384poe    c2318042   7.110   6.446   7.750  0.3757 -0.0211  0.3274
 4384poe    c2318043   7.089   6.361   7.876  0.6142 -0.2250  0.2286
 4384poe     o218044   7.078   6.431   7.998  0.1176 -0.1807  0.1598
 4384poe    c2318045   7.173   6.372   8.084  0.2799 -0.2446 -0.0600
 4384poe    c2318046   7.142   6.422   8.227  0.0601 -0.0735 -0.1669
 4384poe     o218047   7.186   6.554   8.248  0.0838 -0.1294  0.1294
 4384poe    c3118048   7.192   6.585   8.386 -0.5141  0.2178  0.0775
 4385poe    c3118049   6.105   5.747   3.621  0.3034  0.4833 -0.2384
 4385poe     o218050   6.187   5.653   3.688  0.2884  0.6747  0.0468
 4385poe    c2318051   6.172   5.532   3.617 -0.5418  0.6854  0.1861
 4385poe    c2318052   6.185   5.409   3.709 -0.0050  0.6890  0.1198
 4385poe     o218053   6.302   5.394   3.786 -0.2449 -0.2496  0.3155
 4385poe    c2318054   6.283   5.449   3.915  0.4871  0.3678  0.1675
 4385poe    c2318055   6.409   5.489   3.994  0.7555 -0.2896  0.0779
 4385poe     o218056   6.492   5.573   3.916  0.1323  0.3961  0.1383
 4385poe    c2318057   6.613   5.598   3.984  0.3366  0.1743 -0.1380
 4385poe    c2318058   6.722   5.655   3.892  0.5260  0.0060 -0.0207
 4385poe     o218059   6.705   5.795   3.884  0.1826 -0.0462 -0.2658
 4385poe    c3118060   6.814   5.862   3.824  0.2244  0.1984  0.0763
 4386poe    c3118061   0.193   1.931   2.457 -0.4672  0.0994 -0.2298
 4386poe     o218062   0.106   1.851   2.381 -0.4913 -0.1154  0.0222
 4386poe    c2318063   0.128   1.879   2.245  0.2603  0.1522  0.1945
 4386poe    c2318064   0.005   1.837   2.161 -0.0374  0.7550  0.3227
 4386poe     o218065  -0.004   1.697   2.148 -0.1735  0.8081 -0.1783
 4386poe    c2318066   0.085   1.641   2.054 -0.7511 -0.0480 -0.2317
 4386poe    c2318067   0.090   1.488   2.045 -0.2137 -0.0328 -0.2336
 4386poe     o218068   0.172   1.436   2.147 -0.0923  0.1943 -0.2167
 4386poe    c2318069   0.305   1.399   2.115 -0.2634 -0.2041 -0.4694
 4386poe    c2318070   0.363   1.329   2.239  0.0245 -0.0560 -0.5203
 4386poe     o218071   0.301   1.216   2.297  0.2243 -0.0432 -0.2825
 4386poe    c3118072   0.355   1.098   2.243 -0.0230 -0.4656  0.3817
 4387poe    c3118073   1.461   5.806   2.460 -0.8411 -0.1312  0.0608
 4387poe     o218074   1.380   5.921   2.453  0.4155  0.7921  0.3418
 4387poe    c2318075   1.281   5.938   2.551  0.0099  0.4778 -0.0106
 4387poe    c2318076   1.161   6.006   2.482 -0.1625  0.4613  0.2699
 4387poe     o218077   1.213   6.106   2.397  0.0268  0.4862  0.4128
 4387poe    c2318078   1.114   6.188   2.339 -0.3865 -0.4509 -0.2338
 4387poe    c2318079   1.175   6.324   2.299 -0.4035 -0.4395 -0.2206
 4387poe     o218080   1.271   6.325   2.195 -0.2449 -0.2663 -0.0718
 4387poe    c2318081   1.219   6.307   2.066 -0.4321  0.2582 -0.0752
 4387poe    c2318082   1.332   6.275   1.966 -0.3051 -0.2162  0.2160
 4387poe     o218083   1.370   6.139   1.969  0.1618 -0.0880  0.1625
 4387poe    c3118084   1.316   6.076   1.855 -0.8771  0.0574  0.5598
 4388poe    c3118085   4.754   4.074   4.942 -0.2384  0.3670  0.1691
 4388poe     o218086   4.629   4.120   4.896 -0.1777  0.5285  0.1682
 4388poe    c2318087   4.630   4.202   4.781 -0.1228  0.3387  0.0336
 4388poe    c2318088   4.621   4.114   4.655  0.0221  0.1290  0.1685
 4388poe     o218089   4.544   3.998   4.679  0.2384  0.1334  0.9046
 4388poe    c2318090   4.551   3.918   4.563  0.3711  0.2341  0.8422
 4388poe    c2318091   4.459   3.795   4.569  0.1605  0.3197 -0.3443
 4388poe     o218092   4.320   3.819   4.579  0.0429 -0.0722 -0.9839
 4388poe    c2318093   4.256   3.694   4.592  0.1359 -0.0365 -0.1619
 4388poe    c2318094   4.107   3.710   4.630  0.1860  0.0774 -0.0095
 4388poe     o218095   4.081   3.745   4.764 -0.2709 -0.1144 -0.0485
 4388poe    c3118096   3.945   3.715   4.789  0.0076 -0.8491  0.6222
 4389poe    c3118097   0.430   1.806   1.222 -0.2572 -0.2637  0.0963
 4389poe     o218098   0.349   1.693   1.199 -0.0547 -0.4535  0.3229
 4389poe    c2318099   0.223   1.728   1.147 -0.0729 -0.0530  0.6270
 4389poe    c2318100   0.152   1.592   1.137 -0.0770  0.0044 -0.1990
 4389poe     o218101   0.237   1.499   1.073 -0.1816 -0.2791  0.0694
 4389poe    c2318102   0.172   1.401   0.995 -0.7240  0.1278  0.0040
 4389poe    c2318103   0.125   1.270   1.062 -0.4940  0.1960  0.2978
 4389poe     o218104   0.018   1.273   1.154 -0.3027 -0.5299  0.5497
 4389poe    c2318105   0.065   1.258   1.286  0.2390 -0.7387  0.3372
 4389poe    c2318106  -0.057   1.303   1.368  0.1078  0.0225 -0.2526
 4389poe     o218107  -0.149   1.196   1.377  0.0592  0.0920  0.1002
 4389poe    c3118108  -0.244   1.224   1.478  0.0851  0.1726  0.1021
 4390poe    c3118109   1.860   3.959   1.984  0.2101  0.0989 -0.2100
 4390poe     o218110   1.874   4.097   2.005  0.3593 -0.0076  0.4316
 4390poe    c2318111   1.759   4.166   1.958  0.5968 -0.0164 -0.1774
 4390poe    c2318112   1.802   4.314   1.956 -0.1247  0.2055  0.2712
 4390poe     o218113   1.879   4.334   2.073  0.0048 -0.1151  0.2432
 4390poe    c2318114   1.895   4.471   2.103  0.0939 -0.2338  0.7446
 4390poe    c2318115   1.995   4.500   2.216  0.4415  0.7921  0.1792
 4390poe     o218116   2.092   4.398   2.220 -0.1450  0.2227  0.0831
 4390poe    c2318117   2.213   4.448   2.274 -0.2107  0.0075  0.4347
 4390poe    c2318118   2.316   4.337   2.298  0.4125  0.5325  0.2334
 4390poe     o218119   2.372   4.264   2.191  0.1311  0.2530  0.2758
 4390poe    c3118120   2.457   4.167   2.248  0.2256  0.1323 -0.0652
 4391poe    c3118121   4.739   1.479   2.240 -0.1006  0.0016 -0.2784
 4391poe     o218122   4.796   1.506   2.114  0.7970 -0.4884  0.0163
 4391poe    c2318123   4.861   1.630   2.097 -0.2082  0.0316 -0.1160
 4391poe    c2318124   5.001   1.647   2.160  0.0722 -0.5436 -0.5750
 4391poe     o218125   4.993   1.655   2.300  0.2245  0.1601 -0.6063
 4391poe    c2318126   5.116   1.622   2.361 -0.0325  0.2233 -0.0494
 4391poe    c2318127   5.113   1.676   2.506 -0.2806 -0.4014  0.1826
 4391poe     o218128   5.090   1.814   2.490  0.1855 -0.3240  0.1719
 4391poe    c2318129   5.073   1.876   2.616  0.4161 -0.0799  0.0840
 4391poe    c2318130   5.201   1.908   2.695  0.0900  0.0273  0.5714
 4391poe     o218131   5.286   2.011   2.650  0.2152 -0.2595  0.1408
 4391poe    c3118132   5.399   2.018   2.734 -0.0886 -0.3406  0.5634
 4392poe    c3118133   2.794   3.140   2.386 -0.5155  0.0164 -0.1439
 4392poe     o218134   2.877   3.228   2.313 -0.7228  0.5041  0.2006
 4392poe    c2318135   2.803   3.255   2.196  0.2307  0.6671 -0.3723
 4392poe    c2318136   2.897   3.329   2.098  0.2887  0.1745 -0.6908
 4392poe     o218137   2.963   3.424   2.178  0.0804 -0.2436 -0.0090
 4392poe    c2318138   3.044   3.507   2.097 -0.5041  0.5073  0.1611
 4392poe    c2318139   3.162   3.567   2.177  0.1323 -0.3836 -0.0889
 4392poe     o218140   3.217   3.475   2.268  0.0097 -0.3953 -0.0269
 4392poe    c2318141   3.342   3.510   2.324 -0.1934 -0.5896  0.5591
 4392poe    c2318142   3.445   3.404   2.281  0.5028  0.2524  0.1427
 4392poe     o218143   3.407   3.277   2.328  0.2055  0.3660  0.2089
 4392poe    c3118144   3.505   3.179   2.303  0.4214  0.5854  0.1979
 4393poe    c3118145   5.926   0.233   4.714 -0.0616  0.6733  0.7210
 4393poe     o218146   5.930   0.294   4.587 -0.3276 -0.6855  0.0382
 4393poe    c2318147   5.804   0.346   4.551  0.1741 -0.0138 -0.7959
 4393poe    c2318148   5.760   0.475   4.622  0.0278 -0.1457 -0.6437
 4393poe     o218149   5.841   0.585   4.587 -0.7017  0.5166 -0.2900
 4393poe    c2318150   5.828   0.690   4.680  0.2538  0.5922 -0.2292
 4393poe    c2318151   5.933   0.803   4.677  0.1807  0.6777  0.3412
 4393poe     o218152   6.058   0.770   4.734  0.1248  0.2899  0.2463
 4393poe    c2318153   6.145   0.882   4.729  0.2696  0.1941  0.5589
 4393poe    c2318154   6.284   0.851   4.787  0.0374  0.0032  1.0197
 4393poe     o218155   6.290   0.817   4.924  0.6512 -0.4256  0.8870
 4393poe    c3118156   6.424   0.843   4.961  0.5907 -0.2681  0.9958
 4394poe    c3118157   1.755   4.442   2.952 -0.3575 -0.2706  0.5131
 4394poe     o218158   1.630   4.507   2.952 -0.2116  0.0228 -0.0628
 4394poe    c2318159   1.622   4.553   3.085 -0.3339  0.1022 -0.0979
 4394poe    c2318160   1.484   4.612   3.123 -0.2643  0.2661 -0.0935
 4394poe     o218161   1.377   4.524   3.150 -0.1981  0.1318 -0.2582
 4394poe    c2318162   1.265   4.606   3.175  0.0197  0.5853 -0.7580
 4394poe    c2318163   1.132   4.530   3.161  0.3956 -0.0754 -0.7818
 4394poe     o218164   1.100   4.427   3.252  0.3731  0.1352 -0.5509
 4394poe    c2318165   0.961   4.412   3.270  0.4780 -0.4928 -0.2458
 4394poe    c2318166   0.929   4.309   3.381 -0.8477  0.0991 -0.0595
 4394poe     o218167   0.973   4.180   3.344 -0.5171  0.0735  0.4051
 4394poe    c3118168   0.952   4.087   3.447 -0.7956  0.2300  0.4923
 4395poe    c3118169   3.012   4.312   6.575 -0.0529  0.0478  0.2747
 4395poe     o218170   3.145   4.344   6.541  0.0654 -0.6115  0.0938
 4395poe    c2318171   3.217   4.223   6.547  0.6031 -0.2743  0.4921
 4395poe    c2318172   3.333   4.244   6.448  0.0900  0.3371  0.0166
 4395poe     o218173   3.426   4.345   6.477  0.2501  0.2783 -0.2883
 4395poe    c2318174   3.533   4.291   6.552  0.2493  0.0911 -0.4228
 4395poe    c2318175   3.665   4.365   6.525  0.1249  0.2826 -0.5039
 4395poe     o218176   3.699   4.349   6.389  0.0721  0.0680 -0.4921
 4395poe    c2318177   3.832   4.392   6.371 -0.0162  0.2046 -0.8375
 4395poe    c2318178   3.943   4.286   6.355  0.0461  0.1543 -0.1293
 4395poe     o218179   3.941   4.219   6.230 -0.2082 -0.2055  0.0676
 4395poe    c3118180   4.005   4.094   6.233  0.0510 -0.0797 -0.2245
 4396poe    c3118181   5.011   3.773   1.756  0.3326  0.2772  0.0869
 4396poe     o218182   4.902   3.778   1.845  0.3390 -0.1121  0.1191
 4396poe    c2318183   4.941   3.819   1.974  0.5518  0.5599 -0.1576
 4396poe    c2318184   4.823   3.846   2.069  0.1486 -0.0608 -0.4787
 4396poe     o218185   4.768   3.732   2.132 -0.1629  0.2756 -0.1364
 4396poe    c2318186   4.755   3.740   2.272 -0.0127 -0.3765 -0.0844
 4396poe    c2318187   4.631   3.670   2.329 -0.0388 -0.1175  0.1762
 4396poe     o218188   4.654   3.535   2.361 -0.0329 -0.1123  0.1933
 4396poe    c2318189   4.530   3.475   2.391 -0.1219 -0.2318 -0.4013
 4396poe    c2318190   4.553   3.325   2.414 -0.2873 -0.1892  0.0552
 4396poe     o218191   4.600   3.273   2.292 -0.6591  0.1260 -0.2222
 4396poe    c3118192   4.575   3.134   2.287  0.0664  0.0200 -1.1199
 4397poe    c3118193   6.915   4.656   4.238 -0.4597 -0.2558 -0.6430
 4397poe     o218194   6.791   4.724   4.239 -0.1451  0.3317  0.5522
 4397poe    c2318195   6.752   4.727   4.374  0.3925 -0.2611  0.7303
 4397poe    c2318196   6.598   4.743   4.374  0.4289  0.1049  0.3014
 4397poe     o218197   6.586   4.861   4.297 -0.2199 -0.2172 -0.0947
 4397poe    c2318198   6.451   4.899   4.280 -0.0477  0.1392 -0.6948
 4397poe    c2318199   6.455   5.044   4.228 -0.5532  0.3246 -0.2310
 4397poe     o218200   6.546   5.046   4.119 -0.0207  0.0912  0.2012
 4397poe    c2318201   6.554   5.178   4.070  0.2879  0.4308  1.1475
 4397poe    c2318202   6.583   5.173   3.919 -0.2290 -0.2792  1.0682
 4397poe     o218203   6.713   5.118   3.905 -0.1729  0.0771  0.1525
 4397poe    c3118204   6.753   5.163   3.777 -0.0835 -0.2343  0.0709
 4398poe    c3118205   6.779   1.087   5.088  0.5385  0.3757 -0.2663
 4398poe     o218206   6.698   1.191   5.037  0.4411  0.3963 -0.0736
 4398poe    c2318207   6.565   1.181   5.081  0.6087  0.3112  0.4143
 4398poe    c2318208   6.479   1.295   5.025  0.6641  0.2119  0.1274
 4398poe     o218209   6.502   1.421   5.082  0.0065  0.0579  0.7451
 4398poe    c2318210   6.446   1.513   4.990  0.9161 -0.1460 -0.0271
 4398poe    c2318211   6.440   1.651   5.057  0.3202  0.2956 -0.9773
 4398poe     o218212   6.552   1.681   5.138 -0.2571  0.1520 -0.1068
 4398poe    c2318213   6.599   1.813   5.130 -0.1329  0.1350  0.3265
 4398poe    c2318214   6.742   1.858   5.167 -0.0083 -0.1446  0.1950
 4398poe     o218215   6.819   1.783   5.076  0.2203  0.3208 -0.0004
 4398poe    c3118216   6.955   1.785   5.113  0.0993  0.0380  0.4676
 4399poe    c3118217   0.990   0.453   2.759 -0.0932 -0.2379  0.1143
 4399poe     o218218   0.958   0.436   2.623 -0.1037 -0.0029  0.0880
 4399poe    c2318219   1.012   0.544   2.549 -0.1832 -0.3069 -0.4150
 4399poe    c2318220   0.995   0.525   2.397  0.1587 -0.1342 -0.4752
 4399poe     o218221   1.062   0.408   2.355 -0.0170 -0.4675  0.1483
 4399poe    c2318222   1.037   0.389   2.217 -0.6468 -0.8498  0.3137
 4399poe    c2318223   1.117   0.274   2.153 -0.2614 -0.1490 -0.4703
 4399poe     o218224   1.073   0.144   2.183  0.2039 -0.1092  0.4116
 4399poe    c2318225   1.180   0.053   2.173  0.1476 -0.0602 -0.7073
 4399poe    c2318226   1.137  -0.095   2.182 -0.4990  0.1942  0.5821
 4399poe     o218227   1.081  -0.153   2.066 -0.5577 -0.1437  0.7794
 4399poe    c3118228   1.084  -0.292   2.088  0.5403 -0.1905  0.3487
 4400poe    c3118229   2.650   3.324   5.541 -0.0364 -0.1787 -0.4493
 4400poe     o218230   2.595   3.296   5.414 -0.1030 -0.3858 -0.3747
 4400poe    c2318231   2.633   3.163   5.384  0.0718 -0.5323  0.4611
 4400poe    c2318232   2.624   3.100   5.244  0.3071  0.2657  0.0824
 4400poe     o218233   2.489   3.088   5.205  0.1612  0.6783  0.4534
 4400poe    c2318234   2.479   3.035   5.075 -0.0814 -0.2288  0.8353
 4400poe    c2318235   2.331   3.050   5.034  0.1749  0.0176 -0.0179
 4400poe     o218236   2.279   3.176   5.069 -0.2057 -0.2103  0.2447
 4400poe    c2318237   2.162   3.202   4.995  0.0484  0.5719  0.1021
 4400poe    c2318238   2.108   3.334   5.052 -0.1373  0.8401 -0.6870
 4400poe     o218239   2.123   3.353   5.191 -0.6572 -0.4391 -0.4417
 4400poe    c3118240   2.070   3.473   5.243  0.2208  0.1036 -0.7675
 4401poe    c3118241   7.337   1.613   7.263  0.0148  0.2923  0.1772
 4401poe     o218242   7.409   1.595   7.383  0.0620  0.4158  0.1673
 4401poe    c2318243   7.515   1.508   7.352 -0.3605 -0.1901  0.3981
 4401poe    c2318244   7.622   1.481   7.460  0.3761 -0.1395 -0.3135
 4401poe     o218245   7.696   1.597   7.495  0.2192 -0.0114 -0.4026
 4401poe    c2318246   7.769   1.580   7.614 -0.0354 -0.2143 -0.2753
 4401poe    c2318247   7.815   1.707   7.688  0.0627 -0.2545 -0.2680
 4401poe     o218248   7.708   1.776   7.747  0.3221 -0.1288  0.0588
 4401poe    c2318249   7.706   1.914   7.721 -0.1525 -0.2270 -0.4425
 4401poe    c2318250   7.587   1.981   7.793 -0.0468  0.0762 -0.5480
 4401poe     o218251   7.469   1.912   7.757  0.1769 -0.9270  0.5699
 4401poe    c3118252   7.349   1.930   7.828 -0.1525 -0.2751 -0.1315
 4402poe    c3118253   4.912   7.157   5.439  0.1619 -0.3996 -0.4471
 4402poe     o218254   4.882   7.288   5.394  0.1298 -0.3529 -0.2884
 4402poe    c2318255   4.786   7.341   5.483  0.3045 -0.6134  0.0585
 4402poe    c2318256   4.774   7.494   5.485  0.1729 -0.6274  0.2885
 4402poe     o218257   4.871   7.559   5.564 -0.3648  0.4523  0.0792
 4402poe    c2318258   4.870   7.697   5.533  0.0595  0.5077  0.3100
 4402poe    c2318259   4.987   7.769   5.602  0.9364 -0.7131  0.1339
 4402poe     o218260   5.105   7.755   5.526  0.6193 -0.7022 -0.3711
 4402poe    c2318261   5.200   7.832   5.597  0.0762 -0.8748  0.5577
 4402poe    c2318262   5.330   7.871   5.525 -0.3714  0.5123  0.4777
 4402poe     o218263   5.413   7.759   5.505 -0.1994  0.6583  0.3642
 4402poe    c3118264   5.527   7.787   5.427 -0.0443 -0.4136  0.1862
 4403poe    c3118265   0.203   6.720   0.884  0.0144 -0.3552 -0.3319
 4403poe     o218266   0.185   6.785   0.761  0.2723  0.5780  0.1185
 4403poe    c2318267   0.049   6.789   0.727  0.2235  0.1859  0.2731
 4403poe    c2318268   0.009   6.838   0.587  0.0055 -0.1736  0.2068
 4403poe     o218269   0.071   6.749   0.496 -0.3892 -0.0147 -0.2213
 4403poe    c2318270   0.077   6.802   0.365  0.1342 -0.1878 -0.2719
 4403poe    c2318271   0.134   6.699   0.266  0.6050 -0.2961  0.1069
 4403poe     o218272   0.270   6.671   0.289  0.5741 -0.0719  0.5871
 4403poe    c2318273   0.315   6.579   0.192  0.0838 -0.0006  0.2903
 4403poe    c2318274   0.452   6.511   0.207 -0.0492 -0.2064  0.5592
 4403poe     o218275   0.550   6.611   0.214 -0.1127 -0.1312  0.3555
 4403poe    c3118276   0.679   6.563   0.246  0.2846  0.4846 -0.2925
 4404poe    c3118277   0.762   2.506   7.161  0.1127 -0.1067  0.6613
 4404poe     o218278   0.686   2.624   7.157 -0.2146 -0.3266  0.3482
 4404poe    c2318279   0.735   2.747   7.206 -0.0703 -0.5215  0.6959
 4404poe    c2318280   0.774   2.762   7.354  0.2412 -0.4402  0.6077
 4404poe     o218281   0.660   2.771   7.437 -0.2216  0.0327 -0.0658
 4404poe    c2318282   0.701   2.771   7.572 -0.7409  0.6143  0.0973
 4404poe    c2318283   0.594   2.777   7.683 -0.8349  0.2090  0.0304
 4404poe     o218284   0.524   2.899   7.686 -0.4063  0.4650 -0.3178
 4404poe    c2318285   0.397   2.899   7.746 -0.4134  0.2412 -0.3323
 4404poe    c2318286   0.325   3.033   7.719  0.1250  0.5638 -0.1810
 4404poe     o218287   0.282   3.057   7.587  0.5131 -0.5409 -0.5179
 4404poe    c3118288   0.173   3.145   7.581  0.2148 -0.9109 -0.5601
 4405poe    c3118289   1.260   3.533   6.288 -0.3965  0.4083 -0.2171
 4405poe     o218290   1.192   3.432   6.359 -0.5577  0.4728 -0.2793
 4405poe    c2318291   1.106   3.367   6.267  0.0072 -0.3290 -0.2479
 4405poe    c2318292   0.964   3.340   6.319  0.0049 -0.8159 -0.5095
 4405poe     o218293   0.963   3.237   6.416  0.4543  0.1061  0.5002
 4405poe    c2318294   0.829   3.207   6.451  0.3778 -0.3228 -0.1425
 4405poe    c2318295   0.765   3.293   6.561 -0.0236 -0.2479 -0.4321
 4405poe     o218296   0.746   3.426   6.519 -0.1630 -0.1238  0.0220
 4405poe    c2318297   0.693   3.508   6.621  0.1260 -0.0156  0.0843
 4405poe    c2318298   0.542   3.534   6.630  0.0499 -0.0812 -0.9085
 4405poe     o218299   0.497   3.416   6.693 -0.2446  0.4412 -0.1250
 4405poe    c3118300   0.472   3.450   6.827  0.5345 -0.6800  0.3219
 4406poe    c3118301   3.340   2.188   6.619  0.5108 -0.4146 -0.1538
 4406poe     o218302   3.299   2.181   6.485  0.2257  0.0745 -0.0954
 4406poe    c2318303   3.175   2.246   6.467 -0.0047 -0.4433 -0.4384
 4406poe    c2318304   3.116   2.238   6.325  0.1987  0.8642 -0.6123
 4406poe     o218305   3.226   2.244   6.237  0.5778  0.2717 -0.1879
 4406poe    c2318306   3.175   2.252   6.106  0.9099 -0.5407 -0.3710
 4406poe    c2318307   3.287   2.264   6.000  0.7318 -0.1238 -0.5149
 4406poe     o218308   3.378   2.156   5.998  0.5974 -0.2564  0.2364
 4406poe    c2318309   3.504   2.203   5.958  0.3989 -0.1100 -0.2217
 4406poe    c2318310   3.597   2.082   5.932  0.3982 -0.0906 -0.3192
 4406poe     o218311   3.615   2.010   6.052 -0.0577  0.6791  0.2231
 4406poe    c3118312   3.698   1.903   6.012 -0.3528  0.4728  0.1567
 4407poe    c3118313   4.549   7.269   2.744 -0.1992 -0.4231  0.2430
 4407poe     o218314   4.500   7.334   2.629 -0.1152  0.1133  0.5066
 4407poe    c2318315   4.601   7.426   2.595  0.2764 -0.6525 -0.4771
 4407poe    c2318316   4.550   7.522   2.486  0.2424 -0.4463 -0.2823
 4407poe     o218317   4.549   7.470   2.355 -0.7632 -0.1844 -0.3812
 4407poe    c2318318   4.469   7.534   2.258 -0.8098  0.1173 -0.1437
 4407poe    c2318319   4.437   7.456   2.130  0.6083 -0.1393 -0.3594
 4407poe     o218320   4.357   7.341   2.149  0.6198 -0.1585 -0.4235
 4407poe    c2318321   4.278   7.304   2.038  0.5538 -0.1035 -0.3953
 4407poe    c2318322   4.346   7.221   1.928  0.5204 -0.0710 -0.4396
 4407poe     o218323   4.385   7.094   1.974 -0.1595  0.0440  0.4720
 4407poe    c3118324   4.388   6.991   1.878  0.5156  0.2281  0.2849
 4408poe    c3118325   3.409   3.124   1.283 -0.4435  0.4389  0.2099
 4408poe     o218326   3.514   3.217   1.266  0.0270 -0.1739 -0.2780
 4408poe    c2318327   3.500   3.316   1.366  0.3239 -0.5520  0.1471
 4408poe    c2318328   3.571   3.439   1.308 -0.3228 -0.1913  0.1112
 4408poe     o218329   3.672   3.405   1.216 -0.3297  0.4751 -0.1499
 4408poe    c2318330   3.745   3.512   1.160 -0.0432  0.2613 -0.1853
 4408poe    c2318331   3.673   3.603   1.058 -0.6505  0.1673  0.1554
 4408poe     o218332   3.669   3.536   0.934  0.2207  0.2445  0.0774
 4408poe    c2318333   3.604   3.609   0.832  0.3514 -0.1486 -0.2874
 4408poe    c2318334   3.566   3.516   0.715 -0.1038  0.1058 -0.3403
 4408poe     o218335   3.481   3.409   0.750 -0.1564  0.1102 -0.4551
 4408poe    c3118336   3.387   3.370   0.652 -0.3795 -0.3331 -0.0664
 4409poe    c3118337   6.174   6.325   1.236  0.2898  0.0128 -0.2399
 4409poe     o218338   6.238   6.261   1.128  0.3065 -0.1978 -0.1070
 4409poe    c2318339   6.265   6.124   1.146  0.4962 -0.1682 -0.1694
 4409poe    c2318340   6.364   6.072   1.040  0.1553  0.0333 -0.5893
 4409poe     o218341   6.293   6.076   0.918  0.0374  0.2164 -0.5148
 4409poe    c2318342   6.373   6.005   0.826  0.0744 -0.1552 -0.2006
 4409poe    c2318343   6.330   6.053   0.685  0.3688  0.0199 -0.2326
 4409poe     o218344   6.192   6.062   0.659  0.3403 -0.1697 -0.1556
 4409poe    c2318345   6.176   6.147   0.547  0.3336  0.6402  0.4512
 4409poe    c2318346   6.028   6.186   0.540  0.3091  0.4775  0.0616
 4409poe     o218347   5.998   6.232   0.670 -0.2055 -0.0682  0.1425
 4409poe    c3118348   5.903   6.333   0.640 -0.1106  0.0034  0.0822
 4410poe    c3118349   3.239   5.691   3.524 -0.8366  0.5101  0.3809
 4410poe     o218350   3.121   5.625   3.485 -0.2052 -0.7103  0.4964
 4410poe    c2318351   3.141   5.510   3.406  0.7962 -0.1839 -0.0248
 4410poe    c2318352   3.028   5.406   3.413  0.7254 -0.0952  0.1601
 4410poe     o218353   2.983   5.337   3.527  0.2222 -0.0803 -0.0257
 4410poe    c2318354   2.856   5.280   3.503  0.1654 -0.0580  0.2184
 4410poe    c2318355   2.771   5.292   3.631  0.7111 -0.1188  0.5902
 4410poe     o218356   2.706   5.417   3.642 -0.0899 -0.5275  0.5592
 4410poe    c2318357   2.602   5.436   3.549  0.5552  0.4062  0.0053
 4410poe    c2318358   2.592   5.580   3.495 -0.4508  0.1793 -0.4408
 4410poe     o218359   2.698   5.607   3.406 -0.3413 -0.5745 -0.5467
 4410poe    c3118360   2.703   5.745   3.376 -0.0846 -0.4233  0.1607
 4411poe    c3118361   4.986   3.304   1.330  0.0155  0.0717  0.1482
 4411poe     o218362   5.005   3.352   1.199 -0.2357  0.2561  0.1765
 4411poe    c2318363   4.919   3.285   1.110  0.1211 -0.2745  0.2250
 4411poe    c2318364   4.915   3.321   0.960  0.0037  0.0041  0.2950
 4411poe     o218365   4.875   3.453   0.932  0.7838  0.3630  0.8486
 4411poe    c2318366   4.865   3.479   0.793  0.8547 -0.0260  0.7698
 4411poe    c2318367   4.846   3.629   0.766  0.3633 -0.1284  0.5535
 4411poe     o218368   4.946   3.724   0.794  0.1028  0.4648 -0.4896
 4411poe    c2318369   4.883   3.844   0.834  0.1249  0.2384  0.2257
 4411poe    c2318370   4.989   3.941   0.887  0.2055  0.3878 -0.2081
 4411poe     o218371   5.072   3.884   0.986 -0.1782 -0.2220 -0.2382
 4411poe    c3118372   5.161   3.982   1.033 -0.4874 -0.2083  0.3307
 4412poe    c3118373   0.698   3.476   6.005  0.6777 -0.0848 -0.1664
 4412poe     o218374   0.721   3.613   6.026 -0.2199  0.0348  0.0897
 4412poe    c2318375   0.765   3.638   6.157  0.0368  0.2845 -0.0414
 4412poe    c2318376   0.852   3.765   6.156 -0.0191  0.3211 -0.7203
 4412poe     o218377   0.779   3.886   6.161 -0.2516  0.1489  0.8293
 4412poe    c2318378   0.863   3.994   6.131 -0.3191 -0.1915 -0.7065
 4412poe    c2318379   0.786   4.120   6.085  0.3389  0.4487 -0.0930
 4412poe     o218380   0.734   4.112   5.955  0.0461 -0.1775  0.0576
 4412poe    c2318381   0.688   4.238   5.913 -0.5458 -0.3677  0.1202
 4412poe    c2318382   0.630   4.234   5.770  0.3636 -0.2579 -0.2633
 4412poe     o218383   0.500   4.191   5.734  0.0678  0.3308  0.0846
 4412poe    c3118384   0.402   4.291   5.751  0.1259  0.3708  0.1921
 4413poe    c3118385   3.540   1.455   2.777 -0.1757  0.2014  0.3423
 4413poe     o218386   3.621   1.549   2.709  0.0825 -0.2485  0.0259
 4413poe    c2318387   3.606   1.677   2.764  0.1377 -0.0126 -0.5041
 4413poe    c2318388   3.649   1.785   2.663  0.3540  0.6674  0.2977
 4413poe     o218389   3.789   1.785   2.646  0.4112  0.1437  0.7408
 4413poe    c2318390   3.829   1.909   2.592  0.3833 -0.0675  0.2321
 4413poe    c2318391   3.975   1.927   2.545  0.4507 -0.3327  0.3407
 4413poe     o218392   4.014   1.860   2.428  0.0725  0.4883 -0.2656
 4413poe    c2318393   4.155   1.851   2.420  0.0530 -0.0660  0.0008
 4413poe    c2318394   4.218   1.734   2.499  0.0601 -0.3411 -0.4086
 4413poe     o218395   4.219   1.756   2.638  0.0341  0.0752 -0.4727
 4413poe    c3118396   4.283   1.648   2.703 -0.4608  0.2136  0.2557
 4414poe    c3118397   6.316   6.656   7.290 -0.1380 -0.1308  0.5883
 4414poe     o218398   6.333   6.743   7.181 -0.0544 -0.2964  0.4673
 4414poe    c2318399   6.381   6.869   7.222 -0.1484  0.0349 -0.4032
 4414poe    c2318400   6.418   6.974   7.115 -0.3056  0.5945  0.0845
 4414poe     o218401   6.558   6.967   7.102 -0.3060  0.2286  0.2464
 4414poe    c2318402   6.615   7.036   6.992 -0.8560 -0.2634 -0.3516
 4414poe    c2318403   6.611   7.189   6.998  1.0844 -0.2060  0.0827
 4414poe     o218404   6.714   7.246   7.076  0.3628  0.4083  0.6114
 4414poe    c2318405   6.757   7.371   7.027  0.3647  0.1882  0.0356
 4414poe    c2318406   6.837   7.447   7.134  0.2021  0.0250  0.2754
 4414poe     o218407   6.948   7.373   7.181 -0.1535 -0.4231  0.4226
 4414poe    c3118408   7.019   7.449   7.276 -0.0816  0.1778 -0.0982
 4415poe    c3118409   3.602   0.390   5.971 -0.4352  0.0780  0.6217
 4415poe     o218410   3.621   0.285   5.880 -0.4549  0.3457  0.3072
 4415poe    c2318411   3.548   0.300   5.760 -0.0754  1.2209  0.1793
 4415poe    c2318412   3.584   0.211   5.640 -0.1252  0.7483  0.5114
 4415poe     o218413   3.706   0.255   5.585  0.3112 -0.1707  0.7269
 4415poe    c2318414   3.763   0.146   5.516  0.1906  0.0702  0.2495
 4415poe    c2318415   3.886   0.075   5.575  0.0271 -0.3138  0.1337
 4415poe     o218416   4.004   0.152   5.588 -0.0149 -0.1864 -0.2464
 4415poe    c2318417   4.100   0.092   5.670  0.4436  0.4391 -0.3188
 4415poe    c2318418   4.241   0.153   5.657  0.4743  0.4599  0.0995
 4415poe     o218419   4.316   0.126   5.541  0.3017 -0.0624  0.1117
 4415poe    c3118420   4.453   0.159   5.547  0.1885  0.3542  0.4415
 4416poe    c3118421   3.676   6.131   1.849  0.4549  0.2588  0.0900
 4416poe     o218422   3.539   6.105   1.826  0.4581  0.2171  0.1172
 4416poe    c2318423   3.467   6.211   1.886 -0.0070 -0.1771  0.2592
 4416poe    c2318424   3.320   6.168   1.877 -0.1772  0.3684  0.4472
 4416poe     o218425   3.300   6.123   1.745  0.5593  0.7722  0.1939
 4416poe    c2318426   3.170   6.072   1.722  0.7582  0.2374  0.2592
 4416poe    c2318427   3.149   6.072   1.570  0.7823  0.2612  0.2557
 4416poe     o218428   3.254   6.007   1.502  0.7034 -0.0221  0.4041
 4416poe    c2318429   3.259   6.010   1.361 -0.9862  0.1755  0.3325
 4416poe    c2318430   3.195   5.887   1.294 -0.1171  0.0185 -0.2171
 4416poe     o218431   3.058   5.912   1.273 -0.1836 -0.2889 -0.1586
 4416poe    c3118432   3.012   5.868   1.147  0.1354  0.4266 -0.5288
 4417poe    c3118433   4.856   3.772   1.321  0.2272  0.4114 -0.0976
 4417poe     o218434   4.716   3.764   1.318  0.2541 -0.0454 -0.1299
 4417poe    c2318435   4.671   3.771   1.184  0.0466 -0.2053 -0.0690
 4417poe    c2318436   4.520   3.801   1.182  0.0522 -0.2137 -0.7243
 4417poe     o218437   4.441   3.692   1.225 -0.1565  0.4665  0.6688
 4417poe    c2318438   4.308   3.687   1.178  0.0960  0.0424 -0.0215
 4417poe    c2318439   4.216   3.603   1.268  0.0726  0.0666 -0.0223
 4417poe     o218440   4.255   3.469   1.248  0.1191  0.0569  0.1347
 4417poe    c2318441   4.197   3.376   1.337  0.3249 -0.2777 -0.0761
 4417poe    c2318442   4.187   3.236   1.274  0.1302 -0.2172 -0.1839
 4417poe     o218443   4.094   3.215   1.171  0.2103 -0.1648 -0.2673
 4417poe    c3118444   4.146   3.184   1.044 -0.0823 -0.1866 -0.3833
 4418poe    c3118445   5.964   0.602   4.251 -0.1301 -0.0800  0.5015
 4418poe     o218446   5.883   0.617   4.137  0.1868  0.9617  0.3966
 4418poe    c2318447   5.774   0.526   4.136  0.6633  0.3829 -0.7866
 4418poe    c2318448   5.667   0.544   4.026  0.1917  0.5566 -0.2987
 4418poe     o218449   5.587   0.660   4.036  0.2789  0.6113 -0.2226
 4418poe    c2318450   5.452   0.642   4.073  0.1646  0.4459 -0.7094
 4418poe    c2318451   5.379   0.770   4.117 -0.2320  0.0936 -0.3256
 4418poe     o218452   5.363   0.865   4.014 -0.0338  0.2768 -0.1903
 4418poe    c2318453   5.371   0.999   4.057 -0.1797  0.1561  0.2186
 4418poe    c2318454   5.338   1.100   3.946 -0.1188 -0.2166 -0.1431
 4418poe     o218455   5.438   1.104   3.846 -0.0915 -0.5515 -0.1306
 4418poe    c3118456   5.399   1.189   3.740 -0.9860 -0.2607  0.4171
 4419poe    c3118457   7.155   6.506   1.418 -0.4051  0.1644  0.4801
 4419poe     o218458   7.015   6.499   1.428 -0.4056 -0.1203  0.2923
 4419poe    c2318459   6.971   6.365   1.418  0.0959 -0.3106  0.6097
 4419poe    c2318460   6.818   6.354   1.433 -0.0731  0.1803 -0.6292
 4419poe     o218461   6.769   6.399   1.557  0.2959 -0.8688 -0.0914
 4419poe    c2318462   6.781   6.304   1.661  0.2614 -0.0219  0.6998
 4419poe    c2318463   6.699   6.320   1.791 -0.6876  0.5072  0.0550
 4419poe     o218464   6.742   6.432   1.865  0.5515  0.0627  0.0431
 4419poe    c2318465   6.692   6.424   1.997 -0.5730  0.3032 -0.3569
 4419poe    c2318466   6.724   6.549   2.081 -0.1524 -0.0041 -0.0597
 4419poe     o218467   6.863   6.569   2.096 -0.1683 -0.2997  0.5013
 4419poe    c3118468   6.885   6.671   2.191 -0.4714 -0.3593  0.6387
 4420poe    c3118469   2.361   4.599   5.537 -0.0376  0.3636 -0.0608
 4420poe     o218470   2.499   4.622   5.559  0.0715 -0.4690  0.1259
 4420poe    c2318471   2.576   4.516   5.508 -0.0078 -0.2542 -0.4404
 4420poe    c2318472   2.722   4.561   5.492 -0.0162 -0.1004 -0.0921
 4420poe     o218473   2.739   4.634   5.372  0.2281 -0.2300 -0.1378
 4420poe    c2318474   2.870   4.682   5.353 -0.0124  0.3644 -0.3136
 4420poe    c2318475   2.872   4.762   5.221  0.4356  0.4797 -0.2390
 4420poe     o218476   2.809   4.888   5.215  0.2996  0.4165 -0.1676
 4420poe    c2318477   2.864   4.969   5.113 -0.2569  0.9260 -0.0672
 4420poe    c2318478   2.994   5.036   5.161  0.1004 -0.0975  0.4236
 4420poe     o218479   2.993   5.165   5.219  0.1017  0.0165  0.1722
 4420poe    c3118480   2.984   5.264   5.119 -0.3744 -0.4005 -0.2089
 4421poe    c3118481   3.869   0.332   4.277 -0.4994  0.3718  0.5313
 4421poe     o218482   3.902   0.209   4.336 -0.9827  0.0008  0.0385
 4421poe    c2318483   3.803   0.118   4.293 -0.6133 -0.2463 -0.2901
 4421poe    c2318484   3.810  -0.025   4.349 -0.1817 -0.1644 -0.1353
 4421poe     o218485   3.798  -0.056   4.486  0.6209 -0.7307 -0.1827
 4421poe    c2318486   3.751  -0.183   4.525 -0.3370 -0.3938 -0.2328
 4421poe    c2318487   3.733  -0.197   4.678  0.1734 -0.1032 -0.1428
 4421poe     o218488   3.854  -0.187   4.749  0.1660  0.5517 -0.2163
 4421poe    c2318489   3.850  -0.165   4.888  0.0000 -0.3283 -0.0718
 4421poe    c2318490   3.837  -0.018   4.933  0.0570 -0.3609  0.0492
 4421poe     o218491   3.954   0.057   4.910 -0.5257  0.3218 -0.7243
 4421poe    c3118492   3.980   0.158   5.004  0.3389 -0.3012 -0.2774
 4422poe    c3118493   2.182   5.266   6.705 -0.7289 -0.2765  0.3981
 4422poe     o218494   2.062   5.337   6.721 -0.5890  0.0054  0.2179
 4422poe    c2318495   2.008   5.370   6.595  0.1575  0.0433 -0.0951
 4422poe    c2318496   1.870   5.436   6.615  0.1875  0.2415 -0.5237
 4422poe     o218497   1.879   5.541   6.709 -0.3201 -0.0944 -0.0900
 4422poe    c2318498   1.753   5.589   6.749 -0.0725  0.0277  0.5552
 4422poe    c2318499   1.784   5.679   6.869  0.2310  0.0893  0.4319
 4422poe     o218500   1.839   5.596   6.969  0.1471 -0.3598  0.1034
 4422poe    c2318501   1.820   5.663   7.091 -0.1445 -0.3796  0.0714
 4422poe    c2318502   1.904   5.594   7.201 -0.0460 -0.6897 -0.1973
 4422poe     o218503   2.042   5.596   7.171 -0.1115  0.5503 -0.4644
 4422poe    c3118504   2.128   5.589   7.283  0.4287 -0.0583 -0.9152
 4423poe    c3118505   2.420   2.809   6.033 -0.6082  0.9279 -0.0644
 4423poe     o218506   2.304   2.788   6.110 -0.0437  0.5864  0.7076
 4423poe    c2318507   2.339   2.712   6.223  0.5214 -0.6585 -0.2768
 4423poe    c2318508   2.216   2.651   6.292  0.2531  0.0449 -0.1243
 4423poe     o218509   2.160   2.543   6.222  0.0112  0.0989 -0.0164
 4423poe    c2318510   2.119   2.442   6.312  0.0726  0.2028  0.1277
 4423poe    c2318511   2.099   2.308   6.239 -0.0708  0.2167  0.1408
 4423poe     o218512   2.222   2.240   6.222 -0.2008 -0.0395  0.2105
 4423poe    c2318513   2.206   2.103   6.193  0.0605 -0.0036 -0.1059
 4423poe    c2318514   2.317   2.019   6.128  0.0850  0.2797 -0.4340
 4423poe     o218515   2.357   2.064   6.000  0.0880 -0.1364 -0.5837
 4423poe    c3118516   2.452   1.968   5.958 -0.2470 -0.5687 -0.3620
 4424poe    c3118517   4.480   2.636   5.123  0.3823 -0.1307 -0.3252
 4424poe     o218518   4.470   2.496   5.114  0.4769 -0.1827  0.3790
 4424poe    c2318519   4.377   2.464   5.216  0.3628 -0.6555  0.1253
 4424poe    c2318520   4.368   2.314   5.249 -0.6367 -0.7512 -0.5344
 4424poe     o218521   4.482   2.272   5.321 -0.5649 -0.2166 -0.3356
 4424poe    c2318522   4.499   2.132   5.311 -0.1405 -0.1928  0.0212
 4424poe    c2318523   4.619   2.070   5.385 -0.0784 -0.8301 -0.6058
 4424poe     o218524   4.731   2.125   5.321 -0.1293 -0.4886 -0.4015
 4424poe    c2318525   4.853   2.086   5.382  0.0376  0.5990 -0.0102
 4424poe    c2318526   4.986   2.149   5.336  0.0000  0.3163 -0.5208
 4424poe     o218527   4.990   2.286   5.367  0.2941  0.0859  0.5050
 4424poe    c3118528   5.120   2.335   5.339  0.4426 -0.4669  0.2251
 4425poe    c3118529   0.823   3.938   0.504 -0.0052  0.0878 -0.1030
 4425poe     o218530   0.887   3.915   0.628  0.1996  0.0050 -0.2227
 4425poe    c2318531   0.903   4.037   0.697 -0.1170 -0.3047  0.4104
 4425poe    c2318532   1.031   4.049   0.781 -0.1936  0.5693  0.4124
 4425poe     o218533   1.031   3.946   0.878  0.1754 -0.2839 -0.4758
 4425poe    c2318534   1.147   3.959   0.958 -0.0571  0.4043 -0.2381
 4425poe    c2318535   1.170   3.833   1.045 -0.1569  0.5313 -0.0264
 4425poe     o218536   1.163   3.724   0.956 -0.4490  0.0776  0.5519
 4425poe    c2318537   1.226   3.613   1.016  0.1322  0.1288  0.0372
 4425poe    c2318538   1.229   3.503   0.908 -0.1059 -0.0107  0.1725
 4425poe     o218539   1.099   3.460   0.876 -0.1801  0.2297  0.1477
 4425poe    c3118540   1.115   3.355   0.783 -0.3475  0.3193  0.0173
 4426poe    c3118541   5.884   6.713   0.841 -0.3413 -0.1145  0.0059
 4426poe     o218542   5.924   6.849   0.836  0.1089 -0.2430  0.0371
 4426poe    c2318543   5.816   6.929   0.795  0.0726 -0.4000 -0.1768
 4426poe    c2318544   5.850   7.079   0.792  0.1083 -0.4039  0.0251
 4426poe     o218545   5.908   7.141   0.904  0.4600  0.2892 -0.5319
 4426poe    c2318546   5.882   7.280   0.899  0.8406  0.3521 -0.8631
 4426poe    c2318547   5.963   7.346   1.012  0.0500 -0.0297 -0.0527
 4426poe     o218548   5.962   7.282   1.137 -0.4653  0.0926  0.0093
 4426poe    c2318549   6.022   7.353   1.244 -0.2445 -0.2677  0.1283
 4426poe    c2318550   5.960   7.271   1.358  0.4064 -0.2667  0.4856
 4426poe     o218551   6.009   7.142   1.331  0.2156 -0.1508 -0.4364
 4426poe    c3118552   5.966   7.048   1.428 -0.3136  0.3434 -0.1902
 4427poe    c3118553   5.784   0.794   0.090 -0.3419  0.3552  0.6881
 4427poe     o218554   5.653   0.819   0.136 -0.5133  0.1263  0.3356
 4427poe    c2318555   5.563   0.842   0.030  0.1095 -0.3091 -0.2949
 4427poe    c2318556   5.422   0.813   0.083 -0.1536  0.2507 -0.6765
 4427poe     o218557   5.370   0.923   0.155 -0.0161  0.4933 -0.9473
 4427poe    c2318558   5.231   0.903   0.171  0.0409  0.2256 -0.7878
 4427poe    c2318559   5.160   1.021   0.238 -0.5982 -0.3394 -0.4571
 4427poe     o218560   5.154   1.019   0.379  0.2946 -0.1570 -0.4105
 4427poe    c2318561   5.066   1.118   0.427  0.4192 -0.1520 -0.1932
 4427poe    c2318562   5.055   1.137   0.580 -0.3665  0.1452 -0.2837
 4427poe     o218563   5.179   1.148   0.647 -0.3931 -0.3773 -0.1413
 4427poe    c3118564   5.153   1.158   0.785 -0.0140 -0.4067 -0.0690
 4428poe    c3118565   6.562   4.030   0.179 -0.3014 -0.0140  0.3185
 4428poe     o218566   6.514   4.013   0.311 -0.5605  0.2214  0.2573
 4428poe    c2318567   6.407   3.921   0.311 -0.3243 -0.0555  0.1746
 4428poe    c2318568   6.268   3.986   0.318 -0.1996  0.2451 -0.1344
 4428poe     o218569   6.234   4.051   0.438 -0.1355  0.2461 -0.1173
 4428poe    c2318570   6.190   3.972   0.547  0.3182 -0.0876 -0.1686
 4428poe    c2318571   6.289   3.931   0.657 -0.0255  0.3428  0.3072
 4428poe     o218572   6.376   3.829   0.614 -0.0730  0.1634  0.6289
 4428poe    c2318573   6.471   3.789   0.710  0.6794  0.5374  0.0489
 4428poe    c2318574   6.578   3.685   0.668  0.1008  0.0586 -0.2533
 4428poe     o218575   6.682   3.752   0.601  0.0229  0.2244 -0.2115
 4428poe    c3118576   6.779   3.655   0.569 -0.1806 -0.1092  0.1721
 4429poe    c3118577   5.433   1.320   6.914  0.6474 -0.9960  0.2699
 4429poe     o218578   5.520   1.336   7.024  0.4143 -0.1287  0.3341
 4429poe    c2318579   5.651   1.317   6.976  0.3021  0.3741 -0.1940
 4429poe    c2318580   5.756   1.365   7.078  0.3858 -0.2701  0.0301
 4429poe     o218581   5.765   1.505   7.087 -0.2421 -0.2447  0.2866
 4429poe    c2318582   5.876   1.538   7.168  0.2005  0.1921 -0.4834
 4429poe    c2318583   5.912   1.686   7.194  0.1446  0.2266 -0.6038
 4429poe     o218584   5.809   1.754   7.261  0.1572 -0.1535 -0.1917
 4429poe    c2318585   5.840   1.891   7.276 -0.1968 -0.0667 -0.2359
 4429poe    c2318586   5.724   1.986   7.312 -0.1602  0.0601 -0.4441
 4429poe     o218587   5.644   2.000   7.197 -0.3283 -0.0010 -0.3352
 4429poe    c3118588   5.528   2.062   7.247  0.0155  0.2370  0.1867
 4430poe    c3118589   1.014   3.319   5.479  0.6408  0.3105 -0.4891
 4430poe     o218590   1.027   3.455   5.447  0.3087  0.3673 -0.3870
 4430poe    c2318591   0.996   3.519   5.569  0.3373 -0.3453 -0.0020
 4430poe    c2318592   1.061   3.658   5.576 -0.1794 -0.1023  0.0517
 4430poe     o218593   1.040   3.734   5.460  0.5978 -0.1432 -0.1236
 4430poe    c2318594   1.057   3.871   5.487  0.2451 -0.0877 -0.1796
 4430poe    c2318595   0.981   3.958   5.385  0.0699  0.6619  0.5677
 4430poe     o218596   0.843   3.974   5.413 -0.1288 -0.2988  0.2117
 4430poe    c2318597   0.762   4.030   5.312  0.5317  0.0598 -0.1330
 4430poe    c2318598   0.619   4.081   5.341  0.4862 -0.2090  0.1232
 4430poe     o218599   0.533   3.973   5.369  0.2456 -0.0829 -0.1243
 4430poe    c3118600   0.424   3.973   5.279 -0.0234  0.7827  0.1962
 4431poe    c3118601   1.051   5.203   4.257  0.0596 -0.0657  0.3896
 4431poe     o218602   0.972   5.116   4.336  0.1555 -0.1698  0.3724
 4431poe    c2318603   1.049   5.005   4.375  0.7831 -0.1762 -0.8376
 4431poe    c2318604   0.997   4.895   4.280 -0.0625 -0.1490 -0.4139
 4431poe     o218605   0.858   4.917   4.283 -0.0199  0.1090 -0.2957
 4431poe    c2318606   0.781   4.799   4.286 -0.4380  0.3858  0.3864
 4431poe    c2318607   0.636   4.837   4.251 -0.3182  0.3548 -0.1563
 4431poe     o218608   0.597   4.945   4.333 -0.0930 -0.1451  0.6134
 4431poe    c2318609   0.477   5.011   4.299 -0.2919 -0.8920 -0.1595
 4431poe    c2318610   0.390   5.041   4.422 -0.0094  0.4184 -0.2668
 4431poe     o218611   0.355   4.925   4.495 -1.0543  0.5978 -0.4716
 4431poe    c3118612   0.301   4.948   4.623 -0.0121  0.0414  0.0808
 4432poe    c3118613   3.881   3.344   2.320 -0.2805 -0.1087 -0.2951
 4432poe     o218614   3.974   3.279   2.403 -0.4853  0.4328  0.3757
 4432poe    c2318615   4.106   3.305   2.360 -0.4927 -0.5943 -0.3101
 4432poe    c2318616   4.192   3.181   2.330  0.8164  0.1747  0.1900
 4432poe     o218617   4.197   3.088   2.436 -0.0123 -0.1991 -0.0896
 4432poe    c2318618   4.242   2.969   2.374 -0.0123 -0.1379 -0.2063
 4432poe    c2318619   4.263   2.853   2.472 -0.1127  0.5103  0.5919
 4432poe     o218620   4.140   2.852   2.542 -0.4028  0.3095  0.0802
 4432poe    c2318621   4.111   2.746   2.631  0.0648 -0.0463 -0.1841
 4432poe    c2318622   3.961   2.766   2.658  0.0622  0.0969 -0.3003
 4432poe     o218623   3.919   2.895   2.694  0.1095  0.1412 -0.4026
 4432poe    c3118624   3.784   2.906   2.733  0.3292 -0.3788  0.5359
 4433poe    c3118625   7.101   6.087   5.210 -0.0052 -0.4589  0.0757
 4433poe     o218626   7.153   6.017   5.100  0.4364 -0.6208  0.3820
 4433poe    c2318627   7.041   5.955   5.041  0.4680 -0.3878  0.0752
 4433poe    c2318628   7.033   5.807   5.001 -0.5798 -0.1090 -0.8072
 4433poe     o218629   7.142   5.768   4.920  0.2507  0.2393  0.1187
 4433poe    c2318630   7.137   5.637   4.868  0.5047 -0.0409  0.7942
 4433poe    c2318631   7.243   5.606   4.761 -0.3336 -0.4228  0.0661
 4433poe     o218632   7.366   5.667   4.794 -0.3607 -0.4607  0.2327
 4433poe    c2318633   7.464   5.631   4.700 -0.1467  0.6899  0.0026
 4433poe    c2318634   7.595   5.705   4.732  0.0107  0.3154  0.2376
 4433poe     o218635   7.556   5.840   4.742  0.1532  0.3483  0.3505
 4433poe    c3118636   7.640   5.932   4.677  0.3867 -0.1424 -0.0447
 4434poe    c3118637   2.083   1.572   4.885 -0.3339  0.5683  0.7803
 4434poe     o218638   2.176   1.485   4.946  0.2640  0.3118 -0.4658
 4434poe    c2318639   2.280   1.452   4.857  0.0561  0.4177 -0.7498
 4434poe    c2318640   2.366   1.331   4.898 -0.5476  0.4380  0.6109
 4434poe     o218641   2.293   1.213   4.926 -0.2415  0.1060  0.0202
 4434poe    c2318642   2.374   1.101   4.955 -0.2879  0.0043 -0.2404
 4434poe    c2318643   2.316   1.038   5.083  0.1898 -0.0753 -0.0645
 4434poe     o218644   2.406   0.934   5.114  0.2036  0.1437  0.6578
 4434poe    c2318645   2.384   0.865   5.235 -0.0747 -0.3364  0.3423
 4434poe    c2318646   2.444   0.724   5.245  0.1457 -0.2577  0.1344
 4434poe     o218647   2.585   0.723   5.241  0.1460  0.4102 -0.0591
 4434poe    c3118648   2.639   0.598   5.279 -0.3735  0.1630 -0.1308
 4435poe    c3118649   0.807   5.311   6.197 -0.0012 -0.1835 -0.4095
 4435poe     o218650   0.816   5.358   6.064 -0.2458  0.0414 -0.3485
 4435poe    c2318651   0.840   5.496   6.054 -0.1878  0.0401 -0.2317
 4435poe    c2318652   0.756   5.556   5.940 -0.3250 -0.2656 -0.2924
 4435poe     o218653   0.781   5.524   5.805  0.4412 -0.1533 -0.1806
 4435poe    c2318654   0.672   5.563   5.725  0.2269 -0.6017 -0.1106
 4435poe    c2318655   0.668   5.496   5.587 -0.2579  0.0495 -0.4219
 4435poe     o218656   0.660   5.356   5.604  1.3191 -0.0565 -0.3572
 4435poe    c2318657   0.662   5.267   5.495  0.3061 -0.7319  0.1530
 4435poe    c2318658   0.805   5.231   5.451  0.4329  0.2288 -0.2677
 4435poe     o218659   0.863   5.162   5.560 -0.2767 -0.0763 -0.0767
 4435poe    c3118660   1.002   5.182   5.544 -0.3024  0.3785  0.2388
 4436poe    c3118661   0.500   6.350   0.723  0.1381 -0.7759  0.7088
 4436poe     o218662   0.368   6.307   0.746 -0.3254  0.1375 -0.1761
 4436poe    c2318663   0.328   6.248   0.624 -0.1625  0.1468 -0.2339
 4436poe    c2318664   0.184   6.194   0.621 -0.2997  0.4700  0.3896
 4436poe     o218665   0.159   6.144   0.751  0.5408 -0.1447  0.3236
 4436poe    c2318666   0.021   6.121   0.772  0.3467  0.3962 -0.3301
 4436poe    c2318667   0.013   6.057   0.912 -0.1688  0.3518 -0.3790
 4436poe     o218668   0.104   6.125   0.996 -0.8531  0.4727  0.2761
 4436poe    c2318669   0.093   6.091   1.132 -0.5102 -0.5411  0.0646
 4436poe    c2318670   0.215   6.147   1.208 -0.4448  0.1249 -0.5187
 4436poe     o218671   0.218   6.288   1.207 -0.1174  0.1273  0.0142
 4436poe    c3118672   0.296   6.339   1.312  0.0444 -0.3152  0.1131
 4437poe    c3118673   2.617   2.730   3.566 -0.3115 -0.1501 -0.5528
 4437poe     o218674   2.564   2.738   3.435 -0.6750  0.5616 -0.3665
 4437poe    c2318675   2.665   2.789   3.350 -0.2240  0.2799 -0.0067
 4437poe    c2318676   2.617   2.875   3.232  0.0294 -0.1354 -0.4169
 4437poe     o218677   2.592   3.010   3.265 -0.0411 -0.1869 -0.2578
 4437poe    c2318678   2.553   3.076   3.147 -0.6667 -0.6208 -0.2971
 4437poe    c2318679   2.489   3.215   3.168 -0.1305 -0.3858 -0.1985
 4437poe     o218680   2.593   3.309   3.181 -0.6490  0.1378  0.2683
 4437poe    c2318681   2.575   3.447   3.163 -0.1733  0.2256  0.4631
 4437poe    c2318682   2.494   3.517   3.274 -0.0700  0.5854  0.3150
 4437poe     o218683   2.562   3.543   3.394  0.3359 -0.4072  0.3142
 4437poe    c3118684   2.467   3.613   3.471  0.8129 -0.1973  0.7234
 4438poe    c3118685   6.664   4.840   2.613 -0.0131  0.1942  0.1491
 4438poe     o218686   6.800   4.876   2.621  0.1658 -0.4545  0.1038
 4438poe    c2318687   6.851   4.853   2.750 -0.5127  0.4280  0.5390
 4438poe    c2318688   6.998   4.874   2.789 -0.2821 -0.4529  0.1684
 4438poe     o218689   7.050   5.001   2.755  0.2498 -0.6513  0.2294
 4438poe    c2318690   7.041   5.083   2.870 -0.3907  0.2097 -0.4218
 4438poe    c2318691   7.035   5.231   2.829 -0.7840  0.2940 -0.0663
 4438poe     o218692   7.157   5.279   2.777 -0.5104 -0.3580 -0.0269
 4438poe    c2318693   7.165   5.419   2.782  0.2147 -0.3906 -0.1486
 4438poe    c2318694   7.306   5.473   2.751 -0.0907  0.2963 -0.3589
 4438poe     o218695   7.369   5.445   2.628 -0.0556 -0.3384 -0.1998
 4438poe    c3118696   7.502   5.491   2.642 -0.1614  0.2092 -0.9306
 4439poe    c3118697   1.971   3.927   4.265  0.5153 -0.0060  0.2800
 4439poe     o218698   1.884   4.035   4.242  0.4197 -0.1846 -0.2087
 4439poe    c2318699   1.954   4.157   4.237  0.2678 -0.0880  0.0133
 4439poe    c2318700   1.874   4.288   4.220 -0.1725 -0.3772 -0.1413
 4439poe     o218701   1.790   4.300   4.108 -0.6102  0.0204  0.2270
 4439poe    c2318702   1.651   4.283   4.127 -0.6171 -0.2416 -0.0522
 4439poe    c2318703   1.563   4.271   4.001 -0.6307  0.7285 -0.1443
 4439poe     o218704   1.562   4.397   3.938  0.4521  0.6613 -0.2994
 4439poe    c2318705   1.466   4.406   3.835 -0.2053  0.4997  0.2950
 4439poe    c2318706   1.467   4.543   3.765 -0.0212  0.5643  0.4232
 4439poe     o218707   1.591   4.563   3.701 -0.2022 -0.5230 -0.2756
 4439poe    c3118708   1.590   4.670   3.610 -0.8200 -0.2487  0.0472
 4440poe    c3118709   6.378   3.948   2.511 -0.3554 -0.0613 -0.4803
 4440poe     o218710   6.423   3.877   2.624  0.0926  0.4083 -0.3589
 4440poe    c2318711   6.449   3.950   2.741 -0.0629 -0.2999  0.1286
 4440poe    c2318712   6.324   3.996   2.818  0.2338  0.3636  0.2273
 4440poe     o218713   6.229   3.893   2.834  0.1148  0.4281 -0.0562
 4440poe    c2318714   6.120   3.952   2.902  0.0020  0.1742 -0.0133
 4440poe    c2318715   6.018   3.846   2.945  0.0243  0.1693  0.0277
 4440poe     o218716   6.087   3.751   3.024  0.2519  0.1130 -0.2348
 4440poe    c2318717   6.018   3.628   3.029  0.4329 -0.0047 -0.6263
 4440poe    c2318718   6.116   3.511   3.053  0.0343 -0.2086  0.0282
 4440poe     o218719   6.196   3.486   2.940  0.0466  0.1041 -0.0334
 4440poe    c3118720   6.266   3.364   2.948 -0.1081 -0.0052 -0.3214
 4441poe    c3118721   0.130   7.487   4.797 -0.5037 -0.0314  0.2589
 4441poe     o218722   0.032   7.395   4.838 -0.0423 -0.6208  0.0619
 4441poe    c2318723  -0.015   7.336   4.719 -0.0399 -1.0455  0.2699
 4441poe    c2318724  -0.114   7.219   4.737 -0.5249 -0.7707 -0.5617
 4441poe     o218725  -0.036   7.108   4.773  0.0269 -0.5996 -1.2215
 4441poe    c2318726  -0.119   6.995   4.784  0.0868 -0.5020  0.4985
 4441poe    c2318727  -0.043   6.861   4.793  0.0139 -0.5802  0.0025
 4441poe     o218728   0.065   6.855   4.884 -0.0476  0.4510  0.1658
 4441poe    c2318729   0.108   6.723   4.912 -0.1908  0.2829 -0.3988
 4441poe    c2318730   0.250   6.719   4.972 -0.3410 -0.0864 -0.0697
 4441poe     o218731   0.266   6.771   5.102  0.3725 -0.6514  0.0708
 4441poe    c3118732   0.218   6.672   5.190 -0.1536 -0.5263 -0.0759
 4442poe    c3118733   3.674   1.344   3.545  0.1318  0.5325  0.3096
 4442poe     o218734   3.760   1.245   3.598  0.0856  0.6906  0.6817
 4442poe    c2318735   3.805   1.161   3.495 -0.4777  0.3504  0.7072
 4442poe    c2318736   3.716   1.059   3.421  0.2574  0.0033  0.2797
 4442poe     o218737   3.667   0.965   3.515  0.5299 -0.3112  0.1077
 4442poe    c2318738   3.601   0.863   3.444  0.9000 -0.3730 -0.1512
 4442poe    c2318739   3.548   0.752   3.536  0.0472  0.1533  0.0076
 4442poe     o218740   3.665   0.700   3.595 -0.3002 -0.0914  0.4814
 4442poe    c2318741   3.651   0.564   3.631  0.5365 -0.2872  0.0896
 4442poe    c2318742   3.653   0.545   3.784  0.1165  0.4152  0.1884
 4442poe     o218743   3.766   0.587   3.856  0.4481  0.6165 -0.4375
 4442poe    c3118744   3.865   0.489   3.878  0.4261  0.5285 -0.7380
 4443poe    c3118745   6.949   6.531   6.255  0.2706  0.4961 -0.0211
 4443poe     o218746   6.813   6.562   6.275  0.1597  0.0650 -0.0862
 4443poe    c2318747   6.751   6.449   6.330 -0.0405  0.1635 -0.1075
 4443poe    c2318748   6.603   6.481   6.357 -0.1773 -1.0521  0.6705
 4443poe     o218749   6.612   6.559   6.474  0.0506 -0.0462 -0.0077
 4443poe    c2318750   6.478   6.583   6.510  0.1259  0.2610  0.0741
 4443poe    c2318751   6.475   6.632   6.656 -1.1215 -0.0458  0.1686
 4443poe     o218752   6.512   6.539   6.756  0.0437  0.2232  0.0095
 4443poe    c2318753   6.541   6.617   6.869  0.2717 -0.3223  0.3291
 4443poe    c2318754   6.534   6.540   7.003 -0.0240 -0.4562  0.2390
 4443poe     o218755   6.650   6.481   7.058  0.4040 -0.2130 -0.3825
 4443poe    c3118756   6.741   6.571   7.119 -0.1607  0.5580 -0.6581
 4444poe    c3118757   7.062   2.149   6.180 -0.0006  0.2663 -0.1986
 4444poe     o218758   7.079   2.171   6.318  0.2241  0.2748 -0.2278
 4444poe    c2318759   7.203   2.133   6.373 -0.1895 -0.3490  0.2819
 4444poe    c2318760   7.189   2.116   6.526 -0.3671 -0.3818  0.2618
 4444poe     o218761   7.194   2.239   6.594  0.1267 -0.2911  0.0624
 4444poe    c2318762   7.159   2.222   6.729  0.4879  0.3140  0.2372
 4444poe    c2318763   7.008   2.236   6.754  0.2251 -0.6176 -0.7781
 4444poe     o218764   6.988   2.375   6.763 -0.0680 -0.6882 -0.2729
 4444poe    c2318765   6.859   2.424   6.790  0.0475 -0.1846 -0.6309
 4444poe    c2318766   6.787   2.376   6.917 -0.0605  0.5648 -0.4029
 4444poe     o218767   6.757   2.240   6.894 -0.0385  0.4133  0.4358
 4444poe    c3118768   6.645   2.209   6.973 -0.4807 -0.2818 -0.4527
 4445poe    c3118769   6.389   7.108   4.430 -0.3985 -0.2988 -0.0551
 4445poe     o218770   6.457   6.990   4.464 -0.1607 -0.2637 -0.4037
 4445poe    c2318771   6.465   6.899   4.356  0.2709 -0.3614 -0.2926
 4445poe    c2318772   6.573   6.790   4.370  0.2092 -0.3582  0.2521
 4445poe     o218773   6.557   6.715   4.489 -0.2252  0.6087  0.8127
 4445poe    c2318774   6.667   6.629   4.510 -0.1614  0.4886  0.0262
 4445poe    c2318775   6.654   6.536   4.631 -0.5394  0.5075  0.0004
 4445poe     o218776   6.606   6.605   4.744 -0.9270 -0.0321  0.1707
 4445poe    c2318777   6.609   6.508   4.846 -0.3835 -0.1512  0.0416
 4445poe    c2318778   6.548   6.557   4.979  0.3415  0.1556  0.2610
 4445poe     o218779   6.416   6.600   4.956  0.2840 -0.0030  0.2908
 4445poe    c3118780   6.362   6.590   5.086 -1.1672  0.0241 -0.2938
 4446poe    c3118781   4.778   4.012   3.761 -0.0661 -0.1132  0.3680
 4446poe     o218782   4.776   4.152   3.744 -0.2861 -0.1907 -0.2915
 4446poe    c2318783   4.727   4.181   3.615  0.6475 -0.3475 -0.6928
 4446poe    c2318784   4.737   4.331   3.581  0.0187 -0.0809  0.2430
 4446poe     o218785   4.694   4.420   3.681 -0.0772 -0.3154  0.4126
 4446poe    c2318786   4.755   4.546   3.666  0.1026 -0.3563  0.7963
 4446poe    c2318787   4.676   4.657   3.738 -0.5360 -0.2137 -0.1100
 4446poe     o218788   4.664   4.602   3.867 -0.9745 -0.1680 -0.1302
 4446poe    c2318789   4.600   4.693   3.954 -0.1304  0.0208  0.3028
 4446poe    c2318790   4.577   4.632   4.094 -0.1340 -0.1451  0.2305
 4446poe     o218791   4.531   4.501   4.068 -0.0082 -0.1104 -0.1862
 4446poe    c3118792   4.447   4.447   4.168  0.1106 -0.3103 -0.1936
 4447poe    c3118793   4.408   5.073   3.168 -0.3715 -0.3614  0.4357
 4447poe     o218794   4.382   5.188   3.245  0.3272  0.0031  0.1415
 4447poe    c2318795   4.282   5.155   3.339 -0.4293  0.4796 -0.4797
 4447poe    c2318796   4.287   5.272   3.439 -0.0077  0.4182 -0.4267
 4447poe     o218797   4.240   5.393   3.384 -0.8602  0.1953 -0.2017
 4447poe    c2318798   4.111   5.425   3.431 -0.7465  0.1445  0.1468
 4447poe    c2318799   4.073   5.571   3.402 -0.2891  0.1834 -0.2633
 4447poe     o218800   4.151   5.672   3.462 -0.0516 -0.0143 -0.2378
 4447poe    c2318801   4.090   5.794   3.424  0.3785  0.1900 -0.2815
 4447poe    c2318802   4.146   5.925   3.484 -0.5678  0.5493 -0.1616
 4447poe     o218803   4.145   5.914   3.624  0.1241 -0.0347 -0.1942
 4447poe    c3118804   4.203   6.029   3.683 -0.2005  0.1190 -0.1760
 4448poe    c3118805   0.197   0.447   2.907 -0.7163 -0.4404  0.5353
 4448poe     o218806   0.163   0.421   2.773  0.0252  0.1240  0.2310
 4448poe    c2318807   0.272   0.361   2.707 -0.1470  0.7449 -0.6388
 4448poe    c2318808   0.220   0.256   2.608  0.3440 -0.0295 -0.0894
 4448poe     o218809   0.147   0.293   2.493 -0.4800  0.2021  0.4988
 4448poe    c2318810   0.136   0.183   2.406 -0.3618  0.3312  0.3194
 4448poe    c2318811   0.023   0.191   2.302  0.1743 -0.0419 -0.3025
 4448poe     o218812  -0.100   0.213   2.366  0.1517 -0.1251 -0.3178
 4448poe    c2318813  -0.214   0.193   2.285 -0.4064 -0.0157  0.4193
 4448poe    c2318814  -0.238   0.277   2.158  0.2740  0.1608  0.3979
 4448poe     o218815  -0.288   0.408   2.174 -0.2775 -0.0073  0.1133
 4448poe    c3118816  -0.177   0.485   2.215 -0.6566  0.3068  0.5513
 4449poe    c3118817   1.186   5.713   4.546  0.0642  0.5547  0.2218
 4449poe     o218818   1.170   5.840   4.606 -0.4311  0.4062  0.4104
 4449poe    c2318819   1.076   5.826   4.710 -0.4749 -0.4829  0.2622
 4449poe    c2318820   0.978   5.944   4.721  0.2631  0.1889 -0.1997
 4449poe     o218821   0.849   5.904   4.681  0.3291 -0.3741  0.1363
 4449poe    c2318822   0.765   6.013   4.713  0.3006 -0.4097  0.1837
 4449poe    c2318823   0.618   5.968   4.699  0.3332 -0.3135 -0.5131
 4449poe     o218824   0.583   5.935   4.566 -0.1958 -0.0588 -0.4390
 4449poe    c2318825   0.505   6.032   4.501 -0.0656  0.2422 -0.1520
 4449poe    c2318826   0.488   6.017   4.348 -0.2317 -0.7426 -0.0439
 4449poe     o218827   0.607   6.020   4.271 -0.4484  0.2065 -0.3577
 4449poe    c3118828   0.573   6.061   4.141 -0.8256 -0.1909 -0.3886
 4450poe    c3118829   4.236   2.654   5.636 -0.2759 -0.2402  0.1198
 4450poe     o218830   4.318   2.759   5.680 -0.4047 -0.1627  0.1752
 4450poe    c2318831   4.245   2.872   5.722  0.0796  0.0730  0.3968
 4450poe    c2318832   4.326   2.973   5.806  0.2233  0.3992 -0.1309
 4450poe     o218833   4.410   3.036   5.712  0.1153  0.3217 -0.2806
 4450poe    c2318834   4.498   3.139   5.750  0.6923 -0.2275 -0.1132
 4450poe    c2318835   4.616   3.103   5.842  0.2856 -0.0397  0.4845
 4450poe     o218836   4.716   3.026   5.780 -0.2167  0.0204 -0.4201
 4450poe    c2318837   4.803   2.989   5.885 -0.0694 -0.1610 -0.6041
 4450poe    c2318838   4.916   2.904   5.824  0.3237 -0.0964  0.0291
 4450poe     o218839   4.868   2.847   5.705 -0.1040 -0.1827  0.2423
 4450poe    c3118840   4.950   2.743   5.655  0.3588  0.1043  0.3962
 4451poe    c3118841   3.851   6.078   3.788 -0.0487  0.2909 -0.2949
 4451poe     o218842   3.820   5.997   3.899  0.1290  0.3406 -0.2089
 4451poe    c2318843   3.903   6.022   4.011 -0.3877  0.1503  0.2195
 4451poe    c2318844   3.954   5.909   4.101  0.1300  0.0001 -0.2560
 4451poe     o218845   3.883   5.899   4.223  0.4954  0.0422 -0.0357
 4451poe    c2318846   3.952   5.822   4.318  0.2899 -0.4867 -0.3069
 4451poe    c2318847   3.860   5.743   4.413  0.5234 -0.0265  0.3111
 4451poe     o218848   3.788   5.835   4.492  0.6893 -0.3769  0.8719
 4451poe    c2318849   3.733   5.757   4.597  0.0089 -0.3221  0.5621
 4451poe    c2318850   3.687   5.855   4.707  0.0291 -0.2032  0.4659
 4451poe     o218851   3.793   5.924   4.769  0.6208 -0.5446 -0.1569
 4451poe    c3118852   3.737   5.983   4.884  0.1477  0.4582 -0.8928
 4452poe    c3118853   6.779   2.053   4.755  0.5272  0.2451  0.0987
 4452poe     o218854   6.772   2.054   4.615 -0.0769  0.5889  0.1265
 4452poe    c2318855   6.860   2.146   4.555  0.3372  0.2939  0.2822
 4452poe    c2318856   6.815   2.131   4.409 -0.4781 -0.2893  0.5893
 4452poe     o218857   6.676   2.146   4.391 -0.3918  0.2524  0.3387
 4452poe    c2318858   6.649   2.132   4.253 -0.4669  0.2044  0.3582
 4452poe    c2318859   6.501   2.095   4.237 -0.4255  0.3114 -0.2975
 4452poe     o218860   6.456   2.000   4.331  0.3602  0.1939 -0.0357
 4452poe    c2318861   6.315   1.996   4.330  0.3560  0.3168  0.0153
 4452poe    c2318862   6.255   1.896   4.431  0.4743 -0.4298 -0.6456
 4452poe     o218863   6.249   1.917   4.570 -0.0440  0.1370 -0.7506
 4452poe    c3118864   6.207   1.796   4.629 -0.5427  0.7877  0.2620
 4453poe    c3118865   7.218   0.127   3.418  0.2365 -0.0022  0.0007
 4453poe     o218866   7.103   0.204   3.393  0.1047 -0.3026 -0.3257
 4453poe    c2318867   7.043   0.238   3.516  0.8630  0.2626 -0.1073
 4453poe    c2318868   6.923   0.335   3.510  0.8407  0.2788  0.5279
 4453poe     o218869   6.944   0.466   3.463  0.1075  0.4085  0.5619
 4453poe    c2318870   6.821   0.533   3.441 -0.3373 -0.4483  0.4016
 4453poe    c2318871   6.848   0.645   3.339 -0.1083 -0.4623  0.4459
 4453poe     o218872   6.850   0.600   3.206 -0.2836 -0.0521  0.3037
 4453poe    c2318873   6.862   0.713   3.122  0.5109 -0.4693 -0.1548
 4453poe    c2318874   6.999   0.780   3.099  0.1212  0.1626 -0.6651
 4453poe     o218875   7.033   0.845   3.220 -0.4201 -0.2193 -0.3034
 4453poe    c3118876   7.125   0.950   3.204 -0.1110 -0.4582 -0.1238
 4454poe    c3118877   0.477   2.737   0.666  0.0990 -0.3951  0.5432
 4454poe     o218878   0.483   2.603   0.622  0.2332 -0.2367  0.0735
 4454poe    c2318879   0.378   2.583   0.530 -0.0970  0.3077  0.3291
 4454poe    c2318880   0.348   2.434   0.504 -0.0029  0.4070 -0.3690
 4454poe     o218881   0.454   2.364   0.442  0.3375 -0.1115  0.7777
 4454poe    c2318882   0.447   2.228   0.479  0.3847 -0.0604  0.9796
 4454poe    c2318883   0.568   2.153   0.420  0.0958  0.0547  0.2174
 4454poe     o218884   0.568   2.170   0.280 -0.1999  0.1577  0.2299
 4454poe    c2318885   0.671   2.093   0.223 -0.3945  0.1346 -0.0949
 4454poe    c2318886   0.636   2.083   0.074  0.0376  0.0229 -0.1910
 4454poe     o218887   0.531   1.994   0.045 -0.0427  0.1463 -0.2826
 4454poe    c3118888   0.427   2.060  -0.023 -0.2790 -0.1727 -0.2376
 4455poe    c3118889   7.413   0.493   5.873  0.3199 -0.1966  0.4307
 4455poe     o218890   7.418   0.614   5.944  0.4410 -0.2871  0.5773
 4455poe    c2318891   7.366   0.608   6.075 -0.1547 -0.6603  0.3242
 4455poe    c2318892   7.350   0.750   6.132 -0.3628 -0.3214 -0.5575
 4455poe     o218893   7.248   0.834   6.085  0.3460  0.6152 -0.4484
 4455poe    c2318894   7.248   0.958   6.153 -0.4069  0.3419  0.0686
 4455poe    c2318895   7.147   1.061   6.098 -0.3304  0.1589 -0.4245
 4455poe     o218896   7.192   1.193   6.123 -0.2444  0.0918 -0.2210
 4455poe    c2318897   7.088   1.288   6.113 -0.4385 -0.0657  0.2918
 4455poe    c2318898   7.118   1.426   6.174 -0.3314 -0.0014  0.0931
 4455poe     o218899   7.235   1.494   6.133 -0.4222  0.2618  0.2672
 4455poe    c3118900   7.230   1.629   6.171 -0.3028  0.4467 -0.3545
 4456poe    c3118901   4.765   3.743   4.092 -0.0103  0.4861  0.1849
 4456poe     o218902   4.626   3.757   4.074 -0.0359 -0.3135 -0.3180
 4456poe    c2318903   4.574   3.854   4.162 -0.3280  0.1517 -0.9968
 4456poe    c2318904   4.422   3.876   4.162 -0.3743 -0.0943  0.0154
 4456poe     o218905   4.379   3.916   4.033 -0.2855 -0.2101 -0.0500
 4456poe    c2318906   4.250   3.972   4.040 -0.0259  0.4215 -0.2192
 4456poe    c2318907   4.162   3.953   3.916  0.0039  0.5854 -0.2664
 4456poe     o218908   4.167   4.054   3.818 -0.4723  0.4454 -0.4415
 4456poe    c2318909   4.281   4.036   3.737  0.1720 -0.0819  0.5576
 4456poe    c2318910   4.271   4.139   3.622  0.7922  0.0315  0.5991
 4456poe     o218911   4.310   4.270   3.656 -0.1154  0.3597  0.4219
 4456poe    c3118912   4.265   4.361   3.559 -0.4486 -0.5246 -0.2731
 4457poe    c3118913   7.169   7.278   5.057  1.0690  0.0098 -0.1645
 4457poe     o218914   7.262   7.348   5.137  0.5430  0.0960  0.3758
 4457poe    c2318915   7.209   7.420   5.246  0.1101 -0.0842  0.2897
 4457poe    c2318916   7.292   7.375   5.368  0.5018  0.6552  0.3053
 4457poe     o218917   7.256   7.252   5.427  0.3703  0.5378 -0.0165
 4457poe    c2318918   7.147   7.249   5.517  0.4676  0.4277  0.0984
 4457poe    c2318919   7.162   7.342   5.638 -0.0087  0.1090  0.4017
 4457poe     o218920   7.086   7.315   5.754 -0.4722 -0.3526 -0.0044
 4457poe    c2318921   7.103   7.384   5.876 -0.3262 -0.2397 -0.0883
 4457poe    c2318922   7.007   7.370   5.995 -0.3429 -0.7032 -0.1537
 4457poe     o218923   6.875   7.397   5.953 -0.1759  0.4311  0.0200
 4457poe    c3118924   6.785   7.357   6.054 -0.8055 -0.0801 -0.7334
 4458poe    c3118925   4.922   5.685   5.664 -0.3508 -0.4465  0.2788
 4458poe     o218926   4.903   5.809   5.729  0.0077 -0.5435  0.5767
 4458poe    c2318927   4.933   5.795   5.866  0.1731 -0.9259  0.5016
 4458poe    c2318928   4.935   5.929   5.943  0.0911 -0.5330 -0.1681
 4458poe     o218929   4.800   5.963   5.964  0.2070 -0.3182  0.2373
 4458poe    c2318930   4.801   6.075   6.049 -0.3116 -0.1637  0.0486
 4458poe    c2318931   4.667   6.149   6.066 -0.3140 -0.1063 -0.2296
 4458poe     o218932   4.551   6.088   6.118 -0.3785  0.0401 -0.2002
 4458poe    c2318933   4.550   6.007   6.234  0.2721  0.1354 -0.1239
 4458poe    c2318934   4.606   6.074   6.361  0.4198  0.3319 -0.2904
 4458poe     o218935   4.537   6.184   6.416  0.4300  0.3578 -0.3293
 4458poe    c3118936   4.577   6.180   6.551 -0.1238 -0.0987 -0.1771
 4459poe    c3118937   1.526   4.042   0.976  0.1811  0.1978  0.1367
 4459poe     o218938   1.412   4.120   1.005 -0.0429  0.0512 -0.3477
 4459poe    c2318939   1.384   4.111   1.143  0.1744 -0.1749 -0.3192
 4459poe    c2318940   1.279   4.208   1.198  0.3283  0.1721 -0.6321
 4459poe     o218941   1.313   4.341   1.165  0.0285  0.2941 -0.4479
 4459poe    c2318942   1.246   4.424   1.259  0.3802 -0.0469  0.1092
 4459poe    c2318943   1.325   4.524   1.345 -0.2839  0.6078 -0.0311
 4459poe     o218944   1.322   4.647   1.277  0.3698  0.2517 -0.7218
 4459poe    c2318945   1.349   4.751   1.368  0.2709  0.1815 -0.6121
 4459poe    c2318946   1.313   4.892   1.318 -0.1462  0.3183  0.0565
 4459poe     o218947   1.179   4.932   1.334 -0.2599  0.0379 -0.1994
 4459poe    c3118948   1.101   4.872   1.233 -0.0976 -0.2333 -0.1650
 4460poe    c3118949   4.527   4.312   5.534  0.1591 -0.8082 -0.0524
 4460poe     o218950   4.549   4.371   5.660 -0.3318 -0.0100 -0.3334
 4460poe    c2318951   4.436   4.346   5.741  0.1466 -0.4467  0.2076
 4460poe    c2318952   4.430   4.440   5.863  0.1130  0.0163 -0.1480
 4460poe     o218953   4.529   4.443   5.964  0.1518 -0.1138 -0.1818
 4460poe    c2318954   4.512   4.540   6.065 -0.6367 -0.2214 -0.2063
 4460poe    c2318955   4.580   4.508   6.199 -0.4086 -0.2498 -0.3294
 4460poe     o218956   4.717   4.486   6.222 -0.3250 -0.2008 -0.7747
 4460poe    c2318957   4.788   4.597   6.171  0.0088  0.0723  0.2711
 4460poe    c2318958   4.850   4.699   6.269 -0.3860  0.2317  0.3546
 4460poe     o218959   4.942   4.641   6.358 -0.2393  0.0494  0.0874
 4460poe    c3118960   4.993   4.746   6.438  0.2006 -0.0596 -0.0454
 4461poe    c3118961   4.972   1.273   6.213  0.1195 -0.4314 -0.3217
 4461poe     o218962   4.845   1.259   6.155  0.0600 -0.0309 -0.2864
 4461poe    c2318963   4.837   1.356   6.053  0.4724  0.2466 -0.0579
 4461poe    c2318964   4.704   1.330   5.979  0.6237 -0.4504 -0.0853
 4461poe     o218965   4.583   1.356   6.046  0.6231 -0.7746  0.0405
 4461poe    c2318966   4.477   1.292   5.978  0.0855  0.2065 -0.0639
 4461poe    c2318967   4.362   1.287   6.079  0.2219 -0.0324  0.0805
 4461poe     o218968   4.370   1.402   6.160  0.4495 -0.0156  0.0337
 4461poe    c2318969   4.301   1.378   6.281  0.1954  0.3192 -0.0434
 4461poe    c2318970   4.307   1.513   6.354 -0.2600  0.1068  0.3903
 4461poe     o218971   4.437   1.566   6.368 -0.3217  0.4277 -0.2254
 4461poe    c3118972   4.431   1.700   6.411  0.1173  0.3402  0.1215
 4462poe    c3118973   1.801   0.670   1.667 -0.8909  0.4606  0.5421
 4462poe     o218974   1.756   0.587   1.771 -0.2868 -0.0581  0.3983
 4462poe    c2318975   1.625   0.548   1.736 -0.0028 -0.3882 -0.3289
 4462poe    c2318976   1.543   0.519   1.864 -0.2344 -0.0916 -0.4093
 4462poe     o218977   1.514   0.637   1.936  0.4506 -0.2006  0.0575
 4462poe    c2318978   1.422   0.605   2.038  0.4112  0.3901  0.2114
 4462poe    c2318979   1.408   0.714   2.146  0.7689  0.5039  0.1466
 4462poe     o218980   1.364   0.844   2.115  0.4275  0.3650  0.0440
 4462poe    c2318981   1.395   0.931   2.221 -0.2488  0.0749  0.4844
 4462poe    c2318982   1.285   1.040   2.226 -0.1116  0.2498 -0.2147
 4462poe     o218983   1.326   1.152   2.151 -0.0066  0.4160  0.0866
 4462poe    c3118984   1.242   1.173   2.039  0.2136  0.8934  0.0089
 4463poe    c3118985   0.195   1.660   4.673 -0.4019 -0.2973 -0.5247
 4463poe     o218986   0.251   1.531   4.664 -0.2265 -0.2714  0.1263
 4463poe    c2318987   0.246   1.455   4.783 -0.3370 -0.2111  0.1605
 4463poe    c2318988   0.232   1.303   4.761  1.0099 -0.3356  0.0698
 4463poe     o218989   0.112   1.270   4.694  1.1354 -0.0718 -0.2899
 4463poe    c2318990   0.084   1.133   4.714 -0.2523  0.2656  0.1219
 4463poe    c2318991  -0.063   1.109   4.675 -0.2285 -0.0342  0.2119
 4463poe     o218992  -0.102   1.158   4.549  0.2305 -0.0134  0.0785
 4463poe    c2318993  -0.238   1.140   4.517  0.4010  0.2279 -0.8099
 4463poe    c2318994  -0.253   1.178   4.368 -0.2223 -0.0870 -0.8330
 4463poe     o218995  -0.152   1.269   4.328 -0.5271  0.6139 -0.0419
 4463poe    c3118996  -0.116   1.265   4.192 -0.5953 -0.1731 -0.0419
 4464poe    c3118997   6.199   2.330   4.726  0.2670  0.1447  0.2631
 4464poe     o218998   6.168   2.381   4.598 -0.0096  0.2599  0.3761
 4464poe    c2318999   6.046   2.326   4.554  0.1502  0.0438  0.1994
 4464poe    c2319000   6.031   2.375   4.409 -0.3093 -0.2031  0.1624
 4464poe     o219001   6.001   2.510   4.381  0.6640 -0.0956 -0.3923
 4464poe    c2319002   5.961   2.536   4.249 -0.5892 -0.2005 -0.0475
 4464poe    c2319003   6.022   2.667   4.194  0.1083 -0.4194  0.1865
 4464poe     o219004   6.005   2.776   4.281 -0.1917 -0.3125 -0.0042
 4464poe    c2319005   6.102   2.872   4.243 -0.3100 -0.1090  0.2035
 4464poe    c2319006   6.082   3.015   4.297 -0.3973 -0.0947  0.1329
 4464poe     o219007   6.104   3.032   4.435 -0.0925  0.4012  0.0237
 4464poe    c3119008   6.045   3.152   4.478 -0.7241  0.0456  0.1576
 4465poe    c3119009   3.043   0.472   3.193 -0.1116 -0.3926  0.0054
 4465poe     o219010   2.994   0.592   3.248 -0.3752 -0.4101 -0.1903
 4465poe    c2319011   3.048   0.611   3.377 -0.4390  0.0191 -0.2266
 4465poe    c2319012   3.010   0.741   3.451 -0.3576  0.2023 -0.5035
 4465poe     o219013   2.882   0.743   3.511 -0.1703 -0.0244 -0.0915
 4465poe    c2319014   2.892   0.819   3.629  0.5730  0.4849 -0.4752
 4465poe    c2319015   2.769   0.832   3.720  0.4223 -0.3018 -0.5590
 4465poe     o219016   2.723   0.715   3.784 -0.1999 -0.1696 -0.7498
 4465poe    c2319017   2.586   0.726   3.813  0.0886  0.0358  0.5758
 4465poe    c2319018   2.532   0.632   3.923 -0.3088 -0.0746  0.2890
 4465poe     o219019   2.553   0.502   3.873 -0.2012  0.1184 -0.1766
 4465poe    c3119020   2.516   0.404   3.968 -0.9090  0.3791 -0.1808
 4466poe    c3119021   2.648   1.365   1.759 -0.6720 -0.3300 -0.1679
 4466poe     o219022   2.679   1.433   1.640  0.1635  0.6114  0.5719
 4466poe    c2319023   2.751   1.356   1.546 -0.8037  0.0310  0.3025
 4466poe    c2319024   2.769   1.444   1.420  0.2926 -0.1686  0.3132
 4466poe     o219025   2.649   1.468   1.351  0.6067 -0.7202 -0.4424
 4466poe    c2319026   2.683   1.550   1.242  0.0923 -0.0072 -0.0779
 4466poe    c2319027   2.561   1.562   1.148 -0.1287 -0.1438  0.1877
 4466poe     o219028   2.460   1.642   1.205 -0.5635 -0.3158 -0.3389
 4466poe    c2319029   2.418   1.745   1.118 -0.1123 -0.1613 -0.3749
 4466poe    c2319030   2.267   1.757   1.092 -0.3308 -0.3843  0.7370
 4466poe     o219031   2.188   1.803   1.199 -0.3445 -0.1273  0.6191
 4466poe    c3119032   2.053   1.829   1.167 -0.1048  0.1396 -0.2047
 4467poe    c3119033   2.737   2.003   0.544 -0.5091  0.7456 -0.0331
 4467poe     o219034   2.852   2.040   0.471 -0.1421  0.2147  0.2717
 4467poe    c2319035   2.875   1.925   0.392  0.3737  0.3263  0.2577
 4467poe    c2319036   3.002   1.915   0.306  0.3188  0.5535  0.1481
 4467poe     o219037   3.119   1.907   0.385  0.0874 -0.0821  0.4291
 4467poe    c2319038   3.224   1.952   0.303 -0.5085  0.0519 -0.2648
 4467poe    c2319039   3.352   1.921   0.382 -0.5369  0.2504 -0.1416
 4467poe     o219040   3.351   1.993   0.504 -0.3985 -0.1929  0.1217
 4467poe    c2319041   3.443   1.936   0.594 -0.0121  0.2271 -0.0059
 4467poe    c2319042   3.411   1.991   0.734 -0.1112  0.1914 -0.0148
 4467poe     o219043   3.285   1.950   0.784 -0.3022  0.4427 -0.2862
 4467poe    c3119044   3.276   1.991   0.918  0.0986 -0.3060 -0.0242
 4468poe    c3119045   1.398   6.029   6.888 -0.0240  0.2585 -0.1709
 4468poe     o219046   1.449   6.155   6.925  0.2614  0.2134 -0.4041
 4468poe    c2319047   1.534   6.191   6.818  0.3851  0.4600 -0.2231
 4468poe    c2319048   1.612   6.318   6.858  0.2315  0.5958 -0.3513
 4468poe     o219049   1.539   6.389   6.956 -0.2084 -0.1819 -0.1059
 4468poe    c2319050   1.614   6.501   6.998  0.0254 -0.3706 -0.0146
 4468poe    c2319051   1.548   6.574   7.117 -0.1077 -0.4688 -0.0286
 4468poe     o219052   1.529   6.481   7.221  0.1696 -0.8154 -0.2830
 4468poe    c2319053   1.451   6.534   7.326 -0.1619 -0.6225 -0.6258
 4468poe    c2319054   1.449   6.438   7.446 -0.0150 -0.1979 -0.2811
 4468poe     o219055   1.359   6.332   7.424 -0.1236  0.0118 -0.8533
 4468poe    c3119056   1.392   6.232   7.518 -0.2030  0.2414 -0.5803
 4469poe    c3119057   7.052   3.869   4.946 -0.0981  0.3485  0.1734
 4469poe     o219058   7.129   3.828   5.057 -0.5191 -0.1071  0.2961
 4469poe    c2319059   7.251   3.896   5.045 -0.6172  0.0979  0.4411
 4469poe    c2319060   7.340   3.855   5.164  0.2756  0.5796 -0.0451
 4469poe     o219061   7.285   3.871   5.293  0.1348  0.6111 -0.1088
 4469poe    c2319062   7.290   4.004   5.341 -0.3212  0.6450 -0.1496
 4469poe    c2319063   7.217   4.023   5.475 -0.0525 -0.5301  0.1785
 4469poe     o219064   7.087   3.969   5.473 -0.1846 -0.2019 -0.2198
 4469poe    c2319065   7.039   3.950   5.604  0.0662 -0.5917 -0.1833
 4469poe    c2319066   6.896   3.895   5.602 -0.0426 -0.3150 -0.1032
 4469poe     o219067   6.836   3.961   5.493  0.3683 -0.0097 -0.1416
 4469poe    c3119068   6.716   4.031   5.516  0.0367 -0.7311  0.3323
 4470poe    c3119069   3.156   2.153   2.372  0.0841  0.2418  0.6230
 4470poe     o219070   3.144   2.014   2.359  0.0904  0.3437 -0.5334
 4470poe    c2319071   3.070   1.960   2.252 -0.4063  0.0975 -0.0719
 4470poe    c2319072   3.100   1.813   2.219 -0.0551  0.2398 -0.4073
 4470poe     o219073   3.019   1.761   2.116 -0.3500  0.2130 -0.1645
 4470poe    c2319074   3.086   1.646   2.071 -0.3421 -0.1527  0.7716
 4470poe    c2319075   3.024   1.598   1.939  0.4233 -0.2014  0.4239
 4470poe     o219076   3.075   1.677   1.834  0.1100 -0.1777  0.2866
 4470poe    c2319077   3.106   1.585   1.732 -0.6427 -0.1567  0.0351
 4470poe    c2319078   3.140   1.657   1.600 -0.1872 -0.5312 -0.0545
 4470poe     o219079   3.026   1.702   1.530 -0.0874  0.2452  0.2685
 4470poe    c3119080   3.061   1.737   1.398  0.3062 -0.1979  0.2512
 4471poe    c3119081   3.557   1.777   1.520 -0.2909 -0.1969 -0.3434
 4471poe     o219082   3.691   1.738   1.500 -0.3030 -0.3181 -0.1879
 4471poe    c2319083   3.749   1.807   1.392 -0.0385  0.2076  0.2880
 4471poe    c2319084   3.829   1.934   1.429  0.1675  0.1595  0.0137
 4471poe     o219085   3.955   1.919   1.490 -0.3271 -0.3632  0.9197
 4471poe    c2319086   4.013   2.041   1.531 -0.1504 -0.0715 -0.1811
 4471poe    c2319087   4.151   2.047   1.597 -0.2251  0.6485 -0.0839
 4471poe     o219088   4.261   2.017   1.514 -0.2450  0.4191 -0.0281
 4471poe    c2319089   4.334   1.908   1.566 -0.1047  0.2779 -0.5195
 4471poe    c2319090   4.470   1.900   1.493  0.4899 -0.5692  0.6559
 4471poe     o219091   4.469   1.849   1.362  0.7532 -0.0686  0.4547
 4471poe    c3119092   4.600   1.857   1.310  0.3947 -0.5055 -0.5440
 4472poe    c3119093   7.352   2.960   6.402  0.5090 -0.3943 -0.4676
 4472poe     o219094   7.323   3.018   6.278  0.0450  0.1080 -0.1257
 4472poe    c2319095   7.313   3.154   6.313 -0.2070  0.0980 -0.1517
 4472poe    c2319096   7.251   3.223   6.190  0.4987  0.0766 -0.5260
 4472poe     o219097   7.118   3.191   6.155  0.4940 -0.0496 -0.3920
 4472poe    c2319098   7.063   3.267   6.050 -0.4433 -0.1113  0.0485
 4472poe    c2319099   6.912   3.243   6.028 -0.3305 -0.5228 -0.2925
 4472poe     o219100   6.824   3.326   6.101  0.2860  0.2210 -0.3761
 4472poe    c2319101   6.691   3.304   6.059  0.4188  0.1462 -0.7617
 4472poe    c2319102   6.592   3.394   6.135  0.6275 -0.4721  0.2582
 4472poe     o219103   6.597   3.368   6.274 -0.7747  0.1920  0.4476
 4472poe    c3119104   6.520   3.469   6.336 -0.2026  0.5317  0.6142
 4473poe    c3119105   1.775   4.836   4.294  0.4259 -0.2074  0.0262
 4473poe     o219106   1.804   4.802   4.161  0.2603  0.2667 -0.1342
 4473poe    c2319107   1.697   4.723   4.116  0.2812  0.4692 -0.5475
 4473poe    c2319108   1.730   4.699   3.967 -0.3777 -0.5207 -0.5499
 4473poe     o219109   1.869   4.674   3.965 -0.2910 -0.2016  0.3910
 4473poe    c2319110   1.912   4.690   3.831  0.0749  0.1439  0.5501
 4473poe    c2319111   2.063   4.663   3.822  0.0290 -0.1072  0.5343
 4473poe     o219112   2.128   4.766   3.893  0.3123  0.1602 -0.1071
 4473poe    c2319113   2.265   4.734   3.898  0.1366 -0.6483 -0.3498
 4473poe    c2319114   2.343   4.839   3.980 -0.2574 -0.5854 -0.0544
 4473poe     o219115   2.317   4.803   4.114 -0.2034  0.0179  0.1202
 4473poe    c3119116   2.435   4.791   4.189 -0.1346 -0.0830 -0.0035
 4474poe    c3119117   1.946   2.322   2.673  0.1241 -0.6565 -0.0398
 4474poe     o219118   2.046   2.384   2.596 -0.1331 -0.0652  0.1002
 4474poe    c2319119   2.097   2.495   2.668 -0.4469  0.2004 -0.0814
 4474poe    c2319120   2.020   2.628   2.673  0.0617  0.5108 -0.4192
 4474poe     o219121   1.893   2.631   2.733  0.1639  0.3349 -0.1956
 4474poe    c2319122   1.808   2.725   2.672  0.0809  0.1699 -0.3359
 4474poe    c2319123   1.666   2.709   2.729  0.1907  0.6132  0.0741
 4474poe     o219124   1.661   2.752   2.863 -0.1603  0.2156  0.1897
 4474poe    c2319125   1.530   2.760   2.914 -0.4123  0.5179 -0.4890
 4474poe    c2319126   1.538   2.799   3.063 -0.4920  0.3484 -0.4397
 4474poe     o219127   1.595   2.926   3.085  0.7422 -0.1567 -0.6579
 4474poe    c3119128   1.665   2.952   3.205 -0.5639  0.5550 -0.0288
 4475poe    c3119129   1.270   0.222   2.803  0.0778  0.2295  0.1359
 4475poe     o219130   1.303   0.102   2.737 -0.5767 -0.0244  0.2588
 4475poe    c2319131   1.293  -0.011   2.822 -0.1407 -0.1971  0.0829
 4475poe    c2319132   1.297  -0.147   2.751  0.3969 -0.0260 -0.2211
 4475poe     o219133   1.192  -0.152   2.657  0.2391 -0.4181 -0.0242
 4475poe    c2319134   1.175  -0.281   2.603 -0.1506  0.0003 -0.9194
 4475poe    c2319135   1.027  -0.286   2.560 -0.4218  0.0071  0.0033
 4475poe     o219136   0.991  -0.183   2.470 -0.0134  0.1383 -0.0156
 4475poe    c2319137   0.859  -0.198   2.421  0.0434  0.3858 -0.2473
 4475poe    c2319138   0.778  -0.068   2.430 -0.0621  0.3083 -0.0676
 4475poe     o219139   0.758  -0.029   2.564  0.4028 -0.0368  0.1008
 4475poe    c3119140   0.689   0.093   2.566  0.3111 -0.0918  0.3036
 4476poe    c3119141   1.278   4.987   6.404 -1.3935  0.0935 -0.3216
 4476poe     o219142   1.302   4.997   6.542  0.0440 -0.4385 -0.5212
 4476poe    c2319143   1.326   5.130   6.584 -0.2590 -0.5866  0.1249
 4476poe    c2319144   1.404   5.128   6.717  0.0187 -0.2849 -0.0313
 4476poe     o219145   1.521   5.050   6.703  0.0068 -0.2734 -0.1959
 4476poe    c2319146   1.623   5.092   6.790 -0.0912 -0.4866  0.0241
 4476poe    c2319147   1.758   5.020   6.772 -0.4269 -1.0218 -0.3794
 4476poe     o219148   1.844   5.027   6.884 -0.2771 -0.0689 -0.5403
 4476poe    c2319149   1.967   4.958   6.872 -0.5658 -0.7088  0.1033
 4476poe    c2319150   2.055   5.011   6.986 -0.6670  0.3138 -0.2806
 4476poe     o219151   2.094   5.146   6.971  0.2465  0.0853 -0.0151
 4476poe    c3119152   2.130   5.184   7.102 -0.1439  0.8326 -0.1189
 4477poe    c3119153   1.398   5.319   2.642 -0.3810  0.2442 -0.5137
 4477poe     o219154   1.340   5.295   2.516 -0.1332  0.0283 -0.5861
 4477poe    c2319155   1.208   5.344   2.524 -0.0317  0.1852  0.1948
 4477poe    c2319156   1.114   5.313   2.406 -0.2537 -0.0590  0.4345
 4477poe     o219157   1.094   5.174   2.405 -0.0075 -0.0940 -0.3068
 4477poe    c2319158   1.000   5.128   2.311 -0.3672  0.2829 -0.1302
 4477poe    c2319159   0.999   4.974   2.323 -0.2059  0.2672 -0.3317
 4477poe     o219160   1.128   4.927   2.289 -0.4340 -0.3422 -0.3624
 4477poe    c2319161   1.139   4.787   2.305  0.2231 -0.3509 -0.8355
 4477poe    c2319162   1.254   4.731   2.221  0.6678  0.1059 -0.5404
 4477poe     o219163   1.367   4.771   2.295  0.3582 -0.2067  0.1071
 4477poe    c3119164   1.486   4.741   2.226  0.0525  0.0158 -0.5279
 4478poe    c3119165   4.444   1.889   3.852  0.0802  0.0640  0.2551
 4478poe     o219166   4.397   2.004   3.918  0.1800  0.3133 -0.1096
 4478poe    c2319167   4.336   2.104   3.838 -0.6080 -0.3893 -0.3947
 4478poe    c2319168   4.226   2.183   3.911  0.1299  0.3710 -0.0887
 4478poe     o219169   4.263   2.275   4.011  0.0133  0.1767  0.1346
 4478poe    c2319170   4.155   2.340   4.074 -0.2843  0.1071 -0.3043
 4478poe    c2319171   4.101   2.237   4.175  0.3402  0.4633  0.3960
 4478poe     o219172   3.976   2.284   4.220 -0.1196 -0.1530 -0.2298
 4478poe    c2319173   3.951   2.259   4.357  0.0400  0.0803 -0.1585
 4478poe    c2319174   4.010   2.349   4.467  0.0202 -0.0636 -0.0295
 4478poe     o219175   3.929   2.464   4.479  0.1398  0.0574 -0.3591
 4478poe    c3119176   3.965   2.522   4.602  0.2622  0.0585 -0.3946
 4479poe    c3119177   4.192   7.421   2.703  0.2771  0.0666 -0.0509
 4479poe     o219178   4.124   7.364   2.594 -0.2426  0.2134  0.1967
 4479poe    c2319179   4.060   7.464   2.517  0.4440  0.3565 -0.1989
 4479poe    c2319180   3.974   7.392   2.411  0.0978 -0.3532  0.5469
 4479poe     o219181   4.042   7.278   2.365 -0.2084 -0.1633 -0.3986
 4479poe    c2319182   3.973   7.211   2.261 -0.0196 -0.1654 -0.5222
 4479poe    c2319183   3.991   7.059   2.276  0.0746 -0.1471 -0.4450
 4479poe     o219184   4.124   7.014   2.288  0.1544  0.2613  0.2180
 4479poe    c2319185   4.126   6.873   2.289  0.1708  0.2602  0.0824
 4479poe    c2319186   4.242   6.815   2.374 -0.3630 -0.3758  0.3872
 4479poe     o219187   4.368   6.817   2.310 -0.3292  0.2870  0.4647
 4479poe    c3119188   4.463   6.750   2.390 -0.0820  0.0726 -0.0091
 4480poe    c3119189   0.088   5.306   6.707  0.3308 -0.6175 -0.2008
 4480poe     o219190   0.198   5.270   6.627  0.4163 -0.0280 -0.3520
 4480poe    c2319191   0.300   5.240   6.719 -0.4825  0.2818  0.7675
 4480poe    c2319192   0.441   5.198   6.673 -0.7421  0.6559 -0.4108
 4480poe     o219193   0.536   5.301   6.673 -0.2436  0.2141  0.3885
 4480poe    c2319194   0.664   5.250   6.644 -0.4465 -0.0714 -0.0126
 4480poe    c2319195   0.779   5.353   6.650 -0.5694  0.0227  0.8325
 4480poe     o219196   0.738   5.461   6.569 -0.0077 -0.2260  0.2129
 4480poe    c2319197   0.837   5.561   6.557 -0.3288  0.0876  0.1670
 4480poe    c2319198   0.787   5.673   6.464  0.3262  0.1953 -0.0644
 4480poe     o219199   0.668   5.727   6.519 -0.1564 -0.0771 -0.8304
 4480poe    c3119200   0.630   5.821   6.420 -0.1570  0.6206 -0.1742
 4481poe    c3119201   2.389   1.988   7.406 -0.4561 -0.6262 -0.0928
 4481poe     o219202   2.401   2.081   7.512 -0.1151 -0.3007 -0.4143
 4481poe    c2319203   2.537   2.087   7.548 -0.1897 -0.5547 -0.0826
 4481poe    c2319204   2.567   2.198   7.651 -0.1468 -0.3576 -0.3042
 4481poe     o219205   2.556   2.324   7.589  0.0704  0.0065  0.3821
 4481poe    c2319206   2.678   2.383   7.551 -0.0772  0.2563  0.2994
 4481poe    c2319207   2.687   2.523   7.486  0.1227  0.2815  0.3826
 4481poe     o219208   2.614   2.510   7.366  0.2574  0.0153  0.3264
 4481poe    c2319209   2.618   2.631   7.294  0.1139 -0.4084 -0.3962
 4481poe    c2319210   2.509   2.631   7.185 -0.7311  1.2872  0.4135
 4481poe     o219211   2.404   2.564   7.250  0.0641 -0.1772  0.2236
 4481poe    c3119212   2.288   2.584   7.173  0.7630  0.1655 -0.7598
 4482poe    c3119213   4.989   1.597   0.894  0.1965 -0.2031 -0.9205
 4482poe     o219214   4.897   1.677   0.823 -0.3406 -0.1876 -0.2190
 4482poe    c2319215   4.859   1.626   0.698  0.0461  0.1121 -0.4610
 4482poe    c2319216   4.777   1.496   0.684 -0.1240  0.1293  0.3237
 4482poe     o219217   4.640   1.527   0.696 -0.1529  0.0897  0.0985
 4482poe    c2319218   4.583   1.403   0.731  0.1394  0.0519  0.4402
 4482poe    c2319219   4.430   1.404   0.745  0.1180 -0.6606  0.3236
 4482poe     o219220   4.393   1.487   0.853 -0.0400 -0.1508 -0.1159
 4482poe    c2319221   4.401   1.422   0.978  0.3727 -0.3399 -0.2375
 4482poe    c2319222   4.289   1.445   1.082  0.8210  0.5102  0.0684
 4482poe     o219223   4.291   1.577   1.132  0.3268  0.4437  0.2728
 4482poe    c3119224   4.214   1.662   1.049  0.5334  0.6823  0.3234
 4483poe    c3119225   6.664   2.675   1.462  0.1026 -0.4028  0.1911
 4483poe     o219226   6.787   2.739   1.436 -0.1920  0.1089  0.0570
 4483poe    c2319227   6.902   2.693   1.503 -0.1627  0.0543 -0.0319
 4483poe    c2319228   7.027   2.758   1.442 -0.3235  0.2087 -0.1967
 4483poe     o219229   7.065   2.686   1.327 -0.0628  0.0186  0.0092
 4483poe    c2319230   7.200   2.646   1.335 -0.0735 -0.0531 -0.1730
 4483poe    c2319231   7.247   2.576   1.206  0.1744 -0.2341  0.0145
 4483poe     o219232   7.205   2.443   1.184 -0.4464 -0.0322 -0.0472
 4483poe    c2319233   7.308   2.378   1.113 -0.1517  0.2118  0.1577
 4483poe    c2319234   7.302   2.225   1.100  0.7172  0.1689  0.1674
 4483poe     o219235   7.274   2.166   1.225  0.8171  0.4788  0.3368
 4483poe    c3119236   7.279   2.026   1.211  0.1010  0.5217 -0.4113
 4484poe    c3119237   1.456   6.306   4.104  0.0495 -0.3066 -0.0991
 4484poe     o219238   1.324   6.273   4.064  0.0718 -0.1987 -0.2649
 4484poe    c2319239   1.249   6.381   4.013  0.3456  0.5080  0.7974
 4484poe    c2319240   1.101   6.338   4.007  0.4460  0.2878 -0.4121
 4484poe     o219241   1.039   6.340   4.134  0.0336  0.1554 -0.6105
 4484poe    c2319242   0.913   6.278   4.125  0.1743 -0.1713 -0.3455
 4484poe    c2319243   0.840   6.266   4.260  0.4066  0.0422 -0.2005
 4484poe     o219244   0.800   6.388   4.317 -0.1386 -0.1702 -0.1272
 4484poe    c2319245   0.718   6.366   4.431 -0.4983  0.1537 -0.3210
 4484poe    c2319246   0.592   6.454   4.426 -0.2356  0.5467 -0.1755
 4484poe     o219247   0.620   6.591   4.438  0.3366  0.4606 -0.4798
 4484poe    c3119248   0.501   6.667   4.445 -0.2143 -0.3740 -0.5816
 4485poe    c3119249   3.137   1.431   3.295 -0.0748 -0.1848  0.7621
 4485poe     o219250   3.002   1.472   3.281  0.0485 -0.1154 -0.2934
 4485poe    c2319251   2.930   1.356   3.245 -0.4950  0.0380  0.2818
 4485poe    c2319252   2.796   1.397   3.183 -0.5771 -0.3386  0.2081
 4485poe     o219253   2.789   1.409   3.043 -0.5676 -0.5449  0.1901
 4485poe    c2319254   2.858   1.516   2.982 -0.5452  0.1125  1.3417
 4485poe    c2319255   2.774   1.643   2.966 -0.3661  0.1038  0.2599
 4485poe     o219256   2.781   1.716   3.087 -0.1099 -0.2469  0.4568
 4485poe    c2319257   2.663   1.793   3.089  0.2911  0.4262 -0.8418
 4485poe    c2319258   2.671   1.896   3.203 -0.0233 -0.2968 -0.1619
 4485poe     o219259   2.764   2.000   3.188 -0.1415 -0.0781  0.5884
 4485poe    c3119260   2.700   2.126   3.185  0.5556  0.2644 -0.5197
 4486poe    c3119261   6.881   3.899   2.712  0.4347 -0.1620 -1.1124
 4486poe     o219262   6.917   4.032   2.680  0.0341  0.2590  0.1040
 4486poe    c2319263   6.888   4.107   2.795  0.2598  0.3182  0.1238
 4486poe    c2319264   6.784   4.215   2.763 -0.0030  0.0024 -0.1031
 4486poe     o219265   6.838   4.262   2.642  0.0739 -0.1823 -0.1398
 4486poe    c2319266   6.792   4.387   2.596 -0.1447 -0.3550 -0.3922
 4486poe    c2319267   6.860   4.429   2.464  0.2956 -0.0078 -0.0564
 4486poe     o219268   6.999   4.450   2.473  0.3086  0.0179 -0.3247
 4486poe    c2319269   7.029   4.519   2.353 -0.1025  1.0196  0.1310
 4486poe    c2319270   7.154   4.606   2.375  0.6489  0.0003 -0.0350
 4486poe     o219271   7.145   4.694   2.485  0.1435 -0.1639  0.0581
 4486poe    c3119272   7.263   4.743   2.544  0.2902  0.1749 -0.5021
 4487poe    c3119273   1.526   4.947   0.960  0.1215  0.1277 -0.2330
 4487poe     o219274   1.397   4.897   0.936  0.1545  0.0721 -0.2947
 4487poe    c2319275   1.311   4.997   0.885  0.4248  0.2901 -0.3251
 4487poe    c2319276   1.176   4.936   0.841  0.3772  0.1180  0.0550
 4487poe     o219277   1.182   4.826   0.753  0.0458 -0.1807  0.4026
 4487poe    c2319278   1.052   4.775   0.736 -0.1406  0.2779  0.4268
 4487poe    c2319279   1.037   4.685   0.611  0.0280  0.0444  0.5728
 4487poe     o219280   1.105   4.562   0.615 -0.3034 -0.1567  0.0784
 4487poe    c2319281   1.042   4.478   0.521 -0.1507  0.0617 -0.2199
 4487poe    c2319282   1.107   4.338   0.528 -0.1415  0.0987  0.4348
 4487poe     o219283   1.240   4.323   0.483 -0.2444 -0.2346  0.2387
 4487poe    c3119284   1.282   4.189   0.497  0.1407 -0.1042  0.3549
 4488poe    c3119285   6.350   2.234   2.504  0.1178 -0.4260  0.0397
 4488poe     o219286   6.218   2.193   2.477 -0.2072  0.2288  0.5990
 4488poe    c2319287   6.113   2.279   2.514 -0.1946  0.2450  0.5975
 4488poe    c2319288   5.973   2.233   2.472  0.0501 -0.2978  0.3687
 4488poe     o219289   5.961   2.094   2.495  0.0766 -0.3723 -0.0580
 4488poe    c2319290   5.840   2.044   2.443 -0.0244  0.1697 -0.3551
 4488poe    c2319291   5.843   1.890   2.454  0.0701  0.1841 -0.1619
 4488poe     o219292   5.960   1.830   2.404 -0.2463 -0.7176  0.1699
 4488poe    c2319293   5.942   1.690   2.403 -0.3310 -0.7117  0.5818
 4488poe    c2319294   6.082   1.625   2.397  0.0918  0.2365 -0.3353
 4488poe     o219295   6.154   1.693   2.497  0.0333  0.3579 -0.3749
 4488poe    c3119296   6.256   1.607   2.544  0.5203  0.8300 -0.5483
 4489poe    c3119297   1.222   7.392   5.747 -0.0795  0.0549 -0.4250
 4489poe     o219298   1.181   7.287   5.832 -0.0575  0.3730 -0.0199
 4489poe    c2319299   1.238   7.163   5.798 -0.5298  0.1328  0.0611
 4489poe    c2319300   1.193   7.047   5.889 -0.1021 -0.0573  0.0321
 4489poe     o219301   1.206   7.046   6.029 -0.1529  0.0014  0.0371
 4489poe    c2319302   1.340   7.046   6.073 -0.0058  0.1174 -0.4125
 4489poe    c2319303   1.360   7.065   6.224 -0.1112 -0.1030 -0.3713
 4489poe     o219304   1.307   6.963   6.307  0.1197  0.5393  0.5730
 4489poe    c2319305   1.300   6.996   6.444 -0.3036  1.0598  0.4314
 4489poe    c2319306   1.310   6.862   6.520  0.1511  0.7207 -0.2160
 4489poe     o219307   1.435   6.797   6.518  0.0481  0.5091  0.0325
 4489poe    c3119308   1.429   6.679   6.595 -0.2680  0.1330 -0.5637
 4490poe    c3119309   6.919   3.948   5.992 -0.7580 -0.8022  0.3602
 4490poe     o219310   6.959   3.826   5.936  0.2446 -0.2889 -0.0762
 4490poe    c2319311   6.843   3.747   5.919 -0.1929  0.4226 -0.4443
 4490poe    c2319312   6.872   3.604   5.871 -0.1524  0.2037  0.2217
 4490poe     o219313   6.945   3.592   5.751 -0.6277  0.1892 -0.0678
 4490poe    c2319314   7.080   3.573   5.787 -0.5682  0.2722 -0.2429
 4490poe    c2319315   7.169   3.517   5.675 -0.3025  0.2944 -0.0472
 4490poe     o219316   7.135   3.389   5.626  0.1949  0.0306  0.2932
 4490poe    c2319317   7.218   3.340   5.523  0.2120  0.4267  0.1167
 4490poe    c2319318   7.232   3.413   5.388  0.0541  0.0178 -0.1238
 4490poe     o219319   7.118   3.396   5.307 -0.1740  0.2968  0.1348
 4490poe    c3119320   7.110   3.505   5.217 -0.4124  0.0887 -0.0976
 4491poe    c3119321   2.099   1.423   1.047  0.1871  0.2375  0.0782
 4491poe     o219322   2.190   1.355   0.964  0.1607  0.3917 -0.0777
 4491poe    c2319323   2.244   1.241   1.028  0.2498  0.0702 -0.7169
 4491poe    c2319324   2.284   1.157   0.905  0.0996 -0.3190 -0.5012
 4491poe     o219325   2.405   1.210   0.855  0.2460 -0.0938  0.0894
 4491poe    c2319326   2.434   1.154   0.729 -0.2468  0.2765 -0.1935
 4491poe    c2319327   2.583   1.167   0.691 -0.2630 -0.2130 -0.4333
 4491poe     o219328   2.659   1.075   0.766 -0.2241 -0.3926 -0.6967
 4491poe    c2319329   2.795   1.084   0.731 -0.1107 -0.0893 -0.1774
 4491poe    c2319330   2.874   0.983   0.817  0.0579  0.0684 -0.1445
 4491poe     o219331   2.860   1.021   0.952  0.1132  0.3712 -0.2238
 4491poe    c3119332   2.913   0.920   1.035 -0.6355 -0.3209 -0.5715
 4492poe    c3119333   4.507   1.707   7.241  0.7567 -0.4316 -0.2515
 4492poe     o219334   4.469   1.571   7.231  0.6383 -0.4156 -0.0276
 4492poe    c2319335   4.465   1.513   7.359  0.4867 -0.1232  0.1001
 4492poe    c2319336   4.475   1.361   7.343 -0.5455 -0.1874  0.0317
 4492poe     o219337   4.375   1.314   7.255 -0.0849 -0.2854 -0.4454
 4492poe    c2319338   4.369   1.173   7.258  0.1234 -0.2828  0.1618
 4492poe    c2319339   4.238   1.139   7.185 -0.2238  0.4228  0.4415
 4492poe     o219340   4.222   1.223   7.073 -0.0301  0.0295  0.1170
 4492poe    c2319341   4.089   1.231   7.026  0.0456 -0.6183 -0.2331
 4492poe    c2319342   4.065   1.285   6.884  0.1456 -0.3270 -0.1410
 4492poe     o219343   4.141   1.400   6.853 -0.3663 -0.0146 -0.2502
 4492poe    c3119344   4.089   1.482   6.751 -0.1921  0.3580 -0.0381
 4493poe    c3119345   4.733   1.119   7.378 -0.4278  0.0398  0.8474
 4493poe     o219346   4.847   1.103   7.297 -1.0893 -0.3186 -0.0298
 4493poe    c2319347   4.819   1.035   7.177  0.3151  0.5079 -0.8660
 4493poe    c2319348   4.934   0.953   7.116  0.5403  0.2916 -0.1602
 4493poe     o219349   5.035   1.027   7.050  0.0423  1.0969 -0.0391
 4493poe    c2319350   5.152   0.960   7.009 -0.1752  0.6316  0.0945
 4493poe    c2319351   5.112   0.874   6.887 -0.5657  0.0900  0.5944
 4493poe     o219352   5.108   0.951   6.768 -0.2639 -0.2932  0.3352
 4493poe    c2319353   5.000   1.037   6.739  0.1764  0.0977 -0.1466
 4493poe    c2319354   5.031   1.127   6.618  0.3529 -0.1074 -0.2550
 4493poe     o219355   5.124   1.220   6.669 -0.1191  0.2973 -0.1196
 4493poe    c3119356   5.162   1.317   6.574  0.1089 -0.0037 -0.3418
 4494poe    c3119357   1.454   2.004   4.163 -0.4094 -0.8036  0.9193
 4494poe     o219358   1.574   1.948   4.211  0.1251 -0.2612  0.2491
 4494poe    c2319359   1.615   1.837   4.135 -0.0032 -0.0508 -0.1271
 4494poe    c2319360   1.736   1.771   4.203  0.2197 -0.1199 -0.5855
 4494poe     o219361   1.828   1.878   4.198 -0.1892  0.2822  0.2425
 4494poe    c2319362   1.957   1.846   4.243 -0.0494  0.0753 -0.2985
 4494poe    c2319363   2.051   1.968   4.238 -0.3218  0.2954 -0.0566
 4494poe     o219364   2.019   2.063   4.337  0.0135  0.2143  0.1303
 4494poe    c2319365   2.107   2.173   4.335 -0.1962  0.3834  0.2327
 4494poe    c2319366   2.076   2.288   4.433  0.0905  0.3730  0.3382
 4494poe     o219367   1.956   2.356   4.403 -0.1214 -0.3340 -0.4762
 4494poe    c3119368   1.903   2.428   4.512  0.4170 -0.2250 -0.2857
 4495poe    c3119369   5.869   6.927   5.260  0.3768  0.1249  0.0141
 4495poe     o219370   5.902   6.849   5.374 -0.1487 -0.1511 -0.0176
 4495poe    c2319371   5.979   6.742   5.326 -0.2213 -0.1911 -0.0449
 4495poe    c2319372   6.050   6.674   5.445  0.1923  0.4907  0.1006
 4495poe     o219373   6.144   6.571   5.425 -0.0505  0.1885  0.4990
 4495poe    c2319374   6.202   6.537   5.548  1.4897  0.9563  0.0156
 4495poe    c2319375   6.289   6.410   5.534  0.0512 -0.0890  0.3451
 4495poe     o219376   6.388   6.412   5.434 -0.2644 -0.0964  0.0299
 4495poe    c2319377   6.437   6.280   5.418  0.4571  0.0835  0.6992
 4495poe    c2319378   6.530   6.246   5.300  0.2801  0.6330  0.3971
 4495poe     o219379   6.658   6.300   5.325  0.4916  0.2330  0.1722
 4495poe    c3119380   6.736   6.332   5.211  0.0384  0.4240 -0.0863
 4496poe    c3119381   1.789   3.364   4.514 -0.1497 -0.2512  0.6298
 4496poe     o219382   1.808   3.263   4.418 -0.1153  0.4137 -0.0750
 4496poe    c2319383   1.747   3.294   4.295 -0.2361  0.0596 -0.1042
 4496poe    c2319384   1.790   3.199   4.182 -0.2096  0.4188 -0.3970
 4496poe     o219385   1.926   3.202   4.144 -0.0127  0.0778  0.2778
 4496poe    c2319386   1.959   3.088   4.069  0.2318  0.3177  0.0192
 4496poe    c2319387   2.110   3.095   4.038  0.2419  0.2305  0.0490
 4496poe     o219388   2.174   3.110   4.163  0.0590  0.1363  0.1554
 4496poe    c2319389   2.315   3.109   4.171  0.0547  0.6073  0.2845
 4496poe    c2319390   2.351   3.096   4.320  0.7079  0.3681  0.1078
 4496poe     o219391   2.287   3.197   4.394 -0.0388  0.4303 -0.6161
 4496poe    c3119392   2.348   3.221   4.519 -0.8015  0.1802 -0.1881
 4497poe    c3119393   1.745   6.864   0.275  0.5272 -0.0487  0.4988
 4497poe     o219394   1.659   6.830   0.381 -0.2953 -0.5016 -0.3024
 4497poe    c2319395   1.697   6.709   0.443  0.2317 -0.5221 -0.6603
 4497poe    c2319396   1.586   6.608   0.478 -0.1031 -0.0717 -0.4110
 4497poe     o219397   1.473   6.639   0.555  0.1695  0.0594 -0.0617
 4497poe    c2319398   1.373   6.708   0.482 -0.1261 -0.0895  0.2014
 4497poe    c2319399   1.270   6.750   0.589  0.0358 -0.2295  0.4152
 4497poe     o219400   1.215   6.653   0.674 -0.2269  0.0837  0.6063
 4497poe    c2319401   1.117   6.576   0.608  0.0213  0.2014  0.1002
 4497poe    c2319402   1.046   6.469   0.693 -0.1625  0.5845  0.4317
 4497poe     o219403   0.961   6.523   0.792 -0.2634  0.0563  0.6377
 4497poe    c3119404   0.871   6.418   0.817 -0.2609 -0.1064 -0.0129
 4498poe    c3119405   6.113   4.346   1.454 -0.6293 -0.0586 -0.2028
 4498poe     o219406   6.031   4.238   1.493 -0.6066  0.0643  0.1912
 4498poe    c2319407   6.098   4.131   1.430 -1.0956 -0.0461 -0.1445
 4498poe    c2319408   6.045   4.002   1.495 -0.3397 -0.3336 -0.0857
 4498poe     o219409   5.917   3.963   1.449 -0.2318  0.1620 -0.8230
 4498poe    c2319410   5.879   3.850   1.523  0.1548  0.5390 -0.0407
 4498poe    c2319411   5.731   3.811   1.533  0.3658 -0.2112  0.2399
 4498poe     o219412   5.659   3.895   1.621  0.4212 -0.2951  0.3661
 4498poe    c2319413   5.523   3.861   1.605  0.2732  0.4496 -0.0197
 4498poe    c2319414   5.446   3.860   1.738  0.2312 -0.4690 -0.0451
 4498poe     o219415   5.421   3.994   1.771  0.7138 -0.4064  0.0621
 4498poe    c3119416   5.343   3.991   1.889  0.7347  0.8431  0.1225
 4499poe    c3119417   5.415   5.632   0.416  0.7747 -0.2187  0.5341
 4499poe     o219418   5.424   5.763   0.365 -0.2421 -0.2218  0.3362
 4499poe    c2319419   5.561   5.793   0.352 -0.2540  0.0090  0.7164
 4499poe    c2319420   5.580   5.943   0.326  1.0681 -0.2485  0.1472
 4499poe     o219421   5.562   6.003   0.199 -0.2475  0.1895  0.5224
 4499poe    c2319422   5.660   6.103   0.181 -0.6871  0.7084  1.0002
 4499poe    c2319423   5.618   6.191   0.062 -0.4278 -0.4769  0.0163
 4499poe     o219424   5.478   6.205   0.072 -0.3156  0.4075  0.3844
 4499poe    c2319425   5.435   6.333   0.031  0.1054  0.3763 -0.1651
 4499poe    c2319426   5.282   6.330   0.012  0.0779  0.1776  0.0797
 4499poe     o219427   5.218   6.271   0.122  0.0925 -0.0236 -0.0200
 4499poe    c3119428   5.081   6.250   0.095  0.1262 -0.0673 -0.1560
 4500poe    c3119429   3.667   3.306   6.095 -0.2169 -0.1239 -0.6207
 4500poe     o219430   3.544   3.237   6.105 -0.3715  0.1975 -0.2969
 4500poe    c2319431   3.466   3.290   6.210 -0.0531  0.5608 -0.2416
 4500poe    c2319432   3.317   3.254   6.205  0.1486 -0.3267 -0.0738
 4500poe     o219433   3.261   3.289   6.080 -0.2939 -0.6411  0.0323
 4500poe    c2319434   3.132   3.241   6.051 -0.3919 -0.2359 -0.2109
 4500poe    c2319435   3.128   3.097   5.996  0.7905 -0.2580 -0.2663
 4500poe     o219436   3.153   3.084   5.858 -0.0764  0.1080 -0.4698
 4500poe    c2319437   3.136   2.952   5.811 -0.6779 -0.0055  0.0629
 4500poe    c2319438   3.128   2.941   5.658  0.1873  0.8006 -0.0513
 4500poe     o219439   3.239   2.972   5.578 -0.0430  0.2979 -0.5703
 4500poe    c3119440   3.340   2.874   5.586 -0.4479 -0.0848 -0.1191
 4501poe    c3119441   2.439   7.131   0.262  0.6796 -0.1279 -0.1130
 4501poe     o219442   2.345   7.197   0.180  0.4240 -0.1087  0.1941
 4501poe    c2319443   2.375   7.333   0.163 -0.8959  0.1735  0.0124
 4501poe    c2319444   2.325   7.384   0.026  0.2138 -0.2954 -0.5843
 4501poe     o219445   2.186   7.387   0.002  0.1480 -0.0690 -0.1923
 4501poe    c2319446   2.179   7.408  -0.138 -0.3275  0.0020 -0.1598
 4501poe    c2319447   2.041   7.391  -0.203 -0.2152 -0.1883 -0.3479
 4501poe     o219448   2.026   7.251  -0.217  0.1054 -0.2449 -0.1405
 4501poe    c2319449   1.913   7.243  -0.301  0.2764  0.1146 -0.4074
 4501poe    c2319450   1.869   7.095  -0.308 -0.1565  0.2127  0.2218
 4501poe     o219451   1.776   7.066  -0.206  0.1349 -0.1926  0.3729
 4501poe    c3119452   1.765   6.926  -0.205 -0.0393 -0.1847 -0.3167
 4502poe    c3119453   7.216   0.188   0.061  0.2980  0.0175 -0.8284
 4502poe     o219454   7.117   0.089   0.039  0.0851  0.0228  0.0892
 4502poe    c2319455   7.056   0.058   0.163 -0.2485  0.4127  0.0261
 4502poe    c2319456   7.044  -0.094   0.186  0.0593  0.4386  0.3590
 4502poe     o219457   6.951  -0.152   0.098  0.3196  0.3085  0.1687
 4502poe    c2319458   6.962  -0.292   0.097 -0.3434  0.2555 -0.2578
 4502poe    c2319459   6.868  -0.351  -0.011 -0.3915  0.2640 -0.2206
 4502poe     o219460   6.729  -0.352   0.012 -0.4164  0.6633 -0.3530
 4502poe    c2319461   6.650  -0.400  -0.094 -1.5174  0.4345  0.5554
 4502poe    c2319462   6.609  -0.546  -0.063 -0.0069 -0.1581 -0.1252
 4502poe     o219463   6.711  -0.643  -0.072 -0.1645 -0.3652  0.2904
 4502poe    c3119464   6.666  -0.774  -0.048 -0.1008 -0.5179 -0.4046
 4503poe    c3119465   2.429   0.522   4.951 -0.1341  0.0883  0.1403
 4503poe     o219466   2.320   0.443   4.991 -0.1671  0.2839  0.4383
 4503poe    c2319467   2.237   0.509   5.084 -0.5456 -0.0094  0.3128
 4503poe    c2319468   2.100   0.443   5.109 -0.4324 -0.0663  0.7961
 4503poe     o219469   2.097   0.322   5.183  0.0205 -0.6549 -0.1269
 4503poe    c2319470   1.977   0.252   5.156 -0.5932  0.2623  0.1454
 4503poe    c2319471   1.843   0.283   5.224 -0.3116  0.4445  0.6247
 4503poe     o219472   1.730   0.208   5.183 -0.1457  0.4783  0.1022
 4503poe    c2319473   1.615   0.252   5.252  0.0552  0.1051  0.6749
 4503poe    c2319474   1.492   0.162   5.230 -0.2824  0.4306  1.2286
 4503poe     o219475   1.513   0.036   5.289  0.0625  0.2063  0.6343
 4503poe    c3119476   1.410  -0.053   5.250  0.1700  0.3426  0.0418
 4504poe    c3119477   2.613   3.571   0.437  0.3436 -0.0644  0.1521
 4504poe     o219478   2.630   3.439   0.388 -0.1703 -0.2873  0.5652
 4504poe    c2319479   2.507   3.399   0.331  0.3162 -0.3456 -0.4650
 4504poe    c2319480   2.494   3.247   0.310  0.5309 -0.4061 -0.1762
 4504poe     o219481   2.469   3.169   0.424  0.4813  0.3114  0.3131
 4504poe    c2319482   2.444   3.034   0.391  0.5657  0.3226  0.2043
 4504poe    c2319483   2.458   2.931   0.504  0.5105 -0.0064 -0.0863
 4504poe     o219484   2.590   2.923   0.553  0.4170  0.5470  0.2714
 4504poe    c2319485   2.587   2.827   0.656  0.2848 -0.2332 -0.4423
 4504poe    c2319486   2.723   2.791   0.717  0.0055  0.0897  0.4045
 4504poe     o219487   2.764   2.887   0.811  0.0353  0.1196  0.3617
 4504poe    c3119488   2.890   2.858   0.866  0.2620  0.0128 -0.2100
 4505poe    c3119489   6.978   1.665   3.758  0.4868  0.3264  0.0175
 4505poe     o219490   6.873   1.669   3.663  0.0754 -0.4608  0.4237
 4505poe    c2319491   6.764   1.604   3.724  0.0825 -0.4566  0.4411
 4505poe    c2319492   6.635   1.625   3.643  0.1559 -0.5963  0.2855
 4505poe     o219493   6.626   1.583   3.509 -0.3288  0.2951  0.0278
 4505poe    c2319494   6.539   1.666   3.435 -0.4393  0.4163  0.2945
 4505poe    c2319495   6.437   1.575   3.365 -0.0408  0.1901  0.0028
 4505poe     o219496   6.329   1.531   3.444 -0.1896 -0.0846 -0.3470
 4505poe    c2319497   6.242   1.437   3.386 -0.2148 -0.0643 -0.3427
 4505poe    c2319498   6.139   1.497   3.289 -0.0124  0.3789 -0.2841
 4505poe     o219499   6.028   1.559   3.352  0.0579  0.1901  0.0314
 4505poe    c3119500   5.931   1.581   3.252  0.0598 -0.0304 -0.0199
 4506poe    c3119501   6.306   3.984   1.077  0.1189 -0.0954 -0.0143
 4506poe     o219502   6.317   4.111   1.019  0.0149  0.0798  0.3481
 4506poe    c2319503   6.272   4.218   1.099 -0.6174  0.1488 -0.0913
 4506poe    c2319504   6.264   4.359   1.038 -0.6080  0.0402 -0.3421
 4506poe     o219505   6.175   4.360   0.928 -0.0005 -0.3620 -0.8469
 4506poe    c2319506   6.093   4.474   0.928 -0.4940 -0.6982  0.5355
 4506poe    c2319507   5.999   4.487   0.807 -0.1621 -0.2693  0.3220
 4506poe     o219508   6.069   4.504   0.686 -0.9000  0.3184 -0.0354
 4506poe    c2319509   5.992   4.456   0.578 -0.0470  0.6718 -0.8206
 4506poe    c2319510   6.083   4.402   0.467 -0.0670 -0.3853 -0.3347
 4506poe     o219511   6.196   4.484   0.451 -0.4350  0.1432 -0.2350
 4506poe    c3119512   6.255   4.449   0.327 -0.1663 -0.4814  0.0658
 4507poe    c3119513   4.094   4.971   2.912  0.3503  0.2388  0.1194
 4507poe     o219514   4.027   4.932   2.794 -0.0052 -0.0560  0.4169
 4507poe    c2319515   3.887   4.922   2.801 -0.0131 -0.0423  0.2878
 4507poe    c2319516   3.823   4.866   2.673 -1.3737 -0.1487  0.9922
 4507poe     o219517   3.860   4.737   2.630 -0.1066  0.3765  0.4539
 4507poe    c2319518   3.865   4.732   2.489 -0.0441  0.0941  0.4655
 4507poe    c2319519   3.911   4.593   2.442 -0.0059  0.1062  0.4672
 4507poe     o219520   3.797   4.510   2.455  0.1433 -0.1998 -0.1568
 4507poe    c2319521   3.833   4.374   2.458  0.0746 -0.2235 -0.4140
 4507poe    c2319522   3.718   4.274   2.434 -0.6378  0.4334  0.2084
 4507poe     o219523   3.629   4.284   2.542 -0.3515  0.4560  0.4451
 4507poe    c3119524   3.508   4.215   2.518 -0.0803  0.2809 -0.4391
 4508poe    c3119525   0.266   0.509   3.382  0.1454 -0.2942  0.3564
 4508poe     o219526   0.148   0.527   3.457 -0.0035 -0.6123  0.2009
 4508poe    c2319527   0.071   0.411   3.436 -0.0167 -0.5183 -0.2676
 4508poe    c2319528  -0.074   0.464   3.436  0.2122  0.1107  0.1173
 4508poe     o219529  -0.124   0.516   3.557  0.0201  0.0129  0.0798
 4508poe    c2319530  -0.253   0.569   3.539 -0.6027 -1.4797  0.0008
 4508poe    c2319531  -0.330   0.613   3.665 -0.4035 -0.5600 -0.1924
 4508poe     o219532  -0.362   0.508   3.754  0.0106 -0.5692 -0.0541
 4508poe    c2319533  -0.430   0.557   3.867  0.0493 -0.2607 -0.1632
 4508poe    c2319534  -0.412   0.449   3.975 -0.4512 -0.0293  0.1563
 4508poe     o219535  -0.485   0.329   3.959 -0.1258 -0.1905 -0.1419
 4508poe    c3119536  -0.455   0.243   4.067 -0.2941 -0.5429 -0.3731
 4509poe    c3119537   5.112   1.317   5.393 -0.4111 -0.0508  0.2649
 4509poe     o219538   5.177   1.298   5.516 -0.2167  0.9615  0.3277
 4509poe    c2319539   5.085   1.295   5.623 -0.4274 -0.3367  0.1318
 4509poe    c2319540   5.138   1.236   5.755 -0.3711 -0.1145  0.2099
 4509poe     o219541   5.233   1.324   5.809 -0.1893 -0.2118  0.0487
 4509poe    c2319542   5.340   1.248   5.861 -0.2106  0.0929  0.5441
 4509poe    c2319543   5.418   1.340   5.957  0.4270 -0.1015  0.2250
 4509poe     o219544   5.441   1.446   5.867  0.0012 -0.4667 -0.3198
 4509poe    c2319545   5.530   1.534   5.931  0.2552 -0.4960 -0.6320
 4509poe    c2319546   5.584   1.637   5.830  0.2435 -0.6149 -0.7600
 4509poe     o219547   5.463   1.705   5.805  0.4114  0.0787  0.2529
 4509poe    c3119548   5.486   1.821   5.729 -0.4432  0.2205  0.2068
 4510poe    c3119549   4.810   0.946   1.437 -0.2116  0.2036  0.6255
 4510poe     o219550   4.807   0.881   1.562 -0.4447 -0.7458  0.1354
 4510poe    c2319551   4.915   0.794   1.584 -0.1593 -0.5000 -0.2908
 4510poe    c2319552   4.894   0.733   1.724 -0.9151  0.5008  0.0358
 4510poe     o219553   4.768   0.673   1.742 -0.4116 -0.6793 -0.3375
 4510poe    c2319554   4.757   0.578   1.845 -0.1004 -0.1720  0.1660
 4510poe    c2319555   4.852   0.457   1.845  0.4286  0.2437 -0.3229
 4510poe     o219556   4.845   0.375   1.731 -0.4744 -0.2797  0.0996
 4510poe    c2319557   4.952   0.284   1.744 -0.2626 -0.1489 -0.6648
 4510poe    c2319558   4.943   0.167   1.644  0.0526 -0.5844 -0.1927
 4510poe     o219559   4.960   0.210   1.510 -0.4650  0.2416  0.0007
 4510poe    c3119560   4.927   0.111   1.416  0.1506 -0.0781  0.1148
 4511poe    c3119561   1.289   1.615   4.449  0.0851 -0.2033  0.2857
 4511poe     o219562   1.203   1.701   4.377 -0.2150 -0.3803  0.4314
 4511poe    c2319563   1.125   1.626   4.288 -0.3749 -0.1127  0.3471
 4511poe    c2319564   1.044   1.709   4.186  0.2628  0.0180 -0.0544
 4511poe     o219565   0.942   1.790   4.240  0.1070  0.0027 -0.3248
 4511poe    c2319566   0.995   1.901   4.309 -0.0655 -0.0248 -0.1477
 4511poe    c2319567   0.897   1.979   4.397  0.1796  0.2483 -0.1146
 4511poe     o219568   0.796   2.046   4.324  0.0499  0.2093  0.0263
 4511poe    c2319569   0.699   2.091   4.416  0.0060 -0.0002  0.0814
 4511poe    c2319570   0.582   2.123   4.322 -0.2939 -0.2528  0.3660
 4511poe     o219571   0.511   2.013   4.269 -0.3046 -0.1108  0.0854
 4511poe    c3119572   0.405   2.042   4.180 -0.3155 -0.3394  0.0228
 4512poe    c3119573   2.301   6.630   2.955  0.5889 -0.2495  0.4221
 4512poe     o219574   2.323   6.539   2.850 -0.4854 -0.0355 -0.0079
 4512poe    c2319575   2.209   6.541   2.767 -0.4860 -0.1291 -0.0102
 4512poe    c2319576   2.229   6.464   2.635  0.2056 -0.3534  0.2159
 4512poe     o219577   2.295   6.340   2.636 -0.1737 -0.5517  1.0968
 4512poe    c2319578   2.196   6.244   2.668 -0.3817 -0.5079  0.5874
 4512poe    c2319579   2.209   6.110   2.594  0.0369 -0.0858 -0.1225
 4512poe     o219580   2.316   6.027   2.633 -0.3100  0.0308  1.1190
 4512poe    c2319581   2.272   5.894   2.618  0.4029 -0.1398  0.4353
 4512poe    c2319582   2.310   5.818   2.490 -0.1555  0.0839  0.1347
 4512poe     o219583   2.445   5.781   2.483 -0.1645  0.0123  0.3248
 4512poe    c3119584   2.469   5.720   2.358  0.1541  0.4037  0.1915
 4513poe    c3119585   6.272   3.119   0.445 -0.0103  0.5015 -0.1818
 4513poe     o219586   6.204   3.097   0.323 -0.2533 -0.3252  0.0991
 4513poe    c2319587   6.252   2.983   0.256  0.2030  0.1624 -0.4190
 4513poe    c2319588   6.201   2.980   0.111 -0.0557  0.3325 -0.3326
 4513poe     o219589   6.252   3.072   0.017  0.5091  0.0583 -0.2995
 4513poe    c2319590   6.393   3.084   0.007  0.5314  0.4095  0.3902
 4513poe    c2319591   6.414   3.158  -0.126  0.0578 -0.0822  0.0380
 4513poe     o219592   6.355   3.286  -0.133  0.7338  0.2253 -0.0978
 4513poe    c2319593   6.373   3.340  -0.262  0.6012  0.2819 -0.0934
 4513poe    c2319594   6.388   3.493  -0.278 -0.4827  0.3983 -0.0196
 4513poe     o219595   6.265   3.549  -0.238 -0.8728 -0.3553 -0.1471
 4513poe    c3119596   6.264   3.688  -0.218 -0.3116 -0.2603 -0.7676
 4514poe    c3119597   1.425   1.658   5.017  0.2158  0.0815  0.0144
 4514poe     o219598   1.402   1.793   5.048  0.3626  0.0811  0.1319
 4514poe    c2319599   1.313   1.794   5.157  0.0535 -0.0254 -0.1143
 4514poe    c2319600   1.297   1.925   5.237 -0.3992  0.1945 -0.5679
 4514poe     o219601   1.418   1.994   5.256 -0.2559 -0.1510 -0.2148
 4514poe    c2319602   1.394   2.110   5.332  0.0172  0.1512 -0.5813
 4514poe    c2319603   1.515   2.200   5.362 -0.1184  0.1309  0.0423
 4514poe     o219604   1.566   2.276   5.254  0.4439  0.1498  0.3168
 4514poe    c2319605   1.641   2.388   5.294  0.6012  0.2248 -0.1923
 4514poe    c2319606   1.708   2.447   5.169 -0.4291 -0.1146 -0.9191
 4514poe     o219607   1.797   2.349   5.121 -0.3104 -0.4005 -0.1120
 4514poe    c3119608   1.842   2.389   4.994  0.4042 -0.2652  0.1744
 4515poe    c3119609   5.506   4.421   5.976  0.2745 -0.1475 -0.2712
 4515poe     o219610   5.465   4.545   5.924  0.1013 -0.2070 -0.2772
 4515poe    c2319611   5.391   4.621   6.017  0.0755 -0.2436 -0.2685
 4515poe    c2319612   5.378   4.772   5.994  0.7193 -0.2160 -0.4800
 4515poe     o219613   5.277   4.823   5.910  0.1171  0.1258  0.4389
 4515poe    c2319614   5.315   4.849   5.777  0.2481 -0.3802  0.3741
 4515poe    c2319615   5.311   4.993   5.720 -0.4674 -0.4168  0.3154
 4515poe     o219616   5.404   5.080   5.780 -0.8066 -0.2925  0.6635
 4515poe    c2319617   5.367   5.216   5.785  0.0437 -0.0347  0.1401
 4515poe    c2319618   5.381   5.282   5.646  0.0447 -0.2691  0.0281
 4515poe     o219619   5.513   5.307   5.604 -0.0620 -0.3341 -0.3434
 4515poe    c3119620   5.514   5.401   5.499  0.0165  0.1688  0.1053
 4516poe    c3119621   1.310   3.642   5.278 -0.2268  0.0364 -0.2344
 4516poe     o219622   1.207   3.554   5.242 -0.0913 -0.2796  0.1439
 4516poe    c2319623   1.268   3.433   5.203  0.1673 -0.2499  0.4497
 4516poe    c2319624   1.161   3.355   5.124 -0.1174  0.5428  0.0506
 4516poe     o219625   1.033   3.373   5.180 -0.0865  0.1160  0.2636
 4516poe    c2319626   0.931   3.328   5.094 -0.1066  0.0272  0.3350
 4516poe    c2319627   0.793   3.318   5.162 -0.0644 -0.0878  0.4057
 4516poe     o219628   0.737   3.443   5.199  0.1040  0.1736 -0.1925
 4516poe    c2319629   0.602   3.418   5.231  0.1268  0.2523 -0.0315
 4516poe    c2319630   0.522   3.544   5.269  1.0752  0.9327 -0.2423
 4516poe     o219631   0.544   3.601   5.396 -0.0750 -0.0916  0.4386
 4516poe    c3119632   0.481   3.524   5.497 -0.0899 -0.7679 -0.0815
 4517poe    c3119633   6.126   7.005   2.093  0.3978 -0.0675 -0.2501
 4517poe     o219634   6.227   7.077   2.028  0.3683 -0.0148 -0.2368
 4517poe    c2319635   6.208   7.214   2.057  0.3597 -0.0520 -0.0659
 4517poe    c2319636   6.305   7.297   1.970  0.3594 -0.0613 -0.0742
 4517poe     o219637   6.291   7.262   1.835  0.2197  0.0601 -0.0904
 4517poe    c2319638   6.369   7.357   1.766 -0.1247  0.1753 -0.3243
 4517poe    c2319639   6.377   7.322   1.616  0.4770  0.2876 -0.3210
 4517poe     o219640   6.458   7.209   1.589  0.0964 -0.0044 -0.2485
 4517poe    c2319641   6.465   7.159   1.458 -0.0965  0.6305 -0.5078
 4517poe    c2319642   6.586   7.210   1.378  0.5497  0.3283  0.2643
 4517poe     o219643   6.572   7.343   1.333 -0.3642  0.1387 -0.0319
 4517poe    c3119644   6.657   7.366   1.222 -1.0258  0.0278 -0.5732
 4518poe    c3119645   0.196   3.014   1.397  0.1571 -0.2408 -0.0610
 4518poe     o219646   0.220   2.877   1.420 -0.6476 -0.2891  0.5474
 4518poe    c2319647   0.187   2.793   1.311 -0.1447 -0.4601  0.5244
 4518poe    c2319648   0.214   2.643   1.335  0.0567 -0.5639 -0.3345
 4518poe     o219649   0.143   2.568   1.430  0.0704  0.4388  0.4788
 4518poe    c2319650   0.035   2.495   1.377  0.6385 -0.1931  0.1848
 4518poe    c2319651   0.026   2.353   1.437 -0.6730 -0.4838 -0.6588
 4518poe     o219652   0.025   2.363   1.578  0.0103 -0.3160 -0.6634
 4518poe    c2319653  -0.016   2.241   1.634 -0.1293  0.2133  0.4186
 4518poe    c2319654  -0.078   2.275   1.770 -0.1368 -0.1259  0.5025
 4518poe     o219655   0.013   2.348   1.849  0.1463  0.8423 -0.6867
 4518poe    c3119656  -0.045   2.335   1.977  0.5169  0.1800 -0.5831
 4519poe    c3119657   0.701   0.553   0.341  0.1883  0.1117 -0.1979
 4519poe     o219658   0.831   0.509   0.311 -0.0511 -0.4686 -0.3882
 4519poe    c2319659   0.837   0.515   0.170 -0.0486 -0.3491 -0.3832
 4519poe    c2319660   0.980   0.494   0.118  0.2815  0.3469  0.2301
 4519poe     o219661   1.067   0.591   0.172  0.4516 -0.0177  0.6187
 4519poe    c2319662   1.203   0.566   0.143  0.2996  0.1673 -0.2841
 4519poe    c2319663   1.294   0.679   0.195  0.3340 -0.1683  0.3868
 4519poe     o219664   1.288   0.703   0.334  0.3203  0.0270  0.3520
 4519poe    c2319665   1.387   0.639   0.412  0.3297 -0.2263  0.1343
 4519poe    c2319666   1.375   0.673   0.562 -0.3606  0.0667  0.0155
 4519poe     o219667   1.413   0.805   0.594 -0.1416  0.0250 -0.0724
 4519poe    c3119668   1.439   0.838   0.728  0.2219  0.4046 -0.2353
 4520poe    c3119669   2.749   0.179   6.645  0.2421 -0.5286 -0.2829
 4520poe     o219670   2.679   0.095   6.556 -0.3729 -0.2508 -0.0741
 4520poe    c2319671   2.692  -0.035   6.610  0.9081 -0.1660 -0.1356
 4520poe    c2319672   2.640  -0.138   6.508  0.1259  0.1333 -0.0502
 4520poe     o219673   2.524  -0.085   6.449 -0.1248 -0.0330  0.2839
 4520poe    c2319674   2.465  -0.182   6.365 -0.3537 -0.0467  0.4610
 4520poe    c2319675   2.369  -0.119   6.263  0.3712  0.8522  0.3187
 4520poe     o219676   2.272  -0.026   6.307 -0.0964  0.1166  0.8625
 4520poe    c2319677   2.231   0.056   6.200  0.3482 -0.6250  0.1101
 4520poe    c2319678   2.154   0.185   6.229  0.6474 -0.3899 -0.1296
 4520poe     o219679   2.220   0.266   6.324 -0.4032  0.2585  0.0763
 4520poe    c3119680   2.149   0.381   6.364 -1.1212 -0.1181 -0.1106
 4521poe    c3119681   0.024   5.168   1.631 -0.2292 -0.2259 -0.4929
 4521poe     o219682   0.115   5.257   1.570  0.2398 -0.5245 -0.2301
 4521poe    c2319683   0.073   5.292   1.441  0.1831 -0.3469 -0.1638
 4521poe    c2319684   0.147   5.415   1.385 -0.1565 -0.0524  0.0258
 4521poe     o219685   0.115   5.539   1.445 -0.0418  0.0671 -0.1583
 4521poe    c2319686   0.151   5.558   1.580 -0.4201  0.1299 -0.0645
 4521poe    c2319687   0.064   5.658   1.659 -0.0311 -0.0882  0.6471
 4521poe     o219688   0.078   5.788   1.605  0.0902 -0.3807 -0.0470
 4521poe    c2319689  -0.039   5.841   1.547  0.0932 -0.1522  0.1493
 4521poe    c2319690  -0.032   5.994   1.528  0.0108 -0.1497  0.1429
 4521poe     o219691  -0.138   6.048   1.452  0.1559  0.1758  0.1721
 4521poe    c3119692  -0.155   6.186   1.476  0.9665  0.3561 -0.2593
 4522poe    c3119693   5.475   1.171   6.563  0.7416  1.0331  0.0054
 4522poe     o219694   5.504   1.035   6.580 -0.3506  0.7242 -0.5029
 4522poe    c2319695   5.639   1.000   6.603 -0.5708  0.1500 -0.0316
 4522poe    c2319696   5.652   0.847   6.600 -0.7040  0.1304  0.3373
 4522poe     o219697   5.589   0.801   6.482  0.0404 -0.2496  0.0799
 4522poe    c2319698   5.610   0.663   6.460  0.3095 -0.1138 -0.5173
 4522poe    c2319699   5.537   0.636   6.328  0.0673 -0.3093 -0.3424
 4522poe     o219700   5.410   0.692   6.354  0.1415 -0.1282 -0.3691
 4522poe    c2319701   5.307   0.615   6.296  0.2490 -0.4521 -0.1338
 4522poe    c2319702   5.171   0.663   6.349  0.3287 -0.5437  0.1578
 4522poe     o219703   5.144   0.799   6.321 -0.5789 -0.7953 -0.2155
 4522poe    c3119704   5.010   0.830   6.352 -0.4122 -0.1062 -0.1723
 4523poe    c3119705   3.148   5.077   2.143  0.4773 -0.3049 -0.0330
 4523poe     o219706   3.122   4.940   2.160 -0.1507 -0.1529  0.2554
 4523poe    c2319707   2.993   4.925   2.215 -0.5100 -0.0289 -0.5416
 4523poe    c2319708   2.977   4.777   2.253 -0.2912  0.2343  0.6081
 4523poe     o219709   2.960   4.691   2.143  0.3000  0.5480  0.2697
 4523poe    c2319710   2.998   4.560   2.179  0.7352  0.4428 -0.5335
 4523poe    c2319711   3.027   4.460   2.067  0.4191 -0.8973  0.5562
 4523poe     o219712   2.909   4.423   1.998  0.1928  0.5919  0.1018
 4523poe    c2319713   2.850   4.305   2.050  0.4131  0.4454  0.0224
 4523poe    c2319714   2.775   4.210   1.956  0.5445  0.3335  0.0304
 4523poe     o219715   2.647   4.259   1.923  0.2254 -0.4560  0.0929
 4523poe    c3119716   2.567   4.152   1.878 -0.2315  0.1660 -0.5804
 4524poe    c3119717   3.831   5.316   5.361 -0.3123 -0.4537 -0.0113
 4524poe     o219718   3.843   5.451   5.323 -0.3418 -0.4121  0.1260
 4524poe    c2319719   3.823   5.536   5.434  0.8436 -0.3299  0.2905
 4524poe    c2319720   3.823   5.682   5.387  0.1483 -0.6438 -0.6957
 4524poe     o219721   3.945   5.727   5.332  0.1704  0.1121 -0.0415
 4524poe    c2319722   3.936   5.864   5.300 -1.0053  0.1631  0.4354
 4524poe    c2319723   4.050   5.886   5.199 -0.8308 -0.7582  0.4183
 4524poe     o219724   4.046   5.806   5.083 -0.0472 -0.0334 -0.1185
 4524poe    c2319725   4.149   5.844   4.994 -0.2394 -0.3506 -0.4748
 4524poe    c2319726   4.136   5.779   4.855  0.8781 -0.3773 -0.5706
 4524poe     o219727   4.097   5.644   4.868 -0.4473 -0.0140 -0.7306
 4524poe    c3119728   4.092   5.588   4.738 -0.2013  0.2389 -0.8501
 4525poe    c3119729   5.439   0.166   7.169  0.2408  0.3381 -0.3235
 4525poe     o219730   5.367   0.098   7.269  0.1283  0.0284 -0.6165
 4525poe    c2319731   5.425  -0.030   7.285 -0.3670 -0.0942  0.2186
 4525poe    c2319732   5.358  -0.124   7.388  0.2002 -0.5360  0.1858
 4525poe     o219733   5.240  -0.189   7.349 -0.2526  0.2162  0.2915
 4525poe    c2319734   5.182  -0.263   7.454  0.1520 -0.4180  0.0723
 4525poe    c2319735   5.029  -0.273   7.438  0.2090 -0.4154 -0.4842
 4525poe     o219736   4.967  -0.146   7.441  0.1770 -0.4446  0.0721
 4525poe    c2319737   4.827  -0.163   7.435  0.0380  0.6999 -0.1506
 4525poe    c2319738   4.778  -0.024   7.479  0.8051  0.7866  0.4572
 4525poe     o219739   4.816   0.075   7.386  0.7196  0.1966 -0.2189
 4525poe    c3119740   4.785   0.205   7.432 -1.0788 -0.1831 -0.2884
 4526poe    c3119741   2.528   3.351   5.906  0.5201 -0.8086  0.4623
 4526poe     o219742   2.547   3.430   6.021 -0.6145  0.3130 -0.1078
 4526poe    c2319743   2.424   3.420   6.090 -0.6421  0.6211 -0.1097
 4526poe    c2319744   2.436   3.434   6.243 -0.4563  0.1510 -0.0797
 4526poe     o219745   2.515   3.547   6.271 -0.5187  0.1704  0.0190
 4526poe    c2319746   2.513   3.556   6.411  0.0462 -0.6686  0.0882
 4526poe    c2319747   2.616   3.658   6.463 -0.1318 -0.1799 -0.5197
 4526poe     o219748   2.736   3.622   6.397  0.4276  0.1583  0.2910
 4526poe    c2319749   2.840   3.688   6.466  0.4195 -0.0274  0.4831
 4526poe    c2319750   2.971   3.675   6.387  0.3520  0.0315  0.3593
 4526poe     o219751   2.941   3.712   6.255  0.2720 -0.3428  0.2707
 4526poe    c3119752   3.055   3.703   6.172  0.4541  0.2591  0.4451
 4527poe    c3119753   1.405   4.044   7.117 -0.2501  0.2800  0.3877
 4527poe     o219754   1.367   4.054   6.981 -0.2410  0.3286  0.3893
 4527poe    c2319755   1.371   4.187   6.935 -0.0184  0.2337  0.1295
 4527poe    c2319756   1.258   4.190   6.831  0.1256 -0.0062 -0.0324
 4527poe     o219757   1.191   4.067   6.816  0.5701 -0.2552  0.0092
 4527poe    c2319758   1.072   4.087   6.742  0.4683  0.0777  0.2643
 4527poe    c2319759   0.997   3.954   6.727 -0.1716  0.5192 -0.5301
 4527poe     o219760   1.097   3.855   6.724 -0.2317  0.4564 -0.4738
 4527poe    c2319761   1.044   3.739   6.664  0.2888  0.0237 -0.1124
 4527poe    c2319762   1.128   3.610   6.664 -0.1223 -0.2499  0.5027
 4527poe     o219763   1.142   3.560   6.795  0.0997 -0.0731  0.5463
 4527poe    c3119764   1.217   3.440   6.794 -0.3746 -0.3759  0.9757
 4528poe    c3119765   1.138   0.437   3.487 -0.1571 -0.0946  0.2450
 4528poe     o219766   1.003   0.402   3.465 -0.2320  0.1959  0.2344
 4528poe    c2319767   0.961   0.449   3.339 -0.0978  0.5948  0.3365
 4528poe    c2319768   0.845   0.550   3.343 -0.2445  0.4600 -0.4746
 4528poe     o219769   0.875   0.658   3.428  0.1132  0.1007 -0.1406
 4528poe    c2319770   0.756   0.726   3.462 -0.0447 -0.2983  0.1084
 4528poe    c2319771   0.784   0.833   3.570 -0.0352  0.0070 -0.1971
 4528poe     o219772   0.805   0.774   3.696  0.1074  0.7303  0.1169
 4528poe    c2319773   0.936   0.726   3.721 -0.2385 -0.2395  0.0930
 4528poe    c2319774   0.963   0.650   3.852 -0.0755  0.2028  0.3187
 4528poe     o219775   0.926   0.716   3.971  0.3151  0.0647  0.5164
 4528poe    c3119776   0.953   0.641   4.088 -0.5575 -0.2562  0.5123
 4529poe    c3119777   1.501   1.136   1.558 -0.4469  0.0864 -0.0710
 4529poe     o219778   1.398   1.225   1.594 -0.1600  0.5295 -0.3427
 4529poe    c2319779   1.441   1.313   1.696 -0.0929  0.0201  0.0684
 4529poe    c2319780   1.333   1.416   1.734  0.0732  0.1613  0.1528
 4529poe     o219781   1.238   1.377   1.830  0.3043 -0.4628  0.1304
 4529poe    c2319782   1.170   1.493   1.873  0.0538 -0.4242 -0.3560
 4529poe    c2319783   1.018   1.487   1.852  0.0078  0.0545 -0.1651
 4529poe     o219784   0.971   1.475   1.719  0.3586 -0.0082 -0.2850
 4529poe    c2319785   0.845   1.412   1.710  0.0595  0.5998 -0.4456
 4529poe    c2319786   0.783   1.363   1.578  0.2818  0.5270 -0.5234
 4529poe     o219787   0.861   1.270   1.507  0.3450  0.5177 -0.4422
 4529poe    c3119788   0.792   1.195   1.410 -0.4239  0.6797 -0.0241
 4530poe    c3119789   6.198   4.344   3.289 -0.0539  0.0824  0.5623
 4530poe     o219790   6.247   4.465   3.341 -0.1037  0.1493  0.4524
 4530poe    c2319791   6.234   4.567   3.244  0.2949  0.0225  0.2640
 4530poe    c2319792   6.219   4.709   3.303  0.5200  0.1547  0.0028
 4530poe     o219793   6.111   4.740   3.388  0.5896  0.4726 -0.0250
 4530poe    c2319794   5.991   4.765   3.319  0.5495  0.4260  0.0274
 4530poe    c2319795   5.896   4.852   3.402 -0.2366  0.2681 -0.6990
 4530poe     o219796   5.828   4.775   3.499  0.3086  0.2416 -0.3376
 4530poe    c2319797   5.778   4.857   3.602 -0.6713 -0.1417 -0.5000
 4530poe    c2319798   5.747   4.761   3.717 -0.1506 -0.2127 -0.4161
 4530poe     o219799   5.859   4.686   3.758 -0.0664  0.0107 -0.2406
 4530poe    c3119800   5.823   4.635   3.884 -0.2096 -0.0116 -0.2915
 4531poe    c3119801   6.304   6.977   0.166 -0.9236  0.6396 -0.9824
 4531poe     o219802   6.348   7.089   0.093  0.3881  0.3193 -0.7082
 4531poe    c2319803   6.237   7.155   0.037  0.1831  0.2546 -0.3784
 4531poe    c2319804   6.265   7.292  -0.028 -0.1822  0.5485  0.0782
 4531poe     o219805   6.328   7.386   0.056  0.9321 -0.4965  0.4392
 4531poe    c2319806   6.403   7.478  -0.020  0.0365  0.1697  0.3504
 4531poe    c2319807   6.470   7.595   0.053  0.0910  0.4056 -0.0738
 4531poe     o219808   6.517   7.546   0.177  0.1379  0.4406 -0.0781
 4531poe    c2319809   6.597   7.650   0.229 -0.1084  0.2346  0.7210
 4531poe    c2319810   6.574   7.666   0.380  0.1388  0.2838  0.7542
 4531poe     o219811   6.555   7.539   0.440 -0.0511 -0.1880 -0.2891
 4531poe    c3119812   6.565   7.560   0.579 -0.1719  0.2601 -0.3460
 4532poe    c3119813   4.656   4.211   1.736  0.6377  0.1985 -0.5438
 4532poe     o219814   4.555   4.191   1.640  0.3525 -0.1378 -0.1817
 4532poe    c2319815   4.591   4.253   1.518  0.2372  0.5212  0.1141
 4532poe    c2319816   4.467   4.243   1.427  0.1996  0.4301  0.1748
 4532poe     o219817   4.418   4.111   1.423  0.0093  0.5138 -0.2829
 4532poe    c2319818   4.325   4.097   1.318  0.0401 -0.7037 -0.1646
 4532poe    c2319819   4.181   4.067   1.364 -0.0710  0.0896  0.0264
 4532poe     o219820   4.183   3.952   1.445 -0.6070  0.1803  0.1707
 4532poe    c2319821   4.067   3.944   1.525 -0.1887  0.9101  0.8697
 4532poe    c2319822   4.049   3.802   1.581  0.1976  0.3394 -0.4185
 4532poe     o219823   4.130   3.798   1.697  0.5628 -0.4773 -0.6926
 4532poe    c3119824   4.101   3.679   1.767  0.3092  0.1886  0.3487
 4533poe    c3119825   3.383   4.792   3.057  0.1661  0.5924  0.0062
 4533poe     o219826   3.498   4.711   3.063 -0.3807 -0.1768  0.2203
 4533poe    c2319827   3.585   4.748   3.167  0.0413  0.4678 -0.3602
 4533poe    c2319828   3.706   4.653   3.171 -0.1255  0.2591 -0.3189
 4533poe     o219829   3.811   4.665   3.078  0.0619  0.0667 -0.1332
 4533poe    c2319830   3.919   4.599   3.139 -0.1907 -0.1994  0.0301
 4533poe    c2319831   4.038   4.609   3.042 -0.2000  0.5557  0.0919
 4533poe     o219832   4.008   4.525   2.934  0.3264  0.7675 -0.2227
 4533poe    c2319833   4.119   4.538   2.848  0.4389  0.5044 -0.1175
 4533poe    c2319834   4.090   4.451   2.724 -0.0670 -0.3830  0.6084
 4533poe     o219835   4.193   4.435   2.629 -0.3875 -0.5592  0.2889
 4533poe    c3119836   4.314   4.371   2.664 -0.1016 -0.0334  0.2665
 4534poe    c3119837   4.454   0.073   3.728 -0.1546 -0.0856  0.0336
 4534poe     o219838   4.562   0.114   3.647  0.1459 -0.0951  0.4284
 4534poe    c2319839   4.529   0.242   3.598  0.4809 -0.1048  0.1740
 4534poe    c2319840   4.663   0.304   3.554  0.4761 -0.0182  0.2826
 4534poe     o219841   4.735   0.214   3.472  0.0928 -0.1803  0.1235
 4534poe    c2319842   4.874   0.222   3.488  0.0908  0.3979 -0.1233
 4534poe    c2319843   4.946   0.123   3.396  0.0460  0.1209  0.1381
 4534poe     o219844   4.932  -0.015   3.425  0.3983  0.0748  0.0993
 4534poe    c2319845   5.014  -0.093   3.341  0.1924  0.0830 -0.1103
 4534poe    c2319846   4.982  -0.243   3.333 -0.0551  0.1625 -0.6047
 4534poe     o219847   5.013  -0.337   3.433 -0.7196  0.0852 -0.4650
 4534poe    c3119848   4.980  -0.461   3.374 -0.4023 -0.2816  0.1186
 4535poe    c3119849   2.723   2.475   1.791 -0.7297 -0.0508 -0.3969
 4535poe     o219850   2.756   2.476   1.928  0.3050  0.0164 -0.6397
 4535poe    c2319851   2.847   2.371   1.953  0.3249  0.1470 -0.1472
 4535poe    c2319852   2.865   2.387   2.105  0.3449  0.2574 -0.1609
 4535poe     o219853   2.762   2.458   2.169  0.0489 -0.4012  0.1006
 4535poe    c2319854   2.774   2.488   2.306  0.3072  0.2642 -0.0633
 4535poe    c2319855   2.642   2.544   2.362  0.4450  0.5508 -0.0257
 4535poe     o219856   2.596   2.628   2.259 -0.3494 -0.0312 -0.1507
 4535poe    c2319857   2.509   2.722   2.316 -0.6937 -0.5056  0.1108
 4535poe    c2319858   2.461   2.824   2.211  0.5356 -0.1013 -0.0684
 4535poe     o219859   2.384   2.761   2.112  0.4637 -0.0791 -0.0270
 4535poe    c3119860   2.320   2.853   2.027  0.3134 -0.5011 -0.3755
 4536poe    c3119861   4.896   5.706   7.380  0.3627  0.1706 -0.2251
 4536poe     o219862   4.867   5.751   7.510 -0.0704 -0.6376 -0.0377
 4536poe    c2319863   4.963   5.845   7.552 -0.7094 -0.2012  0.4779
 4536poe    c2319864   4.922   5.914   7.683 -0.5173 -0.0933  0.4821
 4536poe     o219865   4.805   5.985   7.651 -0.2248  0.0065 -0.3774
 4536poe    c2319866   4.718   5.998   7.761 -0.3100 -0.1014 -0.4313
 4536poe    c2319867   4.608   6.090   7.706 -0.2627  0.1788 -0.0632
 4536poe     o219868   4.546   6.016   7.603 -0.2864  0.2588 -0.1059
 4536poe    c2319869   4.435   6.080   7.544 -0.1275  0.7235  0.0893
 4536poe    c2319870   4.359   6.014   7.427  0.4505  0.7646 -0.3122
 4536poe     o219871   4.453   6.004   7.322  0.2441  0.1941 -0.4444
 4536poe    c3119872   4.417   5.927   7.210 -0.4255  0.3231 -0.3206
 4537poe    c3119873   1.434   1.280   0.436  0.5940 -0.0717 -0.6682
 4537poe     o219874   1.490   1.401   0.391  0.1199  0.4994  0.2583
 4537poe    c2319875   1.392   1.493   0.347 -0.1222  0.3463  0.4758
 4537poe    c2319876   1.450   1.570   0.228  0.2976 -0.2554  0.2853
 4537poe     o219877   1.554   1.649   0.283 -0.0037 -0.0429  0.5499
 4537poe    c2319878   1.654   1.688   0.191 -0.2097  0.3496  0.4878
 4537poe    c2319879   1.757   1.777   0.264  0.0912  0.3066  0.1159
 4537poe     o219880   1.804   1.711   0.379  0.1586 -0.2288 -0.2125
 4537poe    c2319881   1.898   1.785   0.455 -0.0439 -0.5443  0.3430
 4537poe    c2319882   1.936   1.710   0.585  0.6433 -0.2180  0.3340
 4537poe     o219883   1.826   1.710   0.673  0.3187 -0.1780 -0.0628
 4537poe    c3119884   1.862   1.657   0.799 -0.0207 -0.1265  0.0573
 4538poe    c3119885   0.797   7.348   5.628 -0.2457 -0.2459  0.0439
 4538poe     o219886   0.718   7.251   5.693 -0.1515 -0.1476  0.3083
 4538poe    c2319887   0.790   7.130   5.700  0.3045  0.0522 -0.7134
 4538poe    c2319888   0.690   7.013   5.712  0.0774  0.3108 -0.0586
 4538poe     o219889   0.612   6.986   5.599 -0.3320  0.4436  0.1898
 4538poe    c2319890   0.532   6.871   5.613  0.6950 -0.3812 -0.4908
 4538poe    c2319891   0.402   6.877   5.531  0.4947  0.1221 -0.1461
 4538poe     o219892   0.325   6.991   5.563  0.1596 -0.0706 -0.2550
 4538poe    c2319893   0.189   6.968   5.534 -0.0681  0.5102  0.3220
 4538poe    c2319894   0.096   7.090   5.543 -0.3905  0.3101 -0.2292
 4538poe     o219895   0.145   7.207   5.482  0.4350  0.0346 -0.1016
 4538poe    c3119896   0.085   7.321   5.540 -0.4892 -0.7217  0.4661
 4539poe    c3119897   5.650   5.988   0.697  0.2563  0.2335 -0.1484
 4539poe     o219898   5.716   5.963   0.819  0.0050 -0.0054 -0.0621
 4539poe    c2319899   5.647   5.991   0.939  0.0318  0.8671 -0.2469
 4539poe    c2319900   5.751   6.014   1.050  0.4425 -0.1469 -0.4084
 4539poe     o219901   5.818   5.906   1.111  0.4771  0.1957  0.1651
 4539poe    c2319902   5.728   5.840   1.196  0.1554  0.3390 -0.0643
 4539poe    c2319903   5.811   5.743   1.281 -0.0592 -0.0991 -0.3495
 4539poe     o219904   5.885   5.650   1.205  0.7744 -0.0226  0.3454
 4539poe    c2319905   5.808   5.538   1.166  0.8185 -0.2272  0.8406
 4539poe    c2319906   5.889   5.413   1.127  0.3347 -0.5026  0.7198
 4539poe     o219907   5.999   5.396   1.213  0.0536  0.0351  1.1938
 4539poe    c3119908   6.059   5.271   1.187  0.0140  0.2469  0.0108
 4540poe    c3119909   5.200   5.482   4.380 -0.1457 -0.1370  0.2713
 4540poe     o219910   5.338   5.507   4.362 -0.1651 -0.4062 -0.2928
 4540poe    c2319911   5.391   5.487   4.492 -0.0717 -0.5237 -0.3489
 4540poe    c2319912   5.538   5.443   4.503  0.1031  0.2098  0.3221
 4540poe     o219913   5.639   5.533   4.460 -0.1559  0.5247  0.3706
 4540poe    c2319914   5.726   5.468   4.370  0.1762  0.8454  0.4586
 4540poe    c2319915   5.781   5.548   4.251 -0.7184  0.3575 -0.2992
 4540poe     o219916   5.853   5.664   4.287 -0.4332  0.2780 -0.6035
 4540poe    c2319917   5.769   5.777   4.299 -0.4719  0.2216 -0.3450
 4540poe    c2319918   5.843   5.910   4.321  0.8204 -0.5021 -0.1914
 4540poe     o219919   5.884   5.933   4.454  0.3366 -0.1966 -0.0901
 4540poe    c3119920   5.982   6.034   4.459  0.0860  0.0549 -0.2265
 4541poe    c3119921   3.714   5.258   2.611 -0.0417 -0.0878  0.0984
 4541poe     o219922   3.655   5.243   2.484  0.1478 -0.5347  0.0600
 4541poe    c2319923   3.517   5.230   2.512  0.1005  0.5412  0.3650
 4541poe    c2319924   3.431   5.282   2.395  0.2593 -0.6552 -0.2911
 4541poe     o219925   3.480   5.403   2.341 -0.4665 -0.3134 -0.1836
 4541poe    c2319926   3.386   5.447   2.245  0.0663  0.1275 -0.5019
 4541poe    c2319927   3.286   5.557   2.284 -0.2670 -0.4380  0.2520
 4541poe     o219928   3.353   5.680   2.297 -0.4014 -0.3193 -0.1508
 4541poe    c2319929   3.261   5.786   2.307 -0.0350  0.0060 -0.2018
 4541poe    c2319930   3.318   5.929   2.320  0.2189 -0.1266  0.1597
 4541poe     o219931   3.406   5.967   2.217 -0.0364  0.0281 -0.0030
 4541poe    c3119932   3.441   6.100   2.250  0.1343 -0.0238  0.0230
 4542poe    c3119933   2.235   2.822   3.415  0.2524 -0.0680 -0.1869
 4542poe     o219934   2.167   2.781   3.298 -0.2779  0.0257  0.0851
 4542poe    c2319935   2.095   2.899   3.270  0.2571  0.4529  0.4783
 4542poe    c2319936   2.029   2.872   3.134  0.3593  0.0126  0.5158
 4542poe     o219937   1.973   2.743   3.148  0.2813 -0.0270 -0.1122
 4542poe    c2319938   1.911   2.698   3.030 -0.0076  0.1168 -0.0156
 4542poe    c2319939   1.853   2.564   3.079  0.4558 -0.2117 -0.3513
 4542poe     o219940   1.959   2.492   3.136  0.4075  0.1953  0.2604
 4542poe    c2319941   1.937   2.354   3.116  0.1864  0.3065 -0.2750
 4542poe    c2319942   2.068   2.287   3.072  0.0070 -0.3061  0.1063
 4542poe     o219943   2.160   2.271   3.178 -0.0485 -0.2709  0.1601
 4542poe    c3119944   2.240   2.160   3.143  0.3531  0.1335 -0.2135
 4543poe    c3119945   4.829   1.938   5.045  0.3633  0.1994  0.3685
 4543poe     o219946   4.865   2.041   4.956  0.4624 -0.0900  0.0713
 4543poe    c2319947   4.963   1.997   4.865  0.5116 -0.7076  0.4137
 4543poe    c2319948   4.906   1.985   4.722  0.6701  0.5863  0.2318
 4543poe     o219949   4.989   1.911   4.635  0.3208 -0.1897  0.5510
 4543poe    c2319950   4.906   1.852   4.537  0.1319 -0.1796  0.7044
 4543poe    c2319951   4.990   1.786   4.426 -0.4937  0.5503 -0.2116
 4543poe     o219952   5.008   1.859   4.307  0.0171  0.1497 -0.3838
 4543poe    c2319953   5.107   1.803   4.224  0.5959  0.1238  0.3160
 4543poe    c2319954   5.136   1.880   4.094  0.3685  0.2294  0.3270
 4543poe     o219955   5.034   1.880   3.997  0.3366 -0.0293  0.3614
 4543poe    c3119956   5.091   1.942   3.884  0.2880 -0.0397  0.3314
 4544poe    c3119957   2.692   5.140   1.982  0.4848 -0.1406  0.7892
 4544poe     o219958   2.611   5.245   2.031  0.5962  0.5078 -0.3691
 4544poe    c2319959   2.589   5.348   1.937  0.0563  0.5200 -0.2331
 4544poe    c2319960   2.553   5.468   2.027 -0.2821  0.0331  0.2896
 4544poe     o219961   2.468   5.439   2.135 -0.3486 -0.1123  0.1999
 4544poe    c2319962   2.330   5.449   2.105 -0.2992  0.7369  0.2268
 4544poe    c2319963   2.232   5.403   2.214 -0.0109  0.1265  0.2306
 4544poe     o219964   2.216   5.477   2.333 -0.3206  0.4286  0.0030
 4544poe    c2319965   2.122   5.432   2.428 -0.2688  0.3573  0.0208
 4544poe    c2319966   2.154   5.505   2.559  0.1390  0.7660 -0.3056
 4544poe     o219967   2.276   5.470   2.621 -0.3501 -0.5444 -0.0479
 4544poe    c3119968   2.302   5.527   2.747  0.1707  0.1520 -0.4595
 4545poe    c3119969   0.317   3.140   3.138 -0.1298 -0.1367  0.1062
 4545poe     o219970   0.284   3.112   3.004  0.0009 -0.3929  0.1274
 4545poe    c2319971   0.346   3.206   2.920 -0.0782 -0.4172  0.0414
 4545poe    c2319972   0.356   3.157   2.774 -0.3144 -0.5359  0.0637
 4545poe     o219973   0.249   3.111   2.696 -0.5709 -0.6303  0.4695
 4545poe    c2319974   0.164   3.222   2.678  0.0618 -0.2916 -0.4946
 4545poe    c2319975   0.038   3.169   2.606 -0.2950 -0.1242  0.0042
 4545poe     o219976   0.001   3.050   2.672 -0.1344  0.2967  0.8656
 4545poe    c2319977  -0.120   2.992   2.627 -0.0107  0.5940  0.1463
 4545poe    c2319978  -0.086   2.923   2.493 -0.5385 -0.0979  0.3684
 4545poe     o219979   0.022   2.832   2.494 -0.3969  0.0697  0.3444
 4545poe    c3119980  -0.006   2.701   2.538  0.1155 -0.3876 -0.6552
 4546poe    c3119981   0.717   0.812   6.547  0.3522  0.7228  0.7030
 4546poe     o219982   0.820   0.716   6.559 -0.2675 -0.0669 -0.1301
 4546poe    c2319983   0.832   0.636   6.443 -0.1246 -0.0348 -0.1391
 4546poe    c2319984   0.973   0.596   6.397  0.1054 -0.1107  0.6091
 4546poe     o219985   1.029   0.485   6.463 -0.1441 -0.6052  0.0020
 4546poe    c2319986   0.977   0.361   6.420 -0.4447 -0.3306 -0.4321
 4546poe    c2319987   1.074   0.245   6.449 -0.2303 -0.2045 -0.6391
 4546poe     o219988   1.095   0.213   6.585 -0.2694 -0.3429 -0.6654
 4546poe    c2319989   1.125   0.076   6.601  0.4707 -0.1449 -0.2687
 4546poe    c2319990   1.127   0.020   6.744  0.0367  0.0768 -0.1735
 4546poe     o219991   1.225   0.064   6.835  0.0094  0.0261 -0.1205
 4546poe    c3119992   1.222  -0.010   6.956  0.2758 -0.1438 -0.2164
 4547poe    c3119993   4.362   2.430   2.859  0.4464 -0.8814  0.0625
 4547poe     o219994   4.459   2.501   2.934 -0.3827 -0.1563  0.4813
 4547poe    c2319995   4.439   2.640   2.937  0.0181 -0.0898  0.2300
 4547poe    c2319996   4.568   2.694   3.000  0.3545  0.1764 -0.6688
 4547poe     o219997   4.682   2.648   2.930  0.2210 -0.4281 -0.4987
 4547poe    c2319998   4.785   2.740   2.959 -0.0152 -0.3314  0.0535
 4547poe    c2319999   4.900   2.739   2.856  0.2232 -0.3298  0.3167
 4547poe     o220000   4.955   2.610   2.871  0.0705 -0.4342 -0.0060
 4547poe    c2320001   5.057   2.573   2.780 -0.1116 -0.1029 -0.3486
 4547poe    c2320002   5.048   2.423   2.747 -0.4324 -0.2570  0.4110
 4547poe     o220003   5.020   2.354   2.867  0.2499 -0.3583  0.5114
 4547poe    c3120004   5.031   2.214   2.861 -0.2787 -0.3812  0.0407
 4548poe    c3120005   5.698   6.368   2.429  0.3325  0.3334 -0.0568
 4548poe     o220006   5.758   6.476   2.496  0.2579  0.1603  0.2960
 4548poe    c2320007   5.896   6.447   2.487  0.1271 -0.3959  0.0576
 4548poe    c2320008   5.972   6.532   2.590 -0.2144 -0.6714  0.5408
 4548poe     o220009   5.926   6.516   2.722 -0.1829  0.3125  0.6800
 4548poe    c2320010   5.971   6.608   2.819  0.7192 -0.1906  0.7499
 4548poe    c2320011   5.883   6.596   2.945 -0.2637  0.0275  0.0958
 4548poe     o220012   5.747   6.627   2.928 -0.1096  0.5734 -0.1554
 4548poe    c2320013   5.678   6.585   3.043 -0.2864  0.4320 -0.3105
 4548poe    c2320014   5.532   6.632   3.033 -0.2672  0.6849  0.5167
 4548poe     o220015   5.538   6.770   3.008  0.1121  0.6229  0.2510
 4548poe    c3120016   5.420   6.822   2.950  0.1267 -0.2823 -0.6167
 4549poe    c3120017   3.853   2.102   2.019 -0.2182  0.0771 -0.4847
 4549poe     o220018   3.978   2.124   2.079 -0.5715 -0.0030  0.2923
 4549poe    c2320019   3.965   2.165   2.213 -0.4182  0.4839  0.1592
 4549poe    c2320020   4.105   2.223   2.243  0.0953 -0.5989 -0.0842
 4549poe     o220021   4.194   2.120   2.208  0.0878 -0.7837  0.4306
 4549poe    c2320022   4.322   2.157   2.254 -0.1082 -0.1416  0.4688
 4549poe    c2320023   4.411   2.032   2.272  0.0408 -0.0663  0.2528
 4549poe     o220024   4.428   1.970   2.146 -0.7275 -0.4222  0.3215
 4549poe    c2320025   4.464   1.839   2.181  0.0060 -0.0803  0.8797
 4549poe    c2320026   4.509   1.761   2.056 -0.5787  0.3372  0.4029
 4549poe     o220027   4.413   1.761   1.953  0.1230 -0.3007 -0.2631
 4549poe    c3120028   4.452   1.667   1.856  0.5951  0.1154 -0.4815
 4550poe    c3120029   3.905   0.426   2.581  0.0173 -0.5259 -0.2828
 4550poe     o220030   3.855   0.425   2.713  0.2950  0.3932 -0.1646
 4550poe    c2320031   3.964   0.462   2.795  0.2248  0.0133  0.1031
 4550poe    c2320032   3.913   0.461   2.940 -0.1831 -0.0699 -0.0417
 4550poe     o220033   3.842   0.575   2.982 -0.1005 -0.1199  0.2363
 4550poe    c2320034   3.763   0.538   3.093 -0.4635 -0.1582 -0.0313
 4550poe    c2320035   3.641   0.632   3.096 -0.5602 -0.2806 -0.1446
 4550poe     o220036   3.565   0.599   2.982 -0.5509  0.2054 -0.2942
 4550poe    c2320037   3.427   0.618   3.004 -0.4959  0.3955 -0.1070
 4550poe    c2320038   3.364   0.528   2.895  0.7838 -0.2390 -0.3362
 4550poe     o220039   3.367   0.389   2.921 -0.0019 -0.0777  0.6728
 4550poe    c3120040   3.274   0.331   2.833 -0.0348  0.1512  0.5572
 4551poe    c3120041   5.931   1.138   0.063  0.2810 -0.4855  0.5636
 4551poe     o220042   5.971   1.273   0.075 -0.3673 -0.1888 -0.4542
 4551poe    c2320043   6.077   1.316  -0.007 -0.1114 -0.3361 -0.2031
 4551poe    c2320044   6.137   1.450   0.041 -0.3012 -0.5929  0.7735
 4551poe     o220045   6.063   1.570   0.041 -0.1360 -0.4880  0.5301
 4551poe    c2320046   6.133   1.678   0.098 -0.7323  0.0755  0.2095
 4551poe    c2320047   6.045   1.803   0.081 -0.4630  0.2968  0.4339
 4551poe     o220048   5.913   1.789   0.129 -0.4921 -0.3092  0.1928
 4551poe    c2320049   5.842   1.908   0.103  0.2491  0.1423  0.2006
 4551poe    c2320050   5.734   1.937   0.208 -0.0306  0.1716 -0.0912
 4551poe     o220051   5.642   1.831   0.223 -0.0543  0.1386 -0.4657
 4551poe    c3120052   5.533   1.839   0.134 -0.4382 -0.4004 -0.0552
 4552poe    c3120053   6.739   4.589   6.302 -0.3427 -0.4774  0.4393
 4552poe     o220054   6.644   4.535   6.213  0.2524 -0.2637 -0.3426
 4552poe    c2320055   6.666   4.587   6.084  0.3506  0.2876 -0.1049
 4552poe    c2320056   6.559   4.506   6.009  0.4482  0.0962 -0.0358
 4552poe     o220057   6.561   4.367   6.032 -0.2317  0.0984  0.0306
 4552poe    c2320058   6.432   4.318   6.002 -0.2772  0.3337 -0.1600
 4552poe    c2320059   6.448   4.167   5.973 -0.5845  0.3360 -0.3417
 4552poe     o220060   6.481   4.089   6.085  0.1669  0.6388 -0.3476
 4552poe    c2320061   6.483   3.950   6.063 -0.4006  0.5417  0.1897
 4552poe    c2320062   6.474   3.869   6.194  0.1447  0.4057  0.1452
 4552poe     o220063   6.347   3.873   6.255 -0.0375  0.0130 -0.2037
 4552poe    c3120064   6.244   3.795   6.199  0.2994 -0.3930 -0.2595
 4553poe    c3120065   1.524   5.070   4.002 -0.1936 -0.1705  0.2055
 4553poe     o220066   1.556   5.106   4.135 -0.6798  0.5489  0.1362
 4553poe    c2320067   1.479   5.033   4.227  0.1204 -0.0800  0.3123
 4553poe    c2320068   1.450   5.103   4.361 -0.2878 -0.6852  0.5480
 4553poe     o220069   1.565   5.132   4.436 -0.0246 -0.1708 -0.0445
 4553poe    c2320070   1.542   5.197   4.559 -0.1907 -0.4344  0.0634
 4553poe    c2320071   1.619   5.130   4.674  0.7505 -0.0969 -0.3646
 4553poe     o220072   1.758   5.151   4.662  0.6816  0.4524 -0.2002
 4553poe    c2320073   1.821   5.083   4.768 -0.1967  0.2619  0.2087
 4553poe    c2320074   1.973   5.106   4.764 -0.2552  0.5948 -0.1285
 4553poe     o220075   2.029   5.058   4.644 -0.0385  0.5210  0.0001
 4553poe    c3120076   2.168   5.077   4.633 -0.0079  0.1082 -0.3885
 4554poe    c3120077   1.076   3.340   2.894 -0.4228 -0.4511  0.4501
 4554poe     o220078   1.200   3.354   2.960 -0.2920 -0.4458  0.2050
 4554poe    c2320079   1.307   3.297   2.887  0.1612  0.6512  0.0028
 4554poe    c2320080   1.435   3.311   2.972  0.0802  0.3456  0.1759
 4554poe     o220081   1.434   3.442   3.024  0.3379  0.4026  0.0404
 4554poe    c2320082   1.549   3.469   3.102  0.2844  0.1063  0.2233
 4554poe    c2320083   1.520   3.611   3.153  0.0879  0.1834 -0.0960
 4554poe     o220084   1.382   3.636   3.166  0.0594  0.3072 -0.6440
 4554poe    c2320085   1.354   3.753   3.240 -0.0501  0.4512 -0.9099
 4554poe    c2320086   1.211   3.807   3.220 -0.3832  0.1338  0.4937
 4554poe     o220087   1.118   3.711   3.265 -0.4668  0.2049  0.4725
 4554poe    c3120088   0.986   3.753   3.240 -0.4581  0.1287  0.2924
 4555poe    c3120089   7.122   7.469   4.797  0.2243  0.4646 -0.7270
 4555poe     o220090   7.078   7.592   4.743 -0.0442  0.8412  0.3137
 4555poe    c2320091   7.096   7.606   4.604  0.2847  0.0770  0.2708
 4555poe    c2320092   7.051   7.748   4.562  0.2351  0.0161  0.1180
 4555poe     o220093   6.913   7.769   4.584  0.1427 -0.0148 -0.4073
 4555poe    c2320094   6.875   7.894   4.530 -0.4026 -0.1671 -0.3781
 4555poe    c2320095   6.737   7.939   4.583 -0.1344  0.2079  0.0082
 4555poe     o220096   6.730   7.942   4.724 -0.1806  0.1928  0.0060
 4555poe    c2320097   6.634   8.033   4.772 -0.2859 -0.0222  0.2034
 4555poe    c2320098   6.595   8.021   4.921 -0.3709  0.6341  0.2388
 4555poe     o220099   6.685   8.079   5.013 -0.2881  0.1025  0.4969
 4555poe    c3120100   6.613   8.091   5.133 -0.2346 -0.5900  0.6041
 4556poe    c3120101   1.820   2.561   4.171 -0.1403  0.3387 -0.1680
 4556poe     o220102   1.789   2.464   4.073  0.4282  0.2183 -0.2318
 4556poe    c2320103   1.667   2.491   4.009 -0.1634 -0.7942  0.4352
 4556poe    c2320104   1.622   2.373   3.920 -0.1538 -0.4356 -0.0492
 4556poe     o220105   1.707   2.355   3.809  0.2969  0.0503  0.2084
 4556poe    c2320106   1.659   2.245   3.734  0.0927 -0.0670  0.5109
 4556poe    c2320107   1.742   2.226   3.606 -0.3312  0.3191  0.1772
 4556poe     o220108   1.876   2.260   3.634 -0.2605  0.3439 -0.1870
 4556poe    c2320109   1.944   2.272   3.511  0.3501  0.0424  0.1196
 4556poe    c2320110   2.093   2.298   3.542  0.3031 -0.1080  0.4792
 4556poe     o220111   2.096   2.390   3.649 -0.1763  0.8184 -0.2776
 4556poe    c3120112   2.229   2.422   3.685 -0.1439  0.2646  0.1141
 4557poe    c3120113   5.221   2.159   1.077 -0.3499 -0.2909 -0.0599
 4557poe     o220114   5.096   2.168   1.012 -0.2115  0.7973 -0.1849
 4557poe    c2320115   5.110   2.145   0.873 -0.2192  0.4603 -0.1297
 4557poe    c2320116   4.988   2.062   0.828  0.0903  0.1590 -0.4067
 4557poe     o220117   4.865   2.111   0.875  0.4651  0.4065  0.3367
 4557poe    c2320118   4.754   2.033   0.836  0.3218  0.6457  0.2588
 4557poe    c2320119   4.636   2.114   0.891 -0.2650 -0.2648  0.3685
 4557poe     o220120   4.666   2.147   1.024 -0.0079 -0.1749  0.2895
 4557poe    c2320121   4.558   2.206   1.093 -0.0177  0.0949  0.0448
 4557poe    c2320122   4.599   2.250   1.235 -0.1658  0.0449  0.1038
 4557poe     o220123   4.699   2.350   1.234 -0.2262  0.1100  0.3700
 4557poe    c3120124   4.731   2.407   1.358  0.6930  0.2692  0.0667
 4558poe    c3120125   2.030   4.669   5.183 -0.0977 -0.0079 -0.0196
 4558poe     o220126   2.039   4.793   5.249  0.4614  0.2587 -0.5807
 4558poe    c2320127   1.940   4.869   5.184 -0.0998 -0.1374 -0.1951
 4558poe    c2320128   1.889   4.990   5.265  0.8399 -0.0213  0.2303
 4558poe     o220129   1.984   5.094   5.256  0.6881  0.0978 -0.0119
 4558poe    c2320130   1.941   5.208   5.328  0.5095 -0.1394  0.2618
 4558poe    c2320131   2.038   5.327   5.343 -0.1381  0.4012  0.1764
 4558poe     o220132   2.152   5.291   5.416 -0.1685 -0.1778 -0.0562
 4558poe    c2320133   2.235   5.404   5.434 -0.0823 -0.3029  0.3347
 4558poe    c2320134   2.362   5.370   5.515 -0.4511 -0.4440  0.8628
 4558poe     o220135   2.437   5.276   5.442 -0.4235  0.2301  0.0069
 4558poe    c3120136   2.575   5.283   5.472 -0.4816 -0.5997  0.4935
 4559poe    c3120137   3.460   1.623   3.256  0.3255  0.0752 -0.6570
 4559poe     o220138   3.347   1.668   3.185 -0.3650 -0.7748 -0.1231
 4559poe    c2320139   3.335   1.588   3.069  0.0904 -0.2213 -0.5595
 4559poe    c2320140   3.220   1.635   2.979 -0.3460  0.1781  0.1987
 4559poe     o220141   3.223   1.759   2.914  0.1214  0.1706  0.2091
 4559poe    c2320142   3.227   1.751   2.773 -0.3738 -0.3486  0.2241
 4559poe    c2320143   3.222   1.891   2.708  0.1007 -0.3862  0.1079
 4559poe     o220144   3.329   1.969   2.756 -0.1621  0.0748 -0.0554
 4559poe    c2320145   3.339   2.101   2.706  0.0779 -0.0747 -0.4015
 4559poe    c2320146   3.230   2.205   2.737  0.3413  0.1149 -0.1007
 4559poe     o220147   3.209   2.215   2.876  0.1737 -0.3898 -0.0861
 4559poe    c3120148   3.103   2.302   2.911  0.1108 -0.4155 -0.2112
 4560poe    c3120149   0.906   7.121   4.897 -0.0878  0.1840 -0.1537
 4560poe     o220150   0.951   7.051   4.783  0.5827 -0.2803  0.3928
 4560poe    c2320151   0.982   7.141   4.680 -0.1627 -0.7387 -0.2455
 4560poe    c2320152   1.122   7.124   4.617  0.2040 -0.5198  0.5068
 4560poe     o220153   1.145   6.996   4.563 -0.5485 -0.4473  0.0035
 4560poe    c2320154   1.265   7.000   4.489 -0.4721 -0.3299  0.1328
 4560poe    c2320155   1.245   6.896   4.377 -0.7075  0.0464 -0.1791
 4560poe     o220156   1.140   6.932   4.290 -0.3935  0.3762 -0.4256
 4560poe    c2320157   1.144   6.850   4.176 -0.5358  0.2635 -0.3491
 4560poe    c2320158   1.015   6.871   4.095 -0.6564  0.5800 -0.0765
 4560poe     o220159   1.003   6.999   4.037 -0.1493  0.7528  0.1968
 4560poe    c3120160   0.871   7.002   3.988  0.0113  0.4911 -0.2570
 4561poe    c3120161   7.425   2.288   0.348 -0.1224 -0.4076 -0.2393
 4561poe     o220162   7.509   2.376   0.277 -0.1471 -0.0040  0.2300
 4561poe    c2320163   7.533   2.495   0.350 -0.0906  0.2185 -0.1507
 4561poe    c2320164   7.650   2.573   0.287  0.4375 -0.3228  0.1489
 4561poe     o220165   7.616   2.555   0.151  0.3762  0.0244  0.1171
 4561poe    c2320166   7.654   2.669   0.078 -0.0896  0.3226  0.3347
 4561poe    c2320167   7.615   2.642  -0.069  0.1181  0.2738  0.2884
 4561poe     o220168   7.480   2.640  -0.109  0.2699  0.1426 -0.2273
 4561poe    c2320169   7.453   2.589  -0.238  0.1662  0.0941 -0.1869
 4561poe    c2320170   7.300   2.586  -0.254  0.1342  0.0482  0.1231
 4561poe     o220171   7.243   2.482  -0.178  0.2581 -0.2364 -0.1698
 4561poe    c3120172   7.156   2.399  -0.253  0.2702 -0.3055 -0.1081
 4562poe    c3120173   1.118   7.324   3.079  0.8157  0.1063  0.2502
 4562poe     o220174   1.229   7.314   3.166  0.8825  0.1851  0.1733
 4562poe    c2320175   1.253   7.428   3.245 -0.3800  0.0766  0.7290
 4562poe    c2320176   1.385   7.402   3.321  0.3703 -0.5505 -0.7489
 4562poe     o220177   1.365   7.286   3.398 -0.3058 -0.2378 -0.4409
 4562poe    c2320178   1.478   7.265   3.480 -0.4570 -0.5345 -0.3045
 4562poe    c2320179   1.453   7.125   3.539  0.3723 -0.5527  0.0204
 4562poe     o220180   1.413   7.039   3.435 -0.3916  0.0676 -0.2137
 4562poe    c2320181   1.420   6.904   3.475  0.7211  0.0943 -0.2693
 4562poe    c2320182   1.337   6.814   3.380  0.3991 -0.0675  0.1609
 4562poe     o220183   1.413   6.804   3.261  0.1872 -0.2550  0.0420
 4562poe    c3120184   1.355   6.711   3.173  0.2179  0.0890 -0.3462
 4563poe    c3120185   5.044   4.569   4.948  0.1576 -0.4944  0.0399
 4563poe     o220186   5.168   4.557   5.015  0.2614  0.2024 -0.0291
 4563poe    c2320187   5.261   4.490   4.933  0.0836 -0.0253 -0.0441
 4563poe    c2320188   5.398   4.470   5.000 -0.3802  0.1312  0.9648
 4563poe     o220189   5.451   4.596   5.033 -0.1377  0.3337 -0.1711
 4563poe    c2320190   5.591   4.579   5.028 -0.1686 -0.0019  0.0772
 4563poe    c2320191   5.663   4.715   5.042  0.5004 -0.3370 -0.0886
 4563poe     o220192   5.650   4.763   5.174 -0.0749 -0.1283 -0.2183
 4563poe    c2320193   5.722   4.882   5.198  0.1077 -0.3917  0.5690
 4563poe    c2320194   5.697   4.940   5.338  0.0583  0.1930  0.3209
 4563poe     o220195   5.720   4.823   5.414 -0.5114 -0.2058 -0.1145
 4563poe    c3120196   5.746   4.856   5.549  0.8493 -0.0686 -0.3954
 4564poe    c3120197   6.573   1.187   1.044  0.0482  0.3651 -0.8120
 4564poe     o220198   6.433   1.200   1.035 -0.1080 -0.5665  0.1122
 4564poe    c2320199   6.386   1.153   0.910 -0.0499  0.1300 -0.1749
 4564poe    c2320200   6.237   1.114   0.907  0.0570 -0.3090  0.1138
 4564poe     o220201   6.152   1.226   0.907  0.2944 -0.1288  0.2812
 4564poe    c2320202   6.017   1.190   0.918  0.1788  0.1708 -0.1189
 4564poe    c2320203   5.922   1.294   0.981  0.0284  0.0454 -0.1373
 4564poe     o220204   5.899   1.416   0.916  0.3414  0.1307 -0.0908
 4564poe    c2320205   5.784   1.495   0.939  0.1129 -0.2522  0.0927
 4564poe    c2320206   5.644   1.432   0.947  0.2205 -0.5583 -0.3727
 4564poe     o220207   5.615   1.346   1.054  0.0858  0.0378  0.0779
 4564poe    c3120208   5.494   1.274   1.046 -0.0268  0.2670 -0.2861
 4565poe    c3120209   7.036   3.295   3.903 -0.2434 -0.0123  0.7068
 4565poe     o220210   7.029   3.409   3.986 -0.2881  0.2212  0.3824
 4565poe    c2320211   6.896   3.415   4.030 -0.4188  0.0740  0.0171
 4565poe    c2320212   6.859   3.548   4.099 -0.3805 -0.0352  0.2491
 4565poe     o220213   6.934   3.563   4.218  0.6552  0.3019 -0.4361
 4565poe    c2320214   6.896   3.689   4.268  0.3771 -0.0364  0.2267
 4565poe    c2320215   6.971   3.742   4.391 -0.0497  0.3325  0.3295
 4565poe     o220216   6.943   3.664   4.505 -0.1310  0.0476  0.1155
 4565poe    c2320217   7.030   3.710   4.606 -0.3542  0.8596 -0.0496
 4565poe    c2320218   7.047   3.586   4.696 -0.3251  0.6941 -0.2820
 4565poe     o220219   6.945   3.572   4.792  0.5001 -0.1931  0.4877
 4565poe    c3120220   6.950   3.457   4.873  0.6293 -0.4003  0.1866
 4566poe    c3120221   5.291   5.493   0.006 -0.2742  0.2261 -0.2719
 4566poe     o220222   5.425   5.514  -0.030 -0.2118 -0.0001 -0.1701
 4566poe    c2320223   5.432   5.554  -0.165 -0.1044  0.1610 -0.1178
 4566poe    c2320224   5.540   5.659  -0.195 -0.1253  0.2629  0.1564
 4566poe     o220225   5.672   5.611  -0.177 -0.1830  0.0875  0.1126
 4566poe    c2320226   5.771   5.711  -0.179  0.0292 -0.1168  0.4424
 4566poe    c2320227   5.791   5.810  -0.063  0.0019 -0.0001  0.3484
 4566poe     o220228   5.839   5.754   0.058  0.0846  0.0831  0.3543
 4566poe    c2320229   5.950   5.832   0.096 -0.0564  0.6021 -0.2845
 4566poe    c2320230   6.007   5.799   0.235 -0.2192  0.4630 -0.2496
 4566poe     o220231   5.930   5.853   0.339  0.1730  0.4413  0.0552
 4566poe    c3120232   5.994   5.806   0.456 -0.5759 -0.3173  0.1699
 4567poe    c3120233   4.166   7.174   1.234  0.4806 -0.1415  0.2548
 4567poe     o220234   4.208   7.307   1.213 -0.0843 -0.0584 -0.4088
 4567poe    c2320235   4.308   7.340   1.308 -0.2981 -0.2104 -0.1307
 4567poe    c2320236   4.341   7.486   1.273  0.2761 -0.2868  0.0757
 4567poe     o220237   4.337   7.497   1.132 -0.0458  0.7714  0.1592
 4567poe    c2320238   4.368   7.625   1.081  0.0361  0.7584  0.1757
 4567poe    c2320239   4.355   7.620   0.928  0.2657 -0.0077  0.1763
 4567poe     o220240   4.221   7.584   0.902  0.2326  0.2726 -0.0477
 4567poe    c2320241   4.202   7.598   0.763  0.3208  0.3528 -0.0519
 4567poe    c2320242   4.078   7.525   0.709  0.6770 -0.2055 -0.1177
 4567poe     o220243   4.081   7.386   0.731 -0.3648 -0.1817  0.2516
 4567poe    c3120244   3.953   7.332   0.704 -0.5139  0.2599  0.0770
 4568poe    c3120245   4.653   0.534   3.875  0.2798  0.2993 -0.5574
 4568poe     o220246   4.723   0.636   3.944 -0.1476  0.5336 -0.4687
 4568poe    c2320247   4.803   0.709   3.853 -0.0509  0.3092 -0.5635
 4568poe    c2320248   4.911   0.780   3.937 -0.3890  0.2888 -0.1053
 4568poe     o220249   4.859   0.870   4.032  0.3403  0.3809  0.2066
 4568poe    c2320250   4.966   0.926   4.106  0.2630  0.1455  0.5016
 4568poe    c2320251   4.966   0.903   4.258  0.1457 -0.5563  0.4004
 4568poe     o220252   4.862   0.963   4.331 -0.0375  0.0570 -0.3494
 4568poe    c2320253   4.865   1.103   4.350 -0.3704  0.1002 -0.6095
 4568poe    c2320254   4.782   1.158   4.467  0.3567 -0.5837  0.2431
 4568poe     o220255   4.647   1.126   4.439  0.1484  0.7049 -0.3142
 4568poe    c3120256   4.563   1.185   4.535 -0.5846 -0.2349 -0.3658
 4569poe    c3120257   3.641   3.134   3.820  0.6033 -0.7418 -0.0429
 4569poe     o220258   3.591   3.044   3.724 -0.7352  0.1881 -0.2558
 4569poe    c2320259   3.571   3.108   3.601 -1.0077  0.4206 -0.0908
 4569poe    c2320260   3.474   3.041   3.502 -0.0145 -0.3796 -0.5350
 4569poe     o220261   3.352   3.007   3.563 -0.0378 -0.1724 -0.4655
 4569poe    c2320262   3.267   2.941   3.471 -0.0722 -0.2212 -0.3986
 4569poe    c2320263   3.136   2.887   3.530  0.2271 -0.2847  0.2180
 4569poe     o220264   3.041   2.988   3.557  0.1660 -0.3590  0.2857
 4569poe    c2320265   2.918   2.935   3.599 -0.2418  0.0137 -0.4174
 4569poe    c2320266   2.930   2.896   3.747 -0.2468  0.1502 -0.3811
 4569poe     o220267   2.997   2.774   3.773 -0.0605  0.2768 -0.2572
 4569poe    c3120268   2.903   2.669   3.782  0.2293  0.0649  0.2807
 4570poe    c3120269   3.863   7.085   6.734  0.8960 -0.1186 -0.1639
 4570poe     o220270   3.854   7.207   6.663  0.2107 -0.2106 -0.2431
 4570poe    c2320271   3.739   7.204   6.581 -0.0295  0.0303  0.0822
 4570poe    c2320272   3.732   7.339   6.508  0.5592  0.1383  0.2185
 4570poe     o220273   3.832   7.338   6.409  0.5340  0.5347  0.1857
 4570poe    c2320274   3.813   7.448   6.322  0.2710  0.2384 -0.1353
 4570poe    c2320275   3.910   7.562   6.358  0.0154  0.3188  0.3118
 4570poe     o220276   4.045   7.525   6.346 -0.0830  0.2140 -0.5978
 4570poe    c2320277   4.129   7.639   6.353 -0.4917  0.4828  0.0307
 4570poe    c2320278   4.256   7.579   6.291 -0.5578  0.0835  0.2799
 4570poe     o220279   4.290   7.453   6.346 -0.0903  0.2121  0.2938
 4570poe    c3120280   4.406   7.389   6.298 -0.3846 -0.1680  0.0856
 4571poe    c3120281   2.495   2.212   3.958  0.2606  0.7287 -0.4265
 4571poe     o220282   2.500   2.082   3.905  0.2886  0.1504  0.9501
 4571poe    c2320283   2.640   2.074   3.894  0.1495 -0.0350 -1.0159
 4571poe    c2320284   2.683   1.928   3.920 -0.2644 -0.0384 -0.3496
 4571poe     o220285   2.655   1.850   3.806  0.0384 -0.4675 -0.1317
 4571poe    c2320286   2.667   1.713   3.838 -0.2757 -0.2533  0.9512
 4571poe    c2320287   2.685   1.626   3.712 -0.3747  0.3900  0.4873
 4571poe     o220288   2.560   1.630   3.648 -0.1241  0.0740 -0.0238
 4571poe    c2320289   2.576   1.608   3.509 -0.3236  0.1879 -0.0656
 4571poe    c2320290   2.449   1.651   3.434 -0.1509  0.0159 -0.4594
 4571poe     o220291   2.422   1.789   3.442 -0.5174 -0.0744 -0.0814
 4571poe    c3120292   2.337   1.845   3.344 -0.5329  0.7559  0.3975
 4572poe    c3120293   5.647   6.799   1.786  0.1406  0.0927 -0.0801
 4572poe     o220294   5.571   6.780   1.669 -0.3147 -0.0121  0.2286
 4572poe    c2320295   5.515   6.651   1.681 -0.1459 -0.0890  0.1919
 4572poe    c2320296   5.371   6.661   1.627  0.0293  0.4872 -0.1808
 4572poe     o220297   5.393   6.706   1.495  0.2154 -0.0588 -0.3378
 4572poe    c2320298   5.271   6.704   1.424 -0.2373  0.6636  0.4042
 4572poe    c2320299   5.284   6.775   1.288  0.2964  0.3568  0.2937
 4572poe     o220300   5.340   6.904   1.306  0.0206  0.4877  0.2095
 4572poe    c2320301   5.361   6.966   1.181 -0.3202 -0.1443 -0.1714
 4572poe    c2320302   5.433   7.093   1.230 -0.1889 -0.1225 -0.4216
 4572poe     o220303   5.573   7.078   1.244 -0.2700 -0.9613 -0.4840
 4572poe    c3120304   5.641   7.075   1.121 -0.1965 -0.0398 -0.4721
 4573poe    c3120305   5.708   0.046   5.652 -0.7441  0.1895  0.0138
 4573poe     o220306   5.782   0.000   5.542  0.0904  0.2561  0.5394
 4573poe    c2320307   5.915   0.048   5.537  0.0784  0.2488  0.0594
 4573poe    c2320308   5.962   0.029   5.392  0.4872 -0.0548  0.2321
 4573poe     o220309   5.975  -0.103   5.343 -0.3000 -0.1464  0.2646
 4573poe    c2320310   5.959  -0.085   5.204 -0.1161 -0.2485  0.2297
 4573poe    c2320311   5.954  -0.218   5.127  0.0114  0.0801 -0.3514
 4573poe     o220312   6.070  -0.298   5.134  0.0510  0.1391 -0.3365
 4573poe    c2320313   6.064  -0.403   5.041 -0.3422 -0.4001  0.2870
 4573poe    c2320314   6.204  -0.466   5.038 -0.0719  0.1921  0.2797
 4573poe     o220315   6.247  -0.484   5.171 -0.1439  0.2604  0.3127
 4573poe    c3120316   6.343  -0.586   5.187 -0.0741  0.3169  0.2520
 4574poe    c3120317   4.876   4.718   2.137  0.1372  0.1745  0.6198
 4574poe     o220318   4.761   4.637   2.147  0.2582 -0.0224  0.4042
 4574poe    c2320319   4.762   4.555   2.032 -0.5761 -0.0505  0.4106
 4574poe    c2320320   4.646   4.458   2.058 -0.6370 -0.2605 -0.6147
 4574poe     o220321   4.633   4.383   2.177 -0.1862  0.0432 -0.3713
 4574poe    c2320322   4.506   4.323   2.173  0.1052 -0.5435 -0.9221
 4574poe    c2320323   4.514   4.184   2.239  0.5898 -0.0461  0.0848
 4574poe     o220324   4.539   4.177   2.378  0.0792 -0.3311  0.1656
 4574poe    c2320325   4.498   4.053   2.431 -0.4042 -0.1635  0.1903
 4574poe    c2320326   4.547   4.020   2.574 -0.0292  0.1110  0.1258
 4574poe     o220327   4.687   4.022   2.589 -0.0136 -0.1013  0.0175
 4574poe    c3120328   4.743   3.893   2.599 -1.0029 -0.4936  0.6330
 4575poe    c3120329   5.307   6.975   2.110 -0.0013 -0.3090  0.1664
 4575poe     o220330   5.274   7.109   2.084  0.7955 -0.0675  0.3838
 4575poe    c2320331   5.361   7.162   1.986  0.2177  0.4793  0.1540
 4575poe    c2320332   5.316   7.294   1.921  0.2716  0.1514 -0.5533
 4575poe     o220333   5.300   7.391   2.022  0.0220 -0.1089 -0.3412
 4575poe    c2320334   5.224   7.489   1.954  0.1075 -0.0793 -0.3927
 4575poe    c2320335   5.203   7.620   2.032 -0.0738 -0.3958  0.0935
 4575poe     o220336   5.111   7.593   2.135 -0.0087 -0.0248  0.2472
 4575poe    c2320337   5.077   7.718   2.192 -0.1739  0.4046 -0.7716
 4575poe    c2320338   4.940   7.693   2.257  0.3752 -0.1090  0.2099
 4575poe     o220339   4.846   7.650   2.162  0.4183  0.1001  0.0726
 4575poe    c3120340   4.786   7.751   2.084  0.4160  0.0457  0.0031
 4576poe    c3120341   5.016   5.318   3.959  0.2050  0.2062 -0.2020
 4576poe     o220342   5.108   5.264   4.051 -0.0624  0.2579  0.0990
 4576poe    c2320343   5.232   5.329   4.030 -0.0720  0.3030  0.1821
 4576poe    c2320344   5.344   5.286   4.125 -0.2007 -0.1560  0.1303
 4576poe     o220345   5.347   5.145   4.120 -0.0812 -0.1346 -0.4219
 4576poe    c2320346   5.424   5.110   4.233 -0.4781 -0.5395 -0.2724
 4576poe    c2320347   5.450   4.959   4.251  0.3140 -0.4124 -0.3137
 4576poe     o220348   5.334   4.880   4.254  0.0396  0.0146  0.3234
 4576poe    c2320349   5.357   4.748   4.212  0.4546  0.1131  0.2374
 4576poe    c2320350   5.221   4.682   4.181  0.3583  0.2332  0.4075
 4576poe     o220351   5.138   4.753   4.092  0.1211  0.6428  0.9506
 4576poe    c3120352   5.015   4.685   4.082  0.7239 -0.2901 -0.3216
 4577poe    c3120353   5.013   3.030   6.247  0.4544 -0.2062 -0.1176
 4577poe     o220354   5.059   3.162   6.256  0.1649 -0.0983 -0.2022
 4577poe    c2320355   5.199   3.174   6.247  0.1973 -0.5687 -0.3248
 4577poe    c2320356   5.220   3.326   6.262  0.0907 -0.4719 -1.1346
 4577poe     o220357   5.117   3.390   6.189 -0.8074 -0.4260  0.1286
 4577poe    c2320358   5.138   3.529   6.186 -0.0043 -0.5415  0.1659
 4577poe    c2320359   5.004   3.585   6.135  0.3686  0.2518  0.0340
 4577poe     o220360   4.899   3.529   6.210  0.0757  0.2916 -0.3435
 4577poe    c2320361   4.777   3.599   6.204 -0.3463 -0.4122 -0.1058
 4577poe    c2320362   4.653   3.533   6.269 -0.6486  0.7773  0.5520
 4577poe     o220363   4.674   3.485   6.399  0.1172 -0.1724  0.0894
 4577poe    c3120364   4.564   3.505   6.485 -0.0486 -0.0430 -0.1528
 4578poe    c3120365   4.304   1.234   4.789 -0.7151  1.3685  0.1554
 4578poe     o220366   4.197   1.164   4.850  0.4026 -0.5756 -0.0401
 4578poe    c2320367   4.208   1.031   4.805  0.1903 -0.5750 -0.0922
 4578poe    c2320368   4.122   0.921   4.872 -0.2462 -0.2373 -0.0946
 4578poe     o220369   4.176   0.877   4.994 -0.0777  0.3200  0.0337
 4578poe    c2320370   4.098   0.781   5.060 -0.0290  0.3678  0.1610
 4578poe    c2320371   4.190   0.699   5.153 -0.0741  0.0751 -0.0493
 4578poe     o220372   4.239   0.584   5.088 -0.2315 -0.1807  0.2804
 4578poe    c2320373   4.295   0.500   5.186  0.6830  0.1349  0.0375
 4578poe    c2320374   4.383   0.383   5.135  0.1669 -0.1209 -0.2708
 4578poe     o220375   4.503   0.418   5.071  0.0494  0.3290 -0.2514
 4578poe    c3120376   4.584   0.303   5.071 -0.0199  0.2719  0.9449
 4579poe    c3120377   3.341   2.758   5.261 -0.3908 -0.1546  0.0944
 4579poe     o220378   3.373   2.623   5.284 -0.0605 -0.0471  0.2639
 4579poe    c2320379   3.254   2.548   5.273 -0.1590  0.0681  0.5295
 4579poe    c2320380   3.281   2.396   5.272 -0.0636  0.0833 -0.5114
 4579poe     o220381   3.381   2.382   5.369 -0.2881 -0.3164 -0.3341
 4579poe    c2320382   3.454   2.262   5.377 -0.3199 -0.2833  0.5538
 4579poe    c2320383   3.572   2.268   5.477  0.0088 -0.4330  0.1788
 4579poe     o220384   3.626   2.398   5.487 -0.0573 -0.4152  0.3058
 4579poe    c2320385   3.754   2.395   5.546  0.1485 -0.3866 -0.1365
 4579poe    c2320386   3.796   2.539   5.581  0.2758 -0.3548 -0.4116
 4579poe     o220387   3.705   2.625   5.646  0.7094 -0.4060  0.2808
 4579poe    c3120388   3.754   2.754   5.673 -0.0080 -0.0863  0.0976
 4580poe    c3120389   1.166   5.057   3.484 -0.5475 -0.7653 -0.5956
 4580poe     o220390   1.057   5.131   3.535  0.0525 -0.7823  0.7522
 4580poe    c2320391   1.091   5.241   3.615 -0.2229 -0.2262  0.1114
 4580poe    c2320392   1.003   5.362   3.579  0.4806  0.1566 -0.3595
 4580poe     o220393   1.038   5.432   3.462  0.2297  0.1623 -0.4326
 4580poe    c2320394   0.947   5.534   3.430  0.0636 -0.2266 -1.2180
 4580poe    c2320395   0.989   5.663   3.357  0.1300  0.2992 -0.2708
 4580poe     o220396   1.065   5.755   3.433 -0.3934  0.7586 -0.2936
 4580poe    c2320397   1.049   5.884   3.378 -0.3421  0.6596 -0.5468
 4580poe    c2320398   1.115   5.999   3.456  0.1292  0.0964 -0.1031
 4580poe     o220399   1.055   6.031   3.580 -0.0741 -0.0090 -0.1752
 4580poe    c3120400   1.127   6.138   3.636 -0.6533 -0.0989  0.7690
 4581poe    c3120401   7.196   1.004   4.976  0.3869 -0.3869 -0.0364
 4581poe     o220402   7.104   0.898   4.994 -0.2020  0.1985  0.4288
 4581poe    c2320403   7.010   0.889   4.889 -0.0205  0.0507  0.2803
 4581poe    c2320404   6.927   0.760   4.904 -0.0931  0.0609 -0.0300
 4581poe     o220405   7.027   0.666   4.935  0.2519  0.2439 -0.5792
 4581poe    c2320406   6.974   0.536   4.921 -0.2024  0.4209 -0.5070
 4581poe    c2320407   7.081   0.435   4.875 -0.1670  0.2237 -0.0022
 4581poe     o220408   7.181   0.395   4.966  0.1522  0.5400 -0.2094
 4581poe    c2320409   7.163   0.268   5.023  0.4708  0.5447 -0.0951
 4581poe    c2320410   7.288   0.209   5.091 -0.0081 -0.0669  0.2742
 4581poe     o220411   7.402   0.217   5.008 -0.1618 -0.0506  0.0626
 4581poe    c3120412   7.508   0.131   5.046  0.0456  0.4212  0.5701
 4582poe    c3120413   2.440   0.774   6.185  0.0050  0.3458  0.8082
 4582poe     o220414   2.474   0.862   6.080 -0.4240 -0.2775  0.1345
 4582poe    c2320415   2.586   0.821   6.006 -0.2039  0.3162  0.1341
 4582poe    c2320416   2.610   0.949   5.925 -0.8825  0.3508 -0.0148
 4582poe     o220417   2.481   0.994   5.888 -0.9890 -0.1607 -0.2668
 4582poe    c2320418   2.488   1.121   5.828  0.1753  0.1705  0.5411
 4582poe    c2320419   2.348   1.152   5.772  0.3294  0.1968  0.1640
 4582poe     o220420   2.269   1.134   5.888 -0.1930 -0.0580 -0.2287
 4582poe    c2320421   2.239   1.249   5.964 -0.2821 -0.0121 -0.3326
 4582poe    c2320422   2.192   1.189   6.098  0.2091  0.3443  0.0006
 4582poe     o220423   2.283   1.090   6.141 -0.0651 -0.0109 -0.2297
 4582poe    c3120424   2.349   1.132   6.259 -0.1312  0.1879 -0.2631
 4583poe    c3120425   1.508   6.052   3.249  0.6578  0.0721 -0.3277
 4583poe     o220426   1.466   6.187   3.238 -0.1796 -0.1011  0.5105
 4583poe    c2320427   1.461   6.244   3.366 -1.1383  0.0549  0.4060
 4583poe    c2320428   1.381   6.375   3.351 -0.4284  0.4525  0.0502
 4583poe     o220429   1.248   6.352   3.307 -0.5776  0.0825  0.6775
 4583poe    c2320430   1.156   6.459   3.317 -0.9582 -0.2046  0.2161
 4583poe    c2320431   1.041   6.446   3.215 -0.3455 -0.3425 -0.4672
 4583poe     o220432   1.090   6.448   3.083 -0.2453 -0.9224 -0.4394
 4583poe    c2320433   1.002   6.524   3.004 -0.2495 -1.0474 -0.5570
 4583poe    c2320434   1.036   6.672   2.977  0.2699 -1.1747 -0.6163
 4583poe     o220435   1.133   6.691   2.877  0.7009  0.0292  0.0065
 4583poe    c3120436   1.138   6.825   2.834  0.4491  0.0527  0.0516
 4584poe    c3120437   0.792   3.004   4.771  0.5236 -0.1864  0.1291
 4584poe     o220438   0.682   2.917   4.759  0.1193  0.3159  0.2073
 4584poe    c2320439   0.556   2.972   4.790 -0.5275 -0.7431 -0.4651
 4584poe    c2320440   0.501   3.097   4.719 -0.3837 -0.1645  0.4214
 4584poe     o220441   0.571   3.215   4.752 -0.2920 -0.0017 -0.3264
 4584poe    c2320442   0.546   3.321   4.663  0.0235  0.1614 -0.2219
 4584poe    c2320443   0.570   3.464   4.714 -0.1693  0.0233  0.2569
 4584poe     o220444   0.702   3.511   4.730  0.1749 -0.6371 -0.6042
 4584poe    c2320445   0.727   3.578   4.851  0.2011 -0.5792 -0.6419
 4584poe    c2320446   0.878   3.602   4.871  0.0847 -0.4506  0.1057
 4584poe     o220447   0.904   3.677   4.987 -0.0668  0.2819 -0.3335
 4584poe    c3120448   1.040   3.715   4.983 -0.1277  0.5369 -0.0062
 4585poe    c3120449   6.419   3.259   2.391 -0.1398 -0.6937 -0.1710
 4585poe     o220450   6.285   3.302   2.400  0.1839  0.2321  0.3319
 4585poe    c2320451   6.234   3.268   2.527  0.0320  0.4565  0.3307
 4585poe    c2320452   6.085   3.295   2.552 -0.1455  0.0274 -0.2615
 4585poe     o220453   6.061   3.432   2.576 -0.9596 -0.2226  0.3711
 4585poe    c2320454   5.929   3.460   2.618 -1.0983 -0.9508  0.4378
 4585poe    c2320455   5.851   3.581   2.562  0.2026 -0.1991  0.1936
 4585poe     o220456   5.764   3.533   2.462  0.5751  0.0572 -0.2545
 4585poe    c2320457   5.684   3.640   2.419 -0.0201 -0.0932  0.4633
 4585poe    c2320458   5.583   3.599   2.310  0.2235  0.4578  0.0248
 4585poe     o220459   5.613   3.623   2.174 -0.3167 -0.4356 -0.2582
 4585poe    c3120460   5.513   3.702   2.114 -0.0856 -0.2600 -0.4084
 4586poe    c3120461   7.224   1.930   0.659  0.4219 -0.6629 -0.0359
 4586poe     o220462   7.146   1.874   0.556  0.1487  0.0577 -0.2251
 4586poe    c2320463   7.169   1.735   0.555  0.7520  0.1584 -0.7798
 4586poe    c2320464   7.088   1.650   0.455 -0.0091  0.1489 -0.1639
 4586poe     o220465   7.126   1.661   0.320  0.0802 -0.0213 -0.1527
 4586poe    c2320466   7.063   1.560   0.244 -0.0846 -0.1680  0.1765
 4586poe    c2320467   6.910   1.566   0.226 -0.0855 -0.8866 -0.1199
 4586poe     o220468   6.836   1.538   0.343 -0.3594 -0.1082 -0.1030
 4586poe    c2320469   6.697   1.564   0.339 -0.2983  0.2979  0.3525
 4586poe    c2320470   6.636   1.568   0.481 -0.2143  0.0449  0.3970
 4586poe     o220471   6.647   1.684   0.560 -0.2657  0.0979  0.3262
 4586poe    c3120472   6.774   1.716   0.612 -0.2972  0.0461  0.4344
 4587poe    c3120473   6.196   2.002   5.189 -0.2782 -0.2392 -0.3942
 4587poe     o220474   6.067   2.001   5.246 -0.2851  0.5794 -0.3945
 4587poe    c2320475   6.075   2.058   5.374  0.0376  0.1292 -0.2146
 4587poe    c2320476   5.939   2.093   5.438 -0.0676 -0.1921 -0.2614
 4587poe     o220477   5.862   2.180   5.358  0.1378  0.3001  0.0702
 4587poe    c2320478   5.727   2.177   5.399 -0.0087  0.4147 -0.3965
 4587poe    c2320479   5.654   2.296   5.334  0.3143  0.8955  0.1079
 4587poe     o220480   5.685   2.302   5.197 -0.3324  0.1966 -0.0808
 4587poe    c2320481   5.606   2.403   5.138 -0.0462  0.1335 -0.5801
 4587poe    c2320482   5.662   2.420   4.996 -0.2015 -0.5780 -0.7331
 4587poe     o220483   5.803   2.410   4.996 -0.1465  0.0399  0.1508
 4587poe    c3120484   5.864   2.393   4.870 -0.8223 -0.2200 -0.1456
 4588poe    c3120485   3.321   0.011   1.530 -0.7871  0.4752  0.0973
 4588poe     o220486   3.236  -0.081   1.466  0.2608 -0.5782  0.1846
 4588poe    c2320487   3.140  -0.015   1.387  0.4403  0.2522  0.6515
 4588poe    c2320488   3.175   0.081   1.271  0.1369  0.0780  0.4144
 4588poe     o220489   3.232   0.002   1.169  0.0592 -0.1153  0.5203
 4588poe    c2320490   3.269   0.090   1.066 -0.2116 -0.6900 -0.0771
 4588poe    c2320491   3.355   0.020   0.959  0.0728 -0.1296 -0.2237
 4588poe     o220492   3.290  -0.072   0.873 -0.0432  0.1401 -0.4273
 4588poe    c2320493   3.383  -0.155   0.806  0.4272  0.5962 -0.3508
 4588poe    c2320494   3.444  -0.265   0.895 -0.2545  0.2347 -0.3166
 4588poe     o220495   3.354  -0.357   0.953 -0.0418 -0.0295 -0.4036
 4588poe    c3120496   3.384  -0.484   0.900 -0.6407 -0.2023 -0.3313
 4589poe    c3120497   5.013   6.130   4.834 -0.3631  0.2993  0.3183
 4589poe     o220498   5.152   6.129   4.855 -0.3154  0.3546  0.0010
 4589poe    c2320499   5.160   6.176   4.987 -0.1814 -0.1439  0.1711
 4589poe    c2320500   5.294   6.145   5.057 -0.3303  0.1394  0.5853
 4589poe     o220501   5.408   6.223   5.029 -0.4306  0.1157  0.0998
 4589poe    c2320502   5.529   6.167   5.076 -0.2855  0.0092 -0.3979
 4589poe    c2320503   5.653   6.238   5.017 -0.0353 -0.0089  0.0990
 4589poe     o220504   5.658   6.210   4.879 -0.0106 -0.1683  0.1327
 4589poe    c2320505   5.724   6.315   4.811  0.4455 -0.2097  0.5084
 4589poe    c2320506   5.728   6.324   4.657 -0.0695  0.5437  0.5338
 4589poe     o220507   5.611   6.393   4.621 -0.0267  0.2760 -0.1294
 4589poe    c3120508   5.622   6.418   4.483 -0.0677  0.2947 -0.1295
 4590poe    c3120509   3.595   6.717   1.560  0.1327  0.0463 -0.1945
 4590poe     o220510   3.608   6.832   1.640  0.1831 -0.0965  0.0012
 4590poe    c2320511   3.551   6.804   1.767  0.0698 -0.3568 -0.1066
 4590poe    c2320512   3.596   6.900   1.879 -0.3803 -0.1515 -0.1037
 4590poe     o220513   3.571   7.033   1.840  0.2407 -0.0214 -0.0623
 4590poe    c2320514   3.639   7.127   1.919  0.1139  0.0075  0.0121
 4590poe    c2320515   3.650   7.273   1.869 -0.2993 -0.0065 -0.1256
 4590poe     o220516   3.693   7.281   1.735  0.0672 -0.0581 -0.0140
 4590poe    c2320517   3.704   7.408   1.675 -0.2130  0.0493  0.1591
 4590poe    c2320518   3.732   7.416   1.524 -0.2466  0.3154  0.1657
 4590poe     o220519   3.624   7.373   1.444 -0.1359 -0.0381  0.2051
 4590poe    c3120520   3.649   7.389   1.306 -0.7738 -0.7084  0.0038
 4591poe    c3120521   2.644   4.805   3.550  0.5685  0.1186 -0.2284
 4591poe     o220522   2.739   4.869   3.468  0.4505  0.0656 -0.4080
 4591poe    c2320523   2.859   4.802   3.436  0.5233  0.1754 -0.3668
 4591poe    c2320524   2.967   4.904   3.396  0.5859  0.1304 -0.3130
 4591poe     o220525   2.931   4.957   3.270  0.0420 -0.2149 -0.3061
 4591poe    c2320526   3.038   5.039   3.228 -0.7140  0.9215 -0.0503
 4591poe    c2320527   3.014   5.107   3.092  0.2661  0.5675 -0.4093
 4591poe     o220528   2.911   5.199   3.120 -0.0075  0.2405 -0.3299
 4591poe    c2320529   2.910   5.285   3.008  0.4710  0.0401 -0.4910
 4591poe    c2320530   2.838   5.410   3.062 -0.4786 -0.3768 -0.7693
 4591poe     o220531   2.703   5.387   3.095 -0.3827 -0.1308 -0.2031
 4591poe    c3120532   2.634   5.510   3.081 -0.3618 -0.0944  0.0053
 4592poe    c3120533   6.485   1.583   5.914  0.1935  0.6805  0.1970
 4592poe     o220534   6.537   1.698   5.850  0.3224  0.1977 -0.5660
 4592poe    c2320535   6.673   1.700   5.885 -0.1453  0.1370  1.3388
 4592poe    c2320536   6.743   1.813   5.807 -0.4423 -0.4763  0.1735
 4592poe     o220537   6.689   1.939   5.839  0.2437 -0.0894 -0.1737
 4592poe    c2320538   6.733   2.044   5.756  0.2885  0.1729  0.1785
 4592poe    c2320539   6.610   2.135   5.737  0.1755 -0.0832 -0.3245
 4592poe     o220540   6.500   2.075   5.672  0.1254 -0.3425 -0.0030
 4592poe    c2320541   6.511   2.043   5.535  0.4897 -0.4929  0.0615
 4592poe    c2320542   6.455   1.913   5.475  0.4375 -0.2370 -0.4467
 4592poe     o220543   6.320   1.892   5.513  0.7845 -1.3659  0.1980
 4592poe    c3120544   6.276   1.768   5.463 -0.5416 -0.5369 -0.7196
 4593poe    c3120545   0.548   2.346   3.937  0.9522  0.0862 -0.4748
 4593poe     o220546   0.498   2.410   3.821 -0.2689  0.1309  0.0617
 4593poe    c2320547   0.395   2.506   3.832 -0.4816 -0.1180  0.2297
 4593poe    c2320548   0.422   2.645   3.892  0.1327 -0.1870  0.1129
 4593poe     o220549   0.511   2.718   3.810 -0.3979  0.7676  0.3770
 4593poe    c2320550   0.581   2.827   3.864  0.2915  0.3276  0.3828
 4593poe    c2320551   0.701   2.878   3.783 -0.0517 -0.2391 -0.4946
 4593poe     o220552   0.795   2.773   3.776 -0.0433 -0.2799  0.1940
 4593poe    c2320553   0.896   2.807   3.684 -0.0089 -0.2352  0.2478
 4593poe    c2320554   1.021   2.726   3.721  0.1335 -0.2708 -0.2983
 4593poe     o220555   1.011   2.591   3.683 -0.2413 -0.3058 -0.0765
 4593poe    c3120556   1.136   2.539   3.723  0.0373  0.1128 -0.3957
 4594poe    c3120557   4.781   3.529   1.544 -0.2331  0.2079  0.0285
 4594poe     o220558   4.763   3.419   1.629  0.2676  0.0458 -0.0753
 4594poe    c2320559   4.800   3.454   1.761 -0.4762  0.6240 -0.0156
 4594poe    c2320560   4.922   3.375   1.811 -0.4689  0.5733 -0.1132
 4594poe     o220561   4.907   3.240   1.849  0.3814  0.3912 -0.4092
 4594poe    c2320562   5.029   3.171   1.867  0.0856  0.1338  0.6383
 4594poe    c2320563   4.995   3.021   1.883 -0.0949  0.1487  0.4024
 4594poe     o220564   4.915   2.964   1.782  0.7681 -0.0196 -0.1866
 4594poe    c2320565   4.855   2.850   1.838 -0.4019  0.4972 -0.3619
 4594poe    c2320566   4.766   2.794   1.726  0.4344  0.2338 -0.9013
 4594poe     o220567   4.703   2.896   1.652  0.3533  0.4960 -0.4753
 4594poe    c3120568   4.633   2.836   1.545 -0.3816 -0.0677  0.3037
 4595poe    c3120569   4.307   2.245   6.185 -0.1728  0.3011  0.0411
 4595poe     o220570   4.410   2.310   6.113 -0.4531  0.0728 -0.5776
 4595poe    c2320571   4.347   2.399   6.024 -0.9012 -0.4244 -0.7640
 4595poe    c2320572   4.442   2.464   5.922 -0.3676 -0.3187 -0.2049
 4595poe     o220573   4.548   2.537   5.980 -0.5439 -0.1001 -0.1581
 4595poe    c2320574   4.628   2.613   5.893 -0.0553 -0.2258  0.1760
 4595poe    c2320575   4.715   2.533   5.794  0.2243  0.4864 -0.1582
 4595poe     o220576   4.812   2.461   5.865  0.1700  0.1630 -0.4121
 4595poe    c2320577   4.873   2.362   5.785 -0.2867 -0.1989 -0.3156
 4595poe    c2320578   4.956   2.269   5.875 -0.3712  0.9352  0.9683
 4595poe     o220579   4.880   2.201   5.972 -0.2514  0.1825  0.5465
 4595poe    c3120580   4.956   2.152   6.080 -0.1588 -0.5781  0.1388
 4596poe    c3120581   1.593   2.303   3.012  0.2081  0.0484  0.5687
 4596poe     o220582   1.485   2.357   3.085 -0.2358 -0.0816  0.0102
 4596poe    c2320583   1.378   2.395   3.001 -0.3700 -0.0213  0.2076
 4596poe    c2320584   1.281   2.284   2.956 -0.2997  0.2334 -0.5963
 4596poe     o220585   1.314   2.229   2.831  0.2521 -0.2079 -0.2659
 4596poe    c2320586   1.218   2.278   2.740  0.0577  0.0990  0.1038
 4596poe    c2320587   1.273   2.278   2.596 -0.0027  0.6699  0.0784
 4596poe     o220588   1.303   2.152   2.541 -0.0900  0.6615  0.0492
 4596poe    c2320589   1.436   2.112   2.566 -0.2265  0.3783  0.3161
 4596poe    c2320590   1.512   2.093   2.434 -0.5862 -0.1789  0.1879
 4596poe     o220591   1.538   2.213   2.366  0.3464 -0.0189  0.8200
 4596poe    c3120592   1.627   2.198   2.257 -1.1918  0.0108 -0.4645
 4597poe    c3120593   3.574   0.638   5.383 -0.2697  0.2087 -0.1153
 4597poe     o220594   3.689   0.716   5.363  0.2319 -0.3503  0.5496
 4597poe    c2320595   3.638   0.842   5.324  0.3599 -0.5902 -0.4284
 4597poe    c2320596   3.746   0.950   5.343 -0.0645 -0.2950  0.3715
 4597poe     o220597   3.799   0.970   5.472  0.4894 -0.0927  0.1167
 4597poe    c2320598   3.705   1.010   5.570 -0.3130 -0.6396 -0.4146
 4597poe    c2320599   3.780   1.005   5.704  0.2279 -0.0371 -0.6858
 4597poe     o220600   3.894   1.086   5.686  0.0027  0.3715 -0.2962
 4597poe    c2320601   3.955   1.118   5.809 -0.0670 -0.4095 -0.0492
 4597poe    c2320602   4.100   1.169   5.792 -0.1391 -0.1789  0.0271
 4597poe     o220603   4.119   1.291   5.723  0.3680 -0.0804  0.3392
 4597poe    c3120604   4.065   1.402   5.791  0.3248  0.3401 -0.3774
 4598poe    c3120605   5.766   1.633   1.300  0.7664  0.1588  0.4451
 4598poe     o220606   5.709   1.510   1.337 -0.1004  0.3630 -0.1825
 4598poe    c2320607   5.607   1.538   1.431 -0.2587 -0.3452 -0.1323
 4598poe    c2320608   5.517   1.414   1.439 -0.6915 -0.0536 -0.4416
 4598poe     o220609   5.596   1.303   1.476 -0.2296  0.3331 -0.2597
 4598poe    c2320610   5.530   1.201   1.548  0.8208 -0.7212 -0.7615
 4598poe    c2320611   5.623   1.087   1.594  0.2624 -0.4955  0.9946
 4598poe     o220612   5.696   1.035   1.485 -0.0233  0.4546  0.3355
 4598poe    c2320613   5.787   0.932   1.518  0.0278  0.1862 -0.6048
 4598poe    c2320614   5.882   0.913   1.399 -0.2549 -0.0173 -0.8005
 4598poe     o220615   5.977   1.017   1.385  0.2515 -0.2722  0.5271
 4598poe    c3120616   6.103   0.994   1.443  0.3549 -0.2402  0.3160
 4599poe    c3120617   7.271   1.432   3.327  0.2655  0.0524 -0.3969
 4599poe     o220618   7.236   1.494   3.205 -0.3378 -0.1438 -0.3263
 4599poe    c2320619   7.137   1.433   3.126 -0.4275  0.3918 -0.6341
 4599poe    c2320620   7.063   1.522   3.024 -0.3289  0.0429 -1.0142
 4599poe     o220621   7.011   1.624   3.106  0.2697 -0.2720 -0.2241
 4599poe    c2320622   6.911   1.702   3.044  0.3373  0.3184  0.4044
 4599poe    c2320623   6.832   1.796   3.137  0.1736  0.8251 -0.2417
 4599poe     o220624   6.928   1.873   3.206  0.3452  0.5793 -0.2051
 4599poe    c2320625   6.881   1.964   3.303  0.1575 -0.2986  0.5449
 4599poe    c2320626   6.995   2.011   3.394  0.2978  0.0544  0.1948
 4599poe     o220627   7.047   1.905   3.472  0.3856  0.0692  0.1558
 4599poe    c3120628   7.144   1.946   3.566  0.6147  0.0563 -0.0711
 4600poe    c3120629   1.229   4.413   0.098  0.1276 -0.3715  0.0414
 4600poe     o220630   1.261   4.534   0.164 -0.0437 -0.5022  0.3690
 4600poe    c2320631   1.157   4.627   0.178  0.3062  0.0206 -0.4059
 4600poe    c2320632   1.204   4.761   0.238  0.1540 -0.0389 -0.1499
 4600poe     o220633   1.263   4.841   0.138 -0.4739 -0.0616 -0.5465
 4600poe    c2320634   1.271   4.977   0.174 -0.6804 -0.0724 -0.4562
 4600poe    c2320635   1.354   5.057   0.071  0.2233 -0.0624  0.2671
 4600poe     o220636   1.265   5.101  -0.029  0.1986  0.1055  0.3613
 4600poe    c2320637   1.317   5.183  -0.130  0.2818 -0.4728 -0.0692
 4600poe    c2320638   1.214   5.240  -0.229 -0.0722 -0.8206  0.0971
 4600poe     o220639   1.133   5.133  -0.273  0.1444 -0.8690 -0.1868
 4600poe    c3120640   1.051   5.168  -0.382  0.2383  0.2534  0.0938
 4601poe    c3120641   7.076   2.586   3.375  0.4146  0.1758  0.2874
 4601poe     o220642   7.008   2.533   3.263  0.4149  0.4558  0.1546
 4601poe    c2320643   7.102   2.472   3.177  0.2398 -0.0266  0.3031
 4601poe    c2320644   7.035   2.383   3.071  0.1242 -0.2992  0.6017
 4601poe     o220645   6.927   2.460   3.021  0.4595  0.0922  0.4745
 4601poe    c2320646   6.836   2.376   2.953  0.4189  0.0710  0.5551
 4601poe    c2320647   6.718   2.472   2.932  0.4893  0.1181  0.3700
 4601poe     o220648   6.656   2.528   3.046  0.3280 -0.2013  0.4415
 4601poe    c2320649   6.529   2.578   3.011  0.1014 -0.7015  0.5419
 4601poe    c2320650   6.459   2.638   3.135 -0.5330 -0.0297 -0.1285
 4601poe     o220651   6.525   2.753   3.181  0.2336 -0.4674 -0.1057
 4601poe    c3120652   6.455   2.837   3.271  0.3293 -0.4144 -0.0810
 4602poe    c3120653   4.456   0.814   3.218 -0.3502  0.2815  0.2214
 4602poe     o220654   4.547   0.907   3.272  0.3061 -0.0302 -0.3227
 4602poe    c2320655   4.590   0.877   3.403 -0.1142 -0.0888 -0.1970
 4602poe    c2320656   4.650   1.003   3.468 -0.6831  0.0697  0.0325
 4602poe     o220657   4.576   1.123   3.476  0.0884  0.5463  0.1130
 4602poe    c2320658   4.657   1.237   3.497  0.4899  0.3520 -0.3361
 4602poe    c2320659   4.609   1.325   3.614  0.8579  0.1160 -0.0060
 4602poe     o220660   4.498   1.401   3.574  0.7263  0.1866  0.4844
 4602poe    c2320661   4.460   1.455   3.699 -0.0360 -0.0720  0.3696
 4602poe    c2320662   4.308   1.475   3.713 -0.0134  0.4456 -0.0770
 4602poe     o220663   4.257   1.345   3.731  0.4205  0.3038  0.1368
 4602poe    c3120664   4.116   1.346   3.726  0.4112 -0.2655  0.1409
 4603poe    c3120665   4.366   5.338   2.010  0.3187  0.2930 -0.0102
 4603poe     o220666   4.366   5.372   2.147 -0.2749  0.1239  0.0347
 4603poe    c2320667   4.494   5.424   2.178 -0.1429 -0.0367 -0.2357
 4603poe    c2320668   4.498   5.481   2.320 -0.4482 -0.2951 -0.1215
 4603poe     o220669   4.404   5.584   2.344  0.3088  0.3245  0.2672
 4603poe    c2320670   4.347   5.568   2.472  0.2689 -0.0020  0.2096
 4603poe    c2320671   4.272   5.692   2.522  0.0094 -0.0269 -0.1142
 4603poe     o220672   4.149   5.701   2.454 -0.2663  0.4604  0.4360
 4603poe    c2320673   4.080   5.812   2.506 -0.9831  0.2794 -0.1068
 4603poe    c2320674   3.928   5.787   2.498 -1.0126  0.2333  0.5516
 4603poe     o220675   3.850   5.790   2.381  0.5142  0.1266 -0.4993
 4603poe    c3120676   3.843   5.916   2.318 -0.4681  0.1603 -0.3400
 4604poe    c3120677   0.537   7.247   6.378  0.3351  0.4598  0.3693
 4604poe     o220678   0.442   7.334   6.322 -0.1233 -0.0890  0.2868
 4604poe    c2320679   0.496   7.427   6.231  0.2966 -0.4194  0.2001
 4604poe    c2320680   0.393   7.537   6.201  0.9864  0.2273  0.1784
 4604poe     o220681   0.361   7.614   6.315 -0.2109  0.0727 -0.0404
 4604poe    c2320682   0.285   7.724   6.271 -0.1890  0.2110  0.2645
 4604poe    c2320683   0.170   7.781   6.357 -0.5906 -0.5081  0.2135
 4604poe     o220684   0.202   7.864   6.466  0.0198  0.1551 -0.4609
 4604poe    c2320685   0.234   7.998   6.434 -0.2171  0.2537 -0.2877
 4604poe    c2320686   0.269   8.065   6.568  0.1179  0.0697 -0.2824
 4604poe     o220687   0.383   8.002   6.622 -0.4557 -0.5183  0.2729
 4604poe    c3120688   0.484   8.097   6.648 -0.3937 -0.5011 -0.0281
 4605poe    c3120689   1.606   1.334   6.791 -0.6970  0.1089 -0.0912
 4605poe     o220690   1.641   1.424   6.689  0.0229 -0.4863 -0.3707
 4605poe    c2320691   1.604   1.557   6.713 -0.1280 -0.4961 -0.5459
 4605poe    c2320692   1.643   1.650   6.597 -0.2422 -0.0755 -0.2516
 4605poe     o220693   1.615   1.584   6.475 -0.5394  0.3403 -0.4096
 4605poe    c2320694   1.644   1.671   6.368  0.5591 -0.0685 -0.4608
 4605poe    c2320695   1.589   1.614   6.236  0.2732  0.3263 -0.5162
 4605poe     o220696   1.637   1.481   6.235 -0.0624  0.1986  0.0995
 4605poe    c2320697   1.536   1.385   6.214 -0.1855  0.3940 -0.2097
 4605poe    c2320698   1.586   1.257   6.282 -0.6476  0.2074 -0.2137
 4605poe     o220699   1.591   1.255   6.423  0.5201  0.2108 -0.2417
 4605poe    c3120700   1.675   1.148   6.461  0.5474  0.4188  0.2967
 4606poe    c3120701   2.221   1.798   5.156 -0.4886 -0.1201 -0.1591
 4606poe     o220702   2.155   1.724   5.257  0.2983 -0.1496  0.3422
 4606poe    c2320703   2.249   1.665   5.344  0.2468 -0.5711  0.1133
 4606poe    c2320704   2.197   1.603   5.475  0.5726 -0.5735  0.2415
 4606poe     o220705   2.117   1.501   5.420  0.3695 -0.2319 -0.1033
 4606poe    c2320706   2.081   1.417   5.527 -0.0730 -0.3309 -0.3268
 4606poe    c2320707   2.012   1.293   5.467 -0.4428 -0.1740 -0.2286
 4606poe     o220708   1.899   1.340   5.398 -0.4146  0.3273  0.0612
 4606poe    c2320709   1.803   1.237   5.381  0.2543 -0.2329 -0.3717
 4606poe    c2320710   1.691   1.256   5.278 -0.4939  0.0258  0.4802
 4606poe     o220711   1.736   1.271   5.145 -0.2057  0.3972  0.6197
 4606poe    c3120712   1.618   1.300   5.074 -0.6424 -0.6138  0.9154
 4607poe    c3120713   4.121   5.247   4.409  0.1525  0.0777  0.1787
 4607poe     o220714   4.231   5.158   4.415  0.1249  0.0102 -0.3286
 4607poe    c2320715   4.193   5.031   4.463  0.5000 -0.1682 -0.5034
 4607poe    c2320716   4.270   5.015   4.596  0.3566  0.6610 -0.3147
 4607poe     o220717   4.409   5.036   4.591  0.4679 -0.0526 -0.2485
 4607poe    c2320718   4.468   5.024   4.719 -0.2112  0.1691  0.0896
 4607poe    c2320719   4.619   5.030   4.691 -0.0975  0.0554  0.6731
 4607poe     o220720   4.659   5.154   4.637 -0.0930 -0.2145  0.0423
 4607poe    c2320721   4.799   5.167   4.629 -0.0973 -0.3371 -0.2270
 4607poe    c2320722   4.832   5.295   4.550 -0.3808 -0.0059  0.1836
 4607poe     o220723   4.812   5.284   4.411 -0.4912 -0.4140  0.2307
 4607poe    c3120724   4.793   5.408   4.347  0.1951 -0.5352 -0.2135
 4608poe    c3120725   5.359   1.743   3.503  0.1325  0.4511  0.4670
 4608poe     o220726   5.469   1.762   3.416  0.0053  0.1779  0.2452
 4608poe    c2320727   5.426   1.862   3.328  0.4041  0.3403  0.2340
 4608poe    c2320728   5.503   1.871   3.195  0.3908 -0.4940  0.1658
 4608poe     o220729   5.637   1.916   3.185  0.1624  0.1894  0.0822
 4608poe    c2320730   5.668   1.923   3.048  0.1798  0.8836  0.1195
 4608poe    c2320731   5.820   1.912   3.025  0.0500  0.4252 -0.5428
 4608poe     o220732   5.881   2.029   3.074  0.1405 -0.0003  0.3701
 4608poe    c2320733   6.021   2.024   3.055  0.0899 -0.1464  0.0310
 4608poe    c2320734   6.096   2.110   3.158 -0.3034 -0.0395  0.2311
 4608poe     o220735   6.067   2.061   3.287 -0.2516 -0.0376  0.2433
 4608poe    c3120736   6.177   2.047   3.374 -0.1633 -0.8442  0.0163
 4609poe    c3120737   6.401   6.461   5.968  0.3720 -0.0146  0.3432
 4609poe     o220738   6.536   6.477   5.929  0.2390 -0.0308 -0.1348
 4609poe    c2320739   6.611   6.562   6.012  0.4609  0.1133 -0.4834
 4609poe    c2320740   6.606   6.715   5.998 -0.5267  0.0975 -0.3743
 4609poe     o220741   6.501   6.789   6.057  0.0605  0.3177  0.4192
 4609poe    c2320742   6.490   6.793   6.197 -0.4468 -0.1405  0.3969
 4609poe    c2320743   6.391   6.910   6.217 -0.3408 -0.0409  0.3426
 4609poe     o220744   6.444   7.038   6.193 -0.0990 -0.1590  0.2448
 4609poe    c2320745   6.341   7.131   6.215  0.2340  0.0197  1.0896
 4609poe    c2320746   6.386   7.274   6.179 -0.3847  0.0022  0.2322
 4609poe     o220747   6.426   7.306   6.047  0.2230  0.3920  0.5097
 4609poe    c3120748   6.438   7.445   6.025 -0.2910  0.4090  0.3401
 4610poe    c3120749   3.175   3.163   4.775 -0.4363  0.0681  0.4608
 4610poe     o220750   3.262   3.238   4.857  0.4963 -0.4087 -0.0674
 4610poe    c2320751   3.364   3.156   4.908  0.5876 -0.7386 -0.7706
 4610poe    c2320752   3.492   3.240   4.916  0.1312 -0.0988  0.0766
 4610poe     o220753   3.480   3.362   4.986  0.0897  0.2097 -0.4603
 4610poe    c2320754   3.601   3.434   4.998  0.0917  0.1619 -0.1989
 4610poe    c2320755   3.560   3.582   5.002  0.2949  0.2113  0.1002
 4610poe     o220756   3.430   3.598   5.056  0.0955 -0.2973 -0.2234
 4610poe    c2320757   3.402   3.736   5.053 -0.4072 -0.4066 -0.5886
 4610poe    c2320758   3.255   3.771   5.084 -0.1188  0.3161  0.0054
 4610poe     o220759   3.231   3.754   5.222  0.3224 -0.2116  0.0226
 4610poe    c3120760   3.164   3.864   5.279  0.3710 -0.2630  0.1767
 4611poe    c3120761   3.342   5.064   1.127  0.5228  0.2113  0.3023
 4611poe     o220762   3.404   4.953   1.188 -0.0430  0.2574  0.9626
 4611poe    c2320763   3.542   4.977   1.203  0.1479 -0.3299  0.2383
 4611poe    c2320764   3.607   4.876   1.298 -0.5831 -0.2725  0.8130
 4611poe     o220765   3.621   4.744   1.251  0.3912  0.1272 -0.0357
 4611poe    c2320766   3.757   4.733   1.213  0.4922 -0.1140  0.3911
 4611poe    c2320767   3.767   4.608   1.123 -0.3448  0.1306 -0.0506
 4611poe     o220768   3.878   4.597   1.037 -0.2001 -0.1932  0.1763
 4611poe    c2320769   3.875   4.479   0.959 -0.2841 -0.0137 -0.0928
 4611poe    c2320770   3.999   4.433   0.881 -0.3308 -0.3838  0.0496
 4611poe     o220771   4.031   4.519   0.774 -0.1651 -0.3611  0.1160
 4611poe    c3120772   4.144   4.463   0.711 -0.2659 -0.5693  0.1191
 4612poe    c3120773   1.377   5.787   3.652 -0.1299 -0.0381  0.7416
 4612poe     o220774   1.435   5.685   3.573 -0.3527  0.2260  0.2328
 4612poe    c2320775   1.344   5.590   3.524  0.0366 -0.2301  0.3925
 4612poe    c2320776   1.425   5.472   3.467 -0.3433 -0.2771 -0.0601
 4612poe     o220777   1.489   5.489   3.342 -0.4824  0.0707 -0.0848
 4612poe    c2320778   1.406   5.453   3.234  0.5278 -1.3542 -0.4131
 4612poe    c2320779   1.462   5.491   3.096 -0.7386  0.2700 -0.5082
 4612poe     o220780   1.494   5.627   3.074 -0.1254  0.2089 -0.0138
 4612poe    c2320781   1.465   5.676   2.945 -0.6161  0.4915  0.2038
 4612poe    c2320782   1.496   5.825   2.917 -0.5211  0.3810 -0.2793
 4612poe     o220783   1.636   5.843   2.909 -0.5020  0.2668 -0.2054
 4612poe    c3120784   1.692   5.809   2.784 -0.6210  0.2786 -0.2620
 4613poe    c3120785   2.423   6.747   4.027  0.3055  0.5603  0.7163
 4613poe     o220786   2.564   6.751   4.023  0.2856  0.3794 -0.5980
 4613poe    c2320787   2.619   6.868   4.078 -0.6387  0.2121  0.7213
 4613poe    c2320788   2.595   7.004   4.011  0.4390 -0.1198 -0.3685
 4613poe     o220789   2.656   7.033   3.887  0.8734  0.4160 -0.0352
 4613poe    c2320790   2.623   7.156   3.825 -0.3413 -0.1433 -0.5270
 4613poe    c2320791   2.697   7.173   3.692  0.5714 -0.1042 -0.0218
 4613poe     o220792   2.656   7.086   3.588 -0.0664 -0.1295  0.2486
 4613poe    c2320793   2.723   7.115   3.467 -0.4579  0.7494  0.2344
 4613poe    c2320794   2.650   7.072   3.338  0.7819  0.3706 -0.3489
 4613poe     o220795   2.631   6.934   3.319  0.0901  0.3691  0.3114
 4613poe    c3120796   2.546   6.928   3.206 -0.0539 -0.1918  0.4447
 4614poe    c3120797   2.457   6.826   2.453  0.1252 -0.6697 -0.0556
 4614poe     o220798   2.419   6.908   2.344 -0.2626  0.0902  0.6420
 4614poe    c2320799   2.528   6.909   2.255 -0.4278  0.0372  0.4392
 4614poe    c2320800   2.484   6.996   2.136 -0.2177 -0.2119  0.1775
 4614poe     o220801   2.465   7.133   2.165 -0.6838 -0.3342  0.4509
 4614poe    c2320802   2.421   7.202   2.051 -0.6649 -0.4345  0.3825
 4614poe    c2320803   2.334   7.326   2.081 -0.4656 -0.2306  0.1207
 4614poe     o220804   2.386   7.442   2.143 -0.0931 -0.1423 -0.3532
 4614poe    c2320805   2.300   7.547   2.104 -0.5734 -0.4849 -0.2295
 4614poe    c2320806   2.349   7.676   2.173 -0.1818 -1.1524  0.7626
 4614poe     o220807   2.289   7.702   2.297  0.3120  0.8675  0.6196
 4614poe    c3120808   2.382   7.763   2.384  0.1762  0.8802  0.7578
 4615poe    c3120809   3.427   4.408   1.034  0.6046 -0.1691  0.4927
 4615poe     o220810   3.351   4.301   1.086 -0.5647  0.4521  0.0825
 4615poe    c2320811   3.381   4.279   1.221  0.1606 -0.6219 -0.2470
 4615poe    c2320812   3.287   4.165   1.265 -0.1899 -0.2296  0.0277
 4615poe     o220813   3.288   4.063   1.167  0.0571 -0.2848  0.0855
 4615poe    c2320814   3.206   3.959   1.213  0.3796 -0.4570  0.2684
 4615poe    c2320815   3.145   3.886   1.092  0.0502  0.4290 -0.1111
 4615poe     o220816   3.121   3.980   0.990  0.0343  0.1446 -0.3722
 4615poe    c2320817   3.044   3.917   0.890 -0.0387  0.0174 -0.2380
 4615poe    c2320818   2.974   4.021   0.800 -0.3856  0.2175  0.2590
 4615poe     o220819   3.050   4.099   0.711 -0.3761 -0.1622 -0.0711
 4615poe    c3120820   2.986   4.155   0.598 -0.9776 -0.3775  0.1594
 4616poe    c3120821   2.299   5.114   0.468 -0.1813 -0.4786 -0.5348
 4616poe     o220822   2.289   5.031   0.582  0.5201 -0.0412 -0.1434
 4616poe    c2320823   2.374   5.102   0.669  0.2532 -0.1913  0.2439
 4616poe    c2320824   2.354   5.051   0.813 -0.8031 -0.0091  0.1711
 4616poe     o220825   2.384   4.915   0.836  0.7156  0.2921  0.0481
 4616poe    c2320826   2.408   4.901   0.974  0.0088 -0.4594  0.0964
 4616poe    c2320827   2.458   4.762   1.019  0.2354 -0.5781 -0.5161
 4616poe     o220828   2.346   4.676   1.013 -0.3057  0.0680  0.1900
 4616poe    c2320829   2.390   4.547   1.047 -0.0758  0.3029  0.8046
 4616poe    c2320830   2.303   4.426   1.006  0.1047  0.4726 -0.1010
 4616poe     o220831   2.273   4.420   0.869  0.1243 -0.2401 -0.0755
 4616poe    c3120832   2.379   4.362   0.795  0.0633 -0.1222 -0.2550
 4617poe    c3120833   3.181   6.184   6.395 -0.7214  0.1149  0.5480
 4617poe     o220834   3.274   6.269   6.332 -1.4974  0.1815 -0.5484
 4617poe    c2320835   3.331   6.206   6.219 -0.1135 -0.0906  0.2681
 4617poe    c2320836   3.449   6.295   6.176  0.1834 -0.6231 -0.0236
 4617poe     o220837   3.557   6.313   6.266  0.0978  0.0570 -0.0551
 4617poe    c2320838   3.656   6.215   6.248  0.2484  0.2017 -0.0177
 4617poe    c2320839   3.770   6.201   6.351 -0.0591 -0.5317  0.2298
 4617poe     o220840   3.707   6.178   6.475 -0.1005 -0.4185  0.2290
 4617poe    c2320841   3.813   6.166   6.567  0.1689 -0.1203 -0.0409
 4617poe    c2320842   3.781   6.126   6.712 -0.6890  0.2798 -0.1179
 4617poe     o220843   3.727   6.231   6.789 -0.0416  0.4042  0.1694
 4617poe    c3120844   3.636   6.185   6.886  0.3110  0.2545  0.4346
 4618poe    c3120845   1.361   5.938   6.339 -0.0433  0.3936 -0.2721
 4618poe     o220846   1.266   6.029   6.287 -0.2334  0.5488  0.3310
 4618poe    c2320847   1.135   5.986   6.259 -0.1071  0.4094 -0.0552
 4618poe    c2320848   1.048   5.952   6.381  0.1797 -0.4739 -0.0935
 4618poe     o220849   1.050   6.055   6.477 -0.1643 -0.6137  0.0652
 4618poe    c2320850   0.965   6.035   6.588 -0.2408  0.1087  0.1453
 4618poe    c2320851   0.996   6.088   6.729  0.0992  0.3827 -0.0314
 4618poe     o220852   0.908   6.036   6.826  0.0059  0.4429 -0.0836
 4618poe    c2320853   0.905   6.118   6.940 -0.0077  0.1743  0.1097
 4618poe    c2320854   0.792   6.070   7.034  0.0711 -0.2551 -0.0138
 4618poe     o220855   0.670   6.105   6.971  0.0052 -0.4215  0.0219
 4618poe    c3120856   0.575   6.022   7.033 -0.0693 -0.0752  0.3783
 4619poe    c3120857   4.986   0.269   6.833 -0.2513 -0.0155  0.4117
 4619poe     o220858   4.948   0.402   6.864 -0.1790  0.0036  0.4175
 4619poe    c2320859   4.852   0.439   6.768 -0.1131 -0.5718  0.1235
 4619poe    c2320860   4.754   0.547   6.818  0.5480  0.0287  0.1443
 4619poe     o220861   4.665   0.501   6.918  0.3407  0.0541 -0.0287
 4619poe    c2320862   4.576   0.606   6.946  0.0875 -0.2634  0.3692
 4619poe    c2320863   4.473   0.575   7.056 -0.1129  0.1365  0.2979
 4619poe     o220864   4.373   0.485   7.014 -0.1383  0.3755 -0.1478
 4619poe    c2320865   4.284   0.468   7.121 -0.2935 -0.1186 -0.3521
 4619poe    c2320866   4.167   0.372   7.094  0.0556 -0.4634 -0.6473
 4619poe     o220867   4.198   0.238   7.122  0.0023 -0.2455  0.4960
 4619poe    c3120868   4.088   0.163   7.075 -0.3218 -0.0837  0.9837
 4620poe    c3120869   1.651   0.482   5.533  0.1870 -0.2192 -0.4302
 4620poe     o220870   1.580   0.450   5.651  0.2687 -0.7355 -0.5215
 4620poe    c2320871   1.469   0.371   5.615 -0.2770 -0.2661  0.1216
 4620poe    c2320872   1.389   0.339   5.743  0.0217 -0.3815  0.2784
 4620poe     o220873   1.399   0.460   5.814 -0.7261  0.1122 -0.4500
 4620poe    c2320874   1.297   0.462   5.911 -0.3286 -0.1107 -0.0264
 4620poe    c2320875   1.318   0.588   5.996 -0.1233  0.0845 -0.3674
 4620poe     o220876   1.455   0.589   6.028 -0.1870 -0.3534 -0.0714
 4620poe    c2320877   1.480   0.703   6.108  0.1990 -0.1280 -0.5041
 4620poe    c2320878   1.619   0.769   6.101  0.0567  0.2513  0.1846
 4620poe     o220879   1.653   0.817   5.973 -0.2985 -0.1618 -0.0685
 4620poe    c3120880   1.792   0.836   5.962 -0.2695 -0.6334 -0.5638
 4621poe    c3120881   3.716   0.671   0.714  0.1162 -0.0543  0.7617
 4621poe     o220882   3.668   0.782   0.787 -0.3701 -0.0842  0.4908
 4621poe    c2320883   3.628   0.745   0.917 -0.9208 -0.0865  0.3221
 4621poe    c2320884   3.603   0.860   1.017 -0.2161 -0.0318  0.4389
 4621poe     o220885   3.703   0.957   1.034  0.0185 -0.2102  0.1013
 4621poe    c2320886   3.692   1.027   1.156  0.2459 -0.2305  0.1338
 4621poe    c2320887   3.591   1.143   1.159  0.2203 -0.2542  0.2153
 4621poe     o220888   3.642   1.253   1.086  0.2284 -0.4014 -0.0037
 4621poe    c2320889   3.548   1.358   1.098  0.5862 -0.0943  0.1215
 4621poe    c2320890   3.580   1.497   1.040 -0.1051 -0.1899 -0.5105
 4621poe     o220891   3.692   1.557   1.102 -0.4185  0.1716 -0.2912
 4621poe    c3120892   3.766   1.641   1.016  0.2939 -0.0438  0.1034
 4622poe    c3120893   3.253   3.287   1.011 -0.6646  0.0051 -0.1609
 4622poe     o220894   3.299   3.160   0.971 -0.3507  0.1499 -0.2623
 4622poe    c2320895   3.190   3.075   0.945 -0.1117 -0.3143  0.2318
 4622poe    c2320896   3.227   2.925   0.952  0.4616 -0.2081 -0.4126
 4622poe     o220897   3.271   2.872   1.075  0.5899  0.5829 -0.1071
 4622poe    c2320898   3.391   2.801   1.053 -0.2966 -0.6434 -1.1641
 4622poe    c2320899   3.408   2.677   1.142 -0.4147  0.1760  0.0296
 4622poe     o220900   3.385   2.715   1.275 -0.2617  0.3552  0.0057
 4622poe    c2320901   3.364   2.610   1.367  0.3935 -0.2053 -0.4731
 4622poe    c2320902   3.349   2.671   1.508  0.4316  0.1512 -0.6212
 4622poe     o220903   3.242   2.762   1.498  0.0458 -0.2054  0.1227
 4622poe    c3120904   3.247   2.824   1.625  0.1377  0.2367 -0.0930
 4623poe    c3120905   4.114   7.357   4.320 -0.1097 -0.3487  0.0845
 4623poe     o220906   4.193   7.433   4.409  0.1998  0.2076 -0.6558
 4623poe    c2320907   4.198   7.374   4.537  0.2553  0.5560 -0.4949
 4623poe    c2320908   4.266   7.447   4.654  0.6737  0.4567 -0.6733
 4623poe     o220909   4.241   7.586   4.663 -0.3780  0.2104  0.2908
 4623poe    c2320910   4.288   7.646   4.781  0.0840  0.2528  0.0853
 4623poe    c2320911   4.313   7.798   4.780 -0.2498  0.3097  0.2373
 4623poe     o220912   4.209   7.886   4.741 -0.5795  0.0457  0.5213
 4623poe    c2320913   4.220   8.008   4.811 -0.4438  0.2103  0.2129
 4623poe    c2320914   4.094   8.088   4.772 -0.3040  0.4022  0.1543
 4623poe     o220915   4.105   8.152   4.646 -0.0085  0.2437  0.0964
 4623poe    c3120916   3.992   8.229   4.613 -0.4494 -0.3909  0.0922
 4624poe    c3120917   2.191   2.561   6.766  0.1915 -0.0154 -0.3552
 4624poe     o220918   2.054   2.565   6.735  0.2687 -0.1943 -0.7291
 4624poe    c2320919   2.018   2.432   6.703 -0.1397 -0.3118  0.1608
 4624poe    c2320920   1.873   2.435   6.651  0.0116  0.0802 -0.2556
 4624poe     o220921   1.773   2.460   6.748  0.6309  0.1400  0.3737
 4624poe    c2320922   1.644   2.470   6.693  0.6666 -0.1786  0.2313
 4624poe    c2320923   1.532   2.421   6.788  0.8339 -0.5602  0.2354
 4624poe     o220924   1.528   2.482   6.915 -0.1578 -0.6705  0.2648
 4624poe    c2320925   1.591   2.401   7.012  0.3173 -0.2100  0.3404
 4624poe    c2320926   1.604   2.481   7.144  0.1845  0.1530  0.1347
 4624poe     o220927   1.696   2.585   7.120 -0.0031  0.3445  0.2382
 4624poe    c3120928   1.684   2.689   7.214  0.4643  0.2705  0.3842
 4625poe    c3120929   4.884   0.205   3.010 -0.0280  0.6887  0.5005
 4625poe     o220930   4.825   0.081   3.040  0.4184  0.3317 -0.0919
 4625poe    c2320931   4.888  -0.012   2.954  0.1437  0.2755 -0.2343
 4625poe    c2320932   4.823  -0.151   2.973  0.5215  0.2334  0.8597
 4625poe     o220933   4.811  -0.209   3.100  0.0949 -0.1081  0.6639
 4625poe    c2320934   4.744  -0.332   3.079  0.2665 -0.0472 -0.2637
 4625poe    c2320935   4.651  -0.381   3.192  0.1644 -0.0450 -0.3465
 4625poe     o220936   4.574  -0.268   3.225  0.2719 -0.1926  0.4331
 4625poe    c2320937   4.538  -0.280   3.361  0.0161 -0.0058  0.3837
 4625poe    c2320938   4.433  -0.181   3.414 -0.1487  0.0216  0.0105
 4625poe     o220939   4.446  -0.058   3.345  0.1973  0.1590  0.3167
 4625poe    c3120940   4.336   0.021   3.385  0.3568  0.0116  1.0685
 4626poe    c3120941   6.684   0.207   6.699  0.3938 -0.2843  0.3248
 4626poe     o220942   6.606   0.234   6.814 -0.1471  0.4731 -0.2147
 4626poe    c2320943   6.499   0.142   6.826  0.0072  0.3418  0.1599
 4626poe    c2320944   6.394   0.149   6.713 -0.2092  0.7620  0.3839
 4626poe     o220945   6.307   0.259   6.711 -0.9521  0.1741 -0.7201
 4626poe    c2320946   6.186   0.243   6.782 -0.3773 -0.0800  0.2228
 4626poe    c2320947   6.098   0.370   6.779  0.1353  0.2741 -0.0561
 4626poe     o220948   6.149   0.483   6.846  0.5770 -0.0957  0.2433
 4626poe    c2320949   6.046   0.538   6.925  0.4726  0.1026 -0.0283
 4626poe    c2320950   6.102   0.644   7.022 -0.5589  0.5667  0.0727
 4626poe     o220951   6.124   0.773   6.970  0.5914  0.1831 -0.4221
 4626poe    c3120952   6.010   0.855   6.959  0.6347  0.3088  0.0385
 4627poe    c3120953   5.852   0.072   3.883  0.1395 -0.5066  0.5433
 4627poe     o220954   5.731   0.022   3.934 -0.3884  0.2261  0.0392
 4627poe    c2320955   5.644   0.132   3.950 -0.0700  0.4599  0.1633
 4627poe    c2320956   5.506   0.084   3.997 -0.0367  0.5011  0.3059
 4627poe     o220957   5.517   0.075   4.137 -0.3145  0.7346  0.3435
 4627poe    c2320958   5.409   0.008   4.198  0.0657 -0.0751  0.1337
 4627poe    c2320959   5.396   0.028   4.350  0.1250  0.2543  0.0949
 4627poe     o220960   5.480  -0.064   4.415 -0.2053  0.5057  0.8907
 4627poe    c2320961   5.592  -0.002   4.475  0.0721  0.4270  0.4599
 4627poe    c2320962   5.672  -0.119   4.536 -0.2029  0.0335  0.0734
 4627poe     o220963   5.762  -0.192   4.457 -0.2280  0.6728 -0.5538
 4627poe    c3120964   5.837  -0.289   4.528 -0.3472  0.8679 -0.1641
 4628poe    c3120965   0.175   5.997   3.842  0.1753  0.0645 -0.2246
 4628poe     o220966   0.290   6.055   3.900  0.1216 -0.0007 -0.0515
 4628poe    c2320967   0.277   6.195   3.894 -0.2271 -0.0434 -0.3420
 4628poe    c2320968   0.363   6.259   3.783 -0.1782 -0.5558 -0.6021
 4628poe     o220969   0.496   6.227   3.817 -0.0008  0.4342 -0.3278
 4628poe    c2320970   0.572   6.193   3.704  0.2132 -0.4095  0.0609
 4628poe    c2320971   0.706   6.136   3.753  0.3843  0.5509  0.7374
 4628poe     o220972   0.707   6.007   3.811  0.2793  0.2387  0.0579
 4628poe    c2320973   0.831   5.947   3.781  0.0499 -0.3604  0.2867
 4628poe    c2320974   0.816   5.795   3.768 -0.2952 -0.2881 -0.2257
 4628poe     o220975   0.795   5.715   3.882 -0.6548 -0.0136 -0.0979
 4628poe    c3120976   0.786   5.577   3.851  0.1031 -0.1332  0.1718
 4629poe    c3120977   2.329   3.908   6.763 -0.4561 -0.0332 -0.0875
 4629poe     o220978   2.263   4.008   6.837 -0.9046 -0.3060 -0.1127
 4629poe    c2320979   2.171   4.074   6.753 -0.2027  0.4017 -0.3433
 4629poe    c2320980   2.209   4.137   6.618 -0.1439  0.6872 -0.1931
 4629poe     o220981   2.244   4.273   6.634  0.0159  0.5933  0.2913
 4629poe    c2320982   2.293   4.342   6.521 -0.1688  0.2099 -0.0280
 4629poe    c2320983   2.206   4.376   6.399  0.0420 -0.2422 -0.3050
 4629poe     o220984   2.181   4.270   6.310 -0.0623 -0.3890 -0.0993
 4629poe    c2320985   2.103   4.305   6.198  0.2110  0.6468  0.0282
 4629poe    c2320986   2.121   4.421   6.098 -0.0000  0.6763  0.0217
 4629poe     o220987   2.213   4.399   5.994 -0.3737  0.1688 -0.2008
 4629poe    c3120988   2.199   4.480   5.879 -1.0021  0.1668 -0.1247
 4630poe    c3120989   3.930   1.838   2.933  0.6717 -0.9330  0.1241
 4630poe     o220990   3.951   1.948   3.018  0.4446 -0.7698 -0.0332
 4630poe    c2320991   3.966   1.926   3.156  0.3471 -0.7332 -0.0167
 4630poe    c2320992   3.966   2.050   3.247  0.5841 -0.4704 -0.3750
 4630poe     o220993   4.089   2.118   3.253  0.3523 -0.0844  0.0459
 4630poe    c2320994   4.094   2.233   3.336  0.1295 -0.1260  0.1178
 4630poe    c2320995   4.223   2.317   3.332  0.1332 -0.1324  0.0919
 4630poe     o220996   4.344   2.252   3.365  0.4484  0.5864  0.3629
 4630poe    c2320997   4.459   2.332   3.350  0.3622  0.5812 -0.3852
 4630poe    c2320998   4.588   2.272   3.410 -0.3176 -0.2478  0.2609
 4630poe     o220999   4.574   2.264   3.550  0.2231 -0.0516  0.3268
 4630poe    c3121000   4.684   2.198   3.606  0.3206  0.4253  0.7081
 4631poe    c3121001   2.658   1.677   0.168 -0.4104 -0.8854 -0.4658
 4631poe     o221002   2.717   1.718   0.047 -0.1829  0.0703 -0.0330
 4631poe    c2321003   2.812   1.631  -0.011  0.2803  0.7687 -0.3400
 4631poe    c2321004   2.842   1.680  -0.154 -0.2154  1.0837 -0.3385
 4631poe     o221005   2.748   1.673  -0.259 -0.4162  0.0592 -0.0981
 4631poe    c2321006   2.687   1.799  -0.272  0.1297  0.3481  0.0987
 4631poe    c2321007   2.617   1.815  -0.409  0.2451 -0.3337 -0.0440
 4631poe     o221008   2.501   1.739  -0.434 -0.6890  1.1052 -0.1630
 4631poe    c2321009   2.463   1.751  -0.570  0.1201  0.1128 -0.4827
 4631poe    c2321010   2.358   1.643  -0.603 -0.2041  0.1850  0.2817
 4631poe     o221011   2.404   1.518  -0.556  0.0948  0.2096  0.0597
 4631poe    c3121012   2.319   1.407  -0.572  0.0979  0.2829 -0.4997
 4632poe    c3121013   3.246   6.578   2.338  0.3804 -0.2428  0.0104
 4632poe     o221014   3.362   6.614   2.409  0.6972  0.0620 -0.6442
 4632poe    c2321015   3.362   6.753   2.427 -0.6021 -0.0308  0.1668
 4632poe    c2321016   3.496   6.806   2.480 -0.5844 -0.1508  0.2401
 4632poe     o221017   3.517   6.794   2.619  0.0231 -0.2889  0.1393
 4632poe    c2321018   3.629   6.859   2.675  0.0152 -0.4779  0.3748
 4632poe    c2321019   3.670   6.790   2.807  0.4664 -0.7672  0.0843
 4632poe     o221020   3.563   6.729   2.875 -0.1905 -0.0628 -0.2960
 4632poe    c2321021   3.599   6.642   2.980 -0.6567  0.3110  0.1771
 4632poe    c2321022   3.464   6.614   3.049 -0.3540 -0.2227  0.5558
 4632poe     o221023   3.388   6.528   2.966 -0.1341  0.7182 -0.6496
 4632poe    c3121024   3.269   6.500   3.037 -0.1510  0.5125 -0.7592
 4633poe    c3121025   4.275   3.159   0.638 -0.2006  0.4629  0.2528
 4633poe     o221026   4.295   3.230   0.517  0.0237  0.6297  0.3856
 4633poe    c2321027   4.421   3.291   0.508  0.4162 -0.1947  0.1493
 4633poe    c2321028   4.424   3.407   0.407 -0.1885 -0.1483  0.1800
 4633poe     o221029   4.461   3.352   0.283  0.0017 -0.3991  0.3468
 4633poe    c2321030   4.443   3.451   0.184 -0.5144 -0.6437  0.1924
 4633poe    c2321031   4.526   3.451   0.054 -0.2591 -0.1855  0.3518
 4633poe     o221032   4.664   3.480   0.068 -0.2504  0.1969 -0.4822
 4633poe    c2321033   4.744   3.435  -0.039 -0.4478  0.2814 -0.6674
 4633poe    c2321034   4.771   3.283  -0.044  0.3893  0.4006  0.0339
 4633poe     o221035   4.854   3.247   0.064 -0.1256 -0.1365  0.2516
 4633poe    c3121036   4.824   3.110   0.080 -0.6023 -0.1053 -0.3352
 4634poe    c3121037   7.373   7.377   6.989 -0.1384  0.0202 -0.1511
 4634poe     o221038   7.263   7.310   6.931 -0.0526  0.0566 -0.3598
 4634poe    c2321039   7.193   7.395   6.843 -0.7487  0.3973  0.4931
 4634poe    c2321040   7.073   7.334   6.767 -0.3897  0.7162 -0.3450
 4634poe     o221041   7.116   7.285   6.642  0.0498  0.3718 -0.0626
 4634poe    c2321042   7.019   7.254   6.545 -0.0371  0.5363 -0.0286
 4634poe    c2321043   7.078   7.202   6.413  0.7739  0.2927  0.4231
 4634poe     o221044   7.152   7.082   6.410  0.2882 -0.0016 -0.1704
 4634poe    c2321045   7.182   7.039   6.279  0.3693  0.3786 -0.2781
 4634poe    c2321046   7.288   6.928   6.282  0.0340  0.0636 -0.0205
 4634poe     o221047   7.240   6.823   6.364  0.0856 -0.2530 -0.3944
 4634poe    c3121048   7.354   6.743   6.386  0.4492  0.4532  0.3584
 4635poe    c3121049   0.165   2.889   3.683 -1.2356  0.7788 -0.9023
 4635poe     o221050   0.117   2.761   3.717  0.4473  0.3966  0.1462
 4635poe    c2321051   0.133   2.675   3.606  0.0428  0.3567  0.1165
 4635poe    c2321052   0.048   2.547   3.617  0.3381  0.1270 -0.2393
 4635poe     o221053   0.070   2.466   3.731  0.1373  0.3195 -0.0619
 4635poe    c2321054  -0.019   2.360   3.759  0.6348  0.0485  0.5074
 4635poe    c2321055   0.040   2.290   3.883  0.0066 -0.4318  0.5397
 4635poe     o221056   0.047   2.387   3.986 -0.4502  0.3040 -0.1112
 4635poe    c2321057   0.104   2.326   4.100 -0.1013  0.5322 -0.1607
 4635poe    c2321058   0.108   2.438   4.205  0.4135 -0.0936  0.4948
 4635poe     o221059  -0.009   2.467   4.279  0.2020 -0.0340  0.1372
 4635poe    c3121060  -0.009   2.388   4.395 -0.2420 -0.5128 -0.1829
 4636poe    c3121061   1.788   5.103   5.922  0.2514  0.0091 -0.3863
 4636poe     o221062   1.889   5.200   5.914  0.4566 -0.1638  0.0729
 4636poe    c2321063   1.990   5.157   5.826  0.5179 -0.3690  0.2419
 4636poe    c2321064   2.099   5.266   5.830  0.2591 -0.0827 -0.3169
 4636poe     o221065   2.029   5.388   5.826 -0.2256 -0.3453  0.0142
 4636poe    c2321066   2.118   5.497   5.815 -0.2642 -0.3189 -0.0371
 4636poe    c2321067   2.024   5.619   5.820 -0.0336 -0.1616  0.4905
 4636poe     o221068   1.942   5.603   5.933 -0.6488 -0.1141  0.0525
 4636poe    c2321069   1.913   5.728   5.990 -0.0313  0.0763 -0.0445
 4636poe    c2321070   1.823   5.713   6.114  0.0136  0.5071  0.0420
 4636poe     o221071   1.699   5.655   6.081  0.2060  0.0981  0.0292
 4636poe    c3121072   1.623   5.621   6.195  0.2291 -0.3145 -0.0779
 4637poe    c3121073   0.842   1.980   6.911  0.1304 -0.1137 -0.3317
 4637poe     o221074   0.964   1.963   6.978 -0.0427 -0.0880 -0.0072
 4637poe    c2321075   0.980   2.057   7.082 -0.1380 -0.4643  0.3493
 4637poe    c2321076   1.094   2.016   7.177  0.3893  0.0917 -0.0407
 4637poe     o221077   1.069   1.924   7.281  0.5603  0.3255  0.2078
 4637poe    c2321078   1.188   1.891   7.348  0.6002  0.2246  0.0875
 4637poe    c2321079   1.166   1.794   7.465 -0.0413  0.1584 -0.0852
 4637poe     o221080   1.096   1.677   7.428  0.3097 -0.1316  0.1636
 4637poe    c2321081   1.066   1.600   7.542  0.1679 -0.0046  0.2121
 4637poe    c2321082   1.053   1.449   7.513 -0.4245  0.1112 -0.1242
 4637poe     o221083   0.942   1.413   7.434 -0.4490  0.6757 -0.3519
 4637poe    c3121084   0.878   1.305   7.498 -0.3809  0.4607 -0.6454
 4638poe    c3121085   3.382   1.093   7.339 -0.3897 -0.1685  0.0729
 4638poe     o221086   3.419   0.976   7.270 -0.4124 -0.4093  0.4644
 4638poe    c2321087   3.548   0.995   7.215 -0.7811 -0.3953 -0.4131
 4638poe    c2321088   3.620   0.859   7.211  0.5954  0.3044  0.0676
 4638poe     o221089   3.528   0.768   7.156  0.4662  0.3916  0.1378
 4638poe    c2321090   3.594   0.644   7.166 -0.0484  0.0689 -0.3454
 4638poe    c2321091   3.515   0.540   7.085  0.2309 -0.1532 -0.3353
 4638poe     o221092   3.378   0.547   7.116  0.3268 -0.2944  0.1314
 4638poe    c2321093   3.314   0.486   7.006 -0.8084  0.0832  0.5690
 4638poe    c2321094   3.160   0.494   7.006 -0.8190  0.0089 -0.3084
 4638poe     o221095   3.114   0.627   6.995  0.0547  0.3001 -0.4665
 4638poe    c3121096   2.978   0.610   6.964  0.0889 -0.1287 -0.3883
 4639poe    c3121097   6.841   6.025   2.218  0.2718 -0.2165 -0.0227
 4639poe     o221098   6.953   6.104   2.185  0.2019 -0.1975 -0.2177
 4639poe    c2321099   7.031   6.129   2.300 -0.3965 -0.1568  0.1861
 4639poe    c2321100   7.176   6.166   2.262 -0.4642  0.0769  0.1508
 4639poe     o221101   7.196   6.297   2.214  0.1074  0.0106  0.2037
 4639poe    c2321102   7.262   6.384   2.304 -0.3576  0.1838  0.3772
 4639poe    c2321103   7.378   6.453   2.230 -0.3678  0.2199  0.3951
 4639poe     o221104   7.325   6.521   2.118  0.4593 -0.2655 -0.3018
 4639poe    c2321105   7.406   6.635   2.093  0.0853  0.1184  0.2253
 4639poe    c2321106   7.333   6.727   1.994 -0.5397  0.3077  0.8470
 4639poe     o221107   7.206   6.773   2.035 -0.6674  0.1948  0.5824
 4639poe    c3121108   7.150   6.873   1.953  0.4063  0.1255 -0.2636
 4640poe    c3121109   6.745   4.311   1.142  0.0889 -0.0260  0.1060
 4640poe     o221110   6.672   4.371   1.246  0.0247  0.2495 -0.0992
 4640poe    c2321111   6.618   4.266   1.323 -0.1505  0.0169 -0.5352
 4640poe    c2321112   6.548   4.327   1.446  0.2293 -0.2764 -0.1712
 4640poe     o221113   6.648   4.368   1.537 -0.2181  0.0683  0.1743
 4640poe    c2321114   6.642   4.505   1.567 -0.1710  0.0739  0.1567
 4640poe    c2321115   6.548   4.541   1.684 -0.1178  0.1699  0.1707
 4640poe     o221116   6.599   4.494   1.807 -0.2329 -0.7307 -0.1139
 4640poe    c2321117   6.497   4.540   1.892 -0.1416 -0.6006 -0.0744
 4640poe    c2321118   6.526   4.546   2.043  0.0821  0.5766 -0.1532
 4640poe     o221119   6.645   4.610   2.083  0.3098 -0.1272  0.3075
 4640poe    c3121120   6.655   4.621   2.224  0.5217 -0.0369  0.2860
 4641poe    c3121121   1.384   2.981   2.102 -0.4639 -0.0451 -0.2346
 4641poe     o221122   1.247   2.997   2.072 -0.4707  0.5298  0.0890
 4641poe    c2321123   1.168   2.990   2.189 -0.2785  0.2608  0.2044
 4641poe    c2321124   1.022   2.963   2.151 -0.2698 -0.1837  0.4847
 4641poe     o221125   0.996   2.854   2.065 -0.0964 -0.0102  0.2142
 4641poe    c2321126   0.857   2.829   2.068 -0.1230  0.0524 -0.3431
 4641poe    c2321127   0.824   2.694   2.002  0.4408 -0.2198 -0.0769
 4641poe     o221128   0.852   2.589   2.092  0.0824 -0.0614  0.2216
 4641poe    c2321129   0.822   2.465   2.032  0.5813 -0.0144 -0.1276
 4641poe    c2321130   0.791   2.351   2.132  0.6292 -0.4105 -0.5589
 4641poe     o221131   0.900   2.304   2.208  0.1491  0.2738  0.5832
 4641poe    c3121132   0.848   2.214   2.304 -0.4364  0.0938  0.1012
 4642poe    c3121133   6.026   5.192   5.796  0.0403 -0.2442 -0.0943
 4642poe     o221134   5.893   5.223   5.829  0.1576 -0.0613  0.2107
 4642poe    c2321135   5.805   5.139   5.758  0.0262  0.1732  0.0928
 4642poe    c2321136   5.718   5.053   5.852 -0.3752  0.2337 -0.2188
 4642poe     o221137   5.689   5.139   5.960  0.1523  0.0708  0.0550
 4642poe    c2321138   5.630   5.069   6.067  0.2304  0.2965  0.2476
 4642poe    c2321139   5.555   5.157   6.169 -0.1924 -0.2331  0.3995
 4642poe     o221140   5.632   5.262   6.222  0.4124 -0.1820 -0.5555
 4642poe    c2321141   5.560   5.342   6.312  0.1984 -0.2009 -0.7098
 4642poe    c2321142   5.467   5.441   6.239 -0.1202 -0.1862 -0.2873
 4642poe     o221143   5.412   5.544   6.319  0.2531 -0.2015 -0.0055
 4642poe    c3121144   5.343   5.635   6.236  0.3719 -0.1743 -0.0744
 4643poe    c3121145   5.212   6.462   4.586 -0.3961  0.4121 -0.3675
 4643poe     o221146   5.336   6.523   4.612  0.1306 -0.6885 -0.2447
 4643poe    c2321147   5.328   6.663   4.602  0.4466 -0.6518  0.0001
 4643poe    c2321148   5.471   6.712   4.633  0.1869  0.0497  0.1056
 4643poe     o221149   5.532   6.635   4.734  0.9440  0.3866 -0.0850
 4643poe    c2321150   5.593   6.715   4.833  0.0905  0.6538  0.2344
 4643poe    c2321151   5.506   6.798   4.930 -0.9006  0.5940 -0.5829
 4643poe     o221152   5.438   6.712   5.019  0.0339  0.0612 -0.3650
 4643poe    c2321153   5.383   6.781   5.130 -0.0426 -0.1578 -0.2673
 4643poe    c2321154   5.271   6.703   5.203 -0.0630 -0.0709 -0.2063
 4643poe     o221155   5.201   6.783   5.296  0.1661  0.1003 -0.1781
 4643poe    c3121156   5.109   6.721   5.383 -0.1252  0.7537 -0.0182
 4644poe    c3121157   2.366   0.994   3.204  0.4895 -0.3267 -0.8301
 4644poe     o221158   2.497   0.945   3.187  0.6956 -0.1044  0.0407
 4644poe    c2321159   2.582   1.011   3.279  0.1459  0.1229  0.3900
 4644poe    c2321160   2.727   0.968   3.249 -0.0979 -0.5091  0.0749
 4644poe     o221161   2.737   0.978   3.109 -0.5450  0.1709  0.0832
 4644poe    c2321162   2.872   0.968   3.070 -0.5095  0.7550  0.0544
 4644poe    c2321163   2.907   0.915   2.929  0.1642  0.5588  0.2914
 4644poe     o221164   2.839   0.994   2.834 -0.3187 -0.2297 -0.0316
 4644poe    c2321165   2.870   0.941   2.707 -0.1975 -0.2762  0.0177
 4644poe    c2321166   2.800   1.034   2.606  0.1452 -0.2067 -0.1590
 4644poe     o221167   2.668   1.059   2.649  0.4250  0.6004  0.2502
 4644poe    c3121168   2.599   1.115   2.539 -0.1744  0.2387  0.4389
 4645poe    c3121169   2.432   7.132   7.259  0.0863  0.6476 -0.2601
 4645poe     o221170   2.551   7.095   7.325 -0.3315 -0.2082  0.0165
 4645poe    c2321171   2.548   7.099   7.466 -0.1575  0.7019 -0.0012
 4645poe    c2321172   2.677   7.035   7.522 -0.2571  0.2224 -0.3138
 4645poe     o221173   2.782   7.125   7.494  0.3050 -0.3415 -0.0212
 4645poe    c2321174   2.868   7.130   7.606  0.3626 -0.3311 -0.0659
 4645poe    c2321175   2.997   7.046   7.592  0.6834  0.1448  0.0005
 4645poe     o221176   3.070   7.044   7.471  0.4751 -0.0219 -0.1258
 4645poe    c2321177   3.192   6.973   7.476  0.4514 -0.0409  0.2462
 4645poe    c2321178   3.182   6.819   7.471  0.1284 -0.0206  0.1940
 4645poe     o221179   3.143   6.759   7.350 -0.6550 -0.3136  0.5885
 4645poe    c3121180   3.203   6.632   7.339  0.1307  0.1269 -0.3207
 4646poe    c3121181   1.894   0.795   7.318  0.5529  0.6438 -0.4465
 4646poe     o221182   1.912   0.803   7.457 -0.7239  0.0029 -0.2350
 4646poe    c2321183   1.872   0.927   7.512  0.2204  0.1263  0.1921
 4646poe    c2321184   1.925   0.923   7.656 -0.2031 -0.5987  0.3359
 4646poe     o221185   2.061   0.887   7.649 -0.1915 -0.5391  0.2584
 4646poe    c2321186   2.131   0.936   7.761 -0.5284 -0.5527  0.4747
 4646poe    c2321187   2.280   0.901   7.749 -0.4883 -0.3251  0.3073
 4646poe     o221188   2.280   0.764   7.714 -0.2696 -0.2099 -0.1664
 4646poe    c2321189   2.412   0.716   7.722 -0.0093  0.5782  0.3960
 4646poe    c2321190   2.423   0.576   7.659  0.5446  0.8003 -0.0065
 4646poe     o221191   2.328   0.558   7.557  0.9457 -0.0433 -0.2429
 4646poe    c3121192   2.322   0.428   7.504  0.4375 -0.1905  0.1706
 4647poe    c3121193   2.912   0.981   6.841  0.2122  0.1975  0.0775
 4647poe     o221194   2.875   0.959   6.976 -0.2016 -0.2965 -0.1145
 4647poe    c2321195   2.739   0.989   6.996 -0.1026 -0.0831  0.2546
 4647poe    c2321196   2.672   0.900   7.102  0.2084 -0.2837  0.2849
 4647poe     o221197   2.698   0.957   7.229  0.3900  0.1532  0.0526
 4647poe    c2321198   2.709   0.859   7.329 -0.1963  0.8040  0.7631
 4647poe    c2321199   2.801   0.908   7.444  0.2555  0.2738  0.6283
 4647poe     o221200   2.936   0.897   7.407  0.0881 -0.1819  0.1263
 4647poe    c2321201   3.025   0.845   7.503  0.5285  0.1639 -0.0887
 4647poe    c2321202   3.007   0.708   7.569 -0.2667  0.2785 -0.0571
 4647poe     o221203   2.890   0.710   7.647 -0.2169 -0.0703  0.0290
 4647poe    c3121204   2.844   0.593   7.712 -0.3743  0.2046  0.4123
 4648poe    c3121205   3.286   2.210   3.437 -0.3012  0.3109 -0.7136
 4648poe     o221206   3.301   2.076   3.395  0.0314  0.1340 -0.0404
 4648poe    c2321207   3.436   2.036   3.397 -0.1624 -0.5489 -0.1250
 4648poe    c2321208   3.487   1.986   3.261 -0.2547  0.1567 -0.4196
 4648poe     o221209   3.527   2.090   3.174 -0.5853  0.4402 -0.2423
 4648poe    c2321210   3.583   2.027   3.060  0.0583  0.5299  0.0176
 4648poe    c2321211   3.694   2.110   2.993  0.5250  0.0196  0.1544
 4648poe     o221212   3.628   2.231   2.965  0.4629 -0.1139 -0.2703
 4648poe    c2321213   3.718   2.322   2.904  0.2565  0.2665 -0.0057
 4648poe    c2321214   3.613   2.429   2.867 -0.2839 -0.3752 -0.3461
 4648poe     o221215   3.529   2.450   2.978  0.9305  0.6232  0.4066
 4648poe    c3121216   3.433   2.550   2.953  0.3225 -0.1772 -0.5421
 4649poe    c3121217   4.430   3.753   3.278 -0.2917  0.2782  0.0707
 4649poe     o221218   4.309   3.692   3.318 -0.0154 -0.5854 -0.3760
 4649poe    c2321219   4.259   3.747   3.438  0.3769 -0.5145 -0.2434
 4649poe    c2321220   4.115   3.698   3.459  0.4522 -0.4539  0.4256
 4649poe     o221221   4.106   3.558   3.471 -0.4317 -0.4472 -0.1095
 4649poe    c2321222   3.999   3.525   3.557 -0.5780  0.1888 -0.0455
 4649poe    c2321223   3.991   3.372   3.562 -0.3412  0.1746 -0.0946
 4649poe     o221224   4.009   3.313   3.435  0.0999  0.0730  0.0121
 4649poe    c2321225   3.930   3.197   3.422 -0.1604  0.2431  0.0653
 4649poe    c2321226   3.991   3.112   3.309 -0.1487  0.2534  0.0635
 4649poe     o221227   4.005   3.167   3.180 -0.0489 -0.2059 -0.1226
 4649poe    c3121228   3.952   3.070   3.093  0.0525  0.1888 -0.6264
 4650poe    c3121229   4.619   2.066   6.305  0.1742  0.4128 -0.5222
 4650poe     o221230   4.633   2.206   6.310 -0.0443  0.4334 -0.4790
 4650poe    c2321231   4.671   2.266   6.432  0.1585 -0.2603 -0.2011
 4650poe    c2321232   4.564   2.330   6.522 -0.2202 -0.4554 -0.5106
 4650poe     o221233   4.477   2.413   6.448  0.2988  0.2046 -0.3865
 4650poe    c2321234   4.396   2.494   6.531  0.2777 -0.0360 -0.1713
 4650poe    c2321235   4.336   2.608   6.447 -0.3369 -0.0458  0.2493
 4650poe     o221236   4.243   2.566   6.350  0.2291 -0.0020 -0.3203
 4650poe    c2321237   4.162   2.668   6.296 -0.6746 -0.5161  0.0332
 4650poe    c2321238   4.080   2.612   6.178 -0.2124 -0.5243 -0.2867
 4650poe     o221239   4.125   2.615   6.044  0.0541 -0.1253 -0.1888
 4650poe    c3121240   4.025   2.592   5.948 -0.3638  0.5179  0.0877
 4651poe    c3121241   3.383   5.308   5.595 -0.7380 -0.2335  0.1537
 4651poe     o221242   3.368   5.168   5.579 -0.0893 -0.3063  0.1384
 4651poe    c2321243   3.424   5.136   5.453 -0.4155  0.1909 -0.1385
 4651poe    c2321244   3.452   4.985   5.437 -0.0230  0.2154  0.2857
 4651poe     o221245   3.528   4.924   5.539 -0.3692 -0.7578 -0.0302
 4651poe    c2321246   3.666   4.922   5.513 -0.2138  0.2056  0.6577
 4651poe    c2321247   3.766   4.911   5.629 -0.1736  0.2325  0.6259
 4651poe     o221248   3.787   5.034   5.695 -0.6188  0.2926  0.6550
 4651poe    c2321249   3.854   5.016   5.817  0.5507 -0.3262 -0.0588
 4651poe    c2321250   3.889   5.142   5.899  0.0884 -0.2232 -0.0178
 4651poe     o221251   3.769   5.205   5.940  0.0567 -0.2537 -0.0635
 4651poe    c3121252   3.794   5.322   6.014 -0.4217 -0.1345 -0.0898
 4652poe    c3121253   5.976   1.796   4.015 -0.2514  0.1946  0.0537
 4652poe     o221254   6.015   1.704   4.114 -0.1762 -0.1618 -0.3039
 4652poe    c2321255   6.135   1.633   4.092 -0.0878 -0.0165 -0.2895
 4652poe    c2321256   6.179   1.572   4.226  0.4015 -0.5896 -0.7052
 4652poe     o221257   6.089   1.473   4.269 -0.0553  0.3788  0.6345
 4652poe    c2321258   6.126   1.430   4.398  0.5889  0.0439  0.3449
 4652poe    c2321259   6.049   1.298   4.422  0.4982 -0.0866 -0.6367
 4652poe     o221260   5.919   1.326   4.376  0.5155  0.0278 -0.6192
 4652poe    c2321261   5.837   1.212   4.394  0.2742  0.2127 -0.5413
 4652poe    c2321262   5.702   1.225   4.322 -0.1616  0.0832  0.2386
 4652poe     o221263   5.717   1.313   4.213 -0.1413 -0.2631 -0.0375
 4652poe    c3121264   5.613   1.298   4.118 -0.2012  0.1695 -0.0447
 4653poe    c3121265   0.903   4.814   5.325  0.5438 -0.1920  0.6557
 4653poe     o221266   0.899   4.690   5.392 -0.0966 -0.4154  0.2091
 4653poe    c2321267   0.996   4.603   5.338  0.4690  0.2603  0.1154
 4653poe    c2321268   0.982   4.467   5.410  0.7393  0.1277 -0.0783
 4653poe     o221269   1.019   4.482   5.545  0.3131 -0.0618  0.0626
 4653poe    c2321270   1.049   4.363   5.615 -0.7267 -0.1940  0.3024
 4653poe    c2321271   1.111   4.374   5.755  0.0439  0.2774 -0.0635
 4653poe     o221272   1.023   4.416   5.857  0.0569 -0.1899  0.1477
 4653poe    c2321273   1.078   4.370   5.978 -0.3514 -0.6395  0.1619
 4653poe    c2321274   1.064   4.458   6.103 -0.3537 -0.1846 -0.1588
 4653poe     o221275   1.131   4.581   6.086  0.0532 -0.4257 -0.3038
 4653poe    c3121276   1.163   4.639   6.210  0.5720 -0.1030 -0.5815
 4654poe    c3121277   6.190   3.894   3.337  0.0805  0.0687  0.2836
 4654poe     o221278   6.108   3.891   3.452  0.0603 -1.0178  0.2536
 4654poe    c2321279   5.969   3.880   3.429  0.1007 -0.1997 -0.4329
 4654poe    c2321280   5.914   3.741   3.392  0.5614 -0.4551 -0.1612
 4654poe     o221281   5.886   3.658   3.502  0.0626 -0.2664 -0.1456
 4654poe    c2321282   5.850   3.532   3.449  0.0355 -0.2432 -0.1826
 4654poe    c2321283   5.698   3.508   3.458  0.1312 -0.6582  0.3743
 4654poe     o221284   5.647   3.500   3.589  0.1407 -0.7000  0.3753
 4654poe    c2321285   5.507   3.482   3.584 -0.0343  0.6782  0.0721
 4654poe    c2321286   5.440   3.459   3.721  0.0024  0.4760  0.0568
 4654poe     o221287   5.468   3.567   3.807  0.3709  0.4094  0.0225
 4654poe    c3121288   5.455   3.522   3.940  0.7656  0.3479  0.0410
 4655poe    c3121289   0.242   1.796   3.200  0.5601  0.4926 -0.7438
 4655poe     o221290   0.207   1.681   3.128  0.0389  0.0499  0.2007
 4655poe    c2321291   0.066   1.670   3.137 -0.0113  0.7186  0.2394
 4655poe    c2321292   0.004   1.586   3.024  0.5115  0.0976  0.4057
 4655poe     o221293   0.091   1.484   2.981  0.1566  0.1095 -0.3586
 4655poe    c2321294   0.043   1.379   2.901  0.0904  0.1671 -0.3947
 4655poe    c2321295   0.117   1.250   2.942 -0.1719  0.1878  0.1406
 4655poe     o221296   0.255   1.278   2.934 -0.1061 -0.0729  0.3275
 4655poe    c2321297   0.331   1.160   2.930 -0.1009 -0.0528 -0.4314
 4655poe    c2321298   0.482   1.174   2.904 -0.0189  0.5131  0.3091
 4655poe     o221299   0.495   1.241   2.780 -0.0624 -0.0458 -0.0004
 4655poe    c3121300   0.634   1.257   2.763 -0.0375 -0.3652 -0.1115
 4656poe    c3121301   4.241   6.506   2.619 -0.3695 -0.5976  0.0152
 4656poe     o221302   4.309   6.426   2.524  0.4249 -0.2749  0.2997
 4656poe    c2321303   4.448   6.423   2.544  0.4760  0.7388  0.1529
 4656poe    c2321304   4.533   6.381   2.423 -0.1140 -0.4171  0.1314
 4656poe     o221305   4.478   6.260   2.375 -0.6161 -0.0271 -0.3004
 4656poe    c2321306   4.574   6.180   2.310 -0.4880  0.1298 -0.3052
 4656poe    c2321307   4.498   6.054   2.263 -0.1804 -0.0782 -0.2476
 4656poe     o221308   4.398   6.067   2.165 -1.2774  0.1405  0.8742
 4656poe    c2321309   4.322   5.949   2.155  0.2780 -0.8181 -0.1470
 4656poe    c2321310   4.201   5.970   2.062 -0.0923 -0.3000  0.4441
 4656poe     o221311   4.127   6.082   2.104 -0.4798 -0.3281 -0.1474
 4656poe    c3121312   4.027   6.115   2.011 -0.6258 -0.3805 -0.0108
 4657poe    c3121313   5.769   3.231   6.834  0.0273  0.4750 -0.6788
 4657poe     o221314   5.888   3.249   6.907 -0.6829  0.0228  0.6187
 4657poe    c2321315   5.961   3.128   6.900  0.5067  0.7617 -0.1030
 4657poe    c2321316   6.029   3.090   7.033  0.0545  0.1587 -0.0450
 4657poe     o221317   5.939   3.098   7.141 -0.3522 -0.1545 -0.3529
 4657poe    c2321318   5.989   3.018   7.246 -0.4459 -0.0646 -0.2395
 4657poe    c2321319   5.890   2.997   7.362 -0.5376  0.0376 -0.2981
 4657poe     o221320   5.858   3.121   7.421 -0.0436  0.1037 -0.1635
 4657poe    c2321321   5.719   3.145   7.423 -0.0167  0.2265  0.2059
 4657poe    c2321322   5.664   3.228   7.541 -0.1611  0.1118  0.2197
 4657poe     o221323   5.661   3.156   7.662 -0.5171 -0.4134 -0.0981
 4657poe    c3121324   5.626   3.240   7.769  0.3476  0.3427 -0.3941
 4658poe    c3121325   5.155   5.265   1.671 -0.4518  0.0982  0.1881
 4658poe     o221326   5.236   5.292   1.783  0.3224 -0.0300 -0.3326
 4658poe    c2321327   5.370   5.313   1.743  0.5001 -0.2550  0.1428
 4658poe    c2321328   5.479   5.297   1.851  0.5442  0.0371  0.1407
 4658poe     o221329   5.493   5.160   1.879  0.1370 -0.0372 -0.0086
 4658poe    c2321330   5.609   5.123   1.950  0.1224 -0.6439 -0.2940
 4658poe    c2321331   5.734   5.118   1.859  0.0810 -0.0161 -0.3905
 4658poe     o221332   5.724   5.009   1.770  0.0342  0.0127 -0.4204
 4658poe    c2321333   5.832   5.019   1.680  0.7818  0.3017  0.4819
 4658poe    c2321334   5.818   5.140   1.586  0.7179 -0.1063 -0.0396
 4658poe     o221335   5.830   5.275   1.625  0.2113  0.0437 -0.3885
 4658poe    c3121336   5.801   5.357   1.514  0.2158  0.8520  0.1939
 4659poe    c3121337   6.454   5.716   6.119  0.2872 -0.0438  0.7267
 4659poe     o221338   6.365   5.611   6.149 -0.1080  0.0626 -0.0320
 4659poe    c2321339   6.373   5.588   6.288  0.0574 -0.0002 -0.0522
 4659poe    c2321340   6.230   5.553   6.334 -0.0436  0.1175 -0.2766
 4659poe     o221341   6.202   5.415   6.323 -0.3784  0.2077 -0.5444
 4659poe    c2321342   6.075   5.367   6.360 -0.2834  0.2676 -0.1362
 4659poe    c2321343   6.065   5.215   6.384  0.6512  0.2328  0.0377
 4659poe     o221344   6.057   5.150   6.260 -0.1648 -0.3247  0.3789
 4659poe    c2321345   6.026   5.014   6.282 -0.5865 -0.3604 -0.3834
 4659poe    c2321346   6.076   4.939   6.157 -0.4022  0.1526 -0.6189
 4659poe     o221347   6.216   4.944   6.143 -0.3980  0.0396 -0.6083
 4659poe    c3121348   6.279   4.838   6.213 -0.8068 -0.1974 -0.5947
 4660poe    c3121349   6.367   6.291   7.217 -0.0408  0.1751 -0.5153
 4660poe     o221350   6.444   6.190   7.155  0.2914  0.1879 -0.1302
 4660poe    c2321351   6.472   6.097   7.257 -0.0342  0.0836 -0.1337
 4660poe    c2321352   6.548   5.969   7.217 -0.2663  0.2579 -1.1605
 4660poe     o221353   6.682   6.014   7.210  0.0014 -0.3840 -0.3782
 4660poe    c2321354   6.770   5.910   7.176 -0.0538 -0.4957 -0.1802
 4660poe    c2321355   6.920   5.944   7.160 -0.1097 -0.0095  0.3075
 4660poe     o221356   6.995   5.825   7.149 -0.5189 -0.2223 -0.2670
 4660poe    c2321357   7.130   5.852   7.121 -0.4067 -0.4727  0.0251
 4660poe    c2321358   7.224   5.730   7.128 -0.1591 -0.2917 -0.1420
 4660poe     o221359   7.195   5.665   7.250 -0.6372 -0.2317 -0.2216
 4660poe    c3121360   7.244   5.533   7.236  0.0244 -0.0242  0.0935
 4661poe    c3121361   5.848   5.428   4.707 -0.2524 -0.1883 -0.2380
 4661poe     o221362   5.907   5.544   4.760 -0.0127  0.0274 -0.9551
 4661poe    c2321363   6.021   5.495   4.828 -0.3373  0.5545 -0.0008
 4661poe    c2321364   6.134   5.597   4.851 -0.4053  0.7594 -0.5377
 4661poe     o221365   6.211   5.616   4.735  0.2084 -0.0336 -0.2798
 4661poe    c2321366   6.318   5.706   4.752  0.7227 -0.5837 -0.6011
 4661poe    c2321367   6.410   5.710   4.628  0.6634 -0.2532 -0.6341
 4661poe     o221368   6.339   5.747   4.512  0.2481  0.3897 -0.1812
 4661poe    c2321369   6.419   5.734   4.397 -0.2552  0.2286 -0.5145
 4661poe    c2321370   6.370   5.816   4.277  0.3313  0.8738 -0.3159
 4661poe     o221371   6.241   5.783   4.231  0.5288 -0.2393 -0.0777
 4661poe    c3121372   6.215   5.858   4.115 -0.2491 -0.1425  0.1545
 4662poe    c3121373   1.720   6.602   3.691  0.0115  0.4474  0.3490
 4662poe     o221374   1.790   6.682   3.599 -0.1788  0.1539 -0.0583
 4662poe    c2321375   1.766   6.652   3.463 -0.4320  0.2171 -0.0277
 4662poe    c2321376   1.906   6.638   3.401 -0.4766  0.0172 -0.0823
 4662poe     o221377   1.980   6.742   3.460 -0.3444 -0.1147 -0.0133
 4662poe    c2321378   2.109   6.732   3.403 -0.4317  0.3222 -0.2972
 4662poe    c2321379   2.198   6.854   3.428 -0.5646  0.3012  0.3040
 4662poe     o221380   2.234   6.859   3.564 -0.4730  0.3984  0.2764
 4662poe    c2321381   2.302   6.983   3.572 -0.0264  0.1582  0.2492
 4662poe    c2321382   2.296   7.026   3.720 -0.4526 -0.0887  0.3067
 4662poe     o221383   2.165   7.048   3.765 -0.4846  0.4967 -0.0674
 4662poe    c3121384   2.164   7.039   3.906 -0.4503 -0.0201 -0.0993
 4663poe    c3121385   2.428   4.488   6.822 -0.0756 -0.1714 -0.3187
 4663poe     o221386   2.481   4.557   6.933 -0.0084  0.0261 -0.4734
 4663poe    c2321387   2.398   4.665   6.970 -0.1065 -0.3085  0.2951
 4663poe    c2321388   2.457   4.745   7.088  0.0689 -0.3588  0.2426
 4663poe     o221389   2.578   4.805   7.047 -0.0679 -0.2208  0.0361
 4663poe    c2321390   2.669   4.843   7.147 -0.1526 -0.0908  0.0632
 4663poe    c2321391   2.678   4.997   7.149  0.9524 -0.1470  0.3184
 4663poe     o221392   2.732   5.067   7.039  0.1664 -0.2234 -0.1266
 4663poe    c2321393   2.654   5.098   6.926  0.2041  0.0218 -0.0853
 4663poe    c2321394   2.522   5.177   6.933  0.1926  0.0117 -0.1785
 4663poe     o221395   2.556   5.297   6.997 -0.0529  0.4984 -0.9476
 4663poe    c3121396   2.447   5.384   7.021 -0.5990 -0.3500 -0.3261
 4664poe    c3121397   2.990   6.883   3.722  0.1753 -0.2332  0.4966
 4664poe     o221398   2.916   6.774   3.771 -0.1848 -0.3145 -0.2177
 4664poe    c2321399   2.889   6.788   3.908 -0.1454  0.6705 -0.3022
 4664poe    c2321400   2.863   6.646   3.964  0.7076  0.6064 -0.0564
 4664poe     o221401   2.990   6.591   3.993  0.3620  0.0691  0.4455
 4664poe    c2321402   3.001   6.458   4.039  0.1079 -0.1087  0.0046
 4664poe    c2321403   2.984   6.445   4.192 -0.3340 -0.5418 -0.0799
 4664poe     o221404   2.848   6.473   4.220 -0.2363  0.1121 -0.2278
 4664poe    c2321405   2.790   6.458   4.347  0.3514  0.2608  0.0622
 4664poe    c2321406   2.647   6.508   4.373  0.1220 -0.0515 -0.5776
 4664poe     o221407   2.625   6.647   4.368  0.0390 -0.0505 -0.2613
 4664poe    c3121408   2.490   6.663   4.405 -0.0469 -0.2235 -0.4971
 4665poe    c3121409   1.392   2.671   0.044  0.0669 -0.4581 -0.1763
 4665poe     o221410   1.483   2.726   0.137 -0.1690 -0.0614 -0.1795
 4665poe    c2321411   1.482   2.651   0.256  0.7876  0.2153  0.0088
 4665poe    c2321412   1.512   2.728   0.386 -0.1749 -0.3424  0.5720
 4665poe     o221413   1.648   2.761   0.400 -0.2930  0.3467  0.1465
 4665poe    c2321414   1.669   2.775   0.539  0.2671 -0.2574  0.1258
 4665poe    c2321415   1.790   2.863   0.574 -0.2167  0.5110 -0.1098
 4665poe     o221416   1.811   3.001   0.553  0.0822  0.3904 -0.6077
 4665poe    c2321417   1.808   3.046   0.420  0.0595 -0.2641 -0.8349
 4665poe    c2321418   1.855   3.190   0.389 -0.0013  0.1992  1.1210
 4665poe     o221419   1.993   3.208   0.408  0.1876  0.2389 -0.2342
 4665poe    c3121420   2.046   3.310   0.326  0.0762  0.5130  0.0348
 4666poe    c3121421   0.743   1.382   5.012  0.2746  0.2235 -0.5473
 4666poe     o221422   0.786   1.418   4.882  0.0841  0.3654 -0.5716
 4666poe    c2321423   0.675   1.448   4.801 -0.5572  0.2608  0.2561
 4666poe    c2321424   0.702   1.512   4.664  0.1721  0.1655  0.3515
 4666poe     o221425   0.810   1.444   4.606  0.2393  0.4120  0.1839
 4666poe    c2321426   0.867   1.505   4.492 -0.5118  0.9160  0.0720
 4666poe    c2321427   0.795   1.476   4.359  0.3275  0.6269 -0.3245
 4666poe     o221428   0.788   1.345   4.308 -0.3241  0.7040 -0.4362
 4666poe    c2321429   0.686   1.321   4.213 -0.2913 -0.1891 -0.2495
 4666poe    c2321430   0.703   1.377   4.071 -0.1895  0.0874 -0.1284
 4666poe     o221431   0.680   1.516   4.069 -0.0643  0.1063 -0.3108
 4666poe    c3121432   0.678   1.557   3.934 -0.5170  0.3286 -0.2414
 4667poe    c3121433   0.141   4.086   7.061 -0.3563  0.1751 -0.0919
 4667poe     o221434   0.245   4.180   7.047 -0.2434  0.0261 -0.2532
 4667poe    c2321435   0.277   4.202   6.911 -0.2960  0.1873 -0.2394
 4667poe    c2321436   0.354   4.331   6.880 -0.4401  0.3231 -0.0269
 4667poe     o221437   0.300   4.458   6.912 -0.9433  0.1755 -0.2818
 4667poe    c2321438   0.373   4.571   6.872  0.0027 -0.3582 -0.0841
 4667poe    c2321439   0.442   4.625   6.998 -0.1988  0.2342 -0.2259
 4667poe     o221440   0.348   4.638   7.103 -0.2624 -0.3244 -0.2153
 4667poe    c2321441   0.388   4.715   7.214  0.4516 -0.2112 -0.5479
 4667poe    c2321442   0.276   4.757   7.310  0.4740 -0.3973 -0.4391
 4667poe     o221443   0.184   4.653   7.335  0.2354 -0.0335  0.2426
 4667poe    c3121444   0.228   4.554   7.425 -0.3013 -0.0788  0.4595
 4668poe    c3121445   7.190   3.374   4.369  0.1579  0.0033 -0.3065
 4668poe     o221446   7.179   3.233   4.366  0.2141 -0.0023 -0.2531
 4668poe    c2321447   7.053   3.199   4.313 -0.0721 -0.1874  0.5369
 4668poe    c2321448   7.065   3.080   4.216  0.7710  0.4167 -0.1180
 4668poe     o221449   7.079   2.947   4.260 -0.2713  0.2559 -0.2369
 4668poe    c2321450   6.955   2.891   4.299  0.0563 -0.1040  0.3057
 4668poe    c2321451   6.962   2.741   4.333  0.0991 -0.0625  0.4829
 4668poe     o221452   7.065   2.723   4.428  0.5341  0.1637  0.0576
 4668poe    c2321453   7.104   2.588   4.434 -0.0493 -0.0162 -0.1376
 4668poe    c2321454   7.186   2.560   4.561 -0.0612  0.0814 -0.1085
 4668poe     o221455   7.300   2.642   4.574  0.4005 -0.4351 -0.8667
 4668poe    c3121456   7.407   2.584   4.647 -0.1247 -0.0474  0.2291
 4669poe    c3121457   6.374   3.110   5.333 -0.4790  0.7036 -0.4126
 4669poe     o221458   6.237   3.093   5.361 -0.3311  0.2842  0.0653
 4669poe    c2321459   6.189   3.225   5.375 -0.1541  0.2943  0.5903
 4669poe    c2321460   6.052   3.251   5.309 -0.3566 -0.1159  0.8422
 4669poe     o221461   5.945   3.166   5.343  0.0402 -0.7770  0.4639
 4669poe    c2321462   5.866   3.190   5.457 -0.4187 -0.0036 -0.0097
 4669poe    c2321463   5.765   3.076   5.474 -0.2396 -0.2145 -0.3499
 4669poe     o221464   5.838   2.958   5.502 -0.1408 -0.0829 -0.0521
 4669poe    c2321465   5.766   2.845   5.546  0.1523 -0.1200  0.3317
 4669poe    c2321466   5.877   2.748   5.589 -0.5622 -1.0696  0.0649
 4669poe     o221467   5.971   2.710   5.491 -0.6910 -0.1130 -0.4327
 4669poe    c3121468   5.917   2.621   5.396 -0.3270 -0.4297 -0.3450
 4670poe    c3121469   5.464   2.969   6.032 -0.2678  0.1220  0.3629
 4670poe     o221470   5.539   2.966   6.151  0.2753 -0.0769  0.0184
 4670poe    c2321471   5.623   2.853   6.158  0.5403  0.0670 -0.7124
 4670poe    c2321472   5.669   2.830   6.303  0.3266 -0.4028 -0.7146
 4670poe     o221473   5.764   2.927   6.341 -0.2853 -0.1457  0.1764
 4670poe    c2321474   5.810   2.898   6.471  0.0222  0.5386  0.2251
 4670poe    c2321475   5.917   2.999   6.519 -0.1895  0.5212  0.7438
 4670poe     o221476   5.879   3.123   6.466  0.0395  0.2899  0.0232
 4670poe    c2321477   5.951   3.230   6.523  0.0873  0.2574  0.0228
 4670poe    c2321478   5.885   3.361   6.478  0.2262  0.3015 -0.0543
 4670poe     o221479   5.903   3.351   6.339  0.5143  0.4483 -0.0284
 4670poe    c3121480   5.849   3.457   6.264 -0.2165 -0.1460 -0.3532
 4671poe    c3121481   0.870   3.831   2.546  0.7814  0.5039 -0.4622
 4671poe     o221482   0.828   3.963   2.574 -0.1302  0.0784  0.2427
 4671poe    c2321483   0.917   4.067   2.539  0.1634 -0.0584  0.5855
 4671poe    c2321484   0.885   4.211   2.582 -0.1704 -0.1332  0.5860
 4671poe     o221485   0.766   4.276   2.543  0.3633  0.7935  0.4666
 4671poe    c2321486   0.791   4.359   2.432  0.4033  0.0865 -0.0621
 4671poe    c2321487   0.668   4.440   2.386  0.2744 -0.0025  0.1252
 4671poe     o221488   0.564   4.345   2.386  0.0145  0.2757 -0.3867
 4671poe    c2321489   0.452   4.398   2.319  0.4196  0.8251 -0.6327
 4671poe    c2321490   0.347   4.286   2.313  0.5682  0.6518 -0.0376
 4671poe     o221491   0.336   4.222   2.438  0.1510 -0.0987 -0.4540
 4671poe    c3121492   0.227   4.132   2.444  0.1934 -0.1512 -0.4792
 4672poe    c3121493   4.615   5.580   5.933 -0.4723  0.5321  0.3702
 4672poe     o221494   4.493   5.525   5.888 -0.0952 -0.3634  0.4038
 4672poe    c2321495   4.522   5.428   5.791  0.3989  0.2571 -0.0824
 4672poe    c2321496   4.392   5.364   5.736  0.5188  0.0615 -0.1424
 4672poe     o221497   4.322   5.449   5.648 -0.1847 -0.4947 -0.1260
 4672poe    c2321498   4.198   5.405   5.598 -0.2557 -0.3284 -0.0966
 4672poe    c2321499   4.192   5.279   5.510  0.5320 -0.4081 -0.0454
 4672poe     o221500   4.264   5.297   5.391  0.7663  0.0394  0.1650
 4672poe    c2321501   4.218   5.202   5.298  0.0321 -0.2238  0.7911
 4672poe    c2321502   4.314   5.175   5.181 -0.1413 -0.0930  0.6181
 4672poe     o221503   4.309   5.278   5.084  0.4340 -0.3547  0.3041
 4672poe    c3121504   4.366   5.226   4.966  0.7857  1.0225 -0.1445
 4673poe    c3121505   2.439   6.736   1.417 -0.5433 -0.4377 -0.2357
 4673poe     o221506   2.485   6.811   1.307  0.3408 -0.4127  0.1482
 4673poe    c2321507   2.394   6.783   1.203 -0.0256  0.1754  0.3118
 4673poe    c2321508   2.388   6.888   1.090  0.6578 -0.1161  0.0010
 4673poe     o221509   2.520   6.936   1.077  0.6955 -0.1709  0.1661
 4673poe    c2321510   2.513   7.057   1.004  0.3399 -0.0543  0.3939
 4673poe    c2321511   2.637   7.148   1.010 -0.0204  0.4263  0.5456
 4673poe     o221512   2.749   7.082   0.956 -0.3278  0.0882  0.3152
 4673poe    c2321513   2.873   7.149   0.964 -0.2729  0.0865 -0.4600
 4673poe    c2321514   2.981   7.057   0.904  0.0117 -0.0878  0.3141
 4673poe     o221515   2.977   6.928   0.961  0.1611  0.0579  0.6598
 4673poe    c3121516   3.081   6.849   0.906 -0.7318 -0.3792 -0.4325
 4674poe    c3121517   1.308   0.980   4.662 -0.4826 -0.0034 -0.1963
 4674poe     o221518   1.276   0.844   4.642  0.3334 -0.2355  0.0540
 4674poe    c2321519   1.234   0.817   4.510  0.9772 -0.7821 -0.0485
 4674poe    c2321520   1.217   0.667   4.481 -0.1142 -0.6303 -0.2528
 4674poe     o221521   1.334   0.588   4.490  0.2703 -0.1079 -0.6447
 4674poe    c2321522   1.330   0.450   4.464 -0.2281 -0.1352 -0.4362
 4674poe    c2321523   1.285   0.362   4.582 -0.1033  0.2773 -0.0803
 4674poe     o221524   1.387   0.375   4.679  0.4913 -0.7972 -0.5498
 4674poe    c2321525   1.364   0.317   4.805  0.4656 -0.0534 -0.2108
 4674poe    c2321526   1.441   0.385   4.920  0.5827 -0.1505 -0.2321
 4674poe     o221527   1.576   0.341   4.918  0.5570 -0.2240 -0.3614
 4674poe    c3121528   1.664   0.451   4.929 -0.1759  0.3578 -0.2062
 4675poe    c3121529   3.338   6.099   3.258  0.2199  0.2491  0.1317
 4675poe     o221530   3.475   6.066   3.259  0.1078 -0.2220  0.7202
 4675poe    c2321531   3.527   6.116   3.380  0.3023  0.1346  0.4916
 4675poe    c2321532   3.642   6.023   3.424  0.3940 -0.0899 -0.2187
 4675poe     o221533   3.575   5.902   3.449 -0.0752  0.2503  0.2037
 4675poe    c2321534   3.639   5.817   3.542 -0.3373  0.0357  0.1874
 4675poe    c2321535   3.600   5.668   3.534 -1.2899  0.2911 -0.1484
 4675poe     o221536   3.620   5.620   3.403 -0.2580 -0.2066  0.1754
 4675poe    c2321537   3.556   5.495   3.395 -0.6107 -0.0316  0.2468
 4675poe    c2321538   3.542   5.443   3.250  0.5118 -0.0621  0.1387
 4675poe     o221539   3.444   5.511   3.175  0.3989 -0.3203  0.0531
 4675poe    c3121540   3.431   5.473   3.040  0.1402  0.1866 -0.0667
 4676poe    c3121541   3.315   4.607   5.299  0.2617 -0.1122 -0.1015
 4676poe     o221542   3.443   4.622   5.355  0.2486  0.2634 -0.1702
 4676poe    c2321543   3.553   4.593   5.272 -0.2728 -0.5862 -0.5745
 4676poe    c2321544   3.622   4.457   5.293  0.7864  0.0028 -0.1692
 4676poe     o221545   3.685   4.447   5.419  0.2812 -0.9466  0.0173
 4676poe    c2321546   3.819   4.488   5.406  0.0184 -0.1709 -0.3021
 4676poe    c2321547   3.917   4.417   5.501  0.3481 -0.0597 -0.5575
 4676poe     o221548   3.925   4.460   5.635  0.4063  0.1943 -0.6411
 4676poe    c2321549   4.025   4.388   5.703  0.1670 -0.0548 -0.5492
 4676poe    c2321550   4.079   4.473   5.820 -0.6750 -0.2761  0.0121
 4676poe     o221551   3.969   4.509   5.900 -0.8140  0.0523 -0.3238
 4676poe    c3121552   3.971   4.648   5.923 -0.4070  0.0456 -0.3205
 4677poe    c3121553   1.042   4.130   7.448  0.3554  0.0830 -1.0143
 4677poe     o221554   0.925   4.201   7.483  0.4954 -0.0370 -0.2761
 4677poe    c2321555   0.859   4.233   7.362 -0.1068  0.1724  0.1024
 4677poe    c2321556   0.708   4.262   7.366 -0.1676 -0.0266 -0.6431
 4677poe     o221557   0.630   4.145   7.374 -0.1840  0.0379  0.2197
 4677poe    c2321558   0.496   4.176   7.346 -0.3128  0.0667  0.8616
 4677poe    c2321559   0.395   4.069   7.302 -0.2768  0.5127 -0.3326
 4677poe     o221560   0.378   3.959   7.389 -0.5988  0.2743 -0.6887
 4677poe    c2321561   0.261   3.987   7.464 -0.0636  0.2798  0.1563
 4677poe    c2321562   0.239   3.851   7.532  0.0916  0.1355 -0.0794
 4677poe     o221563   0.347   3.796   7.604 -0.3303 -0.6143 -0.0054
 4677poe    c3121564   0.374   3.860   7.727 -0.4033  0.6092 -0.6131
 4678poe    c3121565   5.276   1.051   4.929 -0.4953  0.4139 -0.1316
 4678poe     o221566   5.269   1.041   5.070 -0.4240  0.0529 -0.1526
 4678poe    c2321567   5.245   0.904   5.097 -0.5337  0.1026  0.0032
 4678poe    c2321568   5.236   0.881   5.249 -0.0770 -0.4814 -0.0544
 4678poe     o221569   5.347   0.917   5.327 -0.1333 -0.1479 -0.1250
 4678poe    c2321570   5.312   0.922   5.464 -0.1219  0.4920 -0.1408
 4678poe    c2321571   5.442   0.948   5.541 -0.1238  0.7970 -0.2392
 4678poe     o221572   5.496   1.073   5.504 -0.4392  0.9226 -0.2751
 4678poe    c2321573   5.611   1.097   5.582 -0.7084  0.3171  0.3243
 4678poe    c2321574   5.646   1.242   5.543  0.4437 -0.1584 -0.4487
 4678poe     o221575   5.645   1.264   5.403 -0.7238 -0.1290 -0.4397
 4678poe    c3121576   5.723   1.373   5.361 -0.0752 -0.3189  0.2381
 4679poe    c3121577   5.698   0.378   3.682  0.0426 -0.1998 -0.6665
 4679poe     o221578   5.566   0.350   3.640 -0.0910  0.0570 -0.4238
 4679poe    c2321579   5.511   0.478   3.626 -0.5092 -0.1029 -0.2464
 4679poe    c2321580   5.377   0.470   3.549 -0.3748  0.1219 -0.5042
 4679poe     o221581   5.385   0.385   3.437 -0.2450 -0.6340  0.0742
 4679poe    c2321582   5.268   0.384   3.358 -0.0683  0.1666 -0.2055
 4679poe    c2321583   5.265   0.301   3.229 -0.4049 -0.0725 -0.0460
 4679poe     o221584   5.381   0.332   3.154 -0.3285 -0.2907 -0.0205
 4679poe    c2321585   5.394   0.242   3.047 -0.0045  0.0188 -0.2445
 4679poe    c2321586   5.538   0.190   3.028  0.0312  0.0002  0.0663
 4679poe     o221587   5.636   0.287   3.000 -0.0337  0.1355  0.3084
 4679poe    c3121588   5.773   0.268   3.030  0.0924  0.1519 -0.2500
 4680poe    c3121589   1.692   7.019   6.513  0.1166 -0.2970 -0.3791
 4680poe     o221590   1.637   7.143   6.552 -0.4985 -0.7320  0.1633
 4680poe    c2321591   1.624   7.146   6.692 -0.5977  0.2361  0.1439
 4680poe    c2321592   1.600   7.284   6.755 -0.3556  0.1230  0.4877
 4680poe     o221593   1.706   7.376   6.742 -0.2332 -0.1499 -0.5194
 4680poe    c2321594   1.665   7.505   6.703  0.1205  0.2595  0.4263
 4680poe    c2321595   1.716   7.622   6.788  0.8349  0.2345  0.0417
 4680poe     o221596   1.636   7.653   6.900  0.1421 -0.1989 -0.3334
 4680poe    c2321597   1.668   7.781   6.948  0.0871 -0.4180  0.2982
 4680poe    c2321598   1.586   7.836   7.066 -0.4706 -0.3448 -0.1204
 4680poe     o221599   1.452   7.856   7.027 -0.4006 -0.8514 -0.6304
 4680poe    c3121600   1.382   7.917   7.133  0.4051  0.3523 -0.7598
 4681poe    c3121601   5.363   0.462   2.092 -0.1972  0.7697 -0.0566
 4681poe     o221602   5.239   0.426   2.035  0.1730  0.3952 -0.6287
 4681poe    c2321603   5.198   0.510   1.930 -0.0171  0.4336 -0.5232
 4681poe    c2321604   5.285   0.502   1.804  0.8139 -0.3909  0.0970
 4681poe     o221605   5.293   0.372   1.750 -0.0625 -0.5565  0.3669
 4681poe    c2321606   5.424   0.322   1.765  0.0652 -0.3213  0.0395
 4681poe    c2321607   5.425   0.172   1.730 -0.0479 -0.1837 -0.5786
 4681poe     o221608   5.395   0.176   1.593 -0.0968  0.0467 -0.5605
 4681poe    c2321609   5.401   0.044   1.543 -0.2752 -0.1805  0.0206
 4681poe    c2321610   5.438   0.036   1.394  0.6717 -0.4166  0.2674
 4681poe     o221611   5.352   0.080   1.292  0.1284 -0.7690  0.5683
 4681poe    c3121612   5.242  -0.001   1.259 -0.4355  0.2339 -0.0895
 4682poe    c3121613   6.621   3.900   7.292  0.2097 -0.7877  0.1216
 4682poe     o221614   6.712   3.977   7.216 -0.7307  0.3909  0.1660
 4682poe    c2321615   6.656   4.040   7.103 -0.0301 -0.5453 -0.7111
 4682poe    c2321616   6.765   4.103   7.014  0.0532 -0.4332 -0.5274
 4682poe     o221617   6.883   4.115   7.092  0.0699  0.3868 -0.6695
 4682poe    c2321618   6.997   4.142   7.013  0.2077  0.1804 -0.5389
 4682poe    c2321619   7.127   4.154   7.095  0.0341 -0.1862 -0.1999
 4682poe     o221620   7.131   4.265   7.182 -0.5025 -0.2471 -0.0928
 4682poe    c2321621   7.246   4.263   7.262 -0.3016  0.0497 -0.3691
 4682poe    c2321622   7.277   4.397   7.332  0.6118 -0.4351  0.1865
 4682poe     o221623   7.213   4.386   7.456 -0.3894 -0.0003 -0.2810
 4682poe    c3121624   7.281   4.469   7.547 -0.2119  0.1736 -0.5721
 4683poe    c3121625   1.120   2.443   3.293  0.2485 -0.3792 -0.1190
 4683poe     o221626   1.074   2.514   3.180 -0.1067  0.2848  0.4330
 4683poe    c2321627   0.945   2.468   3.146  0.1299 -0.3119  0.3316
 4683poe    c2321628   0.912   2.500   2.999  0.2491 -0.4707  0.2700
 4683poe     o221629   0.792   2.439   2.955 -0.0251  0.3292 -0.1038
 4683poe    c2321630   0.785   2.462   2.816  0.0578  0.1369 -0.1412
 4683poe    c2321631   0.672   2.389   2.741  0.0857 -0.1004  0.0475
 4683poe     o221632   0.685   2.249   2.729 -0.0166 -0.1502  0.4973
 4683poe    c2321633   0.563   2.204   2.673  0.3539 -0.3231 -0.1776
 4683poe    c2321634   0.542   2.053   2.688  0.1952 -0.3182 -0.3525
 4683poe     o221635   0.505   2.012   2.818 -0.3760 -0.6510 -0.6156
 4683poe    c3121636   0.371   2.046   2.847  0.0130  0.4168 -0.0420
 4684poe    c3121637   0.517   5.507   1.046 -0.5618  0.3980 -0.1651
 4684poe     o221638   0.646   5.453   1.028 -0.5188  0.3585  0.2713
 4684poe    c2321639   0.670   5.360   1.132  0.2859 -0.1255 -0.3333
 4684poe    c2321640   0.795   5.277   1.100  0.1912 -0.3104 -0.2245
 4684poe     o221641   0.923   5.330   1.074  0.1956 -0.2917 -0.1643
 4684poe    c2321642   0.985   5.395   1.183  0.2319 -0.4260 -0.1046
 4684poe    c2321643   1.128   5.441   1.150  0.1512 -0.1776 -0.1066
 4684poe     o221644   1.141   5.555   1.068  0.5040  0.0413  0.2437
 4684poe    c2321645   1.259   5.570   0.992  0.5616 -0.3683  0.2465
 4684poe    c2321646   1.241   5.663   0.871  0.5115 -0.2829  0.3188
 4684poe     o221647   1.250   5.801   0.900  0.0102 -0.2051  0.1216
 4684poe    c3121648   1.272   5.883   0.787 -0.5017  0.2909  0.3795
 4685poe    c3121649   5.127   2.529   1.829 -0.3244  0.0234  0.0287
 4685poe     o221650   5.241   2.572   1.899 -0.4993  0.2419  0.1794
 4685poe    c2321651   5.301   2.671   1.819 -0.3335 -0.2800 -0.3511
 4685poe    c2321652   5.438   2.729   1.862 -0.2243 -0.2668 -0.7131
 4685poe     o221653   5.551   2.645   1.853 -0.0016 -0.0805  0.1735
 4685poe    c2321654   5.667   2.708   1.899  0.0488  0.1729 -0.2980
 4685poe    c2321655   5.762   2.602   1.957 -0.4479 -0.3900 -0.5037
 4685poe     o221656   5.701   2.516   2.050 -0.1306  0.5695  0.6169
 4685poe    c2321657   5.786   2.436   2.129 -0.0994 -0.1442 -0.1276
 4685poe    c2321658   5.716   2.327   2.212 -0.5675  0.5655  0.4233
 4685poe     o221659   5.684   2.226   2.119  0.6019  0.1415  0.4621
 4685poe    c3121660   5.600   2.132   2.182  0.0180  0.5028  0.2360
 4686poe    c3121661   4.258   3.507   3.843  0.4383  0.3902 -0.5835
 4686poe     o221662   4.389   3.457   3.826  0.4129  0.0548  0.1638
 4686poe    c2321663   4.460   3.446   3.947  0.0881 -0.3294  0.3231
 4686poe    c2321664   4.460   3.301   4.000 -0.8848 -0.5105 -0.1535
 4686poe     o221665   4.552   3.221   3.930 -0.4471 -0.2068  0.0685
 4686poe    c2321666   4.562   3.095   3.993  1.1142  0.0556  0.3972
 4686poe    c2321667   4.572   2.970   3.903 -0.3191 -0.1069  0.4415
 4686poe     o221668   4.494   2.959   3.786  0.3326 -0.6065  0.0537
 4686poe    c2321669   4.513   2.831   3.729 -0.0461 -0.8212  0.4046
 4686poe    c2321670   4.394   2.802   3.635  0.0203  0.0954  0.0237
 4686poe     o221671   4.415   2.876   3.517 -0.0414 -0.1973 -0.1717
 4686poe    c3121672   4.321   2.844   3.417  0.0448  0.7954 -0.5858
 4687poe    c3121673   7.553   6.083   3.389  0.1983  0.0832  0.6233
 4687poe     o221674   7.489   5.958   3.389  0.3470  0.0057  0.3439
 4687poe    c2321675   7.350   5.965   3.365  0.4095 -0.3684 -0.1555
 4687poe    c2321676   7.262   5.841   3.390  0.2821 -0.1894  0.3181
 4687poe     o221677   7.231   5.831   3.527  0.1208  0.2844  0.3183
 4687poe    c2321678   7.139   5.725   3.545  0.4898  0.0329  0.7346
 4687poe    c2321679   7.103   5.698   3.692 -0.0527 -0.5725  0.4969
 4687poe     o221680   7.201   5.644   3.778  0.6036 -0.3125 -0.0826
 4687poe    c2321681   7.178   5.673   3.914 -0.0316 -0.8998 -0.0640
 4687poe    c2321682   7.309   5.702   3.989 -0.3665  0.4002  0.0549
 4687poe     o221683   7.364   5.825   3.949  0.3641 -0.0087 -0.2314
 4687poe    c3121684   7.470   5.873   4.028  0.3262 -0.2836 -0.0129
 4688poe    c3121685   1.984   6.379   6.272  0.2807  0.3239 -0.2387
 4688poe     o221686   2.011   6.306   6.155 -0.0098 -0.4376  0.1665
 4688poe    c2321687   2.121   6.217   6.159  0.2630 -0.1104 -0.0448
 4688poe    c2321688   2.140   6.133   6.032 -0.3855 -0.1064 -0.1474
 4688poe     o221689   2.179   6.199   5.914 -0.0960 -0.3079 -0.1675
 4688poe    c2321690   2.086   6.282   5.848  0.0159  0.1326  0.2160
 4688poe    c2321691   2.145   6.333   5.715  0.2118  0.0721  0.2808
 4688poe     o221692   2.263   6.407   5.738  0.6060 -0.4014 -0.1990
 4688poe    c2321693   2.338   6.438   5.623  0.2708 -0.2427 -0.3759
 4688poe    c2321694   2.472   6.502   5.665 -0.2278  0.3970  0.2797
 4688poe     o221695   2.549   6.408   5.736  0.1658  0.3904 -0.1461
 4688poe    c3121696   2.655   6.474   5.803  0.1566 -0.1419  0.4060
 4689poe    c3121697   5.708   6.242   6.911 -0.2035  0.4431  0.1183
 4689poe     o221698   5.679   6.241   6.773  0.2221 -0.1624  0.0310
 4689poe    c2321699   5.638   6.374   6.752  0.5142  0.0058  0.5030
 4689poe    c2321700   5.628   6.378   6.598 -0.0754  0.1110  0.5420
 4689poe     o221701   5.575   6.254   6.559  0.2944 -0.0481  0.5444
 4689poe    c2321702   5.556   6.251   6.419 -0.8887 -0.0429  0.6960
 4689poe    c2321703   5.539   6.102   6.383 -0.3317 -0.0357  0.3994
 4689poe     o221704   5.657   6.032   6.418  0.2200  0.2798 -0.7721
 4689poe    c2321705   5.688   5.930   6.325  0.3603  0.5406 -1.0114
 4689poe    c2321706   5.642   5.785   6.349  0.1059  0.7737 -0.0184
 4689poe     o221707   5.699   5.742   6.471  0.2297 -0.4103 -0.4841
 4689poe    c3121708   5.633   5.624   6.511  0.0973 -0.0545  0.3538
 4690poe    c3121709   3.391   3.454   4.589 -1.1478 -0.0093 -0.2383
 4690poe     o221710   3.386   3.589   4.629  0.2274  0.1415 -0.5104
 4690poe    c2321711   3.509   3.656   4.610  0.0515  0.3753 -0.8292
 4690poe    c2321712   3.512   3.802   4.659  0.2445  0.1437 -0.1338
 4690poe     o221713   3.453   3.884   4.560 -0.1790  0.3112  0.2536
 4690poe    c2321714   3.444   4.020   4.596 -0.3671  0.5051 -0.5075
 4690poe    c2321715   3.356   4.047   4.720  0.1413  0.1726 -0.0699
 4690poe     o221716   3.232   3.982   4.704 -0.1001  0.6020  0.0372
 4690poe    c2321717   3.162   4.011   4.823 -0.5185  0.0539 -0.0718
 4690poe    c2321718   3.012   3.979   4.832 -0.5045  0.0774  0.2395
 4690poe     o221719   2.989   3.857   4.899 -0.3845 -0.0323  0.0806
 4690poe    c3121720   2.853   3.833   4.927 -0.3719  0.0551  0.2165
 4691poe    c3121721   0.307   7.053   0.116  0.3161 -0.0821 -0.5220
 4691poe     o221722   0.400   7.008   0.021  0.7922 -0.0202 -0.0887
 4691poe    c2321723   0.357   7.005  -0.113 -0.0580  0.2130  0.1724
 4691poe    c2321724   0.443   6.927  -0.215  0.0207 -0.2350  0.5811
 4691poe     o221725   0.572   6.977  -0.243 -0.1519 -0.1171 -0.0201
 4691poe    c2321726   0.626   6.899  -0.347  0.8550  0.2000  0.2614
 4691poe    c2321727   0.779   6.896  -0.365  0.7990  0.3023 -0.2675
 4691poe     o221728   0.835   6.862  -0.239 -0.5518 -0.0872  0.2435
 4691poe    c2321729   0.972   6.832  -0.248 -0.6292 -0.4010  0.0713
 4691poe    c2321730   1.009   6.726  -0.143  0.2959  0.1403  0.3069
 4691poe     o221731   0.985   6.759  -0.008 -0.1519  0.1386  0.2315
 4691poe    c3121732   1.062   6.669   0.069 -0.1380  0.0339  0.0939
 4692poe    c3121733   4.006   0.516   0.481  0.8522 -0.4630  0.0782
 4692poe     o221734   4.111   0.560   0.565  0.0651  0.0723  0.8113
 4692poe    c2321735   4.204   0.454   0.576 -0.1822 -0.3541 -0.8844
 4692poe    c2321736   4.340   0.496   0.637 -0.5173  0.0942 -0.4420
 4692poe     o221737   4.328   0.557   0.763 -0.0230 -0.3109 -0.1968
 4692poe    c2321738   4.272   0.486   0.872  0.4934 -0.3480  0.0446
 4692poe    c2321739   4.311   0.555   1.004  0.1218  0.1090 -0.0846
 4692poe     o221740   4.443   0.516   1.034 -0.0982 -0.3969  0.2381
 4692poe    c2321741   4.493   0.559   1.159  0.3238 -0.4619  0.0935
 4692poe    c2321742   4.459   0.452   1.265  0.4620 -0.2540  0.3477
 4692poe     o221743   4.570   0.366   1.274  0.2795 -0.5331 -0.0501
 4692poe    c3121744   4.544   0.249   1.349  0.0632 -0.6435 -0.2963
 4693poe    c3121745   1.765   4.288   0.157  0.1151 -0.0485 -0.5383
 4693poe     o221746   1.810   4.299   0.291 -0.9596 -0.3772 -0.1403
 4693poe    c2321747   1.694   4.305   0.371 -0.6332 -0.4193  0.3347
 4693poe    c2321748   1.741   4.275   0.515 -0.4752  0.4424  0.4676
 4693poe     o221749   1.834   4.369   0.563  0.4598 -0.3618  0.2577
 4693poe    c2321750   1.843   4.374   0.704  0.6431  1.1919  0.2109
 4693poe    c2321751   1.946   4.277   0.765 -0.3833 -0.1971 -0.2103
 4693poe     o221752   1.918   4.142   0.734 -0.3050 -0.3283  0.2915
 4693poe    c2321753   1.955   4.056   0.840 -0.6065 -0.0361  0.6375
 4693poe    c2321754   1.975   3.914   0.784  0.2446  0.4052 -0.1940
 4693poe     o221755   1.848   3.852   0.784  0.4164  0.0557  0.3558
 4693poe    c3121756   1.847   3.746   0.692 -0.6507  0.0910  0.3174
 4694poe    c3121757   3.183   0.938   5.403 -0.1327  0.2443 -0.6239
 4694poe     o221758   3.090   1.021   5.336 -0.2742  0.6927  0.1203
 4694poe    c2321759   3.124   1.157   5.349 -0.2333  0.6859  0.0843
 4694poe    c2321760   3.089   1.228   5.217 -0.1469 -0.6168 -0.6534
 4694poe     o221761   2.969   1.173   5.167 -0.6041 -0.3819  0.1650
 4694poe    c2321762   2.953   1.181   5.027  0.1533  0.1548  0.1032
 4694poe    c2321763   2.810   1.129   5.007  0.2413  0.2853 -0.9288
 4694poe     o221764   2.815   1.002   5.068 -0.0693  0.7182  0.0207
 4694poe    c2321765   2.705   0.930   5.019  0.1844  0.3862 -0.0641
 4694poe    c2321766   2.749   0.798   4.954 -0.5286 -0.0932  0.4109
 4694poe     o221767   2.824   0.719   5.043 -0.6053 -0.1323  0.4413
 4694poe    c3121768   2.831   0.589   4.989 -0.3856  0.0342  0.0627
 4695poe    c3121769   5.568   3.908   5.433 -0.0385  0.3024 -0.5123
 4695poe     o221770   5.697   3.941   5.388  0.3313 -0.1981  0.1490
 4695poe    c2321771   5.710   3.919   5.249  0.3010 -0.0714  0.1261
 4695poe    c2321772   5.853   3.956   5.208  0.1923  0.4439  0.2050
 4695poe     o221773   5.936   3.899   5.306 -0.0880 -0.1420  0.1058
 4695poe    c2321774   6.070   3.933   5.279 -0.4293  1.1406 -0.0388
 4695poe    c2321775   6.163   3.911   5.401 -0.2007 -0.2113 -0.4344
 4695poe     o221776   6.099   3.945   5.522  0.2850 -0.4886 -0.1005
 4695poe    c2321777   6.198   3.987   5.613  0.1363  0.1880 -0.2445
 4695poe    c2321778   6.132   4.023   5.747 -0.2264  0.0774 -0.3941
 4695poe     o221779   6.046   3.931   5.810  0.3574 -0.1627  0.0513
 4695poe    c3121780   6.030   3.954   5.949  0.1800 -0.1514  0.0285
 4696poe    c3121781   1.377   1.851   5.607  0.5408 -0.8155  0.2318
 4696poe     o221782   1.393   1.821   5.743  0.2319 -0.2379  0.4005
 4696poe    c2321783   1.274   1.812   5.817 -0.0766 -0.6837 -0.1438
 4696poe    c2321784   1.308   1.762   5.959 -0.3184  0.4614  0.3322
 4696poe     o221785   1.310   1.858   6.062  0.2688  0.3190  0.4550
 4696poe    c2321786   1.182   1.912   6.088  0.0010 -0.1765  0.1831
 4696poe    c2321787   1.204   2.029   6.186 -0.1138  0.1815 -0.2156
 4696poe     o221788   1.233   1.985   6.316  0.0997  0.2056 -0.2544
 4696poe    c2321789   1.237   2.091   6.410 -0.7906  0.0124  0.0115
 4696poe    c2321790   1.300   2.055   6.546 -0.0143  0.0347 -0.3361
 4696poe     o221791   1.439   2.033   6.539 -0.0226 -0.1535  0.0720
 4696poe    c3121792   1.485   1.977   6.660 -0.4122 -0.2799  0.1630
 4697poe    c3121793   0.038   3.986   3.467  0.5787  0.2324 -0.1065
 4697poe     o221794   0.036   3.845   3.471  0.0165  0.2486  0.3871
 4697poe    c2321795   0.147   3.794   3.543  0.1694 -0.4023 -0.2915
 4697poe    c2321796   0.112   3.651   3.586  0.4262 -0.3209  0.1998
 4697poe     o221797   0.124   3.557   3.480  0.2295  0.0408 -0.1448
 4697poe    c2321798   0.114   3.420   3.513  0.6812  0.0071 -0.1484
 4697poe    c2321799   0.105   3.333   3.387 -0.4271 -0.3526  0.1724
 4697poe     o221800   0.025   3.390   3.286  0.3090 -0.2224 -0.3453
 4697poe    c2321801  -0.106   3.342   3.268  0.4126 -0.5295 -0.2853
 4697poe    c2321802  -0.139   3.371   3.120 -0.0497  0.3435 -0.0196
 4697poe     o221803  -0.096   3.499   3.081 -0.5819  0.5633  0.1080
 4697poe    c3121804  -0.156   3.531   2.957 -0.4951  0.1805 -0.0332
 4698poe    c3121805   1.466   6.636   1.730  0.1584 -0.0975  0.2077
 4698poe     o221806   1.451   6.748   1.815 -0.0564  0.2677 -0.3077
 4698poe    c2321807   1.365   6.724   1.924 -0.0673  0.4895 -0.2674
 4698poe    c2321808   1.407   6.801   2.050  0.2211  0.0026 -0.0634
 4698poe     o221809   1.516   6.735   2.110 -0.0435 -0.1303  0.2754
 4698poe    c2321810   1.556   6.818   2.217  0.2482 -0.4328  0.4052
 4698poe    c2321811   1.677   6.786   2.306  0.5233  0.1484  0.2428
 4698poe     o221812   1.659   6.673   2.388  0.0283  0.1230  0.1015
 4698poe    c2321813   1.773   6.650   2.468 -0.4432  0.5154  0.8995
 4698poe    c2321814   1.744   6.541   2.573  0.7464  0.0898  0.7998
 4698poe     o221815   1.631   6.548   2.657  0.2271 -0.2816  0.1414
 4698poe    c3121816   1.649   6.448   2.755 -0.0100 -0.5943 -0.1312
 4699poe    c3121817   0.006   7.010   1.737  0.1626  0.7587 -0.3566
 4699poe     o221818   0.048   7.107   1.830 -0.2527  0.4439  0.1669
 4699poe    c2321819  -0.036   7.102   1.943 -0.0729 -0.4435  0.2709
 4699poe    c2321820  -0.005   7.210   2.049  0.0762 -0.2425  0.0243
 4699poe     o221821   0.096   7.172   2.139  0.0248 -0.7829 -0.1362
 4699poe    c2321822   0.034   7.178   2.266  0.0447 -0.0085 -0.1578
 4699poe    c2321823   0.143   7.202   2.372 -0.1593 -0.4981  0.1644
 4699poe     o221824   0.237   7.099   2.393  0.6616  0.1330 -0.3969
 4699poe    c2321825   0.317   7.140   2.502  0.1466 -0.1769  0.0986
 4699poe    c2321826   0.439   7.048   2.521 -0.0693 -0.4271  0.2932
 4699poe     o221827   0.557   7.106   2.468 -0.0670 -0.0854  0.6684
 4699poe    c3121828   0.662   7.022   2.510  0.2921 -0.1315 -0.3051
 4700poe    c3121829   6.720   0.802   1.291 -0.2327 -0.1766 -0.1985
 4700poe     o221830   6.681   0.699   1.379  0.0349  0.4293  0.6421
 4700poe    c2321831   6.547   0.665   1.351  0.2686 -0.1235  0.1848
 4700poe    c2321832   6.479   0.579   1.459  0.2057 -0.0923  0.1693
 4700poe     o221833   6.527   0.447   1.473  0.0330 -0.1272  0.4367
 4700poe    c2321834   6.471   0.377   1.582 -0.7180 -0.1111  0.0719
 4700poe    c2321835   6.522   0.232   1.565  0.0742  0.1219  0.3985
 4700poe     o221836   6.658   0.231   1.527 -0.0926 -0.5754 -0.2056
 4700poe    c2321837   6.723   0.107   1.542  0.0597 -0.5313 -0.4900
 4700poe    c2321838   6.775   0.052   1.676  0.3037  0.0994 -0.3239
 4700poe     o221839   6.681  -0.000   1.768  0.7788 -0.1082  0.0482
 4700poe    c3121840   6.730  -0.118   1.828 -0.0708 -0.2698  0.4450
 4701poe    c3121841   2.639   5.054   3.938 -0.5344  0.5362  0.1368
 4701poe     o221842   2.555   5.117   4.032 -0.1054  0.0599  0.8460
 4701poe    c2321843   2.637   5.171   4.132  1.1086  0.1236 -0.1654
 4701poe    c2321844   2.580   5.301   4.191  0.1063 -0.4219  0.0867
 4701poe     o221845   2.483   5.294   4.293 -0.5388  0.3443 -0.4576
 4701poe    c2321846   2.458   5.427   4.334 -0.0723  0.3064 -0.0313
 4701poe    c2321847   2.388   5.444   4.470 -0.1061 -0.1810  0.0158
 4701poe     o221848   2.249   5.425   4.480 -0.0229 -0.6981  0.1914
 4701poe    c2321849   2.197   5.477   4.601  0.0356 -0.1075 -0.0377
 4701poe    c2321850   2.050   5.438   4.622  0.0286  0.0103  0.1380
 4701poe     o221851   1.959   5.528   4.563 -0.0547 -0.3186 -0.2480
 4701poe    c3121852   1.826   5.488   4.588  0.0364 -0.0512  0.7173
 4702poe    c3121853   7.461   7.232   6.535 -0.2929 -0.4419  0.3332
 4702poe     o221854   7.573   7.194   6.612 -0.2438 -0.0921  0.4335
 4702poe    c2321855   7.542   7.132   6.735 -0.6392 -0.5061  0.1278
 4702poe    c2321856   7.661   7.100   6.828 -0.0946  0.4143 -0.2407
 4702poe     o221857   7.772   7.037   6.768  0.2566  0.4622  0.3520
 4702poe    c2321858   7.836   6.933   6.837  0.2262 -0.1718 -0.5659
 4702poe    c2321859   7.966   6.875   6.777  0.5045 -0.1539  0.0136
 4702poe     o221860   7.954   6.858   6.638 -0.3661  0.3201  0.0197
 4702poe    c2321861   8.057   6.778   6.582 -0.2818  0.4264  0.0234
 4702poe    c2321862   7.999   6.702   6.462  0.3872  0.0534 -0.0662
 4702poe     o221863   7.915   6.593   6.493  0.3237  0.1438  0.0790
 4702poe    c3121864   7.847   6.560   6.374  0.2730  0.1782  0.0979
 4703poe    c3121865   0.239   0.875   1.890 -0.3480  0.2888  0.1864
 4703poe     o221866   0.126   0.801   1.852 -0.0676  0.0540 -0.1958
 4703poe    c2321867   0.120   0.778   1.713  0.0877 -0.4718 -0.1184
 4703poe    c2321868  -0.027   0.767   1.669  0.2901 -0.0022 -0.9224
 4703poe     o221869  -0.091   0.648   1.710 -0.2500  0.6050  0.0232
 4703poe    c2321870  -0.227   0.650   1.673 -0.1890  0.1871 -0.2266
 4703poe    c2321871  -0.314   0.557   1.760  0.6102  0.2283  0.6238
 4703poe     o221872  -0.311   0.421   1.722 -0.1000  0.2882  0.3374
 4703poe    c2321873  -0.385   0.338   1.809 -0.0304 -0.2106 -0.0781
 4703poe    c2321874  -0.537   0.336   1.787 -0.0475  0.1439 -0.0057
 4703poe     o221875  -0.596   0.447   1.851  0.1214  0.1699  0.1048
 4703poe    c3121876  -0.735   0.449   1.828  0.0621 -0.3634  0.4133
 4704poe    c3121877   7.001   5.319   2.258 -0.1402  0.0348 -0.1012
 4704poe     o221878   6.940   5.396   2.359  0.3163 -0.3453  0.4673
 4704poe    c2321879   7.030   5.489   2.416  0.0518  0.5071 -0.4785
 4704poe    c2321880   6.944   5.609   2.463 -0.1079  0.2549 -0.1178
 4704poe     o221881   6.876   5.557   2.575 -0.0514  0.0801 -0.1632
 4704poe    c2321882   6.789   5.655   2.627  0.2904  0.2217  0.1508
 4704poe    c2321883   6.768   5.637   2.778  0.0370  0.3338  0.1294
 4704poe     o221884   6.687   5.527   2.810  0.0006  0.4026  0.2743
 4704poe    c2321885   6.736   5.488   2.937  0.1239 -0.3555  0.0028
 4704poe    c2321886   6.674   5.354   2.980  0.4473 -0.3530  0.4716
 4704poe     o221887   6.696   5.260   2.878  0.7460  0.2526 -0.0295
 4704poe    c3121888   6.636   5.141   2.925 -0.0483  0.5375 -0.3062
 4705poe    c3121889   6.767   6.290   3.875 -0.0940 -0.1487  0.0663
 4705poe     o221890   6.643   6.335   3.926  0.0818  0.6293 -0.1789
 4705poe    c2321891   6.560   6.364   3.815  0.2933 -0.8799 -0.7643
 4705poe    c2321892   6.411   6.396   3.836  0.6379  0.1586  0.2527
 4705poe     o221893   6.345   6.285   3.893 -0.0578  0.5130  0.1505
 4705poe    c2321894   6.212   6.328   3.912 -0.2470  0.1035 -0.2135
 4705poe    c2321895   6.125   6.242   4.005  0.2129  0.1223  0.2418
 4705poe     o221896   6.084   6.113   3.964 -0.0163  0.2188  0.1684
 4705poe    c2321897   5.943   6.110   3.953 -0.0047 -0.1295  0.1180
 4705poe    c2321898   5.892   5.977   3.894 -0.6730  0.1161  0.1387
 4705poe     o221899   5.885   5.865   3.979 -0.3365  0.1835  0.2560
 4705poe    c3121900   5.870   5.743   3.910 -0.2250 -0.0750  0.6856
 4706poe    c3121901   4.956   3.787   0.446 -0.3384  0.0723  0.6542
 4706poe     o221902   5.017   3.672   0.392 -0.2962  0.4070 -0.0148
 4706poe    c2321903   5.156   3.696   0.385 -0.1965 -0.2134 -0.2528
 4706poe    c2321904   5.228   3.562   0.408 -0.2449 -0.1560  0.2524
 4706poe     o221905   5.168   3.460   0.332 -0.4295  0.0380  0.1357
 4706poe    c2321906   5.234   3.340   0.367  0.1020  0.1898 -0.3213
 4706poe    c2321907   5.185   3.239   0.261 -0.2134  0.1411 -0.1303
 4706poe     o221908   5.236   3.273   0.134 -0.1523  0.4672 -0.0202
 4706poe    c2321909   5.170   3.202   0.031  0.2745 -0.0109  0.0341
 4706poe    c2321910   5.205   3.256  -0.109 -0.6864  0.1129 -0.1634
 4706poe     o221911   5.336   3.205  -0.123 -0.7388 -0.0832  0.0509
 4706poe    c3121912   5.371   3.232  -0.257 -0.4392  0.4205  0.2306
 4707poe    c3121913   5.978   2.045   6.917 -0.2181 -0.5243 -0.1686
 4707poe     o221914   6.033   2.095   6.797  0.3709 -0.2325  0.2181
 4707poe    c2321915   5.941   2.190   6.748  0.0611 -0.4947  0.2869
 4707poe    c2321916   5.989   2.272   6.627  0.0972 -0.6140  0.2193
 4707poe     o221917   5.885   2.301   6.536  0.5168 -0.7738 -0.3116
 4707poe    c2321918   5.927   2.346   6.409  0.3854  0.2670  0.0115
 4707poe    c2321919   5.812   2.376   6.312  0.1236 -0.8009 -0.0128
 4707poe     o221920   5.763   2.255   6.257 -0.9062 -0.4035  0.0066
 4707poe    c2321921   5.674   2.280   6.150 -1.2833  0.3319  0.4854
 4707poe    c2321922   5.603   2.163   6.080  0.5347 -0.5719  0.1076
 4707poe     o221923   5.483   2.115   6.137  0.5001 -0.3985  0.1800
 4707poe    c3121924   5.437   2.021   6.043  0.0288  0.0980 -0.0959
 4708poe    c3121925   2.075   0.732   3.871  0.4030 -0.2281 -0.0132
 4708poe     o221926   1.934   0.736   3.859  0.4243 -0.5087 -0.3488
 4708poe    c2321927   1.872   0.610   3.870 -0.3874 -0.0829 -0.0079
 4708poe    c2321928   1.719   0.626   3.876 -0.3985 -0.3454  0.5132
 4708poe     o221929   1.658   0.676   3.758 -0.1606 -0.0281  0.5239
 4708poe    c2321930   1.532   0.619   3.734 -0.1234  0.1026  0.0181
 4708poe    c2321931   1.466   0.648   3.598  0.4172  0.2524 -0.2150
 4708poe     o221932   1.403   0.774   3.609  0.4536  0.2388  0.1577
 4708poe    c2321933   1.328   0.798   3.492 -0.1867  0.5222  0.6159
 4708poe    c2321934   1.195   0.875   3.487 -0.3634  0.1990  0.2492
 4708poe     o221935   1.221   1.008   3.525  0.5494  0.1089 -0.0404
 4708poe    c3121936   1.117   1.099   3.499  0.2869 -0.1875 -0.0286
 4709poe    c3121937   2.704   1.416   4.406 -0.3244 -0.4741 -0.1217
 4709poe     o221938   2.796   1.378   4.307  0.4935  0.3715  0.3029
 4709poe    c2321939   2.793   1.476   4.205 -0.3664  0.2757  0.2275
 4709poe    c2321940   2.924   1.452   4.127 -0.3702 -0.1591  0.3542
 4709poe     o221941   3.043   1.431   4.198  0.2833  1.0933 -0.3451
 4709poe    c2321942   3.155   1.411   4.114  0.1342  0.1250 -0.3190
 4709poe    c2321943   3.275   1.461   4.196  0.0519 -0.1406 -0.0313
 4709poe     o221944   3.293   1.380   4.310 -0.4844 -0.2588 -0.0288
 4709poe    c2321945   3.413   1.399   4.382 -0.2570  0.0058 -0.4732
 4709poe    c2321946   3.426   1.279   4.476 -0.0903  0.2728 -0.1547
 4709poe     o221947   3.419   1.152   4.416 -0.4028  0.2863 -0.1497
 4709poe    c3121948   3.443   1.057   4.518  0.5022  0.4229 -0.2255
 4710poe    c3121949   3.472   6.545   0.091  0.5799 -0.2930 -0.2838
 4710poe     o221950   3.537   6.667   0.118 -0.4253  0.3367 -0.6906
 4710poe    c2321951   3.598   6.659   0.244 -0.4985  0.2112 -0.6632
 4710poe    c2321952   3.679   6.789   0.265 -0.2584  0.0270 -0.4383
 4710poe     o221953   3.799   6.810   0.195  0.0266  0.4218  0.1622
 4710poe    c2321954   3.917   6.733   0.213  0.0846  0.5590  0.3700
 4710poe    c2321955   4.000   6.776   0.335  0.5338  0.2208  0.1807
 4710poe     o221956   4.076   6.893   0.315  0.1710  0.3792 -0.2651
 4710poe    c2321957   4.124   6.941   0.438  0.0611  0.2614 -0.1757
 4710poe    c2321958   4.236   7.046   0.422  0.1236  0.2653  0.2793
 4710poe     o221959   4.190   7.171   0.377  0.1689  0.2654  0.2358
 4710poe    c3121960   4.306   7.251   0.383 -0.2421  0.9410 -0.6021
 4711poe    c3121961   0.623   3.814   1.504  0.2840 -0.0016 -0.5292
 4711poe     o221962   0.727   3.885   1.566 -0.1376  0.2174 -0.0640
 4711poe    c2321963   0.827   3.914   1.471 -0.3130  0.2589 -0.2356
 4711poe    c2321964   0.949   3.819   1.469 -0.4150  0.1314 -0.5077
 4711poe     o221965   1.034   3.813   1.582 -0.5065  0.0421 -0.4439
 4711poe    c2321966   1.102   3.935   1.595 -1.4280  0.4333  0.9191
 4711poe    c2321967   1.157   3.957   1.738  0.3497  0.3085  0.2834
 4711poe     o221968   1.062   3.994   1.835 -0.3485 -0.1071 -0.2282
 4711poe    c2321969   1.125   4.053   1.947 -0.1278  0.5051 -0.6683
 4711poe    c2321970   1.021   4.063   2.060  0.2928  0.8402 -0.3057
 4711poe     o221971   0.909   4.137   2.017 -0.2990  0.1751  0.0763
 4711poe    c3121972   0.860   4.203   2.132  0.2669  0.4309  0.1716
 4712poe    c3121973   7.332   2.835   1.645 -0.2139 -0.1585 -0.9324
 4712poe     o221974   7.242   2.941   1.667 -0.0404 -0.1418 -0.2959
 4712poe    c2321975   7.300   3.064   1.634 -0.4646 -0.1337 -1.0251
 4712poe    c2321976   7.203   3.184   1.646  0.2376  0.3472 -0.0104
 4712poe     o221977   7.130   3.201   1.527  0.1275 -0.2145 -0.0263
 4712poe    c2321978   7.120   3.337   1.494 -0.0364 -0.1491  0.2958
 4712poe    c2321979   7.057   3.374   1.358 -0.1756  0.4068  0.5058
 4712poe     o221980   7.157   3.375   1.259 -0.3488 -0.0422  0.3226
 4712poe    c2321981   7.158   3.260   1.177 -0.1868  0.2524 -0.0857
 4712poe    c2321982   7.058   3.276   1.061  0.3335 -0.3230 -0.6175
 4712poe     o221983   7.096   3.376   0.970 -0.2161  0.4051 -0.0549
 4712poe    c3121984   7.004   3.361   0.865  0.9296 -0.3275 -0.9810
 4713poe    c3121985   0.327   4.078   4.554 -0.3896  0.0106 -0.1103
 4713poe     o221986   0.427   4.026   4.470 -0.1484  0.1708  0.0768
 4713poe    c2321987   0.449   3.890   4.501 -0.3293  0.1331  0.0383
 4713poe    c2321988   0.599   3.860   4.522 -0.0951  0.6019 -0.8949
 4713poe     o221989   0.668   3.858   4.399  0.4332 -0.1518 -0.5965
 4713poe    c2321990   0.804   3.876   4.431  0.3113 -0.3696  0.0625
 4713poe    c2321991   0.897   3.875   4.308 -0.0540 -0.2979 -0.2173
 4713poe     o221992   0.874   3.761   4.228 -0.3715 -0.2415 -0.2068
 4713poe    c2321993   0.967   3.766   4.122 -0.0354  0.0282  0.0993
 4713poe    c2321994   0.938   3.659   4.015  0.9529 -0.2626  0.1185
 4713poe     o221995   0.798   3.644   4.022  0.9468 -0.2958 -0.0601
 4713poe    c3121996   0.758   3.540   3.937  0.3037  0.1078 -0.2607
 4714poe    c3121997   0.773   3.175   6.968 -0.0008 -0.7975  0.3775
 4714poe     o221998   0.769   3.293   7.045 -0.0667 -0.4346 -0.1769
 4714poe    c2321999   0.837   3.381   6.958 -0.1509  0.0636  0.2558
 4714poe    c2322000   0.865   3.517   7.025  0.7956  0.1904 -0.3867
 4714poe     o222001   0.734   3.566   7.043  0.6271 -0.3431 -0.1302
 4714poe    c2322002   0.705   3.624   7.168 -0.5704 -0.1648 -0.4819
 4714poe    c2322003   0.619   3.749   7.142 -0.1006  0.2117 -0.2250
 4714poe     o222004   0.692   3.860   7.094  0.4246  0.0934  0.2935
 4714poe    c2322005   0.607   3.962   7.048  0.0645 -0.4648 -0.2892
 4714poe    c2322006   0.683   4.058   6.955 -0.5121  0.2682 -0.0127
 4714poe     o222007   0.778   4.141   7.018  0.3817 -0.1492 -0.7785
 4714poe    c3122008   0.772   4.276   6.979 -0.2315  0.0529 -0.0197
 4715poe    c3122009   0.260   7.044   4.677  0.0843 -0.5316  0.2145
 4715poe     o222010   0.316   7.152   4.750 -0.0910 -0.2745 -0.0280
 4715poe    c2322011   0.447   7.150   4.697 -0.0141  0.0963  0.1493
 4715poe    c2322012   0.516   7.287   4.708 -0.4444  0.3207  0.0943
 4715poe     o222013   0.555   7.317   4.840 -0.1398  0.1029  0.0538
 4715poe    c2322014   0.648   7.423   4.840 -0.3426  0.2798 -0.0160
 4715poe    c2322015   0.699   7.442   4.984 -0.2564 -0.4863  0.0570
 4715poe     o222016   0.611   7.501   5.078  0.1066 -0.0817  0.1496
 4715poe    c2322017   0.677   7.509   5.202  0.5790  0.1730 -0.1125
 4715poe    c2322018   0.573   7.564   5.301  0.2675 -0.4184 -0.1064
 4715poe     o222019   0.473   7.468   5.329  0.3375 -0.3995  0.2146
 4715poe    c3122020   0.356   7.527   5.380  0.1435 -0.7006  0.1236
 4716poe    c3122021   1.368   4.251   3.508  0.5250  0.1148 -0.4312
 4716poe     o222022   1.399   4.159   3.405  0.5124 -0.2181 -0.1398
 4716poe    c2322023   1.525   4.208   3.365  0.4351 -0.1483 -0.3017
 4716poe    c2322024   1.602   4.129   3.257  0.3652  0.2894 -0.6717
 4716poe     o222025   1.529   4.112   3.138  0.1925 -0.1644 -0.5047
 4716poe    c2322026   1.583   4.011   3.056  0.1543 -0.6532  0.0744
 4716poe    c2322027   1.490   4.014   2.934  0.2147 -0.6145  0.0296
 4716poe     o222028   1.353   4.006   2.964  0.2606 -0.7452  0.2003
 4716poe    c2322029   1.275   3.966   2.853  0.4229  0.1382 -0.2354
 4716poe    c2322030   1.129   4.002   2.886  0.6328  0.7548  0.0425
 4716poe     o222031   1.133   4.138   2.924  0.3029  0.8477 -0.2565
 4716poe    c3122032   1.002   4.190   2.935  0.0634  0.1357  0.4202
 4717poe    c3122033   1.927   2.184   0.514  0.2342 -0.6254 -0.3486
 4717poe     o222034   1.810   2.144   0.446 -0.4259 -0.0328  0.4319
 4717poe    c2322035   1.792   2.230   0.336 -0.0393 -0.4052  0.0757
 4717poe    c2322036   1.690   2.160   0.243 -0.1979 -0.2047  0.0995
 4717poe     o222037   1.563   2.138   0.300 -0.3132 -0.3516 -0.2109
 4717poe    c2322038   1.451   2.191   0.233  0.0678 -0.2427 -0.7655
 4717poe    c2322039   1.320   2.155   0.306  0.3833  0.2401  0.0449
 4717poe     o222040   1.348   2.184   0.441 -0.5891 -0.1662  0.3403
 4717poe    c2322041   1.252   2.120   0.523 -0.1580 -0.2981  0.7447
 4717poe    c2322042   1.240   2.213   0.645  0.2615  0.1969  0.4109
 4717poe     o222043   1.368   2.211   0.705  0.5957  0.5673 -0.2735
 4717poe    c3122044   1.364   2.235   0.844  0.5168 -0.0098 -0.1752
 4718poe    c3122045   1.729   0.936   3.509 -0.4145 -0.4038  0.7653
 4718poe     o222046   1.791   1.062   3.501 -0.0929 -0.5687  0.5825
 4718poe    c2322047   1.930   1.053   3.478 -0.1903 -0.1182 -0.2067
 4718poe    c2322048   1.984   1.174   3.399 -0.4323 -0.1381 -0.4048
 4718poe     o222049   1.980   1.292   3.477  0.6577 -0.1473 -0.3171
 4718poe    c2322050   2.008   1.409   3.403  0.5529  0.2143  0.2144
 4718poe    c2322051   1.893   1.511   3.419  0.1269 -0.2265 -0.0072
 4718poe     o222052   1.857   1.517   3.556 -0.1311 -0.1803 -0.0769
 4718poe    c2322053   1.768   1.624   3.579 -0.5840 -0.4501 -0.5693
 4718poe    c2322054   1.740   1.635   3.730  0.3376  0.1979 -0.4434
 4718poe     o222055   1.848   1.694   3.799  0.2213  0.1069 -0.1842
 4718poe    c3122056   1.941   1.609   3.861  0.1069 -0.0237 -0.1926
 4719poe    c3122057   0.768   1.064   3.142  0.2162 -0.2227 -0.4623
 4719poe     o222058   0.907   1.044   3.130  0.3487  0.3888  0.0193
 4719poe    c2322059   0.950   0.910   3.123 -0.2781  0.2008 -0.3575
 4719poe    c2322060   1.090   0.893   3.062 -0.2375 -0.4002 -0.1069
 4719poe     o222061   1.188   0.955   3.142 -0.3255 -0.3676 -0.0248
 4719poe    c2322062   1.318   0.940   3.089 -0.1516  0.2330  0.2155
 4719poe    c2322063   1.428   1.021   3.159  0.4754  0.0386 -0.5308
 4719poe     o222064   1.391   1.157   3.165 -0.3027 -0.1799 -0.2489
 4719poe    c2322065   1.481   1.240   3.235 -0.3554  0.1711 -0.5974
 4719poe    c2322066   1.412   1.365   3.294  0.1674  0.1118  0.1465
 4719poe     o222067   1.350   1.319   3.412 -0.0236  0.2236  0.0879
 4719poe    c3122068   1.264   1.416   3.467 -0.3394 -0.0887  0.1493
 4720poe    c3122069   7.423   0.141   0.324 -0.2211  0.1602 -0.0239
 4720poe     o222070   7.393   0.236   0.424 -0.0546  0.5588 -0.3533
 4720poe    c2322071   7.502   0.251   0.513 -0.5651  0.5732  0.2754
 4720poe    c2322072   7.445   0.232   0.654 -0.0513  0.2921  0.4470
 4720poe     o222073   7.471   0.101   0.699 -0.2993  0.0511 -0.1071
 4720poe    c2322074   7.359   0.055   0.770 -0.5385 -0.0425 -0.5395
 4720poe    c2322075   7.376  -0.072   0.856 -0.4090  0.3798  0.0646
 4720poe     o222076   7.502  -0.061   0.920 -0.3439  0.0134  0.0011
 4720poe    c2322077   7.512  -0.159   1.021  0.1078 -0.3352 -0.3758
 4720poe    c2322078   7.662  -0.186   1.042  0.3095  0.9136 -0.1396
 4720poe     o222079   7.731  -0.214   0.922  0.1163  0.1050 -0.0657
 4720poe    c3122080   7.704  -0.338   0.861  0.8066 -0.3132  0.4648
 4721poe    c3122081   4.071   7.201   1.709 -0.3072  0.6315  0.4730
 4721poe     o222082   4.034   7.065   1.700  1.5874  0.1666 -0.7917
 4721poe    c2322083   3.944   7.047   1.593  0.3140 -0.2453  0.3246
 4721poe    c2322084   3.948   6.906   1.533  0.2222 -0.2872  0.4138
 4721poe     o222085   4.064   6.879   1.456  0.1426  0.5436 -0.0154
 4721poe    c2322086   4.160   6.826   1.545 -0.4796 -0.6175 -0.0105
 4721poe    c2322087   4.280   6.781   1.458 -0.0771  0.7703 -0.1965
 4721poe     o222088   4.222   6.677   1.383  0.3780  0.3029  0.0964
 4721poe    c2322089   4.291   6.655   1.262  0.0807  0.7043 -0.1492
 4721poe    c2322090   4.280   6.502   1.247 -0.5422  0.7017  0.2980
 4721poe     o222091   4.154   6.450   1.210 -0.0727  0.0627 -0.4567
 4721poe    c3122092   4.161   6.312   1.180 -0.3895  0.1384 -0.8889
 4722poe    c3122093   3.367   2.564   3.645  0.8473 -0.5718  0.8018
 4722poe     o222094   3.383   2.666   3.741 -0.0310  0.2968  0.0478
 4722poe    c2322095   3.511   2.725   3.742  0.1048  0.0236 -0.4328
 4722poe    c2322096   3.638   2.639   3.729  0.4449  0.4539 -0.0264
 4722poe     o222097   3.681   2.567   3.843 -0.4959 -0.0794  0.0028
 4722poe    c2322098   3.814   2.528   3.820 -0.2619  0.4624  0.3968
 4722poe    c2322099   3.922   2.630   3.859 -0.4113  0.6972  0.2002
 4722poe     o222100   3.940   2.736   3.768 -0.0348  0.3925 -0.0840
 4722poe    c2322101   4.003   2.843   3.835  0.0270  0.1925  0.1809
 4722poe    c2322102   4.014   2.968   3.746 -0.1821 -0.1699 -0.3582
 4722poe     o222103   4.081   3.082   3.796  0.0089 -0.4438  0.0139
 4722poe    c3122104   4.014   3.167   3.887 -0.1889 -0.1225 -0.4263
 4723poe    c3122105   3.471   7.139   5.128 -0.0511  0.0593 -0.3572
 4723poe     o222106   3.335   7.159   5.101 -0.0743  0.2387 -0.1100
 4723poe    c2322107   3.266   7.160   5.224  0.1553 -0.3165  0.0273
 4723poe    c2322108   3.152   7.262   5.204  0.0777 -0.3952  0.0686
 4723poe     o222109   3.089   7.228   5.083 -0.2584 -0.2963  0.2134
 4723poe    c2322110   2.959   7.278   5.066 -0.1387  0.0000  0.1567
 4723poe    c2322111   2.850   7.171   5.090 -0.1190 -0.0122  0.1908
 4723poe     o222112   2.815   7.116   4.965  0.1974  0.0746  0.0643
 4723poe    c2322113   2.702   7.033   4.968  0.0815  0.2205 -0.1851
 4723poe    c2322114   2.712   6.914   4.871 -0.3347 -0.0093  0.0480
 4723poe     o222115   2.687   6.936   4.734 -0.4160 -0.9360 -0.0932
 4723poe    c3122116   2.559   6.979   4.696 -0.1502 -0.0076  0.0234
 4724poe    c3122117   7.304   6.387   3.562  0.2943 -0.0106  0.2637
 4724poe     o222118   7.291   6.411   3.700 -1.3064  0.2449  0.0801
 4724poe    c2322119   7.304   6.304   3.792  0.0066  0.5435  0.2635
 4724poe    c2322120   7.324   6.335   3.941 -0.6595 -0.8765  0.6637
 4724poe     o222121   7.203   6.373   4.005 -0.9236  0.2992 -0.5010
 4724poe    c2322122   7.224   6.433   4.131  0.0068  0.2689 -0.6320
 4724poe    c2322123   7.096   6.469   4.208  0.0695 -0.1893 -0.3104
 4724poe     o222124   7.022   6.569   4.142  0.3422  0.3056  0.1264
 4724poe    c2322125   6.883   6.552   4.142  0.3947 -0.1307  0.1102
 4724poe    c2322126   6.811   6.679   4.093  0.3106 -0.2979 -0.2068
 4724poe     o222127   6.784   6.694   3.956 -0.0062 -0.0772 -0.1225
 4724poe    c3122128   6.897   6.713   3.873 -0.1055  0.3718 -0.1552
 4725poe    c3122129   4.742   4.171   1.100  0.9694  0.1776 -0.3065
 4725poe     o222130   4.777   4.160   0.964 -0.0216  0.5739 -0.6061
 4725poe    c2322131   4.669   4.197   0.882 -0.6795  0.0746  0.0241
 4725poe    c2322132   4.710   4.161   0.738  0.1340 -0.0409  0.2831
 4725poe     o222133   4.790   4.258   0.673 -0.2693  0.4304  0.4827
 4725poe    c2322134   4.820   4.200   0.548 -0.3656  0.3983  0.4743
 4725poe    c2322135   4.919   4.283   0.465 -0.1772  0.0180  0.3141
 4725poe     o222136   5.046   4.292   0.525  0.1127 -0.3121 -0.2376
 4725poe    c2322137   5.125   4.379   0.447  0.2958 -0.2146  0.0543
 4725poe    c2322138   5.237   4.448   0.526  0.5584  0.0624 -0.5595
 4725poe     o222139   5.171   4.535   0.616  0.2287 -0.8184  0.0586
 4725poe    c3122140   5.223   4.531   0.747  0.5883 -0.3013 -0.0623
 4726poe    c3122141   2.124   0.598   1.585  0.2539 -0.4545 -0.1606
 4726poe     o222142   2.152   0.567   1.719  0.2195  0.7271  0.1344
 4726poe    c2322143   2.190   0.432   1.736 -0.1551  0.5184 -0.6563
 4726poe    c2322144   2.303   0.449   1.839 -0.1041  0.2894 -0.6742
 4726poe     o222145   2.266   0.546   1.935  0.3303 -0.0108 -0.1974
 4726poe    c2322146   2.360   0.552   2.040  0.0271 -0.0090  0.0745
 4726poe    c2322147   2.323   0.674   2.127 -0.4398  0.3965 -0.6799
 4726poe     o222148   2.185   0.666   2.156 -0.2996  0.2030 -0.0583
 4726poe    c2322149   2.138   0.783   2.219 -0.4558  0.1623 -0.0993
 4726poe    c2322150   1.988   0.788   2.253 -0.3173 -0.0587  0.5548
 4726poe     o222151   1.893   0.773   2.150 -0.1500  0.0726  0.3823
 4726poe    c3122152   1.768   0.763   2.214 -0.2263  0.3680  0.2808
 4727poe    c3122153   5.561   4.119   4.888 -0.5162 -0.2394 -0.0751
 4727poe     o222154   5.650   4.204   4.817 -0.1728 -0.6848 -0.1820
 4727poe    c2322155   5.752   4.242   4.906 -0.4384 -0.0264 -0.1544
 4727poe    c2322156   5.867   4.311   4.831 -0.1415  0.1337  0.4435
 4727poe     o222157   5.961   4.371   4.917 -0.0200 -0.1909  0.5383
 4727poe    c2322158   6.072   4.430   4.852 -0.1894 -0.1546  0.2814
 4727poe    c2322159   6.099   4.568   4.914 -0.2976  0.2070 -0.4657
 4727poe     o222160   6.025   4.682   4.876  0.5911  0.7142 -0.7084
 4727poe    c2322161   6.077   4.797   4.939  0.4798  0.0659  0.5894
 4727poe    c2322162   6.006   4.925   4.893  0.2940 -0.1101  0.3800
 4727poe     o222163   5.865   4.922   4.899  0.2321  0.5669 -0.5348
 4727poe    c3122164   5.801   5.048   4.891  0.4165  0.7226  0.2622
 4728poe    c3122165   1.584   3.256   0.052 -0.2959  0.5674  0.2187
 4728poe     o222166   1.504   3.142   0.074  0.5385 -0.0676  0.0345
 4728poe    c2322167   1.413   3.154   0.182  0.2534 -0.1200 -0.1972
 4728poe    c2322168   1.325   3.028   0.170 -0.1887  0.1384  0.3445
 4728poe     o222169   1.293   3.023   0.033  0.5972 -0.0853  0.1643
 4728poe    c2322170   1.169   2.955   0.028  0.3670  0.3836 -0.6321
 4728poe    c2322171   1.135   2.908  -0.115 -0.2583 -0.8409 -0.0937
 4728poe     o222172   1.170   2.996  -0.220 -0.5589 -0.6682 -0.0512
 4728poe    c2322173   1.144   2.960  -0.353 -0.6204 -0.4972 -0.0853
 4728poe    c2322174   1.209   2.834  -0.413 -0.1495 -0.0616 -0.4961
 4728poe     o222175   1.124   2.725  -0.387 -0.0188 -0.0455  0.0083
 4728poe    c3122176   1.170   2.594  -0.409  0.2471 -0.0352  0.4933
 4729poe    c3122177   5.347   6.334   6.083 -0.0151 -0.1127 -0.3762
 4729poe     o222178   5.222   6.381   6.037 -0.1926 -0.0605  0.1504
 4729poe    c2322179   5.164   6.298   5.939 -0.7213 -0.3876  0.7304
 4729poe    c2322180   5.043   6.378   5.884 -0.0504  0.2489  0.1587
 4729poe     o222181   4.974   6.438   5.991 -0.1543  0.4108  0.0016
 4729poe    c2322182   4.845   6.482   5.957 -0.0591  0.2835 -0.5343
 4729poe    c2322183   4.799   6.577   6.069  0.6151 -0.3569  0.2926
 4729poe     o222184   4.888   6.686   6.065 -0.2887  0.3853 -0.1538
 4729poe    c2322185   4.860   6.766   6.177 -0.4184  0.5173 -0.2805
 4729poe    c2322186   4.950   6.891   6.194  0.3179 -0.0060 -0.2914
 4729poe     o222187   5.089   6.872   6.178  0.3717  0.0230  0.1369
 4729poe    c3122188   5.160   6.958   6.264  0.3133  0.1063  0.1013
 4730poe    c3122189   1.554   5.595   5.456 -0.1581 -0.2781 -0.3193
 4730poe     o222190   1.463   5.635   5.556  0.0312 -0.4075 -0.0939
 4730poe    c2322191   1.517   5.657   5.685 -0.2776  0.1855 -0.0614
 4730poe    c2322192   1.416   5.662   5.802  0.5612  0.3356  0.6608
 4730poe     o222193   1.322   5.767   5.799 -0.3325 -0.4657 -0.0398
 4730poe    c2322194   1.283   5.803   5.929  0.1057 -0.1711  0.0124
 4730poe    c2322195   1.159   5.894   5.919 -0.2149 -0.6435 -0.3132
 4730poe     o222196   1.204   5.986   5.823  0.0703 -0.3190  0.1297
 4730poe    c2322197   1.140   6.109   5.848 -0.2685 -0.5408  0.3502
 4730poe    c2322198   1.101   6.178   5.716  0.3776 -0.0158  0.4342
 4730poe     o222199   1.218   6.225   5.652  0.2874 -0.3099  0.0485
 4730poe    c3122200   1.202   6.265   5.518  0.2366 -0.0130  0.1413
 4731poe    c3122201   4.847   6.268   7.247 -0.0556  0.2414 -0.1047
 4731poe     o222202   4.762   6.312   7.350  0.0574  0.4872 -0.1157
 4731poe    c2322203   4.820   6.418   7.422 -0.0780 -0.0084  0.7353
 4731poe    c2322204   4.709   6.483   7.507 -0.8030 -0.3428  0.0497
 4731poe     o222205   4.602   6.552   7.446 -0.9573 -0.8465 -0.2559
 4731poe    c2322206   4.527   6.604   7.554  0.4372  0.2601  0.2054
 4731poe    c2322207   4.425   6.711   7.512 -0.5484 -0.5197  0.5814
 4731poe     o222208   4.344   6.670   7.404 -0.3955  0.1535  0.1998
 4731poe    c2322209   4.241   6.588   7.456  0.3424 -0.4913  0.6789
 4731poe    c2322210   4.165   6.495   7.360  0.3815 -0.2080  0.3694
 4731poe     o222211   4.248   6.396   7.305  0.5109 -0.2230  0.5904
 4731poe    c3122212   4.169   6.284   7.269 -0.0944  0.2956  0.2837
 4732poe    c3122213   4.923   3.053   5.427  0.0923 -0.2814  0.7425
 4732poe     o222214   4.796   2.998   5.457 -0.1677  0.0745  0.2940
 4732poe    c2322215   4.713   3.002   5.343  0.1092 -0.1440  0.0802
 4732poe    c2322216   4.563   3.020   5.374  0.1546  0.5282 -0.0725
 4732poe     o222217   4.497   3.067   5.259 -0.0457 -0.1310 -0.2302
 4732poe    c2322218   4.357   3.078   5.270  0.0335  0.1062  0.6156
 4732poe    c2322219   4.292   3.099   5.131  0.3211 -0.7717  0.3389
 4732poe     o222220   4.300   2.987   5.045  0.1748 -0.2369 -0.3760
 4732poe    c2322221   4.250   3.016   4.917  0.7005  0.5188 -0.4183
 4732poe    c2322222   4.201   2.901   4.826 -0.0027  0.0890  0.4899
 4732poe     o222223   4.309   2.811   4.813  0.0608  0.2196  0.1053
 4732poe    c3122224   4.277   2.690   4.749  0.0961  0.2303  0.0678
 4733poe    c3122225   6.648   2.035   6.131 -0.0237 -0.0567 -0.1841
 4733poe     o222226   6.544   1.940   6.146 -0.0933  0.0391 -0.0526
 4733poe    c2322227   6.553   1.877   6.271  0.5028 -0.2889 -0.2572
 4733poe    c2322228   6.465   1.754   6.297  0.0169  0.0850 -0.1188
 4733poe     o222229   6.334   1.789   6.336 -0.0080 -0.1298 -0.0106
 4733poe    c2322230   6.252   1.678   6.367 -0.0099 -0.0225  0.3746
 4733poe    c2322231   6.256   1.628   6.512  0.0546  0.1372  0.4287
 4733poe     o222232   6.184   1.698   6.611 -0.4791 -0.0818  0.2019
 4733poe    c2322233   6.205   1.666   6.747  0.2453  0.1870  0.1610
 4733poe    c2322234   6.336   1.677   6.827  0.1656  0.3902  0.2639
 4733poe     o222235   6.364   1.815   6.823  0.9041  0.2205 -0.7567
 4733poe    c3122236   6.481   1.826   6.901  0.5587  0.1084 -0.2209
 4734poe    c3122237   5.314   5.526   3.363 -0.0872  0.4197  0.3509
 4734poe     o222238   5.316   5.596   3.241  0.2556  0.4704  0.3862
 4734poe    c2322239   5.195   5.668   3.231 -0.0471 -0.0640  0.1746
 4734poe    c2322240   5.147   5.718   3.093  0.6088  0.2764  0.0660
 4734poe     o222241   5.098   5.615   3.012 -0.2737  0.5589  0.2310
 4734poe    c2322242   5.090   5.674   2.884 -0.0620  0.4726  0.1766
 4734poe    c2322243   4.998   5.595   2.788  0.2935 -0.1075  0.3120
 4734poe     o222244   4.870   5.579   2.844  0.4373 -0.6336  0.5011
 4734poe    c2322245   4.793   5.479   2.781 -0.3151  0.3085 -0.1215
 4734poe    c2322246   4.695   5.426   2.888 -0.0689 -0.3177 -0.1983
 4734poe     o222247   4.607   5.515   2.954 -0.1782 -0.4269 -0.1973
 4734poe    c3122248   4.473   5.491   2.916 -0.1920 -0.2851 -0.2390
 4735poe    c3122249   0.399   6.029   0.139 -0.3264 -0.4041  0.4387
 4735poe     o222250   0.405   5.888   0.136  0.6746 -0.3762  0.8257
 4735poe    c2322251   0.288   5.813   0.161  0.3755 -0.2820 -0.2363
 4735poe    c2322252   0.304   5.661   0.151  0.1784 -0.2970 -0.3363
 4735poe     o222253   0.392   5.608   0.248 -0.1428 -0.2221 -0.0026
 4735poe    c2322254   0.381   5.470   0.221 -0.3790 -0.1810 -0.1220
 4735poe    c2322255   0.500   5.393   0.282 -0.3551 -0.0565 -0.0106
 4735poe     o222256   0.623   5.428   0.222 -0.2455  0.3660  0.4536
 4735poe    c2322257   0.732   5.373   0.293  0.1883 -0.3280 -0.7349
 4735poe    c2322258   0.874   5.401   0.242  0.6142 -0.1724  0.5206
 4735poe     o222259   0.890   5.325   0.125  0.0351  0.5299 -0.0232
 4735poe    c3122260   1.014   5.356   0.065  0.1690  0.0827  0.0149
 4736poe    c3122261   0.511   1.316   0.138 -0.7268  0.0673 -0.0346
 4736poe     o222262   0.500   1.295  -0.001  0.1799  0.0122 -0.1071
 4736poe    c2322263   0.497   1.165  -0.055 -0.2422  0.0142 -0.0961
 4736poe    c2322264   0.431   1.171  -0.194  0.1425  0.1900 -0.2725
 4736poe     o222265   0.493   1.268  -0.275  0.5707  0.1788  0.0363
 4736poe    c2322266   0.609   1.216  -0.337  0.3122 -0.3650  0.0055
 4736poe    c2322267   0.590   1.156  -0.477 -0.4991  0.8716 -0.4384
 4736poe     o222268   0.502   1.046  -0.484  0.1104  0.3502 -0.0536
 4736poe    c2322269   0.517   0.992  -0.613 -0.1238  0.2527 -0.0393
 4736poe    c2322270   0.447   0.855  -0.630 -0.3129  0.3279  0.1270
 4736poe     o222271   0.506   0.759  -0.545 -0.2981  0.0532 -0.1910
 4736poe    c3122272   0.411   0.676  -0.483  0.3568 -0.8845 -0.4226
 4737poe    c3122273   5.495   0.520   7.329  0.2041  0.3350 -0.0156
 4737poe     o222274   5.595   0.480   7.420  0.4679  0.1312 -0.3901
 4737poe    c2322275   5.704   0.423   7.351  0.3332 -0.4561 -0.1238
 4737poe    c2322276   5.834   0.436   7.433  0.0155  0.6459  0.2204
 4737poe     o222277   5.821   0.378   7.561 -0.2254  0.5702  0.1636
 4737poe    c2322278   5.922   0.434   7.643  0.3035 -0.3051  0.1281
 4737poe    c2322279   5.894   0.387   7.786  0.4184 -0.3247  0.1442
 4737poe     o222280   5.784   0.458   7.840  0.6558  0.2655 -0.1426
 4737poe    c2322281   5.795   0.501   7.974 -0.0116  0.1101 -0.0373
 4737poe    c2322282   5.658   0.563   8.010  0.0662 -0.1516  0.7290
 4737poe     o222283   5.554   0.471   8.033 -0.3931  0.3008  0.4722
 4737poe    c3122284   5.435   0.546   8.039 -0.2230  0.5869  0.2428
 4738poe    c3122285   5.645   7.112   2.531 -0.3521  0.3655 -0.0424
 4738poe     o222286   5.585   7.051   2.419 -0.4904  0.5243 -0.0558
 4738poe    c2322287   5.670   7.047   2.307  0.5758 -0.0260  0.7525
 4738poe    c2322288   5.707   6.901   2.274  0.1106  0.0104  0.0555
 4738poe     o222289   5.586   6.829   2.282  0.0497  0.0591 -0.3690
 4738poe    c2322290   5.617   6.694   2.256  0.2962  0.0119  0.1535
 4738poe    c2322291   5.486   6.616   2.277  0.4772 -0.3750 -0.1422
 4738poe     o222292   5.446   6.605   2.412 -0.5203 -0.0161 -0.3998
 4738poe    c2322293   5.317   6.548   2.412 -0.4639 -0.1420 -0.4861
 4738poe    c2322294   5.283   6.499   2.554  0.2844 -0.0909 -0.2848
 4738poe     o222295   5.339   6.595   2.641 -0.0656  0.3301 -0.5224
 4738poe    c3122296   5.292   6.555   2.768  0.2083 -0.2938 -0.6152
 4739poe    c3122297   0.377   6.051   5.262  0.1779  0.6247 -0.2491
 4739poe     o222298   0.241   6.084   5.283  0.0524 -0.3912  0.6164
 4739poe    c2322299   0.168   6.065   5.165  0.2665 -0.2964  0.4670
 4739poe    c2322300   0.020   6.091   5.200  0.0977  0.0903 -0.5014
 4739poe     o222301   0.017   6.218   5.262 -0.3270 -0.2892  0.2693
 4739poe    c2322302  -0.108   6.245   5.321 -0.1954  0.1487  0.3553
 4739poe    c2322303  -0.090   6.377   5.397 -0.0072  0.5080 -0.3006
 4739poe     o222304   0.017   6.364   5.488  0.0774 -0.0199 -0.4703
 4739poe    c2322305   0.001   6.480   5.567 -0.0234 -0.2574 -0.1397
 4739poe    c2322306   0.122   6.485   5.661 -0.2501 -0.6526  0.1787
 4739poe     o222307   0.244   6.490   5.590 -0.3070  0.6535  0.1485
 4739poe    c3122308   0.359   6.491   5.671  0.4024 -0.1651 -0.8225
 4740poe    c3122309   0.320   2.121   5.220 -0.5888  0.2328  0.3687
 4740poe     o222310   0.205   2.132   5.138 -0.1744  0.7469 -0.1486
 4740poe    c2322311   0.253   2.177   5.013  0.0487 -0.0949 -0.3664
 4740poe    c2322312   0.128   2.189   4.924 -0.3383 -0.0566  0.1768
 4740poe     o222313   0.034   2.256   5.004 -0.1017 -0.3301  0.6959
 4740poe    c2322314  -0.095   2.274   4.949  0.0154 -0.2172  0.4566
 4740poe    c2322315  -0.177   2.149   4.985 -0.0573 -0.2482  0.1901
 4740poe     o222316  -0.172   2.148   5.126  0.2427 -0.1389  0.1791
 4740poe    c2322317  -0.247   2.046   5.188 -0.0190  0.1262  0.2988
 4740poe    c2322318  -0.152   1.976   5.286  0.2231 -0.1279 -0.1161
 4740poe     o222319  -0.026   1.976   5.222  0.2711 -0.3228 -0.0216
 4740poe    c3122320   0.060   1.881   5.281  0.5066 -0.0176  0.1308
 4741poe    c3122321   6.414   7.293   3.795  0.1878 -0.6499  0.0189
 4741poe     o222322   6.319   7.200   3.840  0.2268 -0.3565  0.7183
 4741poe    c2322323   6.214   7.290   3.868  0.4023 -0.1429  0.6896
 4741poe    c2322324   6.115   7.224   3.965  0.0117  0.1320  0.4810
 4741poe     o222325   6.178   7.195   4.088  0.3145  0.4554  0.4017
 4741poe    c2322326   6.119   7.106   4.180 -0.4902  0.1180 -0.4282
 4741poe    c2322327   6.106   6.960   4.132  0.7845 -0.4187  0.7814
 4741poe     o222328   6.227   6.889   4.121  0.8785 -0.1268 -0.1421
 4741poe    c2322329   6.215   6.754   4.083 -0.0158  0.0971 -0.6741
 4741poe    c2322330   6.140   6.665   4.184  0.5968  0.4905  0.1382
 4741poe     o222331   6.202   6.540   4.207 -0.1338  0.1204  0.1306
 4741poe    c3122332   6.144   6.460   4.307  0.2877 -0.0460  0.2430
 4742poe    c3122333   0.851   5.139   0.627  0.3082 -0.1414 -0.0584
 4742poe     o222334   0.801   5.268   0.654  0.7920  0.0397 -0.0099
 4742poe    c2322335   0.697   5.260   0.749  0.2331 -0.5300 -0.6614
 4742poe    c2322336   0.561   5.285   0.681  0.0662 -0.4830 -0.3091
 4742poe     o222337   0.505   5.169   0.624 -0.0754 -0.4702 -0.1975
 4742poe    c2322338   0.365   5.185   0.638  0.0057 -0.0417  0.1601
 4742poe    c2322339   0.285   5.077   0.564  0.0200 -0.1731  0.3365
 4742poe     o222340   0.292   5.098   0.424  0.4290  0.3189  0.4273
 4742poe    c2322341   0.161   5.088   0.373  0.6434 -0.6856  0.0520
 4742poe    c2322342   0.181   5.110   0.222 -0.5664 -0.7122 -0.1224
 4742poe     o222343   0.287   5.030   0.177 -0.0867  0.0398 -0.3551
 4742poe    c3122344   0.292   5.053   0.038 -0.3191 -0.7968 -0.5083
 4743poe    c3122345   5.246   5.704   5.296  0.0920 -0.3168  0.8812
 4743poe     o222346   5.132   5.646   5.236  0.3288 -0.2435  0.3552
 4743poe    c2322347   5.064   5.561   5.325 -0.3295 -0.2125 -0.1102
 4743poe    c2322348   4.933   5.514   5.258 -0.3339 -0.1542 -0.1416
 4743poe     o222349   4.841   5.452   5.345 -0.0093 -0.3309  0.0830
 4743poe    c2322350   4.711   5.427   5.295 -0.0238  0.5245 -0.3237
 4743poe    c2322351   4.650   5.312   5.376  0.5020  0.0955 -0.5268
 4743poe     o222352   4.723   5.192   5.375 -0.3124 -0.4138 -0.1104
 4743poe    c2322353   4.676   5.114   5.267 -0.1219 -0.4510 -0.1674
 4743poe    c2322354   4.782   5.006   5.240 -0.0803 -0.5282  0.2861
 4743poe     o222355   4.819   4.948   5.363  0.4304  0.0084  0.3881
 4743poe    c3122356   4.887   4.824   5.355  0.9704  0.3249 -0.0049
 4744poe    c3122357   4.162   5.096   7.202 -0.1262  0.8263  0.3725
 4744poe     o222358   4.285   5.143   7.251  0.1573  0.1201  0.3561
 4744poe    c2322359   4.357   5.226   7.163 -0.2971  0.5864  0.4166
 4744poe    c2322360   4.503   5.261   7.197 -0.3101  0.5113  0.5465
 4744poe     o222361   4.516   5.360   7.297 -0.3006  0.7379  0.3212
 4744poe    c2322362   4.635   5.324   7.364 -0.4988  0.2212  0.3973
 4744poe    c2322363   4.668   5.395   7.496  0.2974 -0.2356  0.4509
 4744poe     o222364   4.567   5.408   7.595  0.0494  0.3511  0.1239
 4744poe    c2322365   4.614   5.443   7.723  0.2427  0.2463  0.0828
 4744poe    c2322366   4.523   5.533   7.809 -0.4579 -0.3525 -0.0244
 4744poe     o222367   4.502   5.657   7.744 -0.9667 -0.3116  0.2108
 4744poe    c3122368   4.445   5.757   7.824  0.1115  0.1326  0.4439
 4745poe    c3122369   0.824   2.279   6.060 -0.3525  0.2828  0.6869
 4745poe     o222370   0.709   2.323   5.991  0.0035 -0.1808 -0.2326
 4745poe    c2322371   0.692   2.254   5.870 -0.2303 -0.0508 -0.2748
 4745poe    c2322372   0.559   2.293   5.803 -0.0899  0.2276 -0.3927
 4745poe     o222373   0.450   2.225   5.861  0.2999  0.4483  0.6065
 4745poe    c2322374   0.338   2.261   5.784  0.2776 -0.1070  0.3724
 4745poe    c2322375   0.203   2.191   5.807  0.0231  0.2116 -0.1307
 4745poe     o222376   0.174   2.201   5.945 -0.0598  0.0884 -0.1391
 4745poe    c2322377   0.044   2.158   5.977  0.1025 -0.0384  0.3593
 4745poe    c2322378   0.010   2.114   6.120 -0.4142  0.2975  0.3418
 4745poe     o222379   0.033   2.213   6.219  0.9388 -0.0095  0.3490
 4745poe    c3122380   0.060   2.139   6.336 -0.3395 -0.3772  0.4271
 4746poe    c3122381   4.191   2.390   7.395 -0.3997 -0.1827  0.6757
 4746poe     o222382   4.314   2.457   7.380 -0.3148 -0.3759  0.5072
 4746poe    c2322383   4.413   2.359   7.402 -0.0024 -0.1588  0.0737
 4746poe    c2322384   4.530   2.415   7.485  0.0300  0.3073 -0.2792
 4746poe     o222385   4.485   2.431   7.617  0.1439  0.4979 -0.2639
 4746poe    c2322386   4.581   2.490   7.702  0.5939  0.4603 -0.7443
 4746poe    c2322387   4.690   2.410   7.776 -0.0816  0.5355  0.3555
 4746poe     o222388   4.651   2.302   7.858  0.1424  0.1912  0.0111
 4746poe    c2322389   4.742   2.262   7.958 -0.2795  0.0280  0.3329
 4746poe    c2322390   4.742   2.109   7.972  1.1454  0.0153  0.3113
 4746poe     o222391   4.773   2.041   7.853  0.0389  0.2397 -0.1103
 4746poe    c3122392   4.764   1.904   7.883  0.3715  0.1736 -0.3017
 4747poe    c3122393   7.427   4.912   6.884  0.1395 -0.4585  0.2729
 4747poe     o222394   7.389   4.904   7.019  0.6996  0.5505  0.5006
 4747poe    c2322395   7.466   4.816   7.098  0.3020 -0.1965  0.0591
 4747poe    c2322396   7.415   4.810   7.243  0.3022  0.6922  0.1004
 4747poe     o222397   7.281   4.765   7.249  0.3860  0.4914  0.4782
 4747poe    c2322398   7.224   4.782   7.377 -0.2862  0.2929  0.2079
 4747poe    c2322399   7.082   4.723   7.369 -0.2581  0.2652 -0.0937
 4747poe     o222400   7.001   4.795   7.278 -0.3806  0.5356  0.2275
 4747poe    c2322401   6.881   4.723   7.263 -0.0142 -0.0654  0.1698
 4747poe    c2322402   6.776   4.805   7.186  0.1729  0.3122  0.3169
 4747poe     o222403   6.727   4.920   7.251  0.7161  0.5616  0.2948
 4747poe    c3122404   6.631   4.976   7.164 -0.1574  0.0296  0.8980
 4748poe    c3122405   5.320   1.866   1.413  0.2605  0.4216 -0.2681
 4748poe     o222406   5.199   1.904   1.475 -0.0352 -0.6852 -0.1433
 4748poe    c2322407   5.197   1.840   1.600  0.5596  0.1667  0.3102
 4748poe    c2322408   5.165   1.920   1.728  0.0916  0.2263  0.1574
 4748poe     o222409   5.250   2.032   1.723  0.1450  0.1707 -0.2454
 4748poe    c2322410   5.233   2.119   1.833 -0.4635 -0.0331 -0.1731
 4748poe    c2322411   5.364   2.188   1.876 -0.1783 -0.3275 -0.5740
 4748poe     o222412   5.432   2.269   1.783  0.5472  0.3912  0.5630
 4748poe    c2322413   5.571   2.282   1.802  0.6424  0.4301 -0.1284
 4748poe    c2322414   5.647   2.380   1.710  0.5269  0.4296 -0.2254
 4748poe     o222415   5.635   2.338   1.576  0.0579  0.2161 -0.1173
 4748poe    c3122416   5.755   2.367   1.509  0.1838  0.3509  0.1641
 4749poe    c3122417   0.883   1.501   3.397 -0.6891  0.6632 -0.2989
 4749poe     o222418   0.856   1.566   3.519 -0.5385  0.6676 -0.2672
 4749poe    c2322419   0.967   1.630   3.577 -0.0309 -0.4855  0.0636
 4749poe    c2322420   0.922   1.690   3.712  0.4118  0.3578 -0.1598
 4749poe     o222421   0.857   1.814   3.694 -0.3803 -0.0422 -0.1010
 4749poe    c2322422   0.840   1.881   3.817 -0.9406  0.3374 -0.3796
 4749poe    c2322423   0.784   2.024   3.827 -0.2301  0.5545  0.6372
 4749poe     o222424   0.857   2.131   3.772  0.2947 -0.2923 -0.3514
 4749poe    c2322425   0.981   2.157   3.834 -0.1966 -0.2956  0.6411
 4749poe    c2322426   0.982   2.229   3.971 -0.4250  0.1077  0.4330
 4749poe     o222427   0.904   2.346   3.964 -0.0861  0.3277  0.3065
 4749poe    c3122428   0.913   2.437   4.072  0.3072  0.3638  0.2455
 4750poe    c3122429   3.343   3.561   0.287 -0.3886 -0.1286 -0.1751
 4750poe     o222430   3.468   3.579   0.224 -0.1024 -0.4234  0.2972
 4750poe    c2322431   3.507   3.713   0.203 -0.0475 -0.4133  0.4630
 4750poe    c2322432   3.660   3.727   0.194 -0.1122  0.1844  0.2558
 4750poe     o222433   3.736   3.673   0.299  0.1940  0.3891  0.1414
 4750poe    c2322434   3.749   3.763   0.407 -0.0643 -0.3675  0.8182
 4750poe    c2322435   3.862   3.701   0.490  0.9606  0.4262  0.0564
 4750poe     o222436   3.848   3.563   0.519  0.1137  0.3873 -0.5214
 4750poe    c2322437   3.943   3.511   0.609 -0.2378  0.4111 -0.1359
 4750poe    c2322438   3.890   3.377   0.664  0.0154  0.3439 -0.0546
 4750poe     o222439   3.890   3.281   0.560  0.3157 -0.1947  0.4352
 4750poe    c3122440   3.783   3.190   0.564  0.1813 -0.0624 -0.1186
 4751poe    c3122441   0.707   3.132   7.371 -0.2323 -0.6612 -0.4494
 4751poe     o222442   0.773   3.241   7.433 -0.1082 -0.3708 -1.0894
 4751poe    c2322443   0.904   3.234   7.382  0.3274 -1.0698  0.0889
 4751poe    c2322444   0.980   3.342   7.462 -1.0306  0.1794 -0.2556
 4751poe     o222445   0.948   3.327   7.599  0.5160 -0.3327  0.0691
 4751poe    c2322446   1.049   3.382   7.681  0.0076 -0.1601  0.5809
 4751poe    c2322447   0.973   3.405   7.814  0.4177  0.0475  0.7803
 4751poe     o222448   0.928   3.282   7.867 -0.1327 -0.2123 -0.2671
 4751poe    c2322449   0.892   3.309   8.001 -0.8068  0.2874 -0.5408
 4751poe    c2322450   0.796   3.201   8.053 -0.0263 -0.0866  0.1492
 4751poe     o222451   0.682   3.190   7.970 -0.0902 -0.0099  0.2263
 4751poe    c3122452   0.592   3.124   8.056 -0.3882  0.1499  0.0366
 4752poe    c3122453   2.565   4.600   0.274 -0.0151 -0.2525 -0.5327
 4752poe     o222454   2.592   4.463   0.292  0.2217 -0.1577 -0.1729
 4752poe    c2322455   2.638   4.401   0.175  0.1126 -0.4537 -0.0601
 4752poe    c2322456   2.636   4.247   0.186 -0.3579 -0.4481 -0.0438
 4752poe     o222457   2.505   4.197   0.199 -0.2993 -0.5709  0.0880
 4752poe    c2322458   2.524   4.085   0.281  0.3732 -0.3122  0.2885
 4752poe    c2322459   2.394   4.011   0.319  0.2627 -0.1755  0.1742
 4752poe     o222460   2.324   3.943   0.217 -0.4091  0.0780  0.4601
 4752poe    c2322461   2.241   3.833   0.244  0.1177 -0.4939 -0.1932
 4752poe    c2322462   2.116   3.867   0.328 -0.1950 -0.3103 -0.7265
 4752poe     o222463   2.017   3.946   0.266 -0.3469  0.1301  0.0631
 4752poe    c3122464   1.925   3.864   0.198 -0.0609 -0.0441 -0.1166
 4753poe    c3122465   3.126   0.931   1.452 -0.3365  0.4199 -1.0863
 4753poe     o222466   3.158   0.803   1.403  0.5851  0.0597  0.4060
 4753poe    c2322467   3.088   0.690   1.449  0.1425  0.1100 -0.1405
 4753poe    c2322468   3.151   0.565   1.384  0.0373 -0.0843  0.1289
 4753poe     o222469   3.281   0.547   1.434  0.1052 -0.2749 -0.1172
 4753poe    c2322470   3.276   0.469   1.551 -0.1303  0.4570  0.3602
 4753poe    c2322471   3.413   0.485   1.620 -0.1702  0.0362  0.5374
 4753poe     o222472   3.508   0.477   1.516 -0.6306  0.0085  0.1152
 4753poe    c2322473   3.637   0.457   1.570 -0.6011  0.4410  0.2059
 4753poe    c2322474   3.729   0.490   1.451 -0.6002 -0.1123  0.0525
 4753poe     o222475   3.669   0.599   1.385 -0.2456 -0.3474 -0.6758
 4753poe    c3122476   3.774   0.675   1.331 -0.2586  0.2251  0.0820
 4754poe    c3122477   7.338   1.284   0.232  0.2531 -0.4153  0.2318
 4754poe     o222478   7.424   1.325   0.336  0.5962  0.1126 -0.2542
 4754poe    c2322479   7.452   1.463   0.334 -0.7912  0.4093  0.1780
 4754poe    c2322480   7.493   1.514   0.474  0.3353  0.4435 -0.1565
 4754poe     o222481   7.390   1.488   0.566  0.2265  0.1387 -0.3581
 4754poe    c2322482   7.436   1.504   0.699 -0.0673 -0.8720 -0.1272
 4754poe    c2322483   7.341   1.487   0.819 -0.2642  0.2025 -0.1189
 4754poe     o222484   7.259   1.599   0.843 -0.3644  0.2694 -0.7448
 4754poe    c2322485   7.224   1.606   0.980  1.0140 -0.2099 -0.3503
 4754poe    c2322486   7.152   1.739   1.009  0.5824 -0.4333 -0.3778
 4754poe     o222487   7.022   1.736   0.956  0.4315 -0.6462  0.0032
 4754poe    c3122488   6.988   1.872   0.941  0.0803 -0.7480 -0.1437
 4755poe    c3122489   6.061   4.667   0.012 -0.0779 -0.5265  0.3215
 4755poe     o222490   6.006   4.728   0.126 -0.0796  0.3241 -0.1309
 4755poe    c2322491   6.107   4.776   0.212 -0.0839  0.3297 -0.1291
 4755poe    c2322492   6.056   4.792   0.356  0.2441  0.2102  0.0002
 4755poe     o222493   5.950   4.884   0.367  0.2206  0.1353  0.4048
 4755poe    c2322494   5.904   4.887   0.501 -0.0851  0.1689  0.3005
 4755poe    c2322495   5.775   4.971   0.505 -0.0339  0.2621  0.0330
 4755poe     o222496   5.679   4.902   0.428  0.4454 -0.3538 -0.0228
 4755poe    c2322497   5.567   4.859   0.503  0.1945  0.1548 -0.1070
 4755poe    c2322498   5.486   4.740   0.448  1.0441 -0.3675 -0.2377
 4755poe     o222499   5.421   4.782   0.331 -0.1864 -0.2930  0.4554
 4755poe    c3122500   5.305   4.704   0.311 -0.5763  0.4693 -0.3781
 4756poe    c3122501   3.170   5.401   3.793  0.1927  0.0998 -0.2866
 4756poe     o222502   3.104   5.341   3.902  0.5379 -0.1689 -0.2220
 4756poe    c2322503   3.175   5.239   3.968  0.0333 -0.2453  0.2141
 4756poe    c2322504   3.106   5.183   4.093 -0.3756  0.2577  0.2174
 4756poe     o222505   3.084   5.298   4.171  0.1490  0.5062  0.0020
 4756poe    c2322506   3.036   5.259   4.298 -0.1055  0.5621 -0.0760
 4756poe    c2322507   3.016   5.380   4.391 -0.7496  0.1531  0.3247
 4756poe     o222508   2.936   5.472   4.319 -0.2779  0.1280 -0.2398
 4756poe    c2322509   2.903   5.582   4.400 -0.3794 -0.0869  0.0165
 4756poe    c2322510   2.991   5.707   4.375 -0.0770 -0.2514  0.2443
 4756poe     o222511   2.982   5.766   4.247  0.2136  0.6362  0.6262
 4756poe    c3122512   3.005   5.905   4.248 -0.5412  0.7711 -0.1186
 4757poe    c3122513   1.275   1.196   0.746 -0.3209  0.6048 -0.0428
 4757poe     o222514   1.188   1.215   0.854  0.1589  0.3605  0.3938
 4757poe    c2322515   1.217   1.132   0.964  0.0300 -0.3485 -0.1020
 4757poe    c2322516   1.106   1.146   1.069 -0.2908  1.0752 -0.6079
 4757poe     o222517   0.979   1.126   1.011 -0.3695  0.1209 -0.1322
 4757poe    c2322518   0.868   1.136   1.098  0.0741  0.7001  0.3792
 4757poe    c2322519   0.742   1.127   1.011  0.0984  0.0341  0.4079
 4757poe     o222520   0.712   1.248   0.944  0.3085 -0.1671 -0.0549
 4757poe    c2322521   0.607   1.217   0.855  0.0699  0.6388 -0.0565
 4757poe    c2322522   0.551   1.330   0.765 -0.1984  0.3724 -0.2273
 4757poe     o222523   0.466   1.427   0.821  0.0624  0.1476  0.5802
 4757poe    c3122524   0.400   1.495   0.716  0.1949  0.2947  0.5918
 4758poe    c3122525   0.307   0.494   1.205 -0.9161 -0.5903 -0.1092
 4758poe     o222526   0.388   0.379   1.191 -0.1478 -0.1322  0.5464
 4758poe    c2322527   0.520   0.396   1.238  0.1261  0.0504 -0.2835
 4758poe    c2322528   0.586   0.258   1.259  0.0467  0.0385 -0.1106
 4758poe     o222529   0.501   0.179   1.338  0.1849 -0.0045 -0.0053
 4758poe    c2322530   0.562   0.052   1.350 -0.2654 -0.2925 -0.7318
 4758poe    c2322531   0.508  -0.027   1.471  0.1546 -0.2022 -0.4875
 4758poe     o222532   0.391  -0.099   1.442  0.3243 -0.6656 -0.0371
 4758poe    c2322533   0.344  -0.169   1.555 -0.1148  0.1180  0.2771
 4758poe    c2322534   0.246  -0.091   1.644 -0.1656  0.0721  0.2613
 4758poe     o222535   0.123  -0.042   1.593  0.1367  0.4258 -0.1401
 4758poe    c3122536   0.037  -0.143   1.545  0.2186  0.3436 -0.1164
 4759poe    c3122537   3.785   2.258   0.563  0.0786 -0.4128  0.0879
 4759poe     o222538   3.664   2.324   0.590  0.2873  0.0538 -0.1061
 4759poe    c2322539   3.573   2.289   0.488 -0.1127 -0.2428  0.3448
 4759poe    c2322540   3.432   2.350   0.488  0.0604  0.1679 -0.2387
 4759poe     o222541   3.371   2.352   0.615  0.2646  0.5125 -0.1430
 4759poe    c2322542   3.250   2.421   0.589 -0.0010  0.1989  0.2342
 4759poe    c2322543   3.166   2.450   0.715  0.1009  0.2757  0.2847
 4759poe     o222544   3.125   2.330   0.777 -0.1418 -0.0868 -0.5546
 4759poe    c2322545   3.021   2.367   0.865  0.3592 -0.1085  0.0502
 4759poe    c2322546   2.945   2.247   0.926  0.1261 -0.1180 -0.2584
 4759poe     o222547   2.896   2.156   0.830 -0.3537  0.3090 -0.4238
 4759poe    c3122548   2.800   2.070   0.887 -0.0007  0.5236  0.5165
 4760poe    c3122549   2.341   6.404   1.581 -0.0646  0.1910  0.5466
 4760poe     o222550   2.210   6.368   1.619 -0.0410  0.1194  0.5612
 4760poe    c2322551   2.146   6.492   1.642  0.1741  0.4649 -0.6364
 4760poe    c2322552   1.993   6.489   1.620  0.0576  0.3495  0.1546
 4760poe     o222553   1.947   6.385   1.703 -0.5780  0.6196  0.1423
 4760poe    c2322554   1.806   6.389   1.714 -0.6092 -0.0524  0.0746
 4760poe    c2322555   1.734   6.291   1.808  0.0028 -0.2898  0.3043
 4760poe     o222556   1.721   6.156   1.770 -0.7138 -0.1414 -0.0114
 4760poe    c2322557   1.694   6.064   1.874  0.4985 -0.5256 -0.0208
 4760poe    c2322558   1.664   5.923   1.820 -0.2975 -0.2713 -0.2525
 4760poe     o222559   1.785   5.890   1.756 -0.1096  0.4605 -0.2756
 4760poe    c3122560   1.836   5.764   1.794  0.2697  0.6364 -0.1921
 4761poe    c3122561   5.640   0.201   0.893  0.4218 -0.8431 -0.4111
 4761poe     o222562   5.679   0.190   1.029 -0.3323 -0.7762 -0.1882
 4761poe    c2322563   5.817   0.205   1.053 -0.4785 -0.0830  0.2375
 4761poe    c2322564   5.813   0.249   1.201 -0.3303 -0.4957  0.3658
 4761poe     o222565   5.740   0.369   1.215  0.5609  0.1165 -0.1046
 4761poe    c2322566   5.810   0.489   1.193  0.0102  0.4527 -0.0123
 4761poe    c2322567   5.711   0.607   1.208 -0.3437  0.2488 -0.7295
 4761poe     o222568   5.620   0.563   1.306  0.3792  0.3931  0.0110
 4761poe    c2322569   5.540   0.670   1.351 -0.1470 -0.0356  0.1056
 4761poe    c2322570   5.422   0.604   1.425 -0.4711  0.2049 -0.1951
 4761poe     o222571   5.374   0.498   1.344 -0.4355  0.2311 -0.2513
 4761poe    c3122572   5.261   0.444   1.410 -0.0558 -0.0787  0.1490
 4762poe    c3122573   5.894   3.955   6.313 -0.0640 -0.0315  0.3490
 4762poe     o222574   5.921   4.073   6.242  0.1858 -0.4956 -0.3340
 4762poe    c2322575   5.801   4.145   6.229  0.3269 -0.1036  0.4874
 4762poe    c2322576   5.830   4.296   6.215 -0.3098 -0.0446 -0.2374
 4762poe     o222577   5.884   4.348   6.334 -0.6620 -0.2562  0.0179
 4762poe    c2322578   5.906   4.487   6.316  0.1145 -0.4510 -0.5730
 4762poe    c2322579   6.045   4.527   6.369 -0.2652 -0.1963  0.2440
 4762poe     o222580   6.050   4.453   6.489  0.2973 -0.4822  0.0484
 4762poe    c2322581   6.166   4.487   6.561  0.2927  0.1165 -0.2203
 4762poe    c2322582   6.135   4.428   6.700  0.0224 -0.2351 -0.4268
 4762poe     o222583   6.071   4.303   6.695 -0.3201 -0.0840  0.0741
 4762poe    c3122584   6.019   4.274   6.823  0.2049 -0.7584  0.1410
 4763poe    c3122585   5.157   0.064   4.653  0.0097  0.4064  0.6703
 4763poe     o222586   5.051   0.151   4.622 -0.5106 -0.2727  0.5017
 4763poe    c2322587   5.035   0.253   4.719  0.1196 -0.2444  0.5834
 4763poe    c2322588   4.912   0.336   4.677  0.4685  0.0314  0.1108
 4763poe     o222589   4.814   0.238   4.653  0.5752  0.0018 -0.2083
 4763poe    c2322590   4.716   0.310   4.583  0.3181 -0.0429  0.1029
 4763poe    c2322591   4.599   0.217   4.545  0.1069  0.2940 -0.0785
 4763poe     o222592   4.642   0.117   4.456 -0.0701  0.2533 -0.1201
 4763poe    c2322593   4.552   0.009   4.448  0.0621  0.1109  0.3093
 4763poe    c2322594   4.595  -0.091   4.339 -0.0771 -0.3449  0.6671
 4763poe     o222595   4.559  -0.045   4.210 -0.1810 -0.6330  0.5932
 4763poe    c3122596   4.596  -0.144   4.117 -0.5382  0.1657 -0.4168
 4764poe    c3122597   7.345   2.478   2.379 -0.0511  0.0546  0.4021
 4764poe     o222598   7.225   2.407   2.402  0.0968 -0.2560  0.2186
 4764poe    c2322599   7.140   2.404   2.290  0.5505  0.0135 -0.1385
 4764poe    c2322600   7.005   2.359   2.349  0.4617 -0.2163 -0.5087
 4764poe     o222601   7.000   2.222   2.382  0.1524  0.0696  0.6782
 4764poe    c2322602   6.871   2.193   2.430 -0.1489  0.4436  0.0946
 4764poe    c2322603   6.854   2.047   2.474  0.0898  0.4307  0.1424
 4764poe     o222604   6.933   1.995   2.579 -0.0229  0.2141  0.1209
 4764poe    c2322605   6.912   1.856   2.588  0.2802  0.1651  0.0529
 4764poe    c2322606   7.006   1.782   2.685  0.1026 -0.1232  0.0066
 4764poe     o222607   7.139   1.782   2.636  0.0574 -0.1859 -0.1161
 4764poe    c3122608   7.229   1.702   2.709  0.0170 -0.1248  0.0010
 4765poe    c3122609   6.097   5.850   6.043 -0.3795  0.3405  0.1009
 4765poe     o222610   6.024   5.900   5.933  0.0870 -0.2634 -0.4872
 4765poe    c2322611   5.976   6.026   5.973  0.1611 -0.1659 -0.7011
 4765poe    c2322612   5.908   6.112   5.865 -0.6373  0.2206  0.0986
 4765poe     o222613   5.990   6.131   5.752 -0.1737 -0.4254  0.3192
 4765poe    c2322614   5.900   6.165   5.648  0.3330 -0.0716 -0.0064
 4765poe    c2322615   5.954   6.204   5.509 -0.5501  0.1922 -0.2837
 4765poe     o222616   5.996   6.094   5.433 -0.0137  0.1034  0.1254
 4765poe    c2322617   6.010   6.130   5.297  0.2557  0.4134  0.2359
 4765poe    c2322618   6.027   6.006   5.207 -0.2491 -0.1170  0.8596
 4765poe     o222619   6.135   5.923   5.244  0.1129  0.0983  0.2987
 4765poe    c3122620   6.119   5.816   5.154  0.1747  0.4175 -0.0952
 4766poe    c3122621   1.358   6.653   5.552 -0.7529 -0.0917 -0.2470
 4766poe     o222622   1.419   6.625   5.676  0.0203 -0.3005 -0.6651
 4766poe    c2322623   1.405   6.487   5.703  0.3807 -0.3177 -0.5694
 4766poe    c2322624   1.508   6.436   5.806  0.3944  0.1894 -0.3282
 4766poe     o222625   1.472   6.517   5.915  0.1507 -0.2692 -0.0663
 4766poe    c2322626   1.506   6.467   6.042  0.2127  0.1211  0.0711
 4766poe    c2322627   1.554   6.573   6.143 -0.6047  0.2554  0.3233
 4766poe     o222628   1.676   6.635   6.110 -0.6165  0.0957 -0.0245
 4766poe    c2322629   1.724   6.724   6.208 -0.2721 -0.3668  0.2294
 4766poe    c2322630   1.776   6.851   6.139 -0.2065 -0.6820 -0.3006
 4766poe     o222631   1.665   6.908   6.073 -0.2071  0.2736  0.5055
 4766poe    c3122632   1.694   7.045   6.055  0.0132  0.1910  0.2141
 4767poe    c3122633   0.142   3.998   5.546 -0.8832  0.1547 -0.4931
 4767poe     o222634   0.108   3.862   5.559  0.0262 -0.0241  0.0660
 4767poe    c2322635   0.158   3.789   5.449  0.2644  0.0459  0.1251
 4767poe    c2322636   0.088   3.653   5.423  0.7551 -0.0923 -0.4960
 4767poe     o222637   0.125   3.543   5.503  0.3150 -0.3485 -0.6448
 4767poe    c2322638   0.109   3.419   5.437  0.0600 -0.3913 -0.5008
 4767poe    c2322639   0.111   3.289   5.520  0.6416 -0.0678  0.0026
 4767poe     o222640  -0.002   3.284   5.605  0.1657  0.8008 -0.5587
 4767poe    c2322641   0.032   3.319   5.737  0.2570 -0.0258 -0.3572
 4767poe    c2322642  -0.084   3.287   5.833  0.6281 -0.1460  0.0584
 4767poe     o222643  -0.114   3.150   5.848 -0.0535 -0.0207 -0.1268
 4767poe    c3122644  -0.032   3.074   5.934  0.0875 -0.3168 -0.5213
 4768poe    c3122645   4.336   6.922   5.283  0.3153  0.1453  0.0197
 4768poe     o222646   4.442   6.881   5.200  0.1235  0.3142 -0.3100
 4768poe    c2322647   4.554   6.965   5.217  0.3103  0.0123 -0.0379
 4768poe    c2322648   4.692   6.911   5.175  0.2225  0.2971 -0.7008
 4768poe     o222649   4.687   6.878   5.038 -0.3546 -0.2127 -0.5619
 4768poe    c2322650   4.817   6.895   4.986 -0.3272  0.6995 -0.2258
 4768poe    c2322651   4.822   6.845   4.840  0.3761 -0.2137  0.1000
 4768poe     o222652   4.777   6.712   4.849 -0.2578  0.0049  0.2225
 4768poe    c2322653   4.763   6.648   4.724 -0.0349 -0.3411  0.3731
 4768poe    c2322654   4.711   6.503   4.729  0.2309 -0.4731 -0.4581
 4768poe     o222655   4.593   6.462   4.793  0.0107  0.0747 -0.5092
 4768poe    c3122656   4.602   6.326   4.755  0.3256 -0.1271  0.2623
 4769poe    c3122657   5.099   2.617   0.686 -0.2470 -0.2672  0.1628
 4769poe     o222658   5.190   2.510   0.689 -0.8828 -0.8280 -0.1837
 4769poe    c2322659   5.259   2.490   0.811 -0.4638 -0.1429 -0.3022
 4769poe    c2322660   5.392   2.421   0.777 -0.2701 -0.0190  0.1904
 4769poe     o222661   5.385   2.281   0.756 -0.5724 -0.0657  0.6034
 4769poe    c2322662   5.482   2.246   0.661 -0.5279 -0.2488  0.7161
 4769poe    c2322663   5.503   2.093   0.666  0.4513 -0.1484  0.0189
 4769poe     o222664   5.537   2.049   0.796 -0.5670  0.1262  0.3863
 4769poe    c2322665   5.553   1.909   0.797  0.2192  0.2010 -0.3089
 4769poe    c2322666   5.478   1.825   0.902  0.1197  0.2506 -0.3391
 4769poe     o222667   5.545   1.844   1.024 -0.4896  0.3550 -0.0177
 4769poe    c3122668   5.487   1.786   1.139 -0.3515  0.3771  0.0648
 4770poe    c3122669   4.513   3.410   5.444  0.3551  0.0768 -0.2128
 4770poe     o222670   4.500   3.449   5.309 -0.5726 -0.7120 -0.3607
 4770poe    c2322671   4.363   3.440   5.276 -0.5963 -0.5308 -0.3110
 4770poe    c2322672   4.329   3.476   5.130 -1.0774 -0.3167 -0.1488
 4770poe     o222673   4.376   3.388   5.031 -0.1928  0.2624 -0.2591
 4770poe    c2322674   4.343   3.431   4.901 -0.3312 -0.0229 -0.3180
 4770poe    c2322675   4.458   3.413   4.801 -0.2353 -0.2426 -0.1678
 4770poe     o222676   4.423   3.430   4.666 -0.3871 -0.2179 -0.1239
 4770poe    c2322677   4.443   3.311   4.594 -0.0547  0.1322 -0.6153
 4770poe    c2322678   4.512   3.338   4.459  0.4800 -0.4475 -0.4639
 4770poe     o222679   4.651   3.353   4.478  0.2792  0.7426  0.1643
 4770poe    c3122680   4.726   3.390   4.364  0.2369  0.4013  0.0236
 4771poe    c3122681   1.963   0.158   3.115 -0.0750  0.6862  0.5841
 4771poe     o222682   1.915   0.213   2.995 -0.3571 -0.4609  0.1596
 4771poe    c2322683   1.896   0.351   3.019 -0.6325 -0.3918 -0.4365
 4771poe    c2322684   1.847   0.424   2.893 -0.1194  0.4794 -0.1407
 4771poe     o222685   1.955   0.422   2.802  0.3884  0.3046  0.4642
 4771poe    c2322686   1.913   0.511   2.701 -0.1965 -0.0232  0.4178
 4771poe    c2322687   1.980   0.509   2.563 -0.4353  0.1812  0.2975
 4771poe     o222688   1.923   0.400   2.494 -0.3222  0.2331  0.1230
 4771poe    c2322689   1.961   0.416   2.359  0.5543  0.2102  0.3638
 4771poe    c2322690   1.882   0.329   2.260  0.8482  0.3968 -0.0379
 4771poe     o222691   1.757   0.378   2.217  0.6071  0.0707  0.2859
 4771poe    c3122692   1.707   0.292   2.118  0.5215  0.3159  0.1157
 4772poe    c3122693   0.912   4.610   7.423 -0.1089 -0.1857 -0.0334
 4772poe     o222694   0.976   4.615   7.297  0.0972 -0.2875  0.0661
 4772poe    c2322695   0.932   4.732   7.231 -0.0249 -0.4873 -0.2072
 4772poe    c2322696   1.018   4.763   7.108  0.2341 -0.6383 -0.0635
 4772poe     o222697   1.141   4.825   7.141  0.4158 -1.1115  0.1625
 4772poe    c2322698   1.245   4.794   7.052  0.4360  0.1459 -0.2704
 4772poe    c2322699   1.382   4.843   7.104  0.3153  0.4438 -0.2294
 4772poe     o222700   1.443   4.774   7.211 -0.2080 -0.0197 -0.2242
 4772poe    c2322701   1.540   4.858   7.269  0.1380 -0.4643 -0.1559
 4772poe    c2322702   1.595   4.794   7.398  0.4096 -0.6203 -0.3478
 4772poe     o222703   1.481   4.739   7.460  0.0043  0.4203 -0.1593
 4772poe    c3122704   1.520   4.688   7.585 -0.3367  0.5056 -0.0143
 4773poe    c3122705   0.699   4.960   4.972 -0.0095 -0.4209  0.0953
 4773poe     o222706   0.797   5.042   4.912  0.0868 -0.4674  0.1869
 4773poe    c2322707   0.898   4.971   4.845  0.1377  0.1144 -0.3724
 4773poe    c2322708   1.026   5.053   4.819  0.5120 -0.2233  0.3638
 4773poe     o222709   1.007   5.138   4.709 -0.0174  0.1509  0.7392
 4773poe    c2322710   1.089   5.252   4.719  0.2579  0.0429 -0.1616
 4773poe    c2322711   1.030   5.360   4.627 -0.1513 -0.1828 -0.1669
 4773poe     o222712   0.901   5.398   4.669 -0.0112  0.5128 -0.3409
 4773poe    c2322713   0.849   5.522   4.627 -0.0209  0.6971  0.2158
 4773poe    c2322714   0.697   5.519   4.651 -0.0346  0.2022  0.0673
 4773poe     o222715   0.648   5.441   4.544 -0.1623  0.0362  0.2451
 4773poe    c3122716   0.509   5.418   4.555 -0.2059  0.1079 -0.1234
 4774poe    c3122717   5.083   0.345   1.013  0.0534 -0.5373  0.1084
 4774poe     o222718   4.979   0.366   0.919  0.2965  0.3425  0.0247
 4774poe    c2322719   5.025   0.321   0.794 -0.0085 -0.6685  0.2711
 4774poe    c2322720   4.915   0.343   0.689  0.4271 -0.1836 -0.0881
 4774poe     o222721   4.890   0.478   0.657  0.1954 -0.2739 -0.2943
 4774poe    c2322722   4.780   0.483   0.569 -0.2696  0.0597  0.3026
 4774poe    c2322723   4.711   0.619   0.554 -0.2541 -0.0154 -0.4525
 4774poe     o222724   4.645   0.640   0.677  0.5079 -0.1976 -0.0112
 4774poe    c2322725   4.638   0.775   0.716 -0.3208 -0.2599  0.0693
 4774poe    c2322726   4.769   0.844   0.761 -0.4451 -0.0059  0.0447
 4774poe     o222727   4.853   0.796   0.863 -0.0532  0.1082 -0.2212
 4774poe    c3122728   4.974   0.868   0.866  0.3183 -0.4822 -0.7341
 4775poe    c3122729   0.498   4.775   3.826  0.1619  0.3303 -0.4480
 4775poe     o222730   0.419   4.865   3.751  0.0373  0.3067 -0.3450
 4775poe    c2322731   0.386   4.984   3.820  0.0623  0.4031 -0.4995
 4775poe    c2322732   0.300   5.082   3.739 -0.5118  0.4547  0.1642
 4775poe     o222733   0.379   5.151   3.645 -0.1590  0.2606  0.3144
 4775poe    c2322734   0.311   5.234   3.553 -0.1945 -0.1023  0.0114
 4775poe    c2322735   0.411   5.293   3.452 -0.3960  0.2784  0.0341
 4775poe     o222736   0.483   5.187   3.392  0.3221  0.9349 -0.2894
 4775poe    c2322737   0.553   5.214   3.274  0.7326  0.2116 -0.2127
 4775poe    c2322738   0.610   5.081   3.220  0.0503 -0.3169  0.3567
 4775poe     o222739   0.661   4.996   3.321  0.3370  0.3351  0.7687
 4775poe    c3122740   0.746   4.901   3.260 -0.0005  0.5063  0.0201
 4776poe    c3122741   7.279   5.763   4.407  0.6897 -0.2582  0.8090
 4776poe     o222742   7.172   5.756   4.499  0.0890  0.1348  0.1418
 4776poe    c2322743   7.052   5.775   4.426 -0.0419 -0.3988  0.2174
 4776poe    c2322744   6.959   5.842   4.529 -0.2694  0.4051 -0.5089
 4776poe     o222745   7.006   5.970   4.568 -0.0554  0.2132 -0.1314
 4776poe    c2322746   6.919   6.047   4.647  0.1547 -0.0165  0.3250
 4776poe    c2322747   7.005   6.165   4.697  0.3066  0.1441 -0.3090
 4776poe     o222748   7.133   6.154   4.753  0.0224 -0.5328  0.2200
 4776poe    c2322749   7.169   6.267   4.829 -0.1366 -0.2083 -0.1916
 4776poe    c2322750   7.317   6.294   4.795 -0.2019  0.4650  0.0304
 4776poe     o222751   7.409   6.203   4.853  0.2054  0.6872 -0.2629
 4776poe    c3122752   7.542   6.246   4.834  0.4539 -0.1473 -0.4342
 4777poe    c3122753   2.224   5.904   2.024  0.1528  0.1642  0.0603
 4777poe     o222754   2.230   5.969   1.898 -0.4004  0.1253  0.0117
 4777poe    c2322755   2.322   5.916   1.806  0.1092  0.1684  0.4902
 4777poe    c2322756   2.471   5.944   1.832  0.3215 -0.2718 -0.2222
 4777poe     o222757   2.525   6.075   1.834 -0.3536 -0.0039  0.6581
 4777poe    c2322758   2.662   6.055   1.860 -0.2599 -0.2327  0.0107
 4777poe    c2322759   2.746   6.184   1.876  0.1697 -0.6052  0.8474
 4777poe     o222760   2.733   6.252   1.998  0.7391 -0.5915  0.9036
 4777poe    c2322761   2.840   6.343   2.011 -0.0547  0.5063 -0.0349
 4777poe    c2322762   2.889   6.347   2.157 -0.0222  0.3321 -0.0419
 4777poe     o222763   2.968   6.231   2.178 -0.0939  0.3760  0.4720
 4777poe    c3122764   3.047   6.232   2.295  0.2740 -0.6210  0.2407
 4778poe    c3122765   5.865   4.748   7.194 -0.5798  0.7034 -0.9785
 4778poe     o222766   5.939   4.862   7.156 -0.0021  0.6826  0.0385
 4778poe    c2322767   6.062   4.821   7.101  0.0695  0.2647  0.5091
 4778poe    c2322768   6.154   4.944   7.095 -0.0396  0.3292  0.1257
 4778poe     o222769   6.116   5.040   6.999  0.1940  0.1103 -0.1857
 4778poe    c2322770   6.198   5.151   7.028 -0.0328  0.2302  0.0015
 4778poe    c2322771   6.200   5.250   6.910  0.5140 -0.1081 -0.2787
 4778poe     o222772   6.064   5.283   6.896  0.6225  0.4909  0.0733
 4778poe    c2322773   6.040   5.358   6.778 -0.0501 -0.2192 -0.2544
 4778poe    c2322774   5.892   5.387   6.748 -0.0200 -0.0956 -0.2847
 4778poe     o222775   5.824   5.273   6.700 -0.1827 -0.2255  0.2514
 4778poe    c3122776   5.684   5.272   6.714 -0.2073 -0.5293  0.0007
 4779poe    c3122777   3.258   3.142   7.007 -0.6954 -0.4470 -0.6833
 4779poe     o222778   3.323   3.177   6.887  0.1867 -0.3089 -0.1802
 4779poe    c2322779   3.404   3.289   6.912 -0.1747 -0.0638 -0.0994
 4779poe    c2322780   3.454   3.358   6.784  0.7507  0.4809  0.5397
 4779poe     o222781   3.520   3.261   6.705  0.0352  0.3377  0.1081
 4779poe    c2322782   3.578   3.318   6.590  0.1074  0.5419  0.2457
 4779poe    c2322783   3.711   3.250   6.552 -0.3358  0.0258 -0.4100
 4779poe     o222784   3.700   3.112   6.525  0.2222 -0.2600  0.7644
 4779poe    c2322785   3.822   3.048   6.497  0.1006 -0.0047 -0.4097
 4779poe    c2322786   3.820   2.901   6.543 -0.0771  0.0540 -0.2304
 4779poe     o222787   3.903   2.863   6.651 -0.0325 -0.1961 -0.3537
 4779poe    c3122788   3.847   2.749   6.712 -0.5398  0.3401  0.1887
 4780poe    c3122789   5.206   2.773   6.455  0.2172 -0.2240  0.0386
 4780poe     o222790   5.321   2.695   6.476  0.0360 -0.3527  0.5588
 4780poe    c2322791   5.287   2.582   6.553  0.2061 -0.1992  0.8636
 4780poe    c2322792   5.403   2.503   6.616  0.3917 -0.2951  0.4074
 4780poe     o222793   5.356   2.464   6.743  0.5790  0.3432  0.6783
 4780poe    c2322794   5.404   2.346   6.803  0.3618 -0.0346  0.1190
 4780poe    c2322795   5.307   2.318   6.920 -0.9106  0.8900 -0.6905
 4780poe     o222796   5.198   2.239   6.879 -0.6942  0.1929  0.0572
 4780poe    c2322797   5.117   2.174   6.975 -0.1639 -0.2452  0.2113
 4780poe    c2322798   5.009   2.083   6.915 -0.5777  0.2654  0.1696
 4780poe     o222799   5.057   1.954   6.881 -0.1882  0.5323 -0.3066
 4780poe    c3122800   4.947   1.866   6.873  0.2313  0.0114 -0.4226
 4781poe    c3122801   6.372   0.571   5.375  0.2259 -0.2984  0.0589
 4781poe     o222802   6.343   0.433   5.359  0.3609 -0.3428  0.1991
 4781poe    c2322803   6.255   0.397   5.255 -0.0016 -0.3470  0.5058
 4781poe    c2322804   6.106   0.434   5.254  0.1624  0.3318 -0.6674
 4781poe     o222805   6.019   0.381   5.352  0.1388  0.2854 -0.7137
 4781poe    c2322806   5.881   0.398   5.325  0.0629  0.9554  0.0606
 4781poe    c2322807   5.806   0.439   5.453  0.4867  0.2950  0.5227
 4781poe     o222808   5.797   0.336   5.549 -1.1011  0.1476  0.2369
 4781poe    c2322809   5.803   0.390   5.679 -0.1709 -0.5162  0.4807
 4781poe    c2322810   5.698   0.494   5.723  0.1783  0.2389 -0.4405
 4781poe     o222811   5.571   0.437   5.700  0.0328 -0.2453  1.3753
 4781poe    c3122812   5.469   0.513   5.761 -0.2413  0.4638  0.0750
 4782poe    c3122813   6.645   2.115   0.535  0.5707 -0.3338 -0.5778
 4782poe     o222814   6.599   2.238   0.484  0.3757 -0.1415  0.0514
 4782poe    c2322815   6.525   2.201   0.370  0.1121 -0.2443  0.2548
 4782poe    c2322816   6.487   2.311   0.269 -0.3183 -0.3409  0.3096
 4782poe     o222817   6.382   2.387   0.326 -0.2350 -0.3578  0.4865
 4782poe    c2322818   6.327   2.483   0.239 -0.1555 -0.6207  0.1470
 4782poe    c2322819   6.419   2.587   0.172 -0.0249 -0.7335  0.1505
 4782poe     o222820   6.493   2.663   0.265 -0.2069 -0.5800  0.1701
 4782poe    c2322821   6.625   2.698   0.229 -0.3399 -0.0489  0.1928
 4782poe    c2322822   6.686   2.769   0.352  0.0539  0.0827 -0.0791
 4782poe     o222823   6.634   2.892   0.394 -0.1568  0.0120 -0.1316
 4782poe    c3122824   6.726   2.998   0.377 -0.3123  0.1702 -0.0004
 4783poe    c3122825   0.734   6.234   5.611  0.1609 -0.1723  0.4910
 4783poe     o222826   0.799   6.110   5.595  0.1195 -0.1360  0.0116
 4783poe    c2322827   0.708   6.016   5.540  0.0918 -0.0298 -0.1243
 4783poe    c2322828   0.789   5.894   5.492 -0.1083 -0.2962  0.2125
 4783poe     o222829   0.905   5.931   5.421 -0.1624 -0.5378 -0.0018
 4783poe    c2322830   0.872   5.939   5.285  0.7119 -0.0487 -0.1925
 4783poe    c2322831   0.982   6.009   5.203  0.7699  0.1793  0.0803
 4783poe     o222832   1.091   5.922   5.182  0.5210 -0.1726  0.2296
 4783poe    c2322833   1.176   5.991   5.092  0.1078  0.1760  0.1017
 4783poe    c2322834   1.320   5.954   5.131  0.0830  0.1454  0.1652
 4783poe     o222835   1.359   6.012   5.254  0.1057 -0.2173  0.3310
 4783poe    c3122836   1.500   6.018   5.252  0.0772  0.4068  0.0350
 4784poe    c3122837   7.531   4.078   1.117 -0.2103  0.1950 -0.1694
 4784poe     o222838   7.672   4.084   1.118 -0.2214  0.4708 -0.0201
 4784poe    c2322839   7.720   4.141   1.237  0.7646 -0.3344 -0.0151
 4784poe    c2322840   7.777   4.282   1.213  0.5965 -0.3953 -0.7922
 4784poe     o222841   7.671   4.356   1.157  0.2345 -0.0699  0.2861
 4784poe    c2322842   7.706   4.492   1.141  0.1114 -0.1011 -0.2925
 4784poe    c2322843   7.613   4.585   1.061 -0.3207 -0.0208  0.2969
 4784poe     o222844   7.610   4.574   0.921 -0.3030 -0.0766  0.3011
 4784poe    c2322845   7.501   4.639   0.861  0.1494  0.4656  0.0618
 4784poe    c2322846   7.502   4.652   0.708  0.5725  0.0491  0.0298
 4784poe     o222847   7.570   4.756   0.642  0.2288  0.0223 -0.3732
 4784poe    c3122848   7.550   4.748   0.502 -0.4637  0.2521 -0.2936
 4785poe    c3122849   0.537   4.487   5.404  0.1641 -0.3373  0.4297
 4785poe     o222850   0.428   4.413   5.355 -0.2194  0.7056 -0.3185
 4785poe    c2322851   0.323   4.439   5.446  0.2482 -0.0227  0.4375
 4785poe    c2322852   0.197   4.352   5.436 -0.0850  0.5297 -0.2369
 4785poe     o222853   0.157   4.328   5.303  0.0058  0.0160 -0.1736
 4785poe    c2322854   0.061   4.224   5.304 -0.1816  0.1901  0.0675
 4785poe    c2322855   0.040   4.176   5.159  0.6182  0.4602 -0.1424
 4785poe     o222856   0.151   4.111   5.101  0.0803 -0.3273 -0.2939
 4785poe    c2322857   0.129   4.071   4.967  0.1822  0.1146 -0.4469
 4785poe    c2322858   0.239   3.973   4.923  0.3540  0.2238 -0.2621
 4785poe     o222859   0.201   3.841   4.955 -0.2111  0.3391 -0.4410
 4785poe    c3122860   0.274   3.743   4.884 -0.5799 -0.6094  0.4706
 4786poe    c3122861   2.421   6.278   3.456  0.1369  0.9917 -0.6764
 4786poe     o222862   2.545   6.287   3.523 -0.2640 -0.5432  0.3208
 4786poe    c2322863   2.518   6.351   3.646 -0.0238 -0.2727  0.2360
 4786poe    c2322864   2.633   6.367   3.747  0.0917  0.5559 -0.0211
 4786poe     o222865   2.662   6.244   3.811  0.2855  0.6884  0.1444
 4786poe    c2322866   2.700   6.267   3.945 -0.2241  0.6619  0.2956
 4786poe    c2322867   2.727   6.141   4.030 -0.3275 -0.1919 -0.9106
 4786poe     o222868   2.606   6.091   4.083 -0.0198 -0.6136 -0.5925
 4786poe    c2322869   2.611   5.995   4.185 -0.2217 -0.1967 -0.1871
 4786poe    c2322870   2.607   6.060   4.324  0.3060 -0.1438 -0.1973
 4786poe     o222871   2.736   6.084   4.375  0.2165  0.6766 -0.3467
 4786poe    c3122872   2.745   6.118   4.512 -0.7903  0.0205 -0.1126
 4787poe    c3122873   4.532   3.312   1.262 -0.1654 -0.5116  0.5877
 4787poe     o222874   4.581   3.214   1.173 -0.6591  0.3499 -0.6508
 4787poe    c2322875   4.551   3.255   1.042 -0.3600 -0.1829 -0.8880
 4787poe    c2322876   4.607   3.145   0.950  0.3251 -0.1921 -0.4644
 4787poe     o222877   4.565   3.025   1.013  0.2007 -0.0821 -0.3375
 4787poe    c2322878   4.605   2.905   0.951  0.1494 -0.1095 -0.3171
 4787poe    c2322879   4.542   2.782   1.019  1.1616 -0.4198  0.0745
 4787poe     o222880   4.570   2.777   1.157 -0.2012  0.1565  0.3895
 4787poe    c2322881   4.513   2.664   1.220  0.1150 -0.1109  0.2018
 4787poe    c2322882   4.362   2.665   1.248  0.1787  0.0299  0.5509
 4787poe     o222883   4.331   2.769   1.339 -0.3175 -0.0963  0.5286
 4787poe    c3122884   4.194   2.767   1.372 -0.4461 -0.2439 -0.0018
 4788poe    c3122885   4.845   3.861   7.371  0.0444 -0.3435  0.2221
 4788poe     o222886   4.883   3.813   7.244  0.1074  0.1876  0.0351
 4788poe    c2322887   5.014   3.856   7.213  0.0444  0.3345 -0.0297
 4788poe    c2322888   5.061   3.777   7.089 -0.7153 -0.5580  0.2332
 4788poe     o222889   5.001   3.819   6.969 -0.2111  0.2793  0.2595
 4788poe    c2322890   4.997   3.707   6.883 -0.4425  0.4624  0.0292
 4788poe    c2322891   4.961   3.738   6.737  0.4677  0.3503 -0.2228
 4788poe     o222892   4.848   3.822   6.737 -0.3485 -0.7179  0.6934
 4788poe    c2322893   4.793   3.849   6.610  0.1091 -0.4463  0.5507
 4788poe    c2322894   4.678   3.944   6.647  0.2760 -0.0767  0.1376
 4788poe     o222895   4.717   4.014   6.764  0.1800 -0.0509  0.1551
 4788poe    c3122896   4.607   4.094   6.798  0.3023  0.1687  0.0316
 4789poe    c3122897   1.816   0.011   0.933 -0.2407 -0.5171 -0.0638
 4789poe     o222898   1.737  -0.055   1.029 -0.8820 -0.0806 -0.2921
 4789poe    c2322899   1.655   0.032   1.104 -0.0839  0.1606  0.3127
 4789poe    c2322900   1.592  -0.034   1.229 -0.3320 -0.2968 -0.0527
 4789poe     o222901   1.701  -0.060   1.315 -0.1368  0.3447 -0.1013
 4789poe    c2322902   1.664  -0.082   1.450 -0.6622  0.3364 -0.2438
 4789poe    c2322903   1.662  -0.230   1.492  0.3128  0.3363 -0.1688
 4789poe     o222904   1.558  -0.317   1.454  0.2914  0.2864  0.0015
 4789poe    c2322905   1.435  -0.302   1.521  0.2915 -0.3083  0.1444
 4789poe    c2322906   1.328  -0.406   1.484  0.2815 -0.2168 -0.0845
 4789poe     o222907   1.353  -0.530   1.546 -0.3919 -0.2940  0.0400
 4789poe    c3122908   1.281  -0.639   1.492 -0.8334  0.3546 -0.7021
 4790poe    c3122909   3.037   2.979   3.168  0.5388 -0.1132 -0.0796
 4790poe     o222910   3.076   2.961   3.034  0.2786 -0.6530 -0.0891
 4790poe    c2322911   3.217   2.966   3.028  0.2612  0.2662 -0.0139
 4790poe    c2322912   3.248   2.969   2.877 -0.1708  0.3436 -0.1020
 4790poe     o222913   3.162   2.875   2.817 -0.0773  0.1586  0.0561
 4790poe    c2322914   3.177   2.872   2.677  0.2821 -0.6055  0.1028
 4790poe    c2322915   3.068   2.770   2.639  0.0561 -0.2434 -0.2271
 4790poe     o222916   2.949   2.807   2.703  0.1813 -0.3752  0.0820
 4790poe    c2322917   2.832   2.744   2.654  0.1324 -0.2875  0.0854
 4790poe    c2322918   2.769   2.616   2.712 -0.6119 -0.0752 -0.2487
 4790poe     o222919   2.739   2.650   2.845  0.9678 -0.4925  0.2309
 4790poe    c3122920   2.654   2.554   2.904 -0.2989  0.1377 -0.5275
 4791poe    c3122921   2.576   4.063   6.363 -0.1524 -0.1076 -0.2864
 4791poe     o222922   2.520   3.955   6.291 -0.1619 -0.4635  0.2527
 4791poe    c2322923   2.380   3.970   6.301 -0.1291 -0.0634  0.1107
 4791poe    c2322924   2.312   3.888   6.190 -0.1994 -0.2523  0.2946
 4791poe     o222925   2.356   3.915   6.059 -0.3006  0.0361  0.3185
 4791poe    c2322926   2.396   3.797   5.992 -0.0773  0.6355 -0.6120
 4791poe    c2322927   2.451   3.811   5.849  0.5566  0.4403 -0.3905
 4791poe     o222928   2.574   3.878   5.836  0.6702  0.2935 -0.0684
 4791poe    c2322929   2.596   3.900   5.699  0.0734  0.4271 -0.1418
 4791poe    c2322930   2.730   3.966   5.663 -0.2152  0.8824 -0.4097
 4791poe     o222931   2.774   4.073   5.744  0.3268  0.2111  0.2030
 4791poe    c3122932   2.910   4.095   5.715  0.2463  0.4232 -0.0195
 4792poe    c3122933   7.367   1.166   7.123  0.2937  0.0616  0.0632
 4792poe     o222934   7.379   1.282   7.045 -0.2225 -0.1771 -0.3792
 4792poe    c2322935   7.436   1.247   6.921  0.6336  0.3220 -0.1364
 4792poe    c2322936   7.460   1.378   6.844  0.2160  0.4344 -0.0743
 4792poe     o222937   7.566   1.459   6.891  0.1466  0.5245 -0.0724
 4792poe    c2322938   7.518   1.592   6.895 -0.6108  0.2522  0.1599
 4792poe    c2322939   7.629   1.685   6.948 -0.1318 -0.3870  0.2910
 4792poe     o222940   7.758   1.643   6.910 -0.1434 -0.1515 -0.0113
 4792poe    c2322941   7.866   1.733   6.919  0.0982 -0.4108 -0.2703
 4792poe    c2322942   7.948   1.740   6.788  0.2907  0.3402 -0.1170
 4792poe     o222943   8.061   1.664   6.754 -0.0761 -0.2803  0.0203
 4792poe    c3122944   8.135   1.713   6.645 -0.3867  0.2598  0.0518
 4793poe    c3122945   6.012   5.637   3.076  0.5385  0.9086  0.4793
 4793poe     o222946   6.034   5.730   2.972 -0.5451  0.5344 -0.0990
 4793poe    c2322947   6.157   5.800   2.970 -0.3823  0.2559  0.1032
 4793poe    c2322948   6.145   5.930   2.889 -0.4943  0.2822  0.1604
 4793poe     o222949   6.143   5.913   2.749 -0.1034 -0.1044  0.1987
 4793poe    c2322950   6.064   6.014   2.691 -0.0567 -0.1431  0.0687
 4793poe    c2322951   5.943   5.954   2.618 -0.0886  0.6613 -0.5621
 4793poe     o222952   5.985   5.876   2.507  0.2208  0.2047 -0.1281
 4793poe    c2322953   5.875   5.816   2.441 -0.1742  0.0447  0.6557
 4793poe    c2322954   5.946   5.684   2.408  0.6814  0.4863  0.6731
 4793poe     o222955   6.031   5.709   2.299 -0.2708  0.4516 -0.0966
 4793poe    c3122956   6.062   5.590   2.229  0.8089  0.1157  0.9227
 4794poe    c3122957   0.487   0.316   6.968 -0.2169 -0.7538 -0.5533
 4794poe     o222958   0.432   0.186   6.964 -0.0638 -0.8454  0.2909
 4794poe    c2322959   0.530   0.089   6.993  0.5018 -0.4336 -0.2136
 4794poe    c2322960   0.517   0.021   7.131  0.8098  0.3583  0.2131
 4794poe     o222961   0.397  -0.052   7.145  0.5763  0.6740 -0.1218
 4794poe    c2322962   0.400  -0.138   7.257 -0.3069 -0.4204 -0.9184
 4794poe    c2322963   0.266  -0.138   7.333  0.0707  0.0564 -0.2383
 4794poe     o222964   0.234  -0.034   7.422 -0.3922 -0.0453 -0.2802
 4794poe    c2322965   0.127  -0.077   7.503 -0.7857  0.3750 -0.5687
 4794poe    c2322966   0.075   0.037   7.593  0.3938  0.5308 -0.0510
 4794poe     o222967   0.161   0.084   7.694  0.2642  0.0858  0.2673
 4794poe    c3122968   0.268   0.162   7.645 -0.1392 -0.1432 -1.0241
 4795poe    c3122969   0.992   3.152   4.198 -0.0448 -0.1129  0.3694
 4795poe     o222970   1.018   3.024   4.251  0.3366 -0.3557 -0.3815
 4795poe    c2322971   0.908   2.943   4.216  0.0123  0.0162 -0.2264
 4795poe    c2322972   0.951   2.806   4.271 -0.1704 -0.0770 -0.3166
 4795poe     o222973   0.979   2.836   4.405 -0.4929  0.3996 -0.3552
 4795poe    c2322974   0.985   2.720   4.484 -0.5486  0.5269 -0.1625
 4795poe    c2322975   1.063   2.743   4.615 -0.2336 -0.1245 -0.2327
 4795poe     o222976   1.190   2.793   4.579 -0.1095 -0.1979  0.1028
 4795poe    c2322977   1.254   2.822   4.702 -0.2450  0.5123  0.0123
 4795poe    c2322978   1.382   2.904   4.678  0.2961 -0.2596  0.2124
 4795poe     o222979   1.359   3.037   4.639 -0.3424 -0.2940  0.4477
 4795poe    c3122980   1.474   3.117   4.627 -0.2681 -0.4904 -0.1734
 4796poe    c3122981   2.907   0.006   0.070  0.6858 -0.1092  0.4776
 4796poe     o222982   2.942   0.032  -0.064  0.0973 -0.3312  0.2790
 4796poe    c2322983   2.928  -0.075  -0.154 -0.3266  0.2034 -0.2969
 4796poe    c2322984   2.954  -0.032  -0.300  0.2480  0.2632 -0.1785
 4796poe     o222985   3.092  -0.026  -0.327  0.3502 -0.8244  0.0537
 4796poe    c2322986   3.118   0.055  -0.440 -0.4979 -0.1502  0.3351
 4796poe    c2322987   3.271   0.061  -0.448 -0.4594 -0.6128  0.6944
 4796poe     o222988   3.318   0.114  -0.326 -0.1325  0.6198  0.0486
 4796poe    c2322989   3.457   0.128  -0.345  0.1392 -1.0245  0.6419
 4796poe    c2322990   3.531   0.178  -0.219 -0.5356  0.2588  0.5474
 4796poe     o222991   3.480   0.092  -0.120 -0.5830 -0.3850 -0.0264
 4796poe    c3122992   3.540   0.102   0.007 -0.8556  0.5041  0.0368
 4797poe    c3122993   6.351   0.684   5.999  0.1636  0.2946 -0.3968
 4797poe     o222994   6.485   0.701   5.957  0.1432 -0.3257 -0.7160
 4797poe    c2322995   6.558   0.767   6.057 -0.0755 -0.7054 -0.3031
 4797poe    c2322996   6.698   0.780   5.995 -0.1487 -0.1865 -0.3629
 4797poe     o222997   6.769   0.658   5.986  0.0343 -0.1859  0.9236
 4797poe    c2322998   6.909   0.675   5.990  0.0079  0.2863  0.0723
 4797poe    c2322999   6.995   0.548   5.980  0.0957  0.3594 -0.1066
 4797poe     o223000   6.960   0.463   6.087  0.9261  0.1985  0.0450
 4797poe    c2323001   7.019   0.335   6.083  0.1740 -0.1660  0.4872
 4797poe    c2323002   6.923   0.251   6.170 -0.0191 -0.4012  0.0481
 4797poe     o223003   6.804   0.214   6.104  0.1351 -0.5880 -0.1279
 4797poe    c3123004   6.715   0.139   6.182 -0.3624 -0.4705 -0.5727
 4798poe    c3123005   3.468   6.114   5.210 -0.4590 -0.2860  0.2181
 4798poe     o223006   3.423   6.105   5.343  0.0314 -0.1540  0.3959
 4798poe    c2323007   3.427   5.970   5.386  0.0045 -0.3709 -0.2762
 4798poe    c2323008   3.362   5.965   5.526  0.3109  0.1193 -0.1152
 4798poe     o223009   3.223   5.987   5.529  0.4164  0.8110 -0.0658
 4798poe    c2323010   3.177   5.996   5.662  0.2671  0.3181 -0.0827
 4798poe    c2323011   3.032   6.049   5.662  0.2305  0.2265 -0.4816
 4798poe     o223012   2.932   5.953   5.639  0.1760  0.0408  0.4755
 4798poe    c2323013   2.807   5.999   5.687  0.2227  0.5174  0.1442
 4798poe    c2323014   2.692   5.903   5.653  0.2201  0.5705  0.0040
 4798poe     o223015   2.700   5.780   5.721 -0.6139  0.6099  0.1795
 4798poe    c3123016   2.592   5.702   5.677  0.0831 -0.1073 -0.2856
 4799poe    c3123017   1.355   0.285   0.282 -0.1291  0.0033 -0.0601
 4799poe     o223018   1.268   0.191   0.339  0.2989 -0.2862  0.1268
 4799poe    c2323019   1.137   0.236   0.311  0.4336 -0.3108 -0.5375
 4799poe    c2323020   1.030   0.139   0.363  0.0489  0.2987 -0.1813
 4799poe     o223021   1.028   0.017   0.292 -0.2462  0.1387  0.0987
 4799poe    c2323022   0.965   0.018   0.166  0.1622  0.4268 -0.1064
 4799poe    c2323023   0.870  -0.101   0.146  0.3493  0.0996  0.8575
 4799poe     o223024   0.751  -0.131   0.216  0.1363 -0.1187  0.4109
 4799poe    c2323025   0.651  -0.032   0.213  0.2143 -0.0602 -0.4794
 4799poe    c2323026   0.521  -0.085   0.277  0.3809 -0.6843 -0.6526
 4799poe     o223027   0.528  -0.113   0.415  0.1227 -0.4804 -0.5974
 4799poe    c3123028   0.428  -0.201   0.461 -0.3086  0.0953 -0.4289
 4800poe    c3123029   2.509   0.674   2.757 -0.1707 -0.3361  0.8260
 4800poe     o223030   2.436   0.733   2.861 -0.0891 -0.0747  0.7347
 4800poe    c2323031   2.358   0.632   2.921  0.0109 -0.2413  0.5852
 4800poe    c2323032   2.252   0.697   3.011 -0.1322  0.1561  0.1309
 4800poe     o223033   2.180   0.619   3.104  0.0440 -0.3034 -0.1199
 4800poe    c2323034   2.073   0.699   3.150  0.2261 -0.0342 -0.1608
 4800poe    c2323035   2.022   0.656   3.289  0.0993 -0.0429 -0.2097
 4800poe     o223036   2.106   0.695   3.395  0.1888  0.0632 -0.3181
 4800poe    c2323037   2.052   0.654   3.519  0.0614  0.3859 -0.2664
 4800poe    c2323038   2.106   0.522   3.578  0.1674  0.3928 -0.3480
 4800poe     o223039   2.243   0.532   3.610  0.1626  0.4563 -0.3465
 4800poe    c3123040   2.286   0.428   3.695 -0.1705  0.2871 -0.3805
 4801poe    c3123041   2.957   6.619   6.378 -1.0996  0.0877 -0.6560
 4801poe     o223042   2.967   6.483   6.415  0.2331  0.4868  0.5462
 4801poe    c2323043   2.921   6.458   6.546 -0.4771 -0.0387  0.2042
 4801poe    c2323044   2.923   6.313   6.597  0.2954 -0.1755 -0.1907
 4801poe     o223045   2.823   6.223   6.553  0.3467 -0.1677 -0.3239
 4801poe    c2323046   2.856   6.090   6.588 -0.7494 -0.3288  0.1381
 4801poe    c2323047   2.747   5.999   6.529 -0.2111 -0.6161 -0.4227
 4801poe     o223048   2.621   6.025   6.586 -0.0990 -0.1644 -0.3776
 4801poe    c2323049   2.508   5.977   6.516 -0.4828  0.2028 -0.0164
 4801poe    c2323050   2.492   5.824   6.514  0.6137  0.0831  0.1636
 4801poe     o223051   2.485   5.765   6.642 -0.0312 -0.3647 -0.0735
 4801poe    c3123052   2.433   5.635   6.625 -0.7061 -0.0380 -0.5597
 4802poe    c3123053   5.114   6.352   0.839 -0.0912  0.1422  0.0700
 4802poe     o223054   5.120   6.318   0.976 -0.5669  0.5161  0.1890
 4802poe    c2323055   5.132   6.178   0.983 -0.5073  0.5082 -0.0486
 4802poe    c2323056   5.152   6.124   1.126 -0.3232  0.6020 -0.0387
 4802poe     o223057   5.032   6.114   1.198 -0.1265  0.0343  0.2209
 4802poe    c2323058   4.997   5.981   1.230 -0.0091 -0.1076 -0.2466
 4802poe    c2323059   5.065   5.911   1.348 -0.1451 -0.2474 -0.2509
 4802poe     o223060   4.996   5.890   1.469  0.0039  0.0311 -0.1184
 4802poe    c2323061   5.087   5.844   1.567 -0.1031  0.0019 -0.0334
 4802poe    c2323062   5.036   5.862   1.712 -0.0375 -0.1425  0.0078
 4802poe     o223063   5.031   6.000   1.740 -0.7882 -0.1517 -0.0618
 4802poe    c3123064   5.020   6.009   1.880  0.4411 -0.2712  0.0524
 4803poe    c3123065   3.251   4.073   5.993  0.2339 -0.0599  0.0417
 4803poe     o223066   3.383   4.108   5.956  0.3461 -0.7449 -0.2186
 4803poe    c2323067   3.464   4.048   6.055  0.5707  0.5157  0.3853
 4803poe    c2323068   3.602   4.007   6.001  0.3813  0.4182 -0.0342
 4803poe     o223069   3.599   3.894   5.917 -0.1673  0.2116  0.2553
 4803poe    c2323070   3.567   3.768   5.972  0.1907  0.2178  0.4795
 4803poe    c2323071   3.663   3.717   6.081 -0.1826 -0.5902  0.4360
 4803poe     o223072   3.792   3.693   6.027 -0.1056 -0.1005  0.3974
 4803poe    c2323073   3.899   3.703   6.119 -0.1068  0.2541  0.3607
 4803poe    c2323074   3.995   3.590   6.077 -0.3906  0.2367 -0.2662
 4803poe     o223075   4.031   3.619   5.944  0.1599  0.0409 -0.1623
 4803poe    c3123076   4.128   3.527   5.899 -0.0080  0.0048 -0.4519
 4804poe    c3123077   7.051   4.700   6.526 -0.0515 -0.6007  0.1542
 4804poe     o223078   7.118   4.749   6.413 -0.2399 -0.5267  0.0743
 4804poe    c2323079   7.143   4.635   6.334 -0.0075 -0.0167 -0.6036
 4804poe    c2323080   7.236   4.660   6.214 -0.1745 -0.1067 -0.7532
 4804poe     o223081   7.352   4.723   6.263 -0.6027  0.3626 -0.3299
 4804poe    c2323082   7.444   4.719   6.156  0.0283 -0.3361  0.2283
 4804poe    c2323083   7.542   4.837   6.141 -0.8965  0.4269  0.0807
 4804poe     o223084   7.650   4.837   6.232 -0.8258 -0.2682  0.0041
 4804poe    c2323085   7.669   4.951   6.313 -0.7164 -0.1794 -0.1450
 4804poe    c2323086   7.766   4.925   6.429 -0.6498 -0.0822 -0.1787
 4804poe     o223087   7.716   4.837   6.528  0.4954 -0.8730 -0.2816
 4804poe    c3123088   7.808   4.810   6.632  0.8569 -0.7118 -0.5603
 4805poe    c3123089   5.917   3.988   7.221 -0.2755 -0.6837 -0.6609
 4805poe     o223090   5.879   3.884   7.308  0.3087 -0.0666  0.3683
 4805poe    c2323091   5.805   3.944   7.411  0.2127  0.0234  0.2481
 4805poe    c2323092   5.851   3.925   7.557  0.2209  0.1472  0.2614
 4805poe     o223093   5.806   3.813   7.630 -0.1495 -0.0218 -0.2213
 4805poe    c2323094   5.801   3.842   7.768  0.3450  0.3750 -0.2814
 4805poe    c2323095   5.788   3.717   7.857  0.4035  0.7124  0.2001
 4805poe     o223096   5.912   3.651   7.874  0.0775  0.0469  0.0065
 4805poe    c2323097   5.913   3.587   8.000  0.2876  0.1239  0.0441
 4805poe    c2323098   6.059   3.584   8.047  0.0079 -0.1702  0.9069
 4805poe     o223099   6.145   3.505   7.967  0.0371  0.5499  0.2158
 4805poe    c3123100   6.279   3.521   8.009  0.0415  0.2767  0.3072
 4806poe    c3123101   0.938   6.541   1.769  0.2699 -0.3499 -0.1536
 4806poe     o223102   0.833   6.509   1.857 -0.1064  0.2446 -0.3780
 4806poe    c2323103   0.725   6.452   1.788  0.2145 -1.1013  0.1884
 4806poe    c2323104   0.609   6.393   1.871 -0.7608 -0.4125 -0.6563
 4806poe     o223105   0.652   6.273   1.930  0.0469  0.0645 -0.2522
 4806poe    c2323106   0.550   6.176   1.923 -0.0840  0.1570  0.3296
 4806poe    c2323107   0.595   6.042   1.983  0.5062  0.3126  0.2350
 4806poe     o223108   0.635   6.058   2.118  0.0202  0.4821  0.3613
 4806poe    c2323109   0.639   5.939   2.194  0.1391 -0.0116 -0.4062
 4806poe    c2323110   0.740   5.828   2.158  0.0357 -0.1457 -0.2842
 4806poe     o223111   0.862   5.849   2.227 -0.0866 -0.6108  0.0764
 4806poe    c3123112   0.966   5.882   2.138 -0.6148  0.5368 -0.1336
 4807poe    c3123113   0.182   5.760   5.479 -0.1838 -0.7903 -0.2706
 4807poe     o223114   0.060   5.829   5.464 -0.0309 -0.2599  0.8417
 4807poe    c2323115  -0.040   5.745   5.411  0.3645  0.1863 -0.6712
 4807poe    c2323116  -0.183   5.800   5.400  0.2002 -0.0018  0.3754
 4807poe     o223117  -0.245   5.803   5.526  0.1422  0.0542  0.3460
 4807poe    c2323118  -0.384   5.825   5.514  0.1318 -0.3145 -0.2292
 4807poe    c2323119  -0.455   5.859   5.646 -0.0934  0.0458 -0.4411
 4807poe     o223120  -0.433   5.996   5.674 -0.1855  0.0153 -0.2130
 4807poe    c2323121  -0.382   6.000   5.805  0.2599  0.2636 -0.3928
 4807poe    c2323122  -0.265   6.100   5.812  0.3594  0.1209  0.0344
 4807poe     o223123  -0.308   6.234   5.828 -0.5311 -0.2369  0.6944
 4807poe    c3123124  -0.211   6.316   5.888 -0.5583 -0.0545  0.4876
 4808poe    c3123125   2.114   2.919   6.518 -0.3108 -0.2034  0.1574
 4808poe     o223126   1.979   2.954   6.499 -0.2153 -0.0693 -0.2791
 4808poe    c2323127   1.957   3.091   6.473 -0.5791 -0.0901 -0.0873
 4808poe    c2323128   1.834   3.144   6.548 -0.2557 -0.1524  0.4919
 4808poe     o223129   1.865   3.162   6.685 -0.0143 -0.3964  0.4703
 4808poe    c2323130   1.770   3.230   6.764 -0.1914  0.3372 -0.3520
 4808poe    c2323131   1.839   3.287   6.890 -0.7175  0.3462 -0.0630
 4808poe     o223132   1.860   3.186   6.986 -0.2638  0.6053  0.1141
 4808poe    c2323133   1.944   3.221   7.093  0.0317 -0.2793  0.1802
 4808poe    c2323134   1.946   3.106   7.196  0.0439  0.0118  0.5071
 4808poe     o223135   2.009   2.992   7.142 -0.2762 -0.1528  0.4738
 4808poe    c3123136   2.053   2.909   7.247 -0.2657 -0.7348  0.0149
 4809poe    c3123137   4.813   2.667   6.552  0.2389 -0.2065  0.3130
 4809poe     o223138   4.873   2.540   6.537  0.0827 -0.2327 -0.0964
 4809poe    c2323139   4.954   2.515   6.649  0.2583  0.0212 -0.1639
 4809poe    c2323140   5.003   2.369   6.640  0.3390 -0.0037  0.5691
 4809poe     o223141   5.089   2.338   6.532 -0.9373 -0.0358 -0.4601
 4809poe    c2323142   5.096   2.202   6.495 -0.1602  0.0984 -0.8150
 4809poe    c2323143   5.195   2.191   6.377  0.4878 -0.3246 -0.2421
 4809poe     o223144   5.154   2.296   6.293 -0.0752 -0.1041  0.2988
 4809poe    c2323145   5.268   2.361   6.240 -0.1521  0.2208  0.5266
 4809poe    c2323146   5.239   2.463   6.128 -0.0776 -0.8561 -0.4928
 4809poe     o223147   5.354   2.539   6.100 -0.0877 -0.6552  0.0023
 4809poe    c3123148   5.321   2.639   6.006 -0.5854 -0.7227  0.1031
 4810poe    c3123149   4.001   0.874   3.581 -0.1215 -0.3548  0.4270
 4810poe     o223150   4.104   0.796   3.525 -0.0973 -0.1165  0.1282
 4810poe    c2323151   4.063   0.752   3.398 -0.0690 -0.2353  0.1597
 4810poe    c2323152   4.151   0.636   3.348 -0.5863 -0.2377 -0.7746
 4810poe     o223153   4.103   0.512   3.396  0.1848 -0.1334  0.2993
 4810poe    c2323154   4.103   0.414   3.295 -0.7499  0.3973 -0.2290
 4810poe    c2323155   4.027   0.284   3.329  0.3645 -0.2758 -0.2682
 4810poe     o223156   3.894   0.309   3.291  0.3985  0.3180  0.0020
 4810poe    c2323157   3.803   0.209   3.331  0.4167  0.6770  0.9715
 4810poe    c2323158   3.653   0.231   3.302  0.6062  0.4467 -0.2440
 4810poe     o223159   3.594   0.331   3.382 -0.2762  0.0347 -0.3624
 4810poe    c3123160   3.454   0.330   3.396 -0.2846  0.0445 -0.4479
 4811poe    c3123161   3.085   1.361   4.629 -0.2151  0.5097 -0.6472
 4811poe     o223162   3.028   1.490   4.636 -0.3934  0.4260 -0.5392
 4811poe    c2323163   2.917   1.504   4.722 -0.0650  0.3961 -0.1058
 4811poe    c2323164   2.900   1.656   4.741 -0.7671  0.2998  0.0571
 4811poe     o223165   2.875   1.716   4.616  0.2852  0.3861 -0.1251
 4811poe    c2323166   2.826   1.848   4.621 -0.4165  0.1324 -0.1983
 4811poe    c2323167   2.947   1.942   4.638 -0.1112 -0.3446  0.2711
 4811poe     o223168   3.028   1.927   4.524  0.0284  0.1937  0.2952
 4811poe    c2323169   3.130   2.023   4.517  0.5380 -0.3470  0.2682
 4811poe    c2323170   3.191   2.027   4.376 -0.3293 -0.4758 -0.1091
 4811poe     o223171   3.201   1.895   4.328  0.0037 -0.3995 -0.2525
 4811poe    c3123172   3.251   1.894   4.196  0.0152 -0.2322 -0.2492
 4812poe    c3123173   1.886   0.258   1.358  0.3029 -0.1510  0.0963
 4812poe     o223174   1.937   0.238   1.228  0.0265 -0.3179  0.0141
 4812poe    c2323175   1.951   0.360   1.159 -0.8370  0.0962  0.5495
 4812poe    c2323176   1.957   0.337   1.007  0.3337  0.1697  0.5776
 4812poe     o223177   2.080   0.287   0.959  0.1098 -0.0294  0.2076
 4812poe    c2323178   2.104   0.342   0.832 -0.0870  0.0664  0.2114
 4812poe    c2323179   2.251   0.307   0.800 -0.2597 -0.3899 -0.0982
 4812poe     o223180   2.267   0.176   0.849  0.2547 -0.1604  0.3599
 4812poe    c2323181   2.364   0.116   0.767 -0.1844 -0.1515 -0.1735
 4812poe    c2323182   2.393  -0.028   0.814  0.2839  0.1415  0.4550
 4812poe     o223183   2.270  -0.096   0.818  0.5693 -0.4758 -0.7660
 4812poe    c3123184   2.294  -0.235   0.817  0.4892 -0.4959 -0.3184
 4813poe    c3123185   0.846   3.296   3.522  0.5464  0.3749 -0.2880
 4813poe     o223186   0.973   3.318   3.579  0.4281  0.4208 -0.0433
 4813poe    c2323187   0.974   3.454   3.615  0.0370  0.3963  0.0721
 4813poe    c2323188   1.110   3.481   3.683  0.2036 -0.3895  0.0566
 4813poe     o223189   1.104   3.425   3.812  0.3420 -0.6763 -0.0616
 4813poe    c2323190   1.234   3.443   3.865  0.2064  1.1339 -0.2844
 4813poe    c2323191   1.264   3.341   3.977  0.5009  0.5015 -0.9382
 4813poe     o223192   1.249   3.209   3.928  0.6983  0.1852 -0.1553
 4813poe    c2323193   1.329   3.125   4.009  0.4400 -0.0818 -0.1787
 4813poe    c2323194   1.317   2.975   3.977 -0.0042 -0.1061  0.0902
 4813poe     o223195   1.349   2.907   4.096 -0.1606  0.3555  0.3963
 4813poe    c3123196   1.446   2.808   4.073  0.3171  0.9008  0.0128
 4814poe    c3123197   1.764   5.205   0.501 -0.3303  0.4753  0.1256
 4814poe     o223198   1.842   5.173   0.614 -0.0733 -0.0629 -0.2037
 4814poe    c2323199   1.763   5.135   0.724  0.1249 -0.6242 -0.2537
 4814poe    c2323200   1.849   5.148   0.851  0.3736  0.0764 -0.4887
 4814poe     o223201   1.967   5.072   0.840  0.9443  0.8898 -0.0104
 4814poe    c2323202   2.009   5.034   0.969 -0.1467  0.1827  0.1469
 4814poe    c2323203   1.924   4.942   1.059 -0.2256 -0.2169 -0.3343
 4814poe     o223204   1.985   4.901   1.180 -0.4261  0.2962 -0.0547
 4814poe    c2323205   2.029   4.767   1.180 -0.7273  0.1967 -0.1508
 4814poe    c2323206   2.109   4.732   1.307 -0.1620  0.7509 -0.3517
 4814poe     o223207   2.226   4.808   1.328  0.4542 -0.3462  0.2723
 4814poe    c3123208   2.278   4.781   1.456  0.1982  0.0262  0.4579
 4815poe    c3123209   3.625   7.311   3.997 -0.2149  0.1188 -0.3511
 4815poe     o223210   3.638   7.203   3.907  0.3782  0.2879 -0.4707
 4815poe    c2323211   3.762   7.137   3.922  0.0030 -0.3056  0.0549
 4815poe    c2323212   3.787   7.045   3.802 -0.4114  0.2560 -0.4729
 4815poe     o223213   3.714   6.925   3.819  0.3670 -0.1593  0.0302
 4815poe    c2323214   3.724   6.831   3.714 -0.1829 -0.2414  0.0523
 4815poe    c2323215   3.695   6.868   3.567 -0.2032 -0.3994  0.0162
 4815poe     o223216   3.563   6.909   3.544  0.1225  0.5515 -0.2068
 4815poe    c2323217   3.533   6.906   3.406  0.2097  0.1845 -0.2172
 4815poe    c2323218   3.412   6.991   3.364 -0.0856  0.0900  0.4153
 4815poe     o223219   3.305   6.948   3.445 -0.0015 -0.3185  0.3100
 4815poe    c3123220   3.193   7.030   3.421  0.5029  0.0632 -0.8490
 4816poe    c3123221   7.455   3.070   5.301  1.0747  0.3445 -0.3957
 4816poe     o223222   7.387   2.953   5.261  0.3519  0.8063 -0.5455
 4816poe    c2323223   7.470   2.891   5.165  0.4215 -0.0544  0.0502
 4816poe    c2323224   7.416   2.758   5.109  0.9331 -0.0568 -0.4493
 4816poe     o223225   7.308   2.796   5.027  0.1563 -0.5410  0.3330
 4816poe    c2323226   7.228   2.683   4.998 -0.7291  0.1009  0.2378
 4816poe    c2323227   7.107   2.737   4.920  0.3359  0.4121 -1.2627
 4816poe     o223228   7.035   2.840   4.985  0.1370 -0.2284 -0.4483
 4816poe    c2323229   6.948   2.900   4.892  0.1227  0.1087 -0.2212
 4816poe    c2323230   7.013   2.983   4.780 -0.1491  0.0445 -0.4293
 4816poe     o223231   7.089   3.091   4.830  0.3038 -0.4228 -0.1070
 4816poe    c3123232   7.144   3.167   4.725  0.0260 -0.1458 -0.0515
 4817poe    c3123233   4.717   5.656   1.421 -0.2775 -0.0090  0.1257
 4817poe     o223234   4.663   5.765   1.492 -0.1756 -0.0830  0.3195
 4817poe    c2323235   4.650   5.736   1.629 -0.6777 -0.2654  0.2345
 4817poe    c2323236   4.559   5.825   1.715 -0.2475  0.3988  0.0038
 4817poe     o223237   4.618   5.954   1.721 -0.8521  0.6743  0.0616
 4817poe    c2323238   4.627   6.006   1.851  0.6150 -0.2187  0.3382
 4817poe    c2323239   4.530   6.125   1.862  0.3650 -0.4196  0.3204
 4817poe     o223240   4.558   6.242   1.789 -0.0059 -0.3211  0.3347
 4817poe    c2323241   4.474   6.338   1.848  0.4086 -0.0556  0.4925
 4817poe    c2323242   4.480   6.469   1.767 -0.1593 -0.0123  0.5129
 4817poe     o223243   4.608   6.528   1.767 -0.2066  0.1075 -0.3546
 4817poe    c3123244   4.643   6.618   1.870  0.1574 -0.6211  0.1678
 4818poe    c3123245   4.919   3.546   3.656 -1.1882  0.8347  0.0429
 4818poe     o223246   4.933   3.547   3.516  0.0244 -0.0732  0.1483
 4818poe    c2323247   4.820   3.488   3.456 -0.0902  0.2669  0.0274
 4818poe    c2323248   4.840   3.489   3.303 -0.0622 -0.1100  0.0276
 4818poe     o223249   4.860   3.617   3.247 -0.4282 -0.0358  0.0679
 4818poe    c2323250   4.879   3.618   3.108 -0.2412 -0.0521  0.0937
 4818poe    c2323251   4.829   3.756   3.063 -0.0904  0.0580  0.2628
 4818poe     o223252   4.909   3.857   3.120  0.4527 -0.2378  0.0359
 4818poe    c2323253   4.950   3.954   3.025 -0.0396  0.1159  0.1780
 4818poe    c2323254   4.943   4.090   3.097 -0.4488  0.0933  0.1814
 4818poe     o223255   4.999   4.076   3.225  0.0282  0.3635  0.0054
 4818poe    c3123256   4.963   4.194   3.294 -0.0802  0.1710  0.2801
 4819poe    c3123257   1.806   5.541   0.662 -0.0700  0.7290 -0.2852
 4819poe     o223258   1.945   5.536   0.688 -0.1749 -0.3256  0.1186
 4819poe    c2323259   2.031   5.539   0.576  0.3884 -0.5907  0.5392
 4819poe    c2323260   2.174   5.590   0.600  0.1599  0.1947  0.2354
 4819poe     o223261   2.271   5.507   0.658 -0.0457 -0.4394 -0.3171
 4819poe    c2323262   2.384   5.591   0.662 -0.0020 -0.4667 -0.8958
 4819poe    c2323263   2.498   5.541   0.753 -0.6613 -0.2495  0.0723
 4819poe     o223264   2.473   5.558   0.891 -0.4338 -0.2050  0.1087
 4819poe    c2323265   2.542   5.465   0.972  0.5858  0.0446 -0.4496
 4819poe    c2323266   2.546   5.521   1.115  0.0890 -0.4054 -0.2556
 4819poe     o223267   2.595   5.653   1.116 -0.3784 -0.2286 -0.5397
 4819poe    c3123268   2.633   5.705   1.241  0.3559  0.0566 -0.8714
 4820poe    c3123269   2.006   4.489   2.586  0.1072  0.2610 -0.7034
 4820poe     o223270   2.097   4.398   2.643 -0.1235  0.2166 -0.4024
 4820poe    c2323271   2.103   4.269   2.588 -0.2896  0.1693 -0.3090
 4820poe    c2323272   2.224   4.198   2.653 -0.1983  0.3925 -0.2356
 4820poe     o223273   2.353   4.251   2.639  0.1081 -0.1560  0.4731
 4820poe    c2323274   2.456   4.156   2.620  0.0931 -0.0857  0.0237
 4820poe    c2323275   2.600   4.209   2.609  0.1082 -0.1647 -0.1582
 4820poe     o223276   2.618   4.311   2.513 -0.4974  0.3438  0.2574
 4820poe    c2323277   2.737   4.385   2.527 -0.6579  0.6211  0.1510
 4820poe    c2323278   2.735   4.490   2.414  0.9753  0.4775 -0.0328
 4820poe     o223279   2.630   4.583   2.424 -0.1591 -0.7599 -0.0844
 4820poe    c3123280   2.634   4.668   2.311 -0.1438  0.2891  0.6855
 4821poe    c3123281   7.351   6.615   3.216 -0.0506  0.3456  0.1505
 4821poe     o223282   7.237   6.598   3.135 -0.1065  0.0213  0.2920
 4821poe    c2323283   7.123   6.665   3.184 -0.2433 -0.2676  0.3674
 4821poe    c2323284   6.997   6.663   3.095 -0.1003  0.1999  0.1495
 4821poe     o223285   7.004   6.730   2.972 -0.0604 -0.2448 -0.0909
 4821poe    c2323286   6.884   6.694   2.907 -0.0649 -0.2919 -0.0560
 4821poe    c2323287   6.856   6.758   2.770 -0.1244 -0.7485 -0.2585
 4821poe     o223288   6.941   6.731   2.660  0.4420 -0.4065  0.0896
 4821poe    c2323289   6.934   6.833   2.563 -0.2589 -0.6403 -0.1105
 4821poe    c2323290   7.069   6.880   2.506 -0.1351 -0.5082  0.2863
 4821poe     o223291   7.126   6.767   2.443  0.2202 -0.0875 -0.1521
 4821poe    c3123292   7.230   6.815   2.361  0.0851  0.7023  0.1258
 4822poe    c3123293   1.272   0.609   0.973 -0.4705 -1.0302 -0.1675
 4822poe     o223294   1.154   0.682   0.995 -0.2003 -0.6317 -0.0195
 4822poe    c2323295   1.129   0.695   1.133 -0.5044 -0.3987 -0.0941
 4822poe    c2323296   0.984   0.724   1.174 -0.3883 -0.3131  0.2575
 4822poe     o223297   0.971   0.741   1.314  0.1886 -0.0320  0.2801
 4822poe    c2323298   0.839   0.703   1.347 -0.1433  0.8257 -0.0296
 4822poe    c2323299   0.819   0.712   1.500 -0.2699  0.3369 -0.0183
 4822poe     o223300   0.869   0.832   1.554  0.7841 -0.2398  0.3242
 4822poe    c2323301   0.833   0.836   1.690 -0.7944  0.0986 -0.0824
 4822poe    c2323302   0.862   0.968   1.764  0.1002 -0.0012 -0.2449
 4822poe     o223303   0.992   0.975   1.818  0.0355 -0.1022 -0.0769
 4822poe    c3123304   0.990   0.940   1.955  0.9396 -0.3147 -0.1166
 4823poe    c3123305   3.919   5.407   7.233 -0.5499 -0.1064  0.3153
 4823poe     o223306   3.969   5.433   7.363 -0.1056  0.2061  0.0850
 4823poe    c2323307   4.073   5.527   7.354  0.4162 -0.4557 -0.9770
 4823poe    c2323308   4.160   5.514   7.480 -0.5130  0.1960 -0.2568
 4823poe     o223309   4.087   5.550   7.595  0.5204 -0.1667  0.5343
 4823poe    c2323310   4.121   5.679   7.641 -0.0895  0.2995 -0.2825
 4823poe    c2323311   4.032   5.699   7.765  0.2809  0.0904  0.0204
 4823poe     o223312   3.898   5.657   7.759  0.4971 -0.6447  0.3244
 4823poe    c2323313   3.839   5.661   7.887  0.4966 -0.0124  0.3037
 4823poe    c2323314   3.763   5.792   7.919 -0.5556 -0.5497  0.0321
 4823poe     o223315   3.657   5.805   7.827 -0.1317 -0.1286 -0.3990
 4823poe    c3123316   3.574   5.916   7.852 -0.0359 -0.1064 -0.1841
 4824poe    c3123317   6.274   6.506   3.005  0.6710 -0.7161  0.0015
 4824poe     o223318   6.269   6.640   3.050 -0.0711 -0.6676 -0.2151
 4824poe    c2323319   6.331   6.643   3.176 -0.1014  0.1014 -0.2119
 4824poe    c2323320   6.399   6.777   3.204 -0.2311  0.0005  0.6095
 4824poe     o223321   6.293   6.864   3.237  0.1670  0.7213  0.0199
 4824poe    c2323322   6.358   6.988   3.256  0.5748  0.4775  0.2208
 4824poe    c2323323   6.247   7.093   3.273 -0.2444 -0.3047 -0.2090
 4824poe     o223324   6.167   7.095   3.157  0.0797  0.3289 -0.4266
 4824poe    c2323325   6.059   7.183   3.173 -0.1417 -0.0588  0.2244
 4824poe    c2323326   5.963   7.174   3.053 -0.2866 -0.0950  0.3412
 4824poe     o223327   5.971   7.036   3.028  0.4016 -0.0152  0.0616
 4824poe    c3123328   5.900   7.000   2.911  0.5334 -0.0578 -0.0055
 4825poe    c3123329   6.224   0.614   0.418  0.0402 -0.0781  0.8226
 4825poe     o223330   6.349   0.678   0.430  0.0928  0.0021 -0.1040
 4825poe    c2323331   6.324   0.810   0.471 -0.2005  0.0591 -0.4559
 4825poe    c2323332   6.446   0.904   0.456  0.0241 -0.1186  0.1897
 4825poe     o223333   6.536   0.910   0.564 -0.2429  0.6106  0.3804
 4825poe    c2323334   6.624   1.017   0.542  0.4075 -0.0357 -0.2433
 4825poe    c2323335   6.703   1.081   0.658  0.4254  0.3264 -0.4518
 4825poe     o223336   6.812   0.998   0.693 -0.2563 -0.5015 -0.2341
 4825poe    c2323337   6.902   1.048   0.789 -0.1343 -0.5052 -0.3452
 4825poe    c2323338   6.999   1.153   0.731 -0.1186  0.0875  0.7217
 4825poe     o223339   6.929   1.274   0.716 -0.3074 -0.1674 -0.5417
 4825poe    c3123340   7.012   1.370   0.654 -0.0505  0.4042  0.6657
 4826poe    c3123341   6.135   4.513   1.792 -0.2949  0.2911  0.5663
 4826poe     o223342   6.083   4.405   1.865 -0.0206 -0.2877 -0.0811
 4826poe    c2323343   6.164   4.292   1.842  0.1994 -0.1906  0.2227
 4826poe    c2323344   6.112   4.161   1.903 -0.1487 -0.2256 -0.1482
 4826poe     o223345   6.087   4.148   2.041 -1.0064 -0.7756 -0.3475
 4826poe    c2323346   6.072   4.018   2.093 -0.5575 -0.6815  0.0313
 4826poe    c2323347   6.031   4.005   2.241  0.1120  0.1016  0.2920
 4826poe     o223348   5.892   4.021   2.261 -0.0009 -0.4050 -0.0553
 4826poe    c2323349   5.876   4.019   2.401  0.0926 -0.5517 -0.0464
 4826poe    c2323350   5.733   4.006   2.458 -0.0137  0.1125 -0.1495
 4826poe     o223351   5.722   4.016   2.598 -0.3140  0.5456 -0.2036
 4826poe    c3123352   5.737   4.149   2.643 -0.0022  0.4170  0.0785
 4827poe    c3123353   6.792   5.360   5.316 -0.0859  0.3593 -0.2319
 4827poe     o223354   6.719   5.308   5.425  0.5373  0.0986  0.0731
 4827poe    c2323355   6.615   5.394   5.465  0.1595 -0.4697  0.3245
 4827poe    c2323356   6.673   5.509   5.550  0.2663 -0.1457 -0.1821
 4827poe     o223357   6.722   5.473   5.677 -0.2731 -0.4560 -0.0555
 4827poe    c2323358   6.720   5.588   5.759 -0.7405 -0.3281 -0.2438
 4827poe    c2323359   6.809   5.583   5.884 -0.2255  0.4569 -0.5657
 4827poe     o223360   6.947   5.592   5.856  0.0180 -0.3749  0.2971
 4827poe    c2323361   7.013   5.581   5.980 -0.0542 -0.0439  0.3655
 4827poe    c2323362   7.152   5.536   5.933  0.0327  0.2439  0.3433
 4827poe     o223363   7.175   5.397   5.943  0.2675  0.2347 -0.2489
 4827poe    c3123364   7.315   5.378   5.945  0.2017 -0.2589 -0.1684
 4828poe    c3123365   3.484   2.161   6.933 -0.3549  0.6231  0.1373
 4828poe     o223366   3.535   2.030   6.926 -0.2387  0.6531  0.3973
 4828poe    c2323367   3.635   2.048   6.829 -0.2850  0.3313  0.2878
 4828poe    c2323368   3.729   1.926   6.819 -0.5209  0.2125 -0.5647
 4828poe     o223369   3.643   1.815   6.838 -0.2955  0.1843  0.3028
 4828poe    c2323370   3.722   1.700   6.862 -0.6607 -0.0945  0.1633
 4828poe    c2323371   3.631   1.580   6.892 -0.2891 -0.3933  0.0923
 4828poe     o223372   3.551   1.625   6.999  0.0204 -0.0212  0.1679
 4828poe    c2323373   3.497   1.515   7.069  0.2749  0.0163  0.4293
 4828poe    c2323374   3.394   1.548   7.179  0.1257  0.4662  0.1609
 4828poe     o223375   3.289   1.618   7.117 -0.1852 -0.2556 -0.1445
 4828poe    c3123376   3.185   1.650   7.207  0.2869 -0.2471  0.4065
 4829poe    c3123377   3.504   1.847   4.531  0.0827  0.2378  0.5892
 4829poe     o223378   3.606   1.941   4.561 -0.0795  0.4076  0.6091
 4829poe    c2323379   3.665   1.924   4.688  0.1385 -0.0332  0.4517
 4829poe    c2323380   3.818   1.926   4.673  0.1556  0.3324  0.6632
 4829poe     o223381   3.860   1.820   4.590  0.0769  0.6784  0.1749
 4829poe    c2323382   3.995   1.796   4.625 -0.0034  0.4327  0.3162
 4829poe    c2323383   4.056   1.669   4.562 -0.0255  0.5692  0.0174
 4829poe     o223384   4.084   1.686   4.425  0.2427  0.5744  0.0723
 4829poe    c2323385   4.179   1.591   4.380 -0.0539  0.1210  0.3970
 4829poe    c2323386   4.213   1.636   4.237 -0.0970  0.0350  0.3598
 4829poe     o223387   4.101   1.647   4.152  0.1076 -0.2749  0.0470
 4829poe    c3123388   4.149   1.625   4.021 -0.0581  0.1522 -0.0864
 4830poe    c3123389   3.379   2.418   3.983  0.4066 -0.7225 -0.3841
 4830poe     o223390   3.293   2.314   4.025  0.0043 -0.0915  0.3780
 4830poe    c2323391   3.164   2.313   3.967  0.1227  0.1955  0.1042
 4830poe    c2323392   3.060   2.224   4.038  0.3738 -0.0940  0.1124
 4830poe     o223393   3.028   2.287   4.160 -0.1199  0.1054 -0.1157
 4830poe    c2323394   2.900   2.249   4.204 -0.0231 -0.4991 -0.3463
 4830poe    c2323395   2.861   2.307   4.341  0.2761 -0.4179 -0.2954
 4830poe     o223396   2.944   2.266   4.448  0.2684  0.3464  0.0137
 4830poe    c2323397   2.937   2.355   4.557 -0.0513  0.3363  0.0028
 4830poe    c2323398   3.073   2.373   4.628 -0.1624  0.0233  0.2952
 4830poe     o223399   3.162   2.454   4.556 -0.2323  0.1446  0.3451
 4830poe    c3123400   3.258   2.507   4.644  0.1214  0.7913 -0.4130
 4831poe    c3123401   3.845   2.827   0.285 -0.1416 -0.1082 -0.3237
 4831poe     o223402   3.979   2.855   0.255 -0.1771  0.4587  0.0427
 4831poe    c2323403   4.052   2.850   0.376 -0.1088  0.2202 -0.0082
 4831poe    c2323404   4.203   2.861   0.350 -0.0980  0.0131 -0.0321
 4831poe     o223405   4.258   2.746   0.288  0.2044  0.1782 -0.0695
 4831poe    c2323406   4.280   2.626   0.359  0.2879  0.1266 -0.1823
 4831poe    c2323407   4.250   2.507   0.267 -0.5765 -0.1624  0.4571
 4831poe     o223408   4.119   2.507   0.216 -0.3896  0.4106 -0.0325
 4831poe    c2323409   4.081   2.378   0.176  0.1927 -0.1301  1.1186
 4831poe    c2323410   3.929   2.381   0.153  0.3308  0.7316  0.2837
 4831poe     o223411   3.887   2.466   0.048 -0.0151  0.2111 -0.0052
 4831poe    c3123412   3.761   2.516   0.084 -0.2520 -0.4312  0.0690
 4832poe    c3123413   7.389   5.419   0.562  0.2130  0.2515 -0.3144
 4832poe     o223414   7.376   5.364   0.433  0.0427  0.3369 -0.3338
 4832poe    c2323415   7.485   5.414   0.358 -0.0269  0.3406 -0.4318
 4832poe    c2323416   7.459   5.411   0.206 -0.1130 -0.1934 -0.4089
 4832poe     o223417   7.448   5.276   0.167 -0.0157 -0.3345  0.0491
 4832poe    c2323418   7.408   5.265   0.033 -0.2001  0.1424  0.0620
 4832poe    c2323419   7.367   5.126  -0.020 -0.6838  0.1410  0.4328
 4832poe     o223420   7.261   5.063   0.049 -0.8772  0.6064  0.5615
 4832poe    c2323421   7.307   4.990   0.161 -0.2935  0.0610 -0.0254
 4832poe    c2323422   7.381   4.855   0.156 -0.1096  0.1315  0.6284
 4832poe     o223423   7.504   4.855   0.088 -0.2328  0.4526  0.3990
 4832poe    c3123424   7.572   4.733   0.111 -0.0778  0.2720 -0.9276
 4833poe    c3123425   3.272   6.462   1.468  0.0001  0.3579 -0.5003
 4833poe     o223426   3.349   6.394   1.371  0.5240 -0.0464  0.1901
 4833poe    c2323427   3.427   6.476   1.286  0.0981 -0.3206 -0.4738
 4833poe    c2323428   3.577   6.452   1.260  0.1875 -0.1451 -0.1261
 4833poe     o223429   3.666   6.481   1.366  0.0669 -0.1168 -0.0321
 4833poe    c2323430   3.786   6.530   1.310  0.1138  0.7057  0.7653
 4833poe    c2323431   3.879   6.558   1.429  0.1192  0.5699  0.7939
 4833poe     o223432   3.918   6.442   1.498 -0.1236 -0.0946 -0.1722
 4833poe    c2323433   3.998   6.467   1.611  0.1566 -0.0586 -0.3770
 4833poe    c2323434   4.062   6.336   1.660  0.4528  0.2864  0.1722
 4833poe     o223435   4.184   6.317   1.591  0.0391  0.1054 -0.5243
 4833poe    c3123436   4.240   6.193   1.626 -0.7212 -0.2367 -0.4977
 4834poe    c3123437   6.629   0.757   4.451 -0.2816  0.2845 -0.1815
 4834poe     o223438   6.624   0.875   4.375  0.1549  0.6522  0.3501
 4834poe    c2323439   6.750   0.918   4.327 -0.0252  0.4991 -0.2778
 4834poe    c2323440   6.799   0.846   4.201  0.3967 -0.1358  0.2401
 4834poe     o223441   6.715   0.857   4.088  0.2246 -0.3392  0.3466
 4834poe    c2323442   6.788   0.804   3.979 -0.3752 -0.2422 -0.1060
 4834poe    c2323443   6.708   0.783   3.849  0.4267  0.3917 -0.7100
 4834poe     o223444   6.670   0.650   3.821 -0.0021  0.2871  0.3105
 4834poe    c2323445   6.543   0.648   3.760  0.0854  0.7284  0.1038
 4834poe    c2323446   6.537   0.628   3.607  0.4530  0.3288  0.1366
 4834poe     o223447   6.567   0.746   3.535 -0.0792  0.3288 -0.0951
 4834poe    c3123448   6.500   0.749   3.411  0.4636 -0.0835 -0.4055
 4835poe    c3123449   5.331   5.673   2.423  0.3106 -0.1191 -0.0678
 4835poe     o223450   5.323   5.811   2.397  0.2279 -0.0369  0.3838
 4835poe    c2323451   5.200   5.857   2.450  0.0950  0.1612 -0.0859
 4835poe    c2323452   5.225   6.009   2.448 -0.8378  0.3287  0.6443
 4835poe     o223453   5.239   6.039   2.311 -0.1235 -0.0485  0.6313
 4835poe    c2323454   5.221   6.179   2.309 -0.5886 -0.1112  0.3787
 4835poe    c2323455   5.239   6.239   2.168  0.6540 -0.4172  0.3978
 4835poe     o223456   5.368   6.237   2.111  0.7195  0.3329  0.5028
 4835poe    c2323457   5.367   6.283   1.977 -0.1887 -0.0011  0.3853
 4835poe    c2323458   5.513   6.302   1.933 -0.0768  0.0164  0.7599
 4835poe     o223459   5.555   6.417   2.002  0.1741  0.4982 -0.1798
 4835poe    c3123460   5.696   6.421   2.005  0.1967 -0.0360 -0.4672
 4836poe    c3123461   2.199   6.681   6.097  0.0339 -0.4354 -0.8604
 4836poe     o223462   2.270   6.574   6.156 -0.2191  0.0245  0.3127
 4836poe    c2323463   2.357   6.620   6.257  0.0425 -0.1872  0.1859
 4836poe    c2323464   2.445   6.510   6.319  0.1273 -0.3731 -0.2677
 4836poe     o223465   2.534   6.454   6.224  0.4216  0.4505 -0.4902
 4836poe    c2323466   2.612   6.354   6.285 -0.5447 -0.1152 -0.1559
 4836poe    c2323467   2.681   6.260   6.185 -0.3047  0.0340 -0.1304
 4836poe     o223468   2.593   6.174   6.117 -0.5621  0.0992  0.1216
 4836poe    c2323469   2.655   6.058   6.068  0.0964  0.1733  0.7635
 4836poe    c2323470   2.566   5.933   6.084  0.2467 -0.1335 -0.6751
 4836poe     o223471   2.460   5.921   5.992 -0.1240  0.1941 -0.2977
 4836poe    c3123472   2.388   5.800   6.008  0.5326 -0.2326 -0.5108
 4837poe    c3123473   5.567   1.346   7.545 -0.0959  0.2920 -0.5355
 4837poe     o223474   5.550   1.360   7.405 -0.5490  0.7801 -0.4403
 4837poe    c2323475   5.490   1.244   7.352 -0.0447  0.0557  0.5417
 4837poe    c2323476   5.340   1.217   7.371 -0.1830  0.1134 -0.4353
 4837poe     o223477   5.252   1.304   7.304 -0.4285  0.6514  0.5686
 4837poe    c2323478   5.121   1.301   7.358 -0.6199 -0.2827  0.0660
 4837poe    c2323479   5.032   1.424   7.332 -0.1065  0.0236 -0.2568
 4837poe     o223480   4.990   1.428   7.197 -0.5886 -0.7958 -0.1391
 4837poe    c2323481   4.864   1.491   7.181 -0.0175  0.3390 -0.2971
 4837poe    c2323482   4.822   1.458   7.037 -0.2365 -0.2442 -0.1008
 4837poe     o223483   4.929   1.488   6.950 -0.0492  0.3474  0.3319
 4837poe    c3123484   4.883   1.487   6.817  0.5576  0.3491  0.1223
 4838poe    c3123485   6.074   6.693   6.634  0.8589 -0.0370 -0.2277
 4838poe     o223486   6.077   6.631   6.761  0.8527  0.2478 -0.0858
 4838poe    c2323487   6.035   6.496   6.768 -0.1567  0.5687  0.1534
 4838poe    c2323488   6.087   6.441   6.902 -0.8852 -0.2891  0.0908
 4838poe     o223489   6.009   6.492   7.007 -0.2383  0.0963  0.3904
 4838poe    c2323490   6.014   6.416   7.126  0.1000  0.2509  0.4758
 4838poe    c2323491   5.924   6.468   7.239  0.0727 -0.1004  0.6155
 4838poe     o223492   5.786   6.454   7.218  0.0234  0.5003  0.5190
 4838poe    c2323493   5.706   6.545   7.290 -0.2480  0.2713  0.5111
 4838poe    c2323494   5.569   6.586   7.232 -0.3123 -0.3958  0.1790
 4838poe     o223495   5.581   6.663   7.115 -0.2431  0.0096  0.4489
 4838poe    c3123496   5.459   6.672   7.043 -0.2085 -0.4153  0.3373
 4839poe    c3123497   2.242   5.558   3.373  0.6137  0.1420 -0.5929
 4839poe     o223498   2.260   5.439   3.298 -0.0231 -0.0792 -0.3984
 4839poe    c2323499   2.129   5.402   3.262 -0.1931  0.4086 -0.2957
 4839poe    c2323500   2.120   5.254   3.221  0.4483  0.3717 -0.3103
 4839poe     o223501   2.185   5.218   3.101  0.1997 -0.2843 -0.2533
 4839poe    c2323502   2.159   5.081   3.083 -0.5192 -0.1266 -0.4555
 4839poe    c2323503   2.244   5.009   2.975  0.3026  0.0296  0.0797
 4839poe     o223504   2.378   4.985   3.013  0.2598 -0.2541  0.0533
 4839poe    c2323505   2.403   4.854   3.059 -0.1655 -0.1852  0.4877
 4839poe    c2323506   2.553   4.835   3.084 -0.1854 -0.8877  0.1084
 4839poe     o223507   2.614   4.866   2.961 -0.2470  0.2575  0.3553
 4839poe    c3123508   2.754   4.857   2.974 -0.1686 -0.1808 -0.7073
 4840poe    c3123509   4.421   6.554   3.043 -0.4531 -0.3107 -0.1321
 4840poe     o223510   4.452   6.417   3.042 -0.1794 -0.2509 -0.0543
 4840poe    c2323511   4.339   6.348   3.091 -0.3118  0.0667  0.0870
 4840poe    c2323512   4.381   6.200   3.097  0.3226  0.2292 -0.1670
 4840poe     o223513   4.499   6.212   3.173 -0.0326 -0.0290  0.4369
 4840poe    c2323514   4.525   6.079   3.214 -0.0735 -0.2410 -0.2056
 4840poe    c2323515   4.655   6.062   3.295 -0.2544 -0.3120  0.0700
 4840poe     o223516   4.772   6.049   3.217 -0.2747 -0.0777 -0.0027
 4840poe    c2323517   4.877   6.028   3.309 -0.3455 -0.5480 -0.0254
 4840poe    c2323518   5.010   6.010   3.232 -0.2080  0.0848  0.0570
 4840poe     o223519   5.042   6.131   3.169 -0.4368  0.1754  0.1119
 4840poe    c3123520   5.114   6.097   3.053  0.3782  0.2537  0.5819
 4841poe    c3123521   5.604   2.334   3.974 -0.4564  0.0953 -0.0150
 4841poe     o223522   5.635   2.468   4.004 -0.5821  0.1412 -0.0880
 4841poe    c2323523   5.568   2.514   4.119  0.0206 -0.5769  0.5610
 4841poe    c2323524   5.596   2.662   4.148  0.0116 -0.4296 -0.1593
 4841poe     o223525   5.582   2.755   4.043 -0.2914 -0.0930  0.1752
 4841poe    c2323526   5.617   2.882   4.092  0.6746 -0.2234 -0.1447
 4841poe    c2323527   5.551   2.993   4.008  0.5718 -0.2838 -0.1433
 4841poe     o223528   5.615   2.990   3.883  0.0003 -0.0849 -0.4430
 4841poe    c2323529   5.576   3.094   3.796 -0.0851 -0.2458 -0.5973
 4841poe    c2323530   5.624   3.076   3.651  0.8718 -0.2017 -0.2902
 4841poe     o223531   5.546   2.977   3.588  0.1320  0.0244  0.2665
 4841poe    c3123532   5.595   2.955   3.458  0.5939 -0.5411  0.5312
 4842poe    c3123533   3.375   5.363   7.072  0.5502 -0.5373 -0.1664
 4842poe     o223534   3.245   5.347   7.022  0.4187  0.0690 -0.0185
 4842poe    c2323535   3.224   5.455   6.933  0.0240 -0.2179 -0.2794
 4842poe    c2323536   3.085   5.439   6.870  0.0355  0.1332 -0.3952
 4842poe     o223537   3.073   5.327   6.784  0.1215 -0.2183  0.0469
 4842poe    c2323538   2.984   5.346   6.676  0.1783  0.2230  0.0745
 4842poe    c2323539   2.947   5.207   6.620 -0.3458  0.5782 -0.4637
 4842poe     o223540   3.042   5.144   6.539 -0.1825  0.0792  0.1084
 4842poe    c2323541   3.039   5.004   6.555 -0.1162 -0.0040 -0.5638
 4842poe    c2323542   3.142   4.929   6.468  0.3163 -0.3154  0.2082
 4842poe     o223543   3.280   4.953   6.489  0.2405 -0.1689  0.5581
 4842poe    c3123544   3.342   4.889   6.380 -0.5089  0.1170 -0.0502
 4843poe    c3123545   1.942   6.189   1.231 -0.4308  0.3610 -0.3968
 4843poe     o223546   1.922   6.095   1.129  0.3751  0.2862 -0.4908
 4843poe    c2323547   1.978   6.155   1.015  0.3741  0.0153 -0.6363
 4843poe    c2323548   1.935   6.091   0.881  0.2366 -0.0675 -0.5524
 4843poe     o223549   1.799   6.111   0.852  0.0775  0.1246  0.2814
 4843poe    c2323550   1.771   6.027   0.742  0.0696  0.7100 -0.1654
 4843poe    c2323551   1.625   6.045   0.695 -0.0787  0.4117  0.1820
 4843poe     o223552   1.602   6.182   0.667  0.5274  0.5851  0.5024
 4843poe    c2323553   1.487   6.220   0.594  0.8661  0.1172 -0.2818
 4843poe    c2323554   1.496   6.238   0.441  0.0166  0.4297 -0.2999
 4843poe     o223555   1.497   6.134   0.345 -0.1595  0.4613 -0.3366
 4843poe    c3123556   1.625   6.074   0.351 -0.3369  0.1008 -0.1493
 4844poe    c3123557   4.591   0.323   6.349  0.2680 -0.4425  0.1848
 4844poe     o223558   4.564   0.438   6.425  0.1633 -0.2873 -0.0877
 4844poe    c2323559   4.558   0.551   6.340 -0.3107  0.0727  0.4177
 4844poe    c2323560   4.549   0.683   6.419  0.5222 -0.4537  1.4158
 4844poe     o223561   4.423   0.715   6.472 -0.0010 -0.0916  0.0138
 4844poe    c2323562   4.323   0.759   6.384 -0.1530  0.1419  0.2999
 4844poe    c2323563   4.225   0.862   6.444 -0.0363 -0.0762  0.8626
 4844poe     o223564   4.150   0.797   6.544  0.5477 -0.4133  1.0864
 4844poe    c2323565   4.066   0.886   6.614  0.0641  0.1640 -0.2070
 4844poe    c2323566   3.952   0.804   6.678  0.3519 -0.0410  0.0493
 4844poe     o223567   3.994   0.699   6.761  0.0420 -0.0501  0.1948
 4844poe    c3123568   3.968   0.747   6.891 -0.0713 -0.3514  0.2851
 4845poe    c3123569   0.307   3.080   2.265  0.2243 -0.0141  0.3289
 4845poe     o223570   0.435   3.134   2.242  0.2861 -0.0162  0.6619
 4845poe    c2323571   0.505   3.149   2.363 -0.1431  0.1703  0.8899
 4845poe    c2323572   0.652   3.191   2.346 -0.1159 -0.1256  0.3691
 4845poe     o223573   0.667   3.328   2.318 -0.1662 -0.3084 -0.5968
 4845poe    c2323574   0.783   3.386   2.375 -0.0739  0.0770 -1.1679
 4845poe    c2323575   0.803   3.530   2.324 -0.8116  0.4828 -0.3314
 4845poe     o223576   0.832   3.545   2.187  0.0547  0.0790 -0.1965
 4845poe    c2323577   0.794   3.674   2.143 -0.3477  0.0944  0.1934
 4845poe    c2323578   0.643   3.706   2.146 -0.3732 -0.0575  0.8545
 4845poe     o223579   0.582   3.691   2.020 -0.2218 -0.0883  0.7845
 4845poe    c3123580   0.446   3.661   2.038 -0.2947 -0.7287 -0.6825
 4846poe    c3123581   6.777   4.022   3.575 -0.4755 -1.0722  0.1426
 4846poe     o223582   6.863   3.913   3.553  1.1650  0.1832  0.1620
 4846poe    c2323583   6.895   3.910   3.416 -0.4996 -0.4392 -0.2244
 4846poe    c2323584   6.986   3.787   3.396  0.6173  0.3466 -0.0216
 4846poe     o223585   7.074   3.787   3.506  0.7458  0.2980 -0.1243
 4846poe    c2323586   7.165   3.682   3.480  0.0439 -0.3713  0.0980
 4846poe    c2323587   7.279   3.684   3.584  0.0834  0.0261  0.0493
 4846poe     o223588   7.213   3.640   3.701 -0.2273  0.1707 -0.0689
 4846poe    c2323589   7.305   3.604   3.802  0.5218  0.3047 -0.6907
 4846poe    c2323590   7.254   3.618   3.946  0.7403  0.1635 -0.5999
 4846poe     o223591   7.272   3.753   3.983  0.0996  0.0653  0.1165
 4846poe    c3123592   7.224   3.786   4.111  0.4542  0.2256  0.2086
 4847poe    c3123593   5.612   2.704   0.872 -0.1759  0.1091 -0.4887
 4847poe     o223594   5.605   2.686   1.012 -0.0041  0.1867 -0.4695
 4847poe    c2323595   5.513   2.773   1.075 -0.4040 -0.1170 -0.6250
 4847poe    c2323596   5.513   2.768   1.229  0.0813 -0.7914 -0.6400
 4847poe     o223597   5.615   2.857   1.266 -0.2659 -0.4932 -0.3907
 4847poe    c2323598   5.640   2.873   1.404  0.0030  0.0926 -0.4997
 4847poe    c2323599   5.756   2.973   1.411 -0.1665  0.2770 -0.3213
 4847poe     o223600   5.725   3.101   1.362 -0.0111  0.1954 -0.6369
 4847poe    c2323601   5.827   3.198   1.377 -0.0891  0.1419  0.3241
 4847poe    c2323602   5.779   3.341   1.406  0.2379  0.1597  0.7828
 4847poe     o223603   5.680   3.385   1.315  0.1952 -0.2329  0.6379
 4847poe    c3123604   5.626   3.510   1.351 -0.8344 -0.7062  0.7739
 4848poe    c3123605   2.700   0.066   2.485 -1.0836 -0.0521  0.1402
 4848poe     o223606   2.657  -0.061   2.442 -0.2971 -0.2097 -0.1931
 4848poe    c2323607   2.759  -0.159   2.443 -0.1077 -0.0065  0.2726
 4848poe    c2323608   2.723  -0.284   2.360 -0.2519 -0.3639  0.8655
 4848poe     o223609   2.847  -0.317   2.303 -0.6996 -0.3476 -0.1254
 4848poe    c2323610   2.847  -0.431   2.220  0.0102 -0.3015 -0.1992
 4848poe    c2323611   2.992  -0.467   2.185 -0.1297  0.2241 -1.3589
 4848poe     o223612   3.069  -0.369   2.117  0.7308  0.2152 -0.4277
 4848poe    c2323613   3.206  -0.395   2.099  0.7907 -0.0316  0.3357
 4848poe    c2323614   3.250  -0.294   1.991  0.2026  0.0501  0.1706
 4848poe     o223615   3.243  -0.322   1.853 -0.1018 -0.1966  0.2339
 4848poe    c3123616   3.116  -0.287   1.802  0.2950 -0.0151 -0.6496
 4849poe    c3123617   5.333   6.983   0.297  0.2334 -0.1556  0.1584
 4849poe     o223618   5.275   7.009   0.423 -0.0717 -0.0661  0.0016
 4849poe    c2323619   5.150   7.071   0.403  0.1510  0.4813  0.2826
 4849poe    c2323620   5.102   7.139   0.532  0.3446 -0.1332  0.6830
 4849poe     o223621   5.117   7.030   0.620  0.0256 -0.5596  0.2142
 4849poe    c2323622   5.056   7.056   0.745 -0.1832  0.0735 -0.0207
 4849poe    c2323623   5.055   6.923   0.822 -0.1004 -0.3394 -0.7248
 4849poe     o223624   5.180   6.864   0.791  0.1386 -0.0343 -0.3525
 4849poe    c2323625   5.195   6.758   0.882  0.3398  0.7190  0.5036
 4849poe    c2323626   5.338   6.699   0.878 -0.2709 -0.7791  0.1423
 4849poe     o223627   5.423   6.778   0.958 -0.5803 -0.4928  0.1956
 4849poe    c3123628   5.553   6.722   0.962 -0.4952 -0.2648  0.6854
 4850poe    c3123629   2.801   3.531   2.800  0.3041 -0.0426  0.1354
 4850poe     o223630   2.875   3.438   2.877  0.0498 -0.1452  0.2564
 4850poe    c2323631   2.994   3.501   2.917 -0.0909  0.1275  0.2494
 4850poe    c2323632   2.984   3.575   3.052  0.2593  0.3757  0.1411
 4850poe     o223633   2.934   3.706   3.049  0.2098  0.3435 -0.5730
 4850poe    c2323634   2.946   3.784   3.166  0.3242 -0.2049 -0.2171
 4850poe    c2323635   2.951   3.935   3.135 -0.2394 -0.1503 -0.0550
 4850poe     o223636   2.832   3.994   3.089 -0.5520 -0.6698  0.0756
 4850poe    c2323637   2.847   4.134   3.077 -0.1884 -0.6361  0.8591
 4850poe    c2323638   2.709   4.201   3.062  0.1560 -0.2323 -0.6784
 4850poe     o223639   2.633   4.111   2.984  0.1594 -0.7334 -0.1064
 4850poe    c3123640   2.496   4.124   3.011  0.2106 -0.0133 -0.1933
 4851poe    c3123641   2.696   4.645   4.395 -0.2749  0.9068 -0.5333
 4851poe     o223642   2.592   4.568   4.451  0.4524  0.4691  0.2341
 4851poe    c2323643   2.596   4.566   4.592  0.7415  0.0130  0.2210
 4851poe    c2323644   2.506   4.671   4.659  0.1817  0.0698 -0.6058
 4851poe     o223645   2.370   4.666   4.623  0.0304 -0.1982 -0.0183
 4851poe    c2323646   2.291   4.696   4.736 -0.5592  0.0320 -0.4844
 4851poe    c2323647   2.141   4.707   4.703 -0.4776  0.4985 -0.7066
 4851poe     o223648   2.083   4.579   4.695  0.4726  0.0441 -0.4893
 4851poe    c2323649   1.947   4.590   4.659  0.3210 -0.3930 -0.0651
 4851poe    c2323650   1.874   4.455   4.666  0.0025 -0.2071  0.2029
 4851poe     o223651   1.947   4.343   4.621 -0.4923 -0.3041 -0.3713
 4851poe    c3123652   1.867   4.228   4.641 -0.3136 -0.1831  1.1224
 4852poe    c3123653   6.325   2.363   3.265  0.0077 -0.0620  0.2339
 4852poe     o223654   6.440   2.385   3.344  0.0604  0.2741  0.0663
 4852poe    c2323655   6.539   2.289   3.315  0.1106  0.2795  0.2161
 4852poe    c2323656   6.667   2.300   3.399  0.5230 -0.1267 -0.3525
 4852poe     o223657   6.660   2.329   3.537  0.6322 -0.1138 -0.3495
 4852poe    c2323658   6.568   2.259   3.617  0.2796  0.5825 -0.1419
 4852poe    c2323659   6.568   2.296   3.767  0.2037 -0.1323  0.0346
 4852poe     o223660   6.568   2.437   3.770  0.0637 -0.1268 -0.1884
 4852poe    c2323661   6.561   2.478   3.904 -0.1956  0.0036 -0.2424
 4852poe    c2323662   6.588   2.630   3.905  0.3160 -0.0853 -0.2828
 4852poe     o223663   6.552   2.694   3.785 -0.7296 -0.2055 -0.0464
 4852poe    c3123664   6.542   2.833   3.807 -0.3977 -0.2276  0.2487
 4853poe    c3123665   3.589   2.418   6.696  0.1868  0.2438 -0.6850
 4853poe     o223666   3.657   2.302   6.655  0.2376 -0.0921  0.3257
 4853poe    c2323667   3.770   2.333   6.577  0.2950 -0.0077  0.4430
 4853poe    c2323668   3.818   2.218   6.487  0.2546  0.5529 -0.3062
 4853poe     o223669   3.737   2.170   6.382  0.0098 -0.3741  0.2952
 4853poe    c2323670   3.765   2.038   6.341  0.2993 -0.2181 -0.0018
 4853poe    c2323671   3.696   1.928   6.423  0.2564 -0.4626 -0.3610
 4853poe     o223672   3.556   1.920   6.428  0.2382  0.1044  0.3008
 4853poe    c2323673   3.512   1.803   6.494 -0.0062 -0.1191 -0.2484
 4853poe    c2323674   3.361   1.809   6.524 -0.0116  0.2917 -0.3473
 4853poe     o223675   3.281   1.827   6.409 -0.1347 -0.4165 -0.3754
 4853poe    c3123676   3.146   1.824   6.447 -0.1078  0.4600 -0.1980
 4854poe    c3123677   1.050   1.573   5.692 -0.8173  0.4574  0.0952
 4854poe     o223678   0.988   1.528   5.573  1.0757 -0.3988 -0.6023
 4854poe    c2323679   0.962   1.628   5.477 -0.4945 -0.3990 -0.2031
 4854poe    c2323680   0.826   1.700   5.477 -0.4875 -0.3851 -0.4592
 4854poe     o223681   0.709   1.631   5.442 -0.5237 -0.0117 -1.0765
 4854poe    c2323682   0.609   1.725   5.475  0.1131  0.6044 -0.8822
 4854poe    c2323683   0.469   1.684   5.426  0.1592 -0.0374 -0.4925
 4854poe     o223684   0.413   1.574   5.494 -0.0856  0.1214 -0.4320
 4854poe    c2323685   0.290   1.524   5.447 -0.4489  0.0909  0.5345
 4854poe    c2323686   0.289   1.456   5.309 -1.0188  0.3724  0.3976
 4854poe     o223687   0.352   1.330   5.306  0.2356  0.9968 -0.3211
 4854poe    c3123688   0.385   1.294   5.174 -0.0083 -0.0508 -0.1122
 4855poe    c3123689   4.727   0.007   6.253 -0.4400  0.1222 -0.4414
 4855poe     o223690   4.690  -0.024   6.121  0.2986 -0.6987 -0.4615
 4855poe    c2323691   4.756   0.042   6.015  0.1926  0.2009  0.0228
 4855poe    c2323692   4.787  -0.047   5.893  0.0280  0.3309 -0.1141
 4855poe     o223693   4.894  -0.138   5.894  0.2227  0.5615  0.1918
 4855poe    c2323694   4.867  -0.255   5.967  0.5583  0.3765  0.0251
 4855poe    c2323695   4.922  -0.388   5.911  0.2398  0.1106  0.3321
 4855poe     o223696   5.060  -0.392   5.884  0.0897 -0.2647 -0.4020
 4855poe    c2323697   5.095  -0.524   5.849 -0.3622 -0.4335 -0.2120
 4855poe    c2323698   5.243  -0.560   5.869 -0.3657 -0.3157  0.0292
 4855poe     o223699   5.326  -0.477   5.790 -0.2272  0.0457  0.5421
 4855poe    c3123700   5.436  -0.554   5.748 -0.2297  0.3968 -0.1244
 4856poe    c3123701   3.787   6.477   4.095  0.2070 -0.0710 -0.5414
 4856poe     o223702   3.711   6.396   4.182  0.2893  0.3329 -0.0899
 4856poe    c2323703   3.592   6.368   4.111  0.1023  0.3858  0.2012
 4856poe    c2323704   3.468   6.340   4.198 -0.0916 -0.0041 -0.1974
 4856poe     o223705   3.486   6.216   4.261  0.6053  0.0998 -0.1844
 4856poe    c2323706   3.417   6.116   4.190 -0.4371  0.6216  0.0821
 4856poe    c2323707   3.439   5.986   4.268 -0.2649  0.4625 -0.2294
 4856poe     o223708   3.367   6.007   4.388  0.2013 -0.0739  0.1525
 4856poe    c2323709   3.398   5.901   4.475 -0.8545 -0.8554 -0.4073
 4856poe    c2323710   3.332   5.900   4.614 -0.0173 -0.4665 -0.0013
 4856poe     o223711   3.398   5.993   4.697 -0.2168 -0.0580 -0.2989
 4856poe    c3123712   3.336   6.001   4.824 -0.0219  0.1045 -0.2142
 4857poe    c3123713   0.661   0.208   3.095 -0.4198 -0.7558 -0.5705
 4857poe     o223714   0.702   0.076   3.124  0.3455 -0.4459 -0.2028
 4857poe    c2323715   0.612  -0.012   3.059 -0.2135 -0.0469  0.0290
 4857poe    c2323716   0.652  -0.159   3.078  0.3071  0.1170  0.2465
 4857poe     o223717   0.627  -0.197   3.212  0.0750  0.0730  0.1926
 4857poe    c2323718   0.693  -0.315   3.251 -0.1635 -0.0189  0.3167
 4857poe    c2323719   0.704  -0.329   3.404 -0.3117  0.1600  0.3437
 4857poe     o223720   0.776  -0.224   3.463  0.4795 -0.2634  0.1405
 4857poe    c2323721   0.772  -0.221   3.604 -0.4304  0.1326  0.1072
 4857poe    c2323722   0.900  -0.169   3.671 -0.6645  0.3740  0.3719
 4857poe     o223723   0.946  -0.041   3.634  0.1124 -0.0386 -0.0977
 4857poe    c3123724   1.082  -0.021   3.666  0.1136  0.3477 -0.3438
 4858poe    c3123725   1.841   1.906   2.523  0.4518 -0.3422 -0.0290
 4858poe     o223726   1.865   1.790   2.446  0.1786 -0.3837 -0.0533
 4858poe    c2323727   1.747   1.713   2.447 -0.1543  0.1200  0.1839
 4858poe    c2323728   1.783   1.594   2.356  0.0319  0.1215  0.2549
 4858poe     o223729   1.903   1.531   2.396  0.3479 -0.0176 -0.8831
 4858poe    c2323730   1.925   1.405   2.338  0.2348 -0.1579 -0.6202
 4858poe    c2323731   2.058   1.347   2.389  0.0739  0.0171  0.0072
 4858poe     o223732   2.146   1.456   2.408 -0.0917  0.2014 -0.2624
 4858poe    c2323733   2.280   1.425   2.374 -0.0175  0.1305  0.0909
 4858poe    c2323734   2.385   1.537   2.386 -0.4212  0.5457 -0.2071
 4858poe     o223735   2.436   1.591   2.506  0.1791  0.4501 -0.4154
 4858poe    c3123736   2.515   1.505   2.585 -0.0117  0.5202 -0.1471
 4859poe    c3123737   6.279   2.415   6.881 -0.1403 -0.2787 -0.6350
 4859poe     o223738   6.288   2.504   6.773 -0.1956  0.3899 -0.0951
 4859poe    c2323739   6.263   2.637   6.812 -0.1268  0.5332 -0.5243
 4859poe    c2323740   6.198   2.733   6.711 -0.2578  0.5945 -0.3818
 4859poe     o223741   6.282   2.761   6.602 -0.1789  0.1501 -0.4367
 4859poe    c2323742   6.396   2.843   6.619 -0.2589  0.2340 -0.2931
 4859poe    c2323743   6.364   2.986   6.665 -0.6579 -0.2752  1.0573
 4859poe     o223744   6.301   3.066   6.567  0.8980  0.2610  0.4743
 4859poe    c2323745   6.374   3.108   6.454  0.1115 -0.3663 -0.2777
 4859poe    c2323746   6.275   3.128   6.337 -0.7448 -0.8023  0.3631
 4859poe     o223747   6.196   3.026   6.282 -0.6525 -0.7418  0.1191
 4859poe    c3123748   6.274   2.934   6.208  0.3989 -0.2138  0.5678
 4860poe    c3123749   4.984   1.519   4.743  0.5576  0.6579  0.2135
 4860poe     o223750   5.048   1.519   4.617 -0.5760 -0.3579 -0.3828
 4860poe    c2323751   5.154   1.427   4.612  0.4571  0.7754  0.2073
 4860poe    c2323752   5.272   1.457   4.518  0.2918 -0.1310 -0.3030
 4860poe     o223753   5.323   1.579   4.567  0.2486 -0.1850 -0.1244
 4860poe    c2323754   5.434   1.603   4.483  0.2661 -0.1315 -0.0873
 4860poe    c2323755   5.503   1.735   4.522  0.2600 -0.0340 -0.4074
 4860poe     o223756   5.558   1.730   4.651 -0.1830 -0.3235 -0.2255
 4860poe    c2323757   5.676   1.807   4.637 -0.6211  0.5098  0.5319
 4860poe    c2323758   5.780   1.780   4.746 -0.3075  0.1962  0.1606
 4860poe     o223759   5.747   1.809   4.880 -0.1585 -0.3276  0.3136
 4860poe    c3123760   5.834   1.758   4.979  0.2023 -0.7114 -0.1950
 4861lim     li23761   1.520   4.064   4.484 -0.3189 -0.0116 -0.4853
 4862lim     li23762   2.331   4.272   5.976 -0.3464  1.0051  0.6138
 4863lim     li23763   2.141   0.660   1.884  0.5666  0.5356 -0.2991
 4864lim     li23764   4.543   1.905   0.014  0.2963 -0.3109  0.2304
 4865lim     li23765   3.637   4.428   6.034 -0.8877  0.0984  0.0667
 4866lim     li23766   2.591   1.080   1.181  0.4647  0.3340  0.1920
 4867lim     li23767   3.340   3.443   5.052 -0.3509  0.3324  0.2782
 4868lim     li23768   4.682   5.477   6.583 -0.4332 -0.1546  0.8842
 4869lim     li23769   4.141   7.374   6.386  0.4698  0.5086 -0.6938
 4870lim     li23770   3.419   7.062   1.499 -0.4058  0.6148  0.5289
 4871lim     li23771   5.031   0.010   5.169  0.6644  0.4322  0.0500
 4872lim     li23772   5.399   5.955   2.255 -0.5645  0.0900 -0.5442
 4873lim     li23773   7.071   3.029   5.245 -1.0300  1.1703 -0.1711
 4874lim     li23774   2.121   3.200   4.300 -0.3920 -0.5512  0.7587
 4875lim     li23775   0.609   6.980   5.192 -0.0973 -0.3236 -0.3186
 4876lim     li23776   0.535   1.839   4.295 -0.6502 -0.2330 -0.2338
 4877lim     li23777   4.743   2.933   5.618 -0.3761  0.6006  0.2436
 4878lim     li23778   1.872   5.371   5.948  0.3211 -0.0366  0.6733
 4879lim     li23779   2.741   3.655   6.229 -0.6749  0.3446 -0.1487
 4880lim     li23780   6.655   3.936   4.800 -0.2012 -0.1123 -0.3127
 4881lim     li23781   4.817   3.938   6.884 -0.0892 -0.2374 -0.0726
 4882lim     li23782   4.177   7.402   1.068 -0.7682  0.7468 -0.2992
 4883lim     li23783   6.545   0.340   5.916  0.4708 -0.1079  0.6416
 4884lim     li23784   6.783   6.967   0.654 -0.1343  0.1605  0.0511
 4885lim     li23785   0.757   6.994   0.194 -0.3175 -0.3422  0.0393
 4886lim     li23786   5.212   4.706   3.324 -0.2860  0.4731 -0.0785
 4887lim     li23787   6.012   6.027   1.796  0.0258 -0.0723  0.3929
 4888lim     li23788   3.557   0.627   2.569 -0.5992  0.7231  0.4861
 4889lim     li23789   4.013   4.255   4.711  0.1055  0.0878 -0.6925
 4890lim     li23790   1.699   5.039   1.927  0.3008  1.0003  1.3214
 4891lim     li23791   3.106   0.940   2.161 -0.3142  0.0839 -1.0420
 4892lim     li23792   2.100   2.384   1.548 -1.2667  0.8941  0.1087
 4893lim     li23793   3.013   3.341   2.341  0.2884 -0.3401 -0.3134
 4894lim     li23794   5.408   0.878   6.468  0.1717  0.2040 -0.8638
 4895lim     li23795   0.788   2.228   1.161  0.2961  0.3760  1.5904
 4896lim     li23796   6.615   2.315   1.184 -0.5912  0.0323  0.3043
 4897lim     li23797   0.243   4.208   0.777  0.5687  0.1442  0.3163
 4898lim     li23798   5.176   2.676   3.892 -0.3100 -0.2162 -0.0617
 4899lim     li23799   4.649   0.797   1.642  0.6534 -0.9698 -0.3848
 4900lim     li23800   3.697   2.463   1.859 -0.1360  0.9168 -0.4827
 4901lim     li23801   1.518   6.027   4.517 -0.2951  0.3666 -0.0573
 4902lim     li23802   6.921   5.280   0.036 -0.8665  0.9702 -0.2240
 4903lim     li23803   6.587   0.228   2.597 -0.4233 -0.1023 -0.6836
 4904lim     li23804   2.211   1.295   4.377  0.2179 -0.6679 -0.4751
 4905lim     li23805   0.870   7.189   4.338 -0.5393 -1.0252  0.5878
 4906lim     li23806   3.594   5.050   0.800 -0.0475 -0.1648  0.1364
 4907lim     li23807   5.414   6.426   3.448  0.3706 -0.0053  0.2684
 4908lim     li23808   6.973   3.470   6.500  0.1400 -0.3061 -1.2607
 4909lim     li23809   4.535   1.168   3.031  0.0258  0.0206 -0.8131
 4910lim     li23810   0.802   5.079   4.322 -0.2493 -0.1017 -0.9153
 4911lim     li23811   6.061   7.520   2.365  0.9295 -0.5390  0.1089
 4912lim     li23812   6.750   0.855   6.709  0.4378  0.2770  0.5075
 4913lim     li23813   4.872   0.084   4.586 -0.7684 -0.4270  0.6524
 4914lim     li23814   2.091   0.729   7.548  0.8371  1.6458 -0.4167
 4915lim     li23815   1.945   6.772   3.627  1.1104  0.7149  0.3587
 4916lim     li23816   1.954   7.295   4.306 -0.3616  0.6682  0.8116
 4917lim     li23817   7.262   2.261   2.517 -0.3294  0.7910  0.1220
 4918lim     li23818   0.398   1.532   1.158 -0.0241  0.0507  0.3317
 4919lim     li23819   4.820   0.435   0.977 -0.4051  0.5461  1.1883
 4920lim     li23820   1.575   3.632   6.378 -0.0803 -0.7440 -0.5530
 4921lim     li23821   2.040   1.625   2.448 -0.2753 -0.3585 -0.1624
 4922lim     li23822   1.143   2.979   3.146 -1.0080  0.6571  0.1703
 4923lim     li23823   5.854   1.507   0.438  0.7835 -0.5651 -0.7559
 4924lim     li23824   1.466   1.268   2.176  0.7248 -1.2024  0.5456
 4925lim     li23825   1.839   6.989   1.139 -0.3388 -0.2823 -0.5064
 4926lim     li23826   2.553   0.110   6.432 -0.2348  0.2750 -0.8934
 4927lim     li23827   5.637   5.790   3.296  0.4348 -1.2793  0.2562
 4928lim     li23828   4.848   6.426   6.825  0.9557  0.3429  0.4616
 4929lim     li23829   4.876   4.576   0.948  0.0603 -1.2906 -0.1929
 4930lim     li23830   4.920   6.225   1.604  0.5085  0.2313 -0.0659
 4931lim     li23831   6.133   2.764   5.481  0.5863  0.2412  1.0120
 4932lim     li23832   6.811   4.130   0.441  1.1708 -0.4408 -0.2364
 4933lim     li23833   3.500   2.525   5.400 -0.4199  0.3576  0.4230
 4934lim     li23834   1.039   3.526   5.299  0.3478 -0.8115 -1.0446
 4935lim     li23835   0.909   0.680   6.897 -0.8889  0.8035  0.3422
 4936lim     li23836   4.187   6.319   2.457  1.0039 -0.8607 -1.7063
 4937lim     li23837   0.963   3.480   1.640 -0.4562 -0.4174 -0.0476
 4938lim     li23838   5.971   4.277   6.486  0.1527  0.5836 -0.1526
 4939lim     li23839   3.364   3.505   4.139  1.1199 -0.5534 -0.0160
 4940lim     li23840   5.125   3.471   1.172 -0.0470  0.1779  0.5136
 4941lim     li23841   2.363   1.985   3.828  0.3019 -0.5337 -0.8929
 4942lim     li23842   4.875   2.453   2.940 -0.3940  0.7777  0.4607
 4943lim     li23843   4.641   1.060   5.661  0.3456  0.5885 -0.9463
 4944lim     li23844   4.604   6.355   3.112  0.0484 -0.1914  0.6743
 4945lim     li23845   6.946   2.019   1.907  1.0847 -0.2293 -0.8015
 4946lim     li23846   2.772   3.408   4.516 -0.6666  0.3587  0.0947
 4947lim     li23847   0.227   2.919   1.791  0.5453  0.0734  0.4611
 4948lim     li23848   6.361   3.705   2.641  0.5670  0.6928  0.7658
 4949lim     li23849   4.659   2.862   4.650  0.4818 -0.3262 -0.2457
 4950lim     li23850   4.437   5.168   0.542 -0.0158 -0.6748  0.3200
 4951lim     li23851   7.537   5.483   3.679  0.1680  0.0130 -0.0017
 4952lim     li23852   7.171   4.926   6.424  0.7819 -1.3981  0.9215
 4953lim     li23853   3.144   1.508   5.674  0.7007 -0.1995 -0.7026
 4954lim     li23854   3.633   2.436   0.725 -0.2404  0.7046 -0.1605
 4955lim     li23855   6.769   5.518   7.052  0.3938 -0.5456  0.4686
 4956lim     li23856   5.475   0.954   0.539  0.2202  0.4427 -0.2028
 4957lim     li23857   5.854   1.735   3.632 -0.6698  0.9444 -1.2514
 4958lim     li23858   2.878   3.223   0.524 -0.0585 -0.6476 -0.6680
 4959lim     li23859   4.896   2.179   1.033  0.4517  1.0281  0.8858
 4960lim     li23860   1.962   0.144   0.352  0.8622  0.6401  0.4997
 4961lim     li23861   0.321   6.902   2.080  0.7911 -0.0851 -0.1097
 4962lim     li23862   0.408   5.720   2.625 -0.5039  0.1310 -1.3927
 4963lim     li23863   1.326   7.139   3.303  0.6433 -0.2740 -0.3699
 4964lim     li23864   6.525   7.418   0.305  1.2517 -0.2681 -0.4059
 4965lim     li23865   2.310   0.197   2.901 -0.3414 -0.4907  0.8182
 4966lim     li23866   6.086   3.401   0.105  0.2644 -0.1801  0.0085
 4967lim     li23867   2.927   0.990   5.202  0.0630 -0.6132 -0.3378
 4968lim     li23868   4.351   1.429   7.110  0.6743  0.5701 -0.4203
 4969lim     li23869   7.445   2.716   3.983  0.1188  0.5636  0.5748
 4970lim     li23870   7.120   0.760   5.105 -0.1902  0.2146 -0.1619
 4971lim     li23871   2.790   5.906   2.478 -0.0475 -0.2280 -0.4441
 4972lim     li23872   5.746   2.363   3.546 -0.4215 -0.7613  0.4080
 4973lim     li23873   4.100   5.057   1.563  0.0981 -0.0160 -0.5097
 4974lim     li23874   0.076   2.958   4.614 -0.3276 -0.3054 -0.3481
 4975lim     li23875   4.630   7.096   2.255 -0.8442  0.4236 -0.3246
 4976lim     li23876   7.043   5.125   0.464 -0.0884  0.1119 -0.9008
 4977lim     li23877   4.688   5.633   3.120  0.3622  0.1081 -0.0202
 4978lim     li23878   5.556   0.387   1.291 -0.1082  0.2051 -1.2241
 4979lim     li23879   1.147   5.487   5.146  0.4194  0.3861 -0.1271
 4980lim     li23880   5.850   5.719   4.745  0.1757  1.0449  0.2928
 4981lim     li23881   3.630   5.495   7.547 -0.5006  2.0900  0.4656
 4982lim     li23882   6.384   0.831   4.106  0.2011 -0.1434  0.7919
 4983lim     li23883   1.482   2.197   0.549 -1.0472  0.3525 -0.7042
 4984lim     li23884   5.779   4.440   2.085 -0.1941 -0.3418  0.6397
 4985lim     li23885   1.994   5.450   6.845  0.0850 -0.3484 -0.2888
 4986lim     li23886   5.849   2.297   5.154 -0.4811 -0.2382  0.1608
 4987lim     li23887   2.864   7.139   7.060 -1.6856 -0.5158 -0.1846
 4988lim     li23888   7.245   5.550   1.265 -0.3466 -0.0589 -0.0639
 4989lim     li23889   2.955   2.861   1.330  0.7112 -0.7877  0.5687
 4990lim     li23890   0.737   3.925   1.736 -1.1388 -0.5198  0.8069
 4991lim     li23891   2.355   4.590   2.760 -0.4781 -0.8231 -0.4860
 4992lim     li23892   3.711   4.251   2.977  0.7603 -0.1508  0.8534
 4993lim     li23893   4.763   3.065   1.720 -0.5423 -0.6216 -0.1444
 4994lim     li23894   5.496   2.290   1.464  0.0349  0.1316 -0.5007
 4995lim     li23895   1.805   3.075   2.646 -0.4399 -0.7135  1.4825
 4996lim     li23896   0.102   3.810   5.999 -0.3847 -0.3740 -0.2804
 4997lim     li23897   4.202   5.555   0.976  0.0066  0.0196  0.0667
 4998lim     li23898   1.674   3.415   5.519  0.4535 -1.0266  0.5533
 4999lim     li23899   1.556   1.281   3.713  0.0349  0.4294  0.4934
 5000lim     li23900   2.856   6.075   5.286  0.4089 -0.7910 -0.2549
 5001lim     li23901   7.296   7.144   3.284  0.7914 -0.4327  0.3404
 5002lim     li23902   2.197   6.379   6.677 -0.1720 -0.2525 -0.2100
 5003lim     li23903   7.273   6.545   2.752  0.2589  0.0353  0.3471
 5004lim     li23904   4.485   6.858   7.155  0.2052  0.8487 -0.6087
 5005lim     li23905   5.905   0.762   5.061 -0.4249 -1.0669 -0.2309
 5006lim     li23906   4.831   5.002   4.169  0.5923  0.1319 -0.8685
 5007lim     li23907   3.337   6.970   3.848  1.3387  0.4928 -0.7992
 5008lim     li23908   6.880   2.586   3.150 -0.7134 -0.0969 -0.7952
 5009lim     li23909   2.301   5.436   3.924 -0.1622 -0.2297  0.0656
 5010lim     li23910   6.185   7.200   5.268  0.9737  0.6379 -0.0183
 5011lim     li23911   3.028   2.911   7.350  0.1836  0.8745 -0.4300
 5012lim     li23912   5.801   5.288   7.209 -0.9466 -0.1908  0.7180
 5013lim     li23913   2.572   5.283   2.197 -0.1405  0.0000 -1.0540
 5014lim     li23914   6.969   6.090   3.083  1.2077 -0.0445 -0.4317
 5015lim     li23915   4.413   5.857   4.009 -1.4262 -0.2573  0.1382
 5016lim     li23916   5.841   3.985   5.475 -0.4798 -0.8170  0.4400
 5017lim     li23917   1.923   5.276   4.259 -0.0452 -0.5652 -1.4404
 5018lim     li23918   3.306   4.183   7.482  0.8065 -0.3983 -0.7691
 5019lim     li23919   4.721   4.536   2.583 -0.1806 -0.9781  0.2259
 5020lim     li23920   4.580   3.034   1.184 -0.0419 -0.0318  0.3922
 5021lim     li23921   5.095   6.519   6.085 -0.6056  0.3683  0.2005
 5022lim     li23922   2.675   2.579   2.078  0.6058  0.7452 -0.5870
 5023lim     li23923   0.871   0.213   0.834  0.4351  1.0802 -0.4534
 5024lim     li23924   5.484   1.519   7.369  0.0288  1.5469 -0.0537
 5025lim     li23925   1.519   2.162   4.870  1.6924 -0.2002 -0.7320
 5026lim     li23926   3.332   1.590   6.162 -0.3135  0.0329  0.5255
 5027lim     li23927   3.169   1.937   0.567  0.2268 -0.2189  0.3491
 5028lim     li23928   2.357   6.295   5.854 -0.6466 -0.3267  1.0831
 5029lim     li23929   6.215   1.184   5.810 -0.4865 -1.2284 -0.3847
 5030lim     li23930   4.652   4.427   3.862  1.0105 -0.2661 -0.4782
 5031lim     li23931   5.043   0.524   7.220 -0.6170  1.2994  0.6632
 5032lim     li23932   2.690   1.081   2.839 -0.1987  0.0388  0.3863
 5033lim     li23933   0.509   4.226   2.514 -0.2829 -0.0352 -0.2161
 5034lim     li23934   6.282   7.018   1.876  1.1421 -0.6297 -0.1360
 5035lim     li23935   5.324   2.725   7.069 -0.8895  0.2004  0.0454
 5036lim     li23936   4.057   5.200   2.252 -0.4383  0.2445 -0.2273
 5037lim     li23937   1.844   7.260   5.381 -0.6915 -0.1207  0.7743
 5038lim     li23938   5.451   6.426   4.720  0.7580  0.6440 -0.3466
 5039lim     li23939   6.993   6.964   7.152 -0.0548  0.3922 -0.8701
 5040lim     li23940   5.631   6.121   6.663 -0.4602  0.3642 -1.4655
 5041lim     li23941   7.522   1.304   4.469  0.5896  0.1900 -1.1847
 5042lim     li23942   6.844   2.807   1.054 -0.5429 -0.1505 -0.3270
 5043lim     li23943   0.585   1.398   6.395  0.8259 -0.5341  0.3931
 5044lim     li23944   1.486   6.271   7.068 -0.3085  1.4425  1.0131
 5045lim     li23945   2.069   2.617   3.241  0.0258  0.9946  0.3644
 5046lim     li23946   5.499   6.852   1.501 -0.6822 -0.4037  0.7344
 5047lim     li23947   1.753   5.675   3.365  0.6084  0.2093 -0.5892
 5048lim     li23948   1.270   4.152   3.038 -0.0171 -0.6835 -0.3716
 5049lim     li23949   1.974   1.480   5.301  0.1364 -0.8265 -0.4568
 5050lim     li23950   4.169   7.215   2.478  0.5977 -0.0092 -0.7372
 5051lim     li23951   4.262   2.849   7.457 -0.6646  0.3584 -1.0117
 5052lim     li23952   0.203   6.512   6.915 -0.4198 -0.6694  0.8731
 5053lim     li23953   3.032   2.798   4.320  0.0389 -0.3158  0.1264
 5054lim     li23954   4.014   3.013   2.525 -0.3856 -0.4187 -0.2164
 5055lim     li23955   5.488   1.163   5.326  0.2118  0.1158 -0.5088
 5056lim     li23956   6.954   6.630   1.581  0.6921 -0.4678  0.8031
 5057lim     li23957   1.727   6.913   1.721  0.7023  1.0281 -0.2039
 5058lim     li23958   7.240   0.876   0.908 -1.6779  0.9603 -0.1827
 5059lim     li23959   0.902   5.123   1.481  0.2714 -0.3349  0.9952
 5060lim     li23960   4.661   0.777   4.597 -1.1231 -1.1421 -2.1776
 5061lim     li23961   2.960   7.374   5.758 -0.6831  0.6074  0.1359
 5062lim     li23962   7.405   5.749   6.233  0.7972  1.2457  0.0838
 5063lim     li23963   0.399   2.372   1.724  0.0938  1.4939 -0.9540
 5064lim     li23964   4.393   6.045   5.394  1.7025  0.1288 -0.4359
 5065lim     li23965   5.378   6.051   0.126 -0.6564 -0.3258 -1.1774
 5066lim     li23966   6.966   4.002   5.362  1.3338  0.0183 -0.3314
 5067lim     li23967   7.523   1.232   6.062  0.1576  0.2180  1.6166
 5068lim     li23968   6.794   5.201   5.541 -1.2336  0.5342 -0.9236
 5069lim     li23969   6.078   7.096   5.912 -0.5890 -0.6081 -0.9890
 5070lim     li23970   7.023   3.882   3.635 -1.0835  0.2461  0.5332
 5071lim     li23971   1.285   1.032   5.740  0.5067 -0.4762 -0.8809
 5072lim     li23972   6.320   4.903   5.503 -0.7291 -1.6005 -0.0957
 5073lim     li23973   1.536   2.907   1.408  0.5213 -0.3951 -0.3960
 5074lim     li23974   5.148   7.179   2.194  0.2984 -0.9535 -0.1699
 5075lim     li23975   0.804   3.900   7.529  0.3355  0.6013  0.2189
 5076lim     li23976   6.066   5.223   2.364  0.8247 -1.4640 -0.2832
 5077lim     li23977   0.008   0.585   2.568  0.0181 -0.2088  0.1738
 5078lim     li23978   0.561   5.042   3.466  0.0324  0.1091  1.5527
 5079lim     li23979   4.864   5.065   5.488 -0.4450  0.3257  0.0682
 5080lim     li23980   6.857   4.077   7.261  0.2647  1.3227 -0.0768
 5081lim     li23981   3.907   6.242   4.527  0.4991 -0.3587 -0.9954
 5082lim     li23982   4.411   4.017   1.566 -0.1621 -0.2611 -0.2169
 5083lim     li23983   3.984   0.518   5.503  0.6071  0.0827 -0.7827
 5084lim     li23984   6.404   3.291   2.050  0.6471 -0.0515  0.6641
 5085lim     li23985   5.856   5.493   2.699 -0.2206 -0.0634  1.3609
 5086lim     li23986   0.702   3.701   4.165 -0.9293  0.4888 -0.2383
 5087lim     li23987   6.713   0.349   1.408 -0.1042 -1.1596 -0.1819
 5088lim     li23988   4.254   3.471   6.847  0.9294  0.2758 -1.2440
 5089lim     li23989   6.626   1.511   5.167  0.3031 -0.0392 -0.8042
 5090lim     li23990   1.637   0.785   4.668 -0.4913  0.1014 -0.1787
 5091lim     li23991   6.835   6.202   5.787  0.4050  0.5239  1.4955
 5092lim     li23992   2.250   3.979   7.019 -1.0994 -0.0898 -1.0122
 5093lim     li23993   3.483   0.579   1.382  0.3458  1.0745  0.6441
 5094lim     li23994   1.264   5.910   5.684  1.0374  0.9290  0.5644
 5095lim     li23995   4.475   4.100   4.972 -0.3936  0.4319  0.7212
 5096lim     li23996   0.165   5.762   7.013 -0.2833  0.8691 -0.1472
 5097lim     li23997   2.297   7.210   2.867  0.4144 -0.6732 -0.3952
 5098lim     li23998   6.432   0.766   6.747 -0.5735 -0.6503 -0.0592
 5099lim     li23999   5.363   2.622   0.143  0.5570 -0.5126  1.0980
 5100lim     li24000   4.950   3.315   6.242 -0.0306  0.3687  1.0649
 5101lim     li24001   6.661   5.241   2.464  0.0534 -0.7101  0.3714
 5102lim     li24002   1.385   4.881   2.443 -0.2593  0.6780  0.9299
 5103lim     li24003   2.346   0.964   5.993 -0.5679 -0.1829  0.0083
 5104lim     li24004   3.952   6.694   5.743 -0.3027  0.6136 -0.2804
 5105lim     li24005   3.363   2.176   6.302 -0.0041  0.0360 -0.3262
 5106lim     li24006   6.108   1.980   1.111  0.1116 -1.3638 -1.0502
 5107lim     li24007   2.281   3.265   5.228  1.1222 -1.4314 -0.2291
 5108lim     li24008   3.785   2.540   4.391 -0.4443 -0.5147  1.1817
 5109lim     li24009   3.393   4.669   2.364  0.5002  0.6156  0.3364
 5110lim     li24010   0.899   7.241   6.130 -0.3932 -0.8391 -0.7947
 5111lim     li24011   1.091   6.385   6.313 -0.5814  0.7446  0.0056
 5112lim     li24012   3.109   4.009   4.302  0.2797 -0.3368 -0.0182
 5113lim     li24013   3.665   4.569   3.696 -0.0919  0.3265  0.1405
 5114lim     li24014   6.973   0.288   3.049  0.8158  0.3974 -0.7222
 5115lim     li24015   5.067   1.425   7.042 -0.7373 -0.7425  0.8717
 5116lim     li24016   4.313   6.009   1.038 -0.7495  0.6638  0.2494
 5117lim     li24017   0.424   4.948   0.251  0.8974  0.3732  0.1242
 5118lim     li24018   4.067   3.325   3.120  0.3154  0.3863 -0.0179
 5119lim     li24019   4.298   2.971   6.749 -0.6710 -0.5168 -0.6651
 5120lim     li24020   3.919   1.468   2.470  0.0992  1.3531 -0.2207
 5121lim     li24021   0.534   7.308   5.722  0.1231 -0.1656 -0.3301
 5122lim     li24022   3.318   3.052   6.751  1.1482  0.2858  0.8422
 5123lim     li24023   6.188   5.639   4.548  0.0209  0.6778  0.3343
 5124lim     li24024   0.194   7.187   6.549  0.8080 -0.2031 -1.6399
 5125lim     li24025   2.384   4.898   5.207  0.3873  0.4963  0.7299
 5126lim     li24026   0.102   2.909   7.067 -0.3476 -0.8829 -1.0963
 5127lim     li24027   3.698   5.679   2.341  1.3697  1.7500  1.2561
 5128lim     li24028   6.874   6.818   6.550  0.2966  0.0791 -0.2973
 5129lim     li24029   1.922   2.741   5.968  0.4827  0.2233 -0.4603
 5130lim     li24030   3.834   4.861   4.071 -0.1717  0.8587 -1.1835
 5131lim     li24031   0.986   0.891   0.397 -0.0985 -0.8836  0.6037
 5132lim     li24032   3.999   5.239   6.498 -0.2649 -0.3242 -0.0736
 5133lim     li24033   5.576   3.892   3.781 -0.3094  1.4692  0.1632
 5134lim     li24034   3.205   7.179   4.956  0.2341 -0.6277 -0.0191
 5135lim     li24035   1.735   2.030   4.275  0.4877 -0.3524 -0.0353
 5136lim     li24036   5.860   5.372   5.909  0.4146 -0.3453  0.1747
 5137lim     li24037   6.409   5.950   3.744  0.3701  0.3265 -0.6628
 5138lim     li24038   2.317   4.198   4.741  0.9461 -1.3632  0.4577
 5139lim     li24039   4.047   0.190   4.455  0.4837 -0.0301 -0.2480
 5140lim     li24040   5.248   6.905   0.599  0.2201  0.0831 -0.2963
 5141lim     li24041   2.546   0.201   4.627 -0.0528  0.2324 -0.3796
 5142lim     li24042   1.621   6.509   0.955 -1.0641 -0.4768 -0.7734
 5143lim     li24043   1.543   3.208   0.935 -0.7195 -0.7730  1.1987
 5144lim     li24044   0.359   2.488   6.335 -0.1253 -0.7388  0.6279
 5145lim     li24045   1.248   1.169   1.537 -0.1573  0.2362 -1.1423
 5146lim     li24046   7.330   3.389   0.123  0.3641 -1.0098  0.6644
 5147lim     li24047   6.526   0.126   3.715  0.5904 -0.1521  0.3020
 5148lim     li24048   3.164   5.242   6.153  1.1552 -0.9358  0.5124
 5149lim     li24049   4.946   0.046   7.273 -1.5424 -0.9547  0.6188
 5150lim     li24050   5.418   4.885   7.194  0.5506  0.7929 -0.5842
 5151lim     li24051   3.638   3.239   1.147 -0.3409  0.6107 -0.0418
 5152lim     li24052   2.861   4.800   7.499 -1.3172 -1.1303  0.2082
 5153lim     li24053   5.361   0.907   2.564  0.7116  0.2693 -0.7354
 5154lim     li24054   6.882   3.379   3.189  0.1514 -0.0004  0.2008
 5155lim     li24055   1.853   1.166   0.628  0.7099 -0.0802  0.3537
 5156lim     li24056   6.294   5.433   1.448  0.5780  0.7465  0.6909
 5157lim     li24057   5.531   7.088   4.306  0.2283 -0.4657  0.9322
 5158lim     li24058   0.888   4.377   4.160  0.8113 -0.8495  0.1282
 5159lim     li24059   3.949   1.723   4.236 -0.2128 -0.1885  0.1323
 5160lim     li24060   3.528   2.286   3.097  0.8006 -1.0869  0.1690
 5161lim     li24061   3.576   6.625   5.192 -0.9983  0.2593 -0.0876
 5162lim     li24062   3.542   5.946   3.127  0.2326 -0.2572 -0.3879
 5163lim     li24063   3.688   3.891   5.743  0.2119 -0.1370 -0.9632
 5164lim     li24064   3.521   1.840   6.969  0.1765 -0.3918 -0.6075
 5165lim     li24065   2.338   2.427   5.774 -0.1738  0.5626  0.3619
 5166lim     li24066   0.608   2.443   3.680  0.0917 -0.1808 -0.5049
 5167lim     li24067   4.703   2.060   4.124 -0.4262 -0.2412  0.0468
 5168lim     li24068   2.600   5.242   3.116  0.0445  0.3526 -0.6196
 5169lim     li24069   0.030   2.155   5.159 -0.2885  0.0083 -0.4479
 5170lim     li24070   0.267   0.157   0.902 -0.2215 -0.3095  0.4601
 5171lim     li24071   6.987   1.713   4.133 -0.1935  0.0813 -0.6431
 5172lim     li24072   2.551   0.587   3.353 -0.4253 -0.3960 -0.4556
 5173lim     li24073   2.935   6.052   0.060  0.8322  0.0524 -0.0853
 5174lim     li24074   5.757   3.134   1.014 -1.0526 -0.6855  0.8342
 5175lim     li24075   4.437   6.693   5.170  0.1605  0.7750 -0.3558
 5176lim     li24076   2.876   6.582   3.468  0.2168  0.3313  0.4918
 5177lim     li24077   5.643   4.681   5.335 -0.4172  0.8597 -1.3381
 5178lim     li24078   2.998   2.879   2.866 -0.6894  0.4679  0.3416
 5179lim     li24079   7.373   5.844   4.819  0.4998  0.7292 -0.8343
 5180lim     li24080   3.427   6.055   1.647  0.0245  0.8940 -0.1932
 5181lim     li24081   0.847   5.646   0.585 -0.8197 -0.4533  0.3789
 5182lim     li24082   6.216   4.585   0.643  0.3319  0.4609 -0.9466
 5183lim     li24083   2.963   1.219   7.202  0.3155  1.3920  0.6439
 5184lim     li24084   0.139   4.813   1.746  0.1905  1.1959 -0.5461
 5185lim     li24085   4.324   4.681   7.108  0.6964  0.6444  0.5488
 5186lim     li24086   1.614   1.411   6.500 -0.3630  0.2058  0.5080
 5187lim     li24087   0.985   1.568   1.005  0.2179  0.3175  1.1023
 5188lim     li24088   7.039   4.097   2.567  0.3892 -0.0079 -0.2392
 5189lim     li24089   0.960   3.582   0.836  0.8176  0.6409 -0.8295
 5190lim     li24090   7.271   6.902   4.116  0.1792  0.2947 -0.2068
 5191lim     li24091   1.411   3.081   7.487  0.3143 -0.2796 -0.3609
 5192lim     li24092   6.661   4.918   4.145 -0.7265 -0.7235  0.7750
 5193lim     li24093   2.850   0.376   3.772  0.4289 -0.1141 -0.4506
 5194lim     li24094   1.911   2.805   6.873 -0.1172  0.1114  1.1371
 5195lim     li24095   5.683   0.015   6.533  0.7536  0.2835  0.7344
 5196lim     li24096   5.539   2.738   4.778  0.3903 -0.1458  0.3113
 5197lim     li24097   2.039   4.156   3.796 -0.4648 -0.7242 -0.1380
 5198lim     li24098   3.111   0.991   4.196  0.2573  0.6912 -0.5249
 5199lim     li24099   1.423   4.679   6.602  0.0541 -0.4559  0.0565
 5200lim     li24100   5.618   2.008   6.504 -0.6348 -0.3572 -0.5939
 5201lim     li24101   0.194   1.263   2.418 -0.6162  0.2069 -0.4256
 5202lim     li24102   5.757   6.900   7.033  0.2309  0.2143 -0.3117
 5203lim     li24103   1.289   0.132   2.559 -0.0492 -1.8453 -1.7089
 5204lim     li24104   0.808   2.901   6.045 -0.1151 -0.2831  1.0308
 5205lim     li24105   0.268   1.518   3.042  0.6716  0.5789 -0.2224
 5206lim     li24106   0.727   2.116   3.137 -0.1883 -0.1118 -0.8656
 5207lim     li24107   6.754   6.258   0.485  0.0751  1.7289 -0.9021
 5208lim     li24108   6.980   2.846   6.271  1.0464  0.5515 -1.0165
 5209lim     li24109   5.096   4.448   6.930  0.6508  0.9070 -0.8624
 5210lim     li24110   2.238   4.324   7.526 -1.2563 -0.3501 -0.1344
 5211lim     li24111   0.365   2.733   2.654  0.1682 -0.1552 -0.3775
 5212lim     li24112   1.675   1.916   6.004 -0.3424 -1.2325 -0.1719
 5213lim     li24113   2.125   2.951   1.076 -0.8568  0.8826  0.7250
 5214lim     li24114   4.049   1.551   1.665  0.8187  0.3582  0.3602
 5215lim     li24115   7.338   0.586   0.219  0.0296  1.2702  0.2112
 5216lim     li24116   6.396   2.264   6.429 -0.9158  0.0428 -0.0728
 5217lim     li24117   6.107   6.934   3.107 -0.1569 -0.0783  1.1834
 5218lim     li24118   1.238   0.443   6.757  0.2776 -0.6915  0.8889
 5219lim     li24119   1.242   6.286   2.836  0.5657  0.2022 -0.2323
 5220lim     li24120   5.518   5.307   0.790  0.6383 -0.7650  1.0373
 5221lim     li24121   7.140   3.713   1.093  0.0571 -1.0889  0.2537
 5222lim     li24122   4.347   1.013   3.768 -0.0266  0.9565 -0.8758
 5223lim     li24123   1.228   2.538   2.203  0.4606  0.0716 -0.8772
 5224lim     li24124   3.184   5.177   7.017  1.0530 -0.1326 -0.3114
 5225lim     li24125   0.672   0.162   3.475 -0.3050 -0.3923 -0.0419
 5226lim     li24126   1.233   3.892   6.846  0.2924 -0.2794  1.1626
 5227lim     li24127   3.609   1.175   0.755  0.0274  0.1981 -0.1733
 5228lim     li24128   5.760   1.344   1.409  0.4832 -0.1662 -0.2640
 5229lim     li24129   6.550   6.184   6.838  1.0114  0.7666  0.1794
 5230lim     li24130   6.252   4.582   3.682 -0.9657 -0.0899  0.2800
 5231lim     li24131   4.520   1.478   6.168  1.3817 -0.6865  0.6413
 5232lim     li24132   6.372   6.693   4.797 -0.8931  0.2190 -0.0798
 5233lim     li24133   2.862   3.288   3.444 -0.1418 -0.2642  0.2047
 5234lim     li24134   4.163   6.592   0.853 -0.8005 -0.7059  0.9653
 5235lim     li24135   6.593   2.576   3.663  0.2621 -0.6678  1.4126
 5236lim     li24136   0.812   5.062   5.700  0.2774 -0.4124  0.2626
 5237lim     li24137   3.764   0.964   2.845  0.0633 -0.0981  0.9908
 5238lim     li24138   7.521   2.411   0.099  0.2042  0.4970  0.2790
 5239lim     li24139   2.520   5.127   1.589  0.0679  0.6349  0.3911
 5240lim     li24140   3.980   0.352   0.045 -0.4332  0.7338 -0.6482
 5241lim     li24141   1.687   3.979   5.784  0.3133 -0.7819 -0.0168
 5242lim     li24142   6.376   6.777   3.812  0.1305 -0.7191  0.8979
 5243lim     li24143   6.913   5.157   4.932 -1.0136  0.1537 -0.0908
 5244lim     li24144   5.491   6.681   2.570 -0.2812  0.1725 -0.8959
 5245lim     li24145   6.708   2.562   5.630 -0.8255 -0.1587 -0.0468
 5246lim     li24146   5.923   3.450   7.190  0.4728 -0.6596  0.4732
 5247lim     li24147   5.209   5.195   1.952 -0.6771  0.6548 -1.3906
 5248lim     li24148   5.574   0.953   3.212 -0.2123 -0.1527 -0.3853
 5249lim     li24149   0.117   4.819   3.197 -1.4196  0.2657 -0.1625
 5250lim     li24150   4.108   0.572   1.802  1.0335  0.0364  0.2989
 5251lim     li24151   4.658   7.138   3.834  0.4416 -0.8941  0.9725
 5252lim     li24152   2.613   3.590   1.731  0.6166  0.9931  0.9342
 5253lim     li24153   2.911   5.793   0.772 -0.4735 -0.2438 -0.6337
 5254lim     li24154   7.330   5.105   2.509  0.2537  0.1379 -0.6576
 5255lim     li24155   0.768   2.525   5.364 -0.1321  1.5149  0.9051
 5256lim     li24156   0.969   5.857   4.298 -0.5685 -0.6984  0.8677
 5257lim     li24157   2.411   6.570   7.400  0.5867  0.3732 -0.3328
 5258lim     li24158   2.151   6.326   5.023 -0.6416  0.1321 -0.6029
 5259lim     li24159   6.107   1.862   2.512 -0.6406 -1.1683  0.2367
 5260lim     li24160   0.678   6.596   2.612 -1.0514  0.4095 -0.7712
 5261lim     li24161   4.952   3.144   2.674 -0.2135  0.2848 -0.3984
 5262lim     li24162   6.761   1.640   7.272  0.4054 -0.5118 -0.6043
 5263lim     li24163   3.548   5.808   6.512  0.1619 -0.5135 -0.3524
 5264lim     li24164   1.118   1.352   3.054  0.4642  0.3232  0.4460
 5265lim     li24165   2.910   5.690   3.822  0.8023  0.4400 -0.2402
 5266lim     li24166   6.850   0.706   7.378  0.0640  0.5026 -0.8164
 5267lim     li24167   2.132   5.695   1.067 -1.0434 -0.8470  0.1422
 5268lim     li24168   5.732   3.200   2.307 -0.1872 -0.8219 -1.3049
 5269lim     li24169   0.008   3.557   3.211  0.1522  0.8120  0.2064
 5270lim     li24170   1.971   1.707   7.312 -0.5249 -0.6294  0.4409
 5271lim     li24171   7.432   5.142   4.723 -0.9120 -0.6506  0.2111
 5272lim     li24172   0.421   5.218   2.581 -0.3411 -0.2167 -0.1941
 5273lim     li24173   2.959   0.161   0.678 -0.1388 -0.8495  0.5363
 5274lim     li24174   6.236   2.019   5.936  0.7414 -0.0918  0.4789
 5275lim     li24175   0.786   2.491   4.843  1.0988  0.3163 -0.2799
 5276lim     li24176   3.147   1.990   3.381  0.1291 -0.4551  0.2012
 5277lim     li24177   2.777   6.487   0.869 -1.2318 -0.3087 -1.5487
 5278lim     li24178   5.001   3.896   3.273  0.2264  0.1640  0.5916
 5279lim     li24179   1.118   2.973   4.417  0.0066  0.1501 -0.2677
 5280lim     li24180   3.069   1.797   4.385  0.3485 -0.2244 -1.2777
 5281lim     li24181   7.223   4.545   1.421  0.9502 -1.6033 -0.2166
 5282lim     li24182   5.507   4.427   4.490 -0.0603 -0.4557 -0.1983
 5283lim     li24183   2.633   0.066   5.302  0.2255  0.3932  0.7303
 5284lim     li24184   3.239   4.157   1.010 -0.2445 -0.3405  0.5020
 5285lim     li24185   1.093   1.583   6.724  0.2361  0.5725 -1.5343
 5286lim     li24186   1.959   4.768   4.082 -1.4281  0.1063  1.0709
 5287lim     li24187   0.666   3.841   5.683  0.9708  0.7161 -0.0697
 5288lim     li24188   2.703   2.468   6.708  0.6004  0.3039 -0.2195
 5289lim     li24189   5.046   3.281   5.122 -1.0782  0.4119 -0.4817
 5290lim     li24190   7.290   0.952   5.643 -0.8507 -0.1582  0.0673
 5291lim     li24191   4.997   3.527   0.288 -0.0889 -1.5626  0.1393
 5292lim     li24192   6.239   3.566   3.852  0.9818  0.0055  0.0654
 5293lim     li24193   5.734   4.152   1.133 -0.9625 -0.2000 -1.3147
 5294lim     li24194   3.862   1.726   5.081  0.5077  0.7724  1.2474
 5295lim     li24195   6.108   6.113   0.817 -0.3648  0.1882 -1.0949
 5296lim     li24196   4.097   0.579   6.678 -1.2689  0.2553 -0.2915
 5297lim     li24197   4.554   7.478   3.199 -0.6101  1.3638 -0.2350
 5298lim     li24198   5.517   0.292   0.186 -0.6123  0.3962 -1.6353
 5299lim     li24199   1.696   0.508   6.706 -0.1862  0.9247  0.2942
 5300lim     li24200   7.160   6.373   2.044 -0.1457 -0.4194  0.4162
 5301lim     li24201   2.002   4.813   0.480 -0.7837  0.1155  0.6220
 5302lim     li24202   2.212   0.180   1.014 -1.2102 -0.3127 -0.4948
 5303lim     li24203   6.314   5.942   5.566  0.1183 -0.1230  0.3548
 5304lim     li24204   3.315   0.026   7.380  0.3927 -0.2762 -0.9955
 5305lim     li24205   0.028   0.458   3.958 -0.2875 -0.8855  0.4972
 5306lim     li24206   1.411   4.487   0.925 -1.1281 -0.8987  0.6276
 5307lim     li24207   2.962   7.168   1.486 -0.4688  0.8345 -0.2013
 5308lim     li24208   0.140   0.395   4.782 -1.0137 -0.0282  0.4255
 5309lim     li24209   2.993   5.560   5.719 -0.3114 -0.0664 -1.2333
 5310lim     li24210   1.434   2.366   1.576 -0.5084 -0.2607 -0.7571
 5311lim     li24211   0.268   6.682   3.802 -0.0995 -0.2172  0.3864
 5312lim     li24212   3.785   0.767   3.899  1.0247  0.0107 -0.8231
 5313lim     li24213   1.428   6.689   5.838 -0.9817  0.6345  0.0203
 5314lim     li24214   4.134   1.310   5.550  0.6657  0.3933 -1.0993
 5315lim     li24215   5.228   7.392   5.637  0.8827  1.7150  1.1850
 5316lim     li24216   6.004   2.627   0.558 -0.3072 -0.1281 -0.5647
 5317lim     li24217   4.477   3.242   3.627  0.6001 -0.3763 -0.2797
 5318lim     li24218   0.594   1.309   5.525  0.5974 -0.3306  0.8166
 5319lim     li24219   0.630   0.994   3.945 -0.1212 -0.2509  0.1747
 5320lim     li24220   6.806   6.861   5.214 -0.5631  0.3502 -0.0194
 5321lim     li24221   7.453   4.564   6.680  0.1585  0.1286 -0.1264
 5322lim     li24222   1.613   6.748   4.880  0.7008  1.2571 -0.1706
 5323lim     li24223   6.298   1.010   2.407  0.4296 -0.3813 -0.6345
 5324lim     li24224   0.300   4.541   5.021  0.2658  0.1818  0.6632
 5325lim     li24225   1.799   0.138   4.763 -0.6647 -0.0912  0.2628
 5326lim     li24226   1.270   3.520   3.063 -0.7070 -0.0817  0.6393
 5327lim     li24227   0.247   6.223   0.899  0.0578 -0.8229  0.6356
 5328lim     li24228   7.274   4.494   3.995 -0.6263 -0.3610 -1.0858
 5329lim     li24229   0.671   0.514   5.182  1.6300  0.7231  0.1540
 5330lim     li24230   4.733   7.200   0.298 -0.4776 -0.8056  0.1298
 5331lim     li24231   5.148   2.189   2.345 -0.9365 -1.4461  0.0578
 5332lim     li24232   1.972   4.198   2.140 -0.8615  0.5026 -0.6643
 5333lim     li24233   0.489   1.650   7.302 -0.2816 -0.4220 -0.2902
 5334lim     li24234   6.252   7.018   1.051 -0.2254  0.5555 -0.3505
 5335lim     li24235   2.480   6.333   2.606  1.4883  0.3897 -0.2365
 5336lim     li24236   0.146   6.187   5.403 -1.2126  0.5389 -0.3389
 5337lim     li24237   1.908   3.995   1.515 -0.2147 -0.5371 -0.2532
 5338lim     li24238   5.720   4.921   0.259  0.2389 -1.2328  0.3861
 5339lim     li24239   2.062   1.337   1.492 -0.5289 -0.9733  0.1562
 5340lim     li24240   0.900   6.868   4.737  0.2496 -0.2025  0.2986
 5341lim     li24241   0.118   7.156   5.132 -0.5970  0.3745  0.4829
 5342lim     li24242   7.060   1.752   3.268 -0.2578 -0.0795 -0.7365
 5343lim     li24243   0.436   5.926   1.508 -0.6979  0.4965  0.2387
 5344lim     li24244   4.058   5.623   5.037 -0.0102 -0.8903  0.6672
 5345lim     li24245   1.367   5.773   1.458  0.0503  0.0718  0.1949
 5346lim     li24246   4.583   2.298   6.156  0.6992  0.1833 -0.2801
 5347lim     li24247   5.799   3.097   6.309 -0.5720  0.2843 -0.4241
 5348lim     li24248   6.598   2.045   4.530 -0.0384 -0.3112  0.4043
 5349lim     li24249   6.459   4.153   6.509 -0.0570 -0.8035 -0.3143
 5350lim     li24250   0.687   5.675   7.437  0.2785 -0.6351 -0.5814
 5351lim     li24251   2.531   2.461   5.219  0.0672  1.1999  1.2915
 5352lim     li24252   3.178   7.135   6.224 -0.5634  0.6406  0.0121
 5353lim     li24253   3.089   0.029   2.311  0.0962 -0.5624 -0.0592
 5354lim     li24254   0.802   0.346   1.765  0.4445 -0.3302 -0.5720
 5355lim     li24255   4.315   1.865   3.281  0.2354  1.0906  0.3183
 5356lim     li24256   2.457   2.415   7.357 -0.0057 -1.3068 -0.2404
 5357lim     li24257   3.426   7.353   2.938 -0.0853  0.3442  0.2115
 5358lim     li24258   3.254   4.627   1.304 -0.5505 -0.7388 -0.7117
 5359lim     li24259   2.721   3.928   2.965 -0.6336  0.6673  0.2675
 5360lim     li24260   1.213   7.439   0.565 -0.1692  0.4163 -0.1260
 5361lim     li24261   2.035   7.341   6.548 -0.1292  0.0262  0.5165
 5362lim     li24262   1.346   4.715   7.357  0.5641  0.4398 -0.0031
 5363lim     li24263   4.869   3.954   5.820  0.2443  0.9514  0.4879
 5364lim     li24264   3.990   1.547   0.638 -0.5278 -0.2114 -0.2778
 5365lim     li24265   1.936   2.406   3.746  0.6096 -0.3330  0.9992
 5366lim     li24266   4.762   1.311   1.755  0.4817 -0.2539 -0.3387
 5367lim     li24267   6.920   3.088   2.225 -0.8161 -0.0143 -0.7830
 5368lim     li24268   6.753   0.640   0.863  0.3348  1.3806  1.3462
 5369lim     li24269   2.509   1.546   7.157 -0.6229 -0.2775  0.2002
 5370lim     li24270   0.920   1.378   4.772 -0.6431 -0.1724  0.6637
 5371lim     li24271   5.291   1.830   4.886 -0.0006 -0.5662 -0.2904
 5372lim     li24272   0.149   0.460   1.924 -0.9155 -0.1354  0.5328
 5373lim     li24273   6.640   0.838   1.899 -0.4501  1.0301 -0.3917
 5374lim     li24274   1.987   7.445   2.360  0.5160  0.5683  0.1686
 5375lim     li24275   3.750   3.181   7.489  1.7323 -0.0343 -1.1313
 5376lim     li24276   1.378   6.069   2.343  0.4624 -0.2566  0.3661
 5377lim     li24277   3.429   6.674   2.760  0.3794 -1.1184 -0.6094
 5378lim     li24278   4.678   5.920   7.538 -0.1940  0.3865 -0.2022
 5379lim     li24279   4.826   0.942   2.660  0.9116  0.3335 -0.6580
 5380lim     li24280   0.469   4.102   3.089 -0.6305  0.0807  0.0327
 5381lim     li24281   5.287   7.372   3.671  0.3811  0.2546 -0.7874
 5382lim     li24282   2.618   1.891   2.301 -0.2121  0.6886 -0.4727
 5383lim     li24283   2.965   0.862   6.232 -0.6538  0.2983 -0.8392
 5384lim     li24284   1.479   4.662   5.577  0.3828  2.1330 -0.2235
 5385lim     li24285   5.278   1.490   5.770 -0.6407  0.0040 -0.0963
 5386lim     li24286   6.340   3.003   4.734 -0.6757 -0.7624 -1.0258
 5387lim     li24287   0.086   0.049   6.710 -0.0698 -0.4356  0.4030
 5388lim     li24288   2.993   6.873   4.440 -0.1036  0.1601 -0.6519
 5389lim     li24289   0.751   3.330   0.043 -0.0610  0.2496 -0.9754
 5390lim     li24290   3.343   5.096   4.542 -0.0450 -0.3704  1.0098
 5391lim     li24291   2.126   6.219   1.687  0.4863  0.1852  0.4430
 5392lim     li24292   4.006   7.095   0.034 -0.2255  0.0481  0.8217
 5393lim     li24293   1.566   0.527   5.815  0.2004  0.4766 -1.0439
 5394lim     li24294   3.403   3.261   5.624  0.1721  0.0342  0.0027
 5395lim     li24295   5.475   4.524   1.525  0.8723 -1.2130 -0.9376
 5396lim     li24296   5.888   1.404   4.226 -0.4254  0.0915  0.4773
 5397lim     li24297   4.709   4.472   5.696 -1.1028 -0.2244 -0.0945
 5398lim     li24298   4.159   2.064   2.048  0.8521  0.1708  0.2585
 5399lim     li24299   4.118   3.980   0.270  0.2342 -0.1266 -0.1748
 5400lim     li24300   3.359   0.780   7.181 -0.3768 -0.0810 -0.5827
 5401ntf    cn124301   5.776   2.411   5.717  0.0596  0.0932 -0.1053
 5401ntf    sn224302   5.944   2.388   5.783  0.0046  0.0407  0.0177
 5401ntf    nn324303   5.962   2.517   5.870 -0.3165 -0.0459  0.2157
 5401ntf    sn224304   6.099   2.554   5.937 -0.1513  0.1649 -0.2333
 5401ntf    cn124305   6.040   2.597   6.103 -0.2044 -0.2736 -0.1378
 5401ntf    fn424306   5.691   2.351   5.797 -0.1584 -0.4183 -0.7098
 5401ntf    fn424307   5.726   2.532   5.704  0.0394  0.1424  0.4192
 5401ntf    fn424308   5.765   2.362   5.594 -0.7511  0.5119 -0.2010
 5401ntf    on524309   5.925   2.267   5.859 -0.7171  0.1235 -0.0193
 5401ntf    on524310   6.027   2.384   5.665  0.2082  0.2145  0.1542
 5401ntf    on524311   6.151   2.679   5.887 -0.1319  0.3300  0.2006
 5401ntf    on524312   6.200   2.453   5.952 -0.2327  0.0594 -0.3884
 5401ntf    fn424313   5.927   2.665   6.090 -0.1728 -0.1929  0.0053
 5401ntf    fn424314   6.003   2.491   6.173 -0.2230 -0.1776 -0.0004
 5401ntf    fn424315   6.129   2.663   6.176  0.0044  0.0428 -0.6680
 5402ntf    cn124316   7.263   2.448   5.943  0.1909 -0.0705  0.0427
 5402ntf    sn224317   7.189   2.595   5.868  0.3947  0.0791  0.1351
 5402ntf    nn324318   7.277   2.603   5.738  0.1027 -0.1434 -0.0775
 5402ntf    sn224319   7.236   2.552   5.595 -0.0682  0.1806 -0.1451
 5402ntf    cn124320   7.390   2.479   5.533  0.0048  0.2516 -0.0518
 5402ntf    fn424321   7.236   2.337   5.875  0.6288 -0.0543 -0.1618
 5402ntf    fn424322   7.395   2.452   5.957  0.2046  0.1419 -0.1417
 5402ntf    fn424323   7.226   2.431   6.069  0.0907  0.0894  0.0347
 5402ntf    on524324   7.051   2.556   5.857  0.4644 -0.1393  0.0507
 5402ntf    on524325   7.215   2.693   5.971 -0.3920 -0.1503  0.5678
 5402ntf    on524326   7.211   2.661   5.504  0.3742 -0.0055 -0.4898
 5402ntf    on524327   7.149   2.438   5.586  0.0335  0.0302  0.6912
 5402ntf    fn424328   7.457   2.408   5.622 -0.0361  0.3446  0.0526
 5402ntf    fn424329   7.372   2.394   5.433 -0.4701 -0.2153  0.4251
 5402ntf    fn424330   7.466   2.577   5.488  0.4919 -0.4870 -0.8843
 5403ntf    cn124331   1.899   6.716   2.979  0.3652  0.0044 -0.5230
 5403ntf    sn224332   1.900   6.895   2.952 -0.0741  0.0664 -0.1352
 5403ntf    nn324333   1.782   6.908   2.849 -0.0814  0.1612 -0.1154
 5403ntf    sn224334   1.653   6.996   2.840  0.0263  0.3635  0.3229
 5403ntf    cn124335   1.535   6.864   2.880 -0.4294  0.6490 -0.0763
 5403ntf    fn424336   1.790   6.676   3.044  0.4443  0.5841 -0.0206
 5403ntf    fn424337   1.889   6.652   2.864 -0.1312 -0.1140 -0.4194
 5403ntf    fn424338   2.005   6.671   3.045  0.3910 -0.0478 -0.5991
 5403ntf    on524339   1.881   6.954   3.083 -0.3460  0.0633 -0.1722
 5403ntf    on524340   2.027   6.923   2.890  0.0286  0.2966  0.1763
 5403ntf    on524341   1.622   7.027   2.703  0.0996 -0.2799  0.1597
 5403ntf    on524342   1.627   7.091   2.947 -0.2832  0.4593  0.1643
 5403ntf    fn424343   1.553   6.765   2.793 -0.3243  0.4415  0.1817
 5403ntf    fn424344   1.550   6.804   2.997 -0.3429  0.0452 -0.3939
 5403ntf    fn424345   1.407   6.901   2.875 -0.5362  0.3029  0.0900
 5404ntf    cn124346   3.739   5.479   1.404  0.0549 -0.2179 -0.2880
 5404ntf    sn224347   3.612   5.349   1.418 -0.0291 -0.1104 -0.0468
 5404ntf    nn324348   3.531   5.413   1.536 -0.1941 -0.1699 -0.1270
 5404ntf    sn224349   3.420   5.524   1.531  0.0504  0.0912  0.1011
 5404ntf    cn124350   3.275   5.414   1.541  0.2412 -0.1740 -0.0262
 5404ntf    fn424351   3.760   5.538   1.520  0.1765  0.1586 -0.4971
 5404ntf    fn424352   3.860   5.438   1.372  0.4144  0.2984  0.4022
 5404ntf    fn424353   3.710   5.575   1.316  0.3539 -0.0300 -0.1820
 5404ntf    on524354   3.563   5.348   1.283 -0.3496  0.0952  0.0663
 5404ntf    on524355   3.689   5.235   1.461  0.0377  0.0390  0.2360
 5404ntf    on524356   3.411   5.592   1.404 -0.7571 -0.3885 -0.1081
 5404ntf    on524357   3.409   5.599   1.653  0.1467 -0.2316  0.3095
 5404ntf    fn424358   3.253   5.346   1.429 -0.3973 -0.0527  0.0228
 5404ntf    fn424359   3.289   5.325   1.638 -0.4220 -0.3751 -0.1076
 5404ntf    fn424360   3.169   5.491   1.558  0.3341 -0.0342 -0.0753
 5405ntf    cn124361   6.922   1.357   4.632 -0.2454  0.0046  0.4444
 5405ntf    sn224362   6.858   1.521   4.587 -0.2087 -0.0825  0.0688
 5405ntf    nn324363   6.705   1.501   4.615 -0.0928 -0.1354  0.6823
 5405ntf    sn224364   6.588   1.489   4.510  0.3293 -0.1486  0.2120
 5405ntf    cn124365   6.467   1.390   4.603 -0.4230  0.5125 -0.0529
 5405ntf    fn424366   6.895   1.332   4.759  0.3360  0.3714  0.6472
 5405ntf    fn424367   6.873   1.250   4.572 -0.6114  0.4014  0.0348
 5405ntf    fn424368   7.053   1.344   4.620 -0.3475 -0.2027 -0.5433
 5405ntf    on524369   6.922   1.596   4.693 -0.2179  0.0596 -0.0265
 5405ntf    on524370   6.891   1.550   4.450 -0.5662  0.0340  0.0054
 5405ntf    on524371   6.629   1.403   4.402  0.3239  0.5141 -0.3276
 5405ntf    on524372   6.520   1.613   4.483  0.6715 -0.1280 -0.5759
 5405ntf    fn424373   6.510   1.274   4.650  0.3091  0.6713 -0.3084
 5405ntf    fn424374   6.428   1.448   4.716  0.0075 -0.1288  0.4325
 5405ntf    fn424375   6.353   1.375   4.538 -0.2649 -0.0827 -0.1949
 5406ntf    cn124376   6.684   3.357   0.293 -0.5271  0.0956  0.1055
 5406ntf    sn224377   6.635   3.473   0.162  0.0746  0.0367 -0.1749
 5406ntf    nn324378   6.741   3.586   0.187  0.3529 -0.3152  0.2545
 5406ntf    sn224379   6.785   3.692   0.079 -0.4323 -0.1636  0.0801
 5406ntf    cn124380   6.938   3.620   0.013 -0.4306 -0.4849  0.4299
 5406ntf    fn424381   6.664   3.406   0.414  0.3514  0.1939  0.2221
 5406ntf    fn424382   6.619   3.242   0.304 -0.2472 -0.0698  0.0488
 5406ntf    fn424383   6.814   3.330   0.293 -0.4348  0.5282  0.3986
 5406ntf    on524384   6.662   3.395   0.043 -0.8016  0.4383 -0.6428
 5406ntf    on524385   6.500   3.507   0.198  0.0685 -0.2696  0.0970
 5406ntf    on524386   6.827   3.815   0.141 -0.3646 -0.3627  0.4373
 5406ntf    on524387   6.696   3.693  -0.034 -0.8575 -0.2728  0.4086
 5406ntf    fn424388   6.916   3.495  -0.025  0.1831 -0.4357 -0.1000
 5406ntf    fn424389   6.988   3.687  -0.089 -0.4359 -0.0093  0.7361
 5406ntf    fn424390   7.027   3.604   0.109  0.1176 -0.7312 -0.1103
 5407ntf    cn124391   0.682   3.463   3.277  0.2924  0.2922  0.1307
 5407ntf    sn224392   0.610   3.563   3.143 -0.1809  0.0638  0.2100
 5407ntf    nn324393   0.738   3.549   3.053  0.0071  0.4158  0.4200
 5407ntf    sn224394   0.753   3.607   2.908  0.1407 -0.2415  0.1655
 5407ntf    cn124395   0.715   3.460   2.808 -0.4376  0.1354 -0.1777
 5407ntf    fn424396   0.793   3.507   3.333  0.3150  0.1178  0.2201
 5407ntf    fn424397   0.590   3.457   3.371  0.4365  0.0023  0.2517
 5407ntf    fn424398   0.708   3.338   3.243 -0.4680  0.1210  0.1576
 5407ntf    on524399   0.499   3.482   3.101  0.6652 -0.8056 -0.3968
 5407ntf    on524400   0.591   3.694   3.201 -0.3079  0.1412 -0.0024
 5407ntf    on524401   0.885   3.640   2.861  0.0486 -0.1117 -0.0088
 5407ntf    on524402   0.645   3.693   2.866  0.6027  0.4712  0.4121
 5407ntf    fn424403   0.808   3.366   2.819 -0.3728  0.2554  0.3192
 5407ntf    fn424404   0.596   3.405   2.823 -0.1878 -0.3692 -0.0102
 5407ntf    fn424405   0.717   3.497   2.681  0.8265  0.6584 -0.0203
 5408ntf    cn124406   3.233   4.202   2.812  0.0093 -0.2169 -0.3637
 5408ntf    sn224407   3.059   4.213   2.763 -0.1920 -0.4103  0.2941
 5408ntf    nn324408   3.016   4.329   2.858 -0.1073  0.1293 -0.3167
 5408ntf    sn224409   3.063   4.479   2.848  0.0693  0.1099  0.1666
 5408ntf    cn124410   2.895   4.547   2.854 -0.0630 -0.2276  0.3300
 5408ntf    fn424411   3.292   4.093   2.765  0.5322  0.1457 -0.5624
 5408ntf    fn424412   3.307   4.303   2.770  0.0224  0.1104  0.4252
 5408ntf    fn424413   3.241   4.199   2.944 -0.1343  0.7198 -0.3291
 5408ntf    on524414   3.060   4.236   2.620 -0.6400 -0.1772  0.3279
 5408ntf    on524415   2.999   4.087   2.799 -0.3064 -0.3974  0.1515
 5408ntf    on524416   3.118   4.519   2.721 -0.3897 -0.2395 -0.1493
 5408ntf    on524417   3.135   4.529   2.962  0.2978 -0.1421  0.1354
 5408ntf    fn424418   2.858   4.629   2.757 -0.2842 -0.2578  0.3885
 5408ntf    fn424419   2.797   4.458   2.863 -0.1500 -0.1155  0.5146
 5408ntf    fn424420   2.875   4.619   2.963 -0.3095  0.1604  0.0342
 5409ntf    cn124421   3.809   0.051   3.798  0.0422  0.0657  0.2585
 5409ntf    sn224422   3.986   0.055   3.760  0.0496 -0.1372  0.2695
 5409ntf    nn324423   4.027  -0.090   3.715  0.7503  0.1910 -0.1853
 5409ntf    sn224424   4.060  -0.219   3.797  0.5632  0.1099 -0.2367
 5409ntf    cn124425   4.239  -0.198   3.824  0.5295 -0.1746  0.2273
 5409ntf    fn424426   3.781  -0.026   3.901 -0.0644 -0.3211 -0.0569
 5409ntf    fn424427   3.769   0.175   3.821 -0.2815  0.0077  0.0276
 5409ntf    fn424428   3.739   0.015   3.691 -0.1439  0.2515  0.3172
 5409ntf    on524429   4.003   0.137   3.642  0.4145  0.5365  0.7846
 5409ntf    on524430   4.042   0.102   3.884 -0.8533  0.1204  0.5821
 5409ntf    on524431   4.053  -0.337   3.714 -0.1077 -0.3464  0.4621
 5409ntf    on524432   4.008  -0.220   3.931  0.5665  1.1046 -0.2269
 5409ntf    fn424433   4.289  -0.275   3.919  0.3386 -0.8100 -0.1800
 5409ntf    fn424434   4.305  -0.232   3.714  0.2246 -0.0744  0.0106
 5409ntf    fn424435   4.266  -0.073   3.858  0.1795 -0.0878  0.1920
 5410ntf    cn124436   0.088   7.325   2.788 -0.4202  0.0050 -0.2481
 5410ntf    sn224437   0.114   7.501   2.826  0.4195 -0.0765 -0.4368
 5410ntf    nn324438   0.051   7.495   2.969  0.4698 -0.2008 -0.4196
 5410ntf    sn224439   0.092   7.562   3.106 -0.1987 -0.1776 -0.2274
 5410ntf    cn124440  -0.043   7.681   3.129 -0.5912 -0.5760 -0.4350
 5410ntf    fn424441   0.180   7.256   2.853 -0.0770  0.1333 -0.5970
 5410ntf    fn424442  -0.029   7.271   2.821 -0.2003 -0.5306 -0.3331
 5410ntf    fn424443   0.104   7.293   2.661 -0.6085 -0.9186 -0.0458
 5410ntf    on524444   0.257   7.514   2.809  0.3801  0.2830 -0.5044
 5410ntf    on524445   0.024   7.563   2.731  0.1948 -0.5200 -0.5151
 5410ntf    on524446   0.211   7.644   3.108 -0.1544 -0.2531  0.4797
 5410ntf    on524447   0.075   7.476   3.220  0.0937 -0.0646 -0.0979
 5410ntf    fn424448  -0.158   7.627   3.095 -0.4604 -0.5540 -0.9090
 5410ntf    fn424449  -0.047   7.714   3.258 -0.1555  0.3006 -0.6398
 5410ntf    fn424450  -0.011   7.782   3.050  0.2323 -0.3768  0.1299
 5411ntf    cn124451   6.911   2.597   7.460  0.4895 -0.2291  0.1055
 5411ntf    sn224452   6.904   2.774   7.417  0.0323 -0.2618  0.0390
 5411ntf    nn324453   6.751   2.782   7.383  0.0332  0.3736  0.1821
 5411ntf    sn224454   6.666   2.777   7.251 -0.0959  0.3694  0.2652
 5411ntf    cn124455   6.512   2.705   7.317 -0.3121  0.1121 -0.5128
 5411ntf    fn424456   7.032   2.559   7.498  0.4594 -0.2435  0.1864
 5411ntf    fn424457   6.821   2.577   7.556  0.0744 -0.8291 -0.3995
 5411ntf    fn424458   6.878   2.518   7.360  0.1273  0.3772 -0.2612
 5411ntf    on524459   6.935   2.841   7.541 -0.9770 -0.1746  0.2565
 5411ntf    on524460   6.998   2.792   7.309  0.1347  0.2085  0.2032
 5411ntf    on524461   6.711   2.685   7.150 -0.3678 -0.0485  0.5218
 5411ntf    on524462   6.631   2.909   7.202 -0.4440  0.1754 -0.0123
 5411ntf    fn424463   6.538   2.610   7.405  0.6727  0.5151 -0.3580
 5411ntf    fn424464   6.440   2.794   7.384 -0.3047  0.1167 -0.5110
 5411ntf    fn424465   6.432   2.651   7.226 -0.4950 -0.2486 -0.1380
 5412ntf    cn124466   4.044   1.828   6.657  0.2298 -0.2871 -0.1752
 5412ntf    sn224467   4.159   1.959   6.708  0.1397 -0.1259 -0.3843
 5412ntf    nn324468   4.290   1.877   6.735  0.4787  0.2795 -0.7668
 5412ntf    sn224469   4.393   1.879   6.854 -0.0415  0.0944 -0.3076
 5412ntf    cn124470   4.544   1.848   6.758  0.2567 -0.0518  0.2044
 5412ntf    fn424471   4.011   1.764   6.768 -0.5816  0.2178 -0.1110
 5412ntf    fn424472   3.928   1.873   6.613  0.0584 -0.3965  0.1595
 5412ntf    fn424473   4.096   1.742   6.572 -0.6113 -0.2887 -0.6964
 5412ntf    on524474   4.149   2.048   6.595 -0.0512 -0.0914 -0.3401
 5412ntf    on524475   4.083   2.005   6.821  0.5562 -0.3436 -0.0107
 5412ntf    on524476   4.373   1.762   6.936  0.2417  0.2942  0.0470
 5412ntf    on524477   4.419   2.006   6.917 -0.4797  0.2973 -0.5273
 5412ntf    fn424478   4.523   1.741   6.682  0.3244 -0.0680  0.2086
 5412ntf    fn424479   4.570   1.949   6.676  0.3925 -0.2063  0.0561
 5412ntf    fn424480   4.640   1.831   6.848  0.1847 -0.2539  0.2426
 5413ntf    cn124481   6.238   2.571   2.730  0.0627  0.0417 -0.5009
 5413ntf    sn224482   6.076   2.572   2.813  0.2464  0.2084 -0.1420
 5413ntf    nn324483   6.081   2.712   2.885  0.0305 -0.0751  0.4353
 5413ntf    sn224484   6.001   2.846   2.865 -0.1253 -0.2412 -0.0590
 5413ntf    cn124485   6.118   2.967   2.933 -0.3849 -0.0210 -0.0092
 5413ntf    fn424486   6.267   2.681   2.663  0.2627  0.4144  0.1850
 5413ntf    fn424487   6.336   2.562   2.819  0.1310  0.3524 -0.5447
 5413ntf    fn424488   6.256   2.471   2.645  0.3542  0.1106 -0.5199
 5413ntf    on524489   5.991   2.560   2.697 -0.0771  0.8125  0.0270
 5413ntf    on524490   6.080   2.465   2.910  0.2452 -0.1138 -0.4972
 5413ntf    on524491   5.888   2.851   2.953  0.5225 -0.6877  0.8161
 5413ntf    on524492   5.991   2.894   2.729  0.0796 -0.2847 -0.0911
 5413ntf    fn424493   6.226   2.990   2.861 -0.3245 -0.0147  0.0838
 5413ntf    fn424494   6.063   3.087   2.947 -0.0714  0.1329 -0.0966
 5413ntf    fn424495   6.164   2.929   3.051 -0.1983 -0.2180 -0.1469
 5414ntf    cn124496   7.080   0.105   1.021  0.2170  0.0464 -0.2621
 5414ntf    sn224497   7.104   0.151   1.195  0.0865  0.0886 -0.2554
 5414ntf    nn324498   7.046   0.023   1.265  1.1219 -0.3611 -0.2086
 5414ntf    sn224499   7.055  -0.023   1.415  0.0974 -0.2185 -0.0989
 5414ntf    cn124500   7.204  -0.127   1.415  0.3122  0.0915  0.1826
 5414ntf    fn424501   6.952   0.115   0.986  0.1467  0.1261  0.0171
 5414ntf    fn424502   7.155   0.174   0.936 -0.2315  0.0759 -0.6367
 5414ntf    fn424503   7.114  -0.021   1.001 -0.0560 -0.0711  0.0070
 5414ntf    on524504   7.247   0.167   1.208  0.0476  0.6132 -0.4264
 5414ntf    on524505   7.009   0.259   1.204  0.7180  0.6449 -0.2224
 5414ntf    on524506   6.952  -0.118   1.451  0.2377 -0.2486  0.2199
 5414ntf    on524507   7.084   0.079   1.512  0.4350 -0.4059 -0.0015
 5414ntf    fn424508   7.309  -0.047   1.403  0.1466  0.2809 -0.0118
 5414ntf    fn424509   7.215  -0.183   1.535 -0.1654  0.3848  0.3652
 5414ntf    fn424510   7.212  -0.219   1.321  0.1573  0.2050  0.0577
 5415ntf    cn124511   1.206   6.886   2.437 -0.5043 -0.3006  0.2538
 5415ntf    sn224512   1.091   6.748   2.410 -0.3798 -0.3571  0.0103
 5415ntf    nn324513   0.973   6.828   2.342  0.4607  0.7489 -0.1718
 5415ntf    sn224514   0.886   6.784   2.219  0.0720  0.3958  0.2260
 5415ntf    cn124515   1.007   6.770   2.083 -0.2080  0.3987 -0.0236
 5415ntf    fn424516   1.275   6.913   2.327 -0.4356 -0.0298  0.3624
 5415ntf    fn424517   1.149   6.999   2.473  0.2977  0.1661  0.0864
 5415ntf    fn424518   1.299   6.855   2.526  0.0452 -0.4764 -0.3688
 5415ntf    on524519   1.170   6.670   2.319 -0.2640 -0.4781  0.2146
 5415ntf    on524520   1.061   6.686   2.536 -0.4189 -0.5376 -0.0875
 5415ntf    on524521   0.803   6.893   2.176  0.1787  0.4141  0.0669
 5415ntf    on524522   0.825   6.654   2.233  0.4343  0.2727  0.6893
 5415ntf    fn424523   1.094   6.869   2.098 -0.0040  0.2290 -0.0932
 5415ntf    fn424524   1.071   6.656   2.069 -0.2444  0.3187  0.4412
 5415ntf    fn424525   0.943   6.797   1.970 -0.2732  0.1890 -0.0363
 5416ntf    cn124526   1.902   3.903   6.322 -0.1985 -0.5039  0.3997
 5416ntf    sn224527   1.813   3.850   6.472 -0.0214  0.0515  0.7033
 5416ntf    nn324528   1.930   3.803   6.565  0.4590  0.2421  0.1983
 5416ntf    sn224529   1.939   3.716   6.695  0.2844 -0.3443 -0.1766
 5416ntf    cn124530   2.086   3.619   6.652  0.6574 -0.0280  0.3822
 5416ntf    fn424531   1.828   3.903   6.213  0.2151 -0.0757  0.1179
 5416ntf    fn424532   1.940   4.028   6.341 -0.5437 -0.3407  0.0166
 5416ntf    fn424533   2.010   3.833   6.292 -0.3783 -0.4565 -0.3808
 5416ntf    on524534   1.741   3.966   6.519 -0.1374  0.4397 -0.4057
 5416ntf    on524535   1.737   3.743   6.411  0.1903  0.0193  0.4938
 5416ntf    on524536   1.835   3.616   6.707 -0.5765  0.5352 -0.1799
 5416ntf    on524537   1.980   3.787   6.813  0.3190 -0.1008 -0.3350
 5416ntf    fn424538   2.199   3.689   6.654  0.7805 -0.2216  0.1973
 5416ntf    fn424539   2.108   3.515   6.732 -0.2225 -0.4658  0.0686
 5416ntf    fn424540   2.071   3.573   6.529 -0.5568  0.1655  0.4547
 5417ntf    cn124541   2.778   1.386   2.134 -0.6298  0.0477  0.0199
 5417ntf    sn224542   2.894   1.338   2.265 -0.5579 -0.0284 -0.0712
 5417ntf    nn324543   2.872   1.452   2.371 -0.3169 -0.4856  0.4772
 5417ntf    sn224544   2.978   1.530   2.457 -0.2738 -0.2640  0.2242
 5417ntf    cn124545   2.947   1.452   2.618 -0.4260 -0.2656  0.1946
 5417ntf    fn424546   2.656   1.395   2.183 -0.3850 -0.1327  0.6654
 5417ntf    fn424547   2.796   1.511   2.094  0.2106  0.0967  0.5254
 5417ntf    fn424548   2.785   1.298   2.035 -0.2181 -0.2626  0.3235
 5417ntf    on524549   2.853   1.209   2.315 -0.5054 -0.1097 -0.2359
 5417ntf    on524550   3.019   1.344   2.194 -0.4721 -0.0732  0.0764
 5417ntf    on524551   2.934   1.668   2.464  0.0071 -0.1440 -0.3041
 5417ntf    on524552   3.118   1.501   2.437 -0.2064  0.0916  0.1753
 5417ntf    fn424553   2.822   1.470   2.658 -0.4345 -0.4551  0.2512
 5417ntf    fn424554   2.966   1.323   2.599  0.3243 -0.1101 -0.1359
 5417ntf    fn424555   3.032   1.503   2.707 -0.6724  1.0825 -0.3138
 5418ntf    cn124556   6.552   5.953   1.927 -0.3898 -0.0274 -0.2621
 5418ntf    sn224557   6.656   5.925   1.781  0.1600 -0.0829  0.1370
 5418ntf    nn324558   6.596   6.029   1.679 -0.1047 -0.0712  0.3056
 5418ntf    sn224559   6.471   6.012   1.585  0.1641  0.2816 -0.1180
 5418ntf    cn124560   6.557   6.001   1.425  0.2085  0.0961 -0.0820
 5418ntf    fn424561   6.548   5.863   2.024 -0.0613 -0.0434 -0.2646
 5418ntf    fn424562   6.596   6.056   1.997  0.3250  0.1787 -1.0039
 5418ntf    fn424563   6.428   5.982   1.890 -0.3922  0.3086  0.0105
 5418ntf    on524564   6.779   5.979   1.833  0.4046  0.0675 -0.5790
 5418ntf    on524565   6.641   5.783   1.759 -0.1102 -0.0546  0.1301
 5418ntf    on524566   6.403   6.138   1.577  0.4373  0.4402  0.0426
 5418ntf    on524567   6.388   5.894   1.591 -0.1648  0.5219  0.0848
 5418ntf    fn424568   6.666   6.076   1.436  0.2261  0.0113  0.3623
 5418ntf    fn424569   6.600   5.878   1.401  0.3287  0.1684 -0.2434
 5418ntf    fn424570   6.496   6.037   1.314 -0.3880 -0.4901  0.0492
 5419ntf    cn124571   4.414   4.498   6.586 -0.3338  0.6819 -0.4032
 5419ntf    sn224572   4.293   4.465   6.717  0.5230 -0.0695  0.2097
 5419ntf    nn324573   4.227   4.607   6.726  0.0340 -0.3088  0.4359
 5419ntf    sn224574   4.113   4.659   6.631  0.2333 -0.1448  0.2853
 5419ntf    cn124575   3.969   4.604   6.728 -0.0425 -0.1266 -0.1136
 5419ntf    fn424576   4.481   4.388   6.553 -0.2100  0.5422  0.3028
 5419ntf    fn424577   4.362   4.543   6.473  0.2489  0.3744 -0.8017
 5419ntf    fn424578   4.501   4.587   6.630  0.5416 -0.0536 -0.5935
 5419ntf    on524579   4.218   4.351   6.668  0.4472  0.1527 -0.1903
 5419ntf    on524580   4.368   4.448   6.840  0.0651  0.4037  0.5583
 5419ntf    on524581   4.093   4.590   6.506  0.4592  0.3470 -0.0265
 5419ntf    on524582   4.103   4.803   6.630  0.1764 -0.1439  0.7919
 5419ntf    fn424583   3.976   4.640   6.855  0.0618  0.1511 -0.1963
 5419ntf    fn424584   3.849   4.644   6.688 -0.1203 -0.1556  0.0920
 5419ntf    fn424585   3.953   4.473   6.729 -0.3384 -0.0895  0.2283
 5420ntf    cn124586   7.291   5.466   6.798  0.0543 -0.0925 -0.1154
 5420ntf    sn224587   7.110   5.458   6.813  0.0489 -0.0209 -0.1348
 5420ntf    nn324588   7.062   5.600   6.767  0.2921  0.1439  0.1243
 5420ntf    sn224589   7.097   5.692   6.645 -0.0446  0.1483  0.0316
 5420ntf    cn124590   6.978   5.828   6.670 -0.5136 -0.2127 -0.2150
 5420ntf    fn424591   7.322   5.467   6.670  0.3462  0.3985 -0.0452
 5420ntf    fn424592   7.329   5.582   6.851 -0.2993 -0.0115 -0.0355
 5420ntf    fn424593   7.367   5.372   6.852  0.3810  0.1010 -0.2354
 5420ntf    on524594   7.074   5.350   6.724  0.2039 -0.1632 -0.0274
 5420ntf    on524595   7.092   5.430   6.953  0.4061  0.2915 -0.0260
 5420ntf    on524596   7.063   5.633   6.518  0.7837 -0.3233  0.0217
 5420ntf    on524597   7.226   5.757   6.650  0.2783 -0.4244 -0.6343
 5420ntf    fn424598   6.975   5.902   6.560  0.4657 -0.0406 -0.1386
 5420ntf    fn424599   6.853   5.790   6.692 -0.6009 -0.0038 -0.3544
 5420ntf    fn424600   7.008   5.907   6.771 -0.2644 -0.6151  0.0294
 5421ntf    cn124601   1.835   5.843   2.252 -0.2593 -0.0783 -0.2533
 5421ntf    sn224602   1.867   6.000   2.338 -0.2678 -0.1509 -0.1170
 5421ntf    nn324603   1.882   6.095   2.213  0.3286 -0.0549  0.0240
 5421ntf    sn224604   1.991   6.207   2.197  0.1261  0.1143 -0.1764
 5421ntf    cn124605   1.904   6.350   2.268  0.2783 -0.0240  0.2909
 5421ntf    fn424606   1.935   5.803   2.177 -0.1534 -0.1759 -0.0621
 5421ntf    fn424607   1.811   5.747   2.340  0.1308 -0.3939 -0.4916
 5421ntf    fn424608   1.721   5.846   2.185 -0.2681 -0.3285 -0.2500
 5421ntf    on524609   1.744   6.024   2.408 -0.3421  0.8000 -0.5475
 5421ntf    on524610   1.991   5.967   2.404  0.2755  0.2820 -0.8943
 5421ntf    on524611   2.002   6.243   2.057 -0.1428  0.4107 -0.1228
 5421ntf    on524612   2.110   6.190   2.276 -0.0378  0.2666  0.1026
 5421ntf    fn424613   1.888   6.353   2.399  0.0955 -0.3247  0.2766
 5421ntf    fn424614   1.969   6.459   2.230 -0.3160  0.3003  0.1890
 5421ntf    fn424615   1.788   6.366   2.206  0.2760  0.0834  0.3223
 5422ntf    cn124616   5.770   6.645   0.454  0.1129  0.1657  0.1153
 5422ntf    sn224617   5.605   6.649   0.530  0.0042  0.0902 -0.1163
 5422ntf    nn324618   5.604   6.515   0.611 -0.1085  0.2032  0.0692
 5422ntf    sn224619   5.522   6.383   0.590  0.1465  0.0581 -0.0129
 5422ntf    cn124620   5.500   6.330   0.762  0.2018  0.4305  0.1082
 5422ntf    fn424621   5.854   6.697   0.542  0.0599  0.7570 -0.1800
 5422ntf    fn424622   5.819   6.526   0.422 -0.2655  0.2325 -0.7552
 5422ntf    fn424623   5.761   6.721   0.346  0.4720 -0.0048 -0.0360
 5422ntf    on524624   5.609   6.761   0.621  0.0124  0.0194 -0.0293
 5422ntf    on524625   5.515   6.657   0.417 -0.4587  0.4334  0.2712
 5422ntf    on524626   5.608   6.278   0.540 -0.0217  0.0622 -0.3157
 5422ntf    on524627   5.390   6.399   0.533 -0.0878 -0.5621  0.3484
 5422ntf    fn424628   5.425   6.414   0.833 -0.2473 -0.1669  0.3464
 5422ntf    fn424629   5.456   6.209   0.792  0.7347  0.0845 -0.4974
 5422ntf    fn424630   5.621   6.334   0.815 -0.1490 -0.2629  0.9796
 5423ntf    cn124631   3.372   6.276   7.338  0.0719 -0.2484 -0.4594
 5423ntf    sn224632   3.471   6.127   7.371  0.1002 -0.1530 -0.1022
 5423ntf    nn324633   3.615   6.184   7.348  0.0330  0.2477  0.4734
 5423ntf    sn224634   3.736   6.108   7.283 -0.0960  0.4136  0.0395
 5423ntf    cn124635   3.862   6.132   7.411 -0.0589 -0.5599  0.1934
 5423ntf    fn424636   3.405   6.367   7.429 -0.1553 -0.3865 -0.2348
 5423ntf    fn424637   3.381   6.340   7.223 -0.3861  0.2837 -0.2051
 5423ntf    fn424638   3.240   6.274   7.350  0.1144  0.2661  0.2102
 5423ntf    on524639   3.449   6.098   7.510  0.4743  0.0355 -0.0009
 5423ntf    on524640   3.434   6.034   7.267 -0.4371  0.1510 -0.1856
 5423ntf    on524641   3.786   6.179   7.168 -0.3349 -0.4015 -0.5809
 5423ntf    on524642   3.735   5.964   7.278 -0.6374  0.4091  0.2122
 5423ntf    fn424643   3.916   6.253   7.402 -0.8082 -0.2016  0.4499
 5423ntf    fn424644   3.808   6.123   7.532  0.2830  0.0070  0.3936
 5423ntf    fn424645   3.968   6.053   7.405  0.2063 -0.2017  0.1491
 5424ntf    cn124646   3.064   1.406   0.340  0.0509 -0.3044 -0.1484
 5424ntf    sn224647   3.156   1.348   0.195 -0.0241 -0.1295 -0.2661
 5424ntf    nn324648   3.274   1.452   0.192  0.1753 -0.3467  0.0470
 5424ntf    sn224649   3.331   1.519   0.062 -0.0896 -0.0337  0.0920
 5424ntf    cn124650   3.222   1.659   0.023 -0.1522 -0.2264 -0.4345
 5424ntf    fn424651   3.140   1.404   0.448  0.3504 -0.0194 -0.3532
 5424ntf    fn424652   3.028   1.533   0.330  0.4369 -0.1671  0.1908
 5424ntf    fn424653   2.956   1.333   0.364 -0.4681  0.3338 -0.4848
 5424ntf    on524654   3.212   1.220   0.228 -0.3373 -0.3427 -0.5538
 5424ntf    on524655   3.059   1.357   0.088 -0.4175 -0.4225  0.0680
 5424ntf    on524656   3.332   1.424  -0.047  0.3172 -0.0557  0.1146
 5424ntf    on524657   3.453   1.583   0.102  0.4642 -1.1626  0.2495
 5424ntf    fn424658   3.190   1.737   0.124 -0.1480 -0.2196 -0.4385
 5424ntf    fn424659   3.270   1.749  -0.062 -0.1549  0.3629  0.1782
 5424ntf    fn424660   3.112   1.617  -0.037 -0.1827 -0.5046 -0.1833
 5425ntf    cn124661   1.387   0.729   2.571  0.5071 -0.1070 -0.1533
 5425ntf    sn224662   1.564   0.732   2.611  0.4892 -0.2167 -0.0636
 5425ntf    nn324663   1.559   0.782   2.759  0.1832 -0.0444 -0.1305
 5425ntf    sn224664   1.659   0.879   2.832 -0.0928 -0.1082  0.3351
 5425ntf    cn124665   1.695   0.789   2.986  0.1117  0.1548  0.4413
 5425ntf    fn424666   1.367   0.686   2.447  0.2624 -0.5074  0.0215
 5425ntf    fn424667   1.323   0.648   2.654 -0.5244  0.8691  0.0321
 5425ntf    fn424668   1.329   0.848   2.579  0.0754 -0.3163 -0.1166
 5425ntf    on524669   1.608   0.596   2.591  1.0231 -0.0245 -0.2403
 5425ntf    on524670   1.615   0.832   2.519  0.6111  0.2106  0.4662
 5425ntf    on524671   1.581   0.995   2.867 -0.0510  0.1016 -0.2604
 5425ntf    on524672   1.790   0.895   2.774 -0.2602 -0.3132 -0.1044
 5425ntf    fn424673   1.796   0.845   3.051  0.3966  0.1309  0.0216
 5425ntf    fn424674   1.593   0.785   3.070 -0.3015 -0.4031 -0.0797
 5425ntf    fn424675   1.732   0.664   2.960 -0.0485  0.2788 -0.4010
 5426ntf    cn124676   0.849   4.755   2.031  0.1872 -0.1734  0.6363
 5426ntf    sn224677   0.838   4.652   1.882  0.3796  0.1879  0.3695
 5426ntf    nn324678   0.980   4.588   1.867  0.2621 -0.0013  0.0569
 5426ntf    sn224679   1.101   4.621   1.772  0.0557  0.0122 -0.2026
 5426ntf    cn124680   1.061   4.501   1.640  0.2208 -0.2380 -0.0255
 5426ntf    fn424681   0.927   4.860   2.009 -0.3030  0.0575 -0.0566
 5426ntf    fn424682   0.731   4.801   2.072 -0.0518  0.1863 -0.4294
 5426ntf    fn424683   0.898   4.692   2.136  0.1436 -1.1013  0.1082
 5426ntf    on524684   0.738   4.556   1.925  0.2821  0.3408  0.4835
 5426ntf    on524685   0.796   4.751   1.786  0.1433 -0.8832 -0.6605
 5426ntf    on524686   1.222   4.571   1.833 -0.2163 -0.5783 -0.1443
 5426ntf    on524687   1.104   4.750   1.708  0.3588  0.0963 -0.0187
 5426ntf    fn424688   0.964   4.543   1.561  0.6586  0.4917 -0.1922
 5426ntf    fn424689   1.167   4.478   1.564  0.3530 -0.5802  0.2611
 5426ntf    fn424690   1.023   4.385   1.690  0.4944 -0.1075  0.4984
 5427ntf    cn124691   4.683   1.099   6.467  0.1103  0.4968 -0.0628
 5427ntf    sn224692   4.615   1.163   6.624 -0.1297  0.1710 -0.0327
 5427ntf    nn324693   4.636   1.036   6.713  0.4757  0.7026  0.5937
 5427ntf    sn224694   4.563   0.999   6.847 -0.0088  0.1140  0.1761
 5427ntf    cn124695   4.429   0.894   6.784  0.1666  0.0531 -0.0982
 5427ntf    fn424696   4.680   1.192   6.373 -0.3774  0.1830 -0.3578
 5427ntf    fn424697   4.808   1.057   6.474  0.0799  0.4111 -0.0349
 5427ntf    fn424698   4.607   1.002   6.419 -0.4486  0.5195  0.7484
 5427ntf    on524699   4.698   1.277   6.653 -0.1111  0.1519 -0.0117
 5427ntf    on524700   4.478   1.197   6.597 -0.1260 -0.2063 -0.5459
 5427ntf    on524701   4.490   1.104   6.913 -0.0876 -0.1017  0.4358
 5427ntf    on524702   4.647   0.911   6.924 -0.0038 -0.6261 -0.6604
 5427ntf    fn424703   4.333   0.955   6.717  0.0937  0.1678  0.1123
 5427ntf    fn424704   4.480   0.811   6.694  0.1916 -0.3823  0.3134
 5427ntf    fn424705   4.370   0.819   6.875 -0.0437 -0.0852 -0.3475
 5428ntf    cn124706   3.376   2.598   2.393 -0.6534 -0.2226  0.1087
 5428ntf    sn224707   3.457   2.517   2.535  0.0637 -0.0049 -0.1715
 5428ntf    nn324708   3.467   2.373   2.473 -0.1470  0.0257 -0.2776
 5428ntf    sn224709   3.597   2.300   2.425 -0.3714 -0.4279 -0.1954
 5428ntf    cn124710   3.542   2.146   2.345 -0.3665 -0.2006 -0.6371
 5428ntf    fn424711   3.255   2.552   2.368 -0.7069 -0.1439  0.2212
 5428ntf    fn424712   3.353   2.727   2.410 -0.0796 -0.0560 -0.3701
 5428ntf    fn424713   3.455   2.597   2.287 -0.1677 -0.2506  0.4698
 5428ntf    on524714   3.579   2.592   2.552 -0.1308  0.2733  0.0100
 5428ntf    on524715   3.360   2.512   2.642  0.2089  0.1959 -0.0296
 5428ntf    on524716   3.679   2.258   2.536  0.1611 -0.2248 -0.5101
 5428ntf    on524717   3.666   2.373   2.322  0.3855 -0.5867  0.1861
 5428ntf    fn424718   3.442   2.162   2.260 -0.3477 -0.3069 -0.6804
 5428ntf    fn424719   3.640   2.095   2.272  0.2994 -0.3713  0.3470
 5428ntf    fn424720   3.493   2.050   2.422  0.0123  0.3310  0.2922
 5429ntf    cn124721   4.800   0.799   0.091 -0.3991  0.2216  0.3393
 5429ntf    sn224722   4.870   0.641   0.034  0.1826  0.6086 -0.0326
 5429ntf    nn324723   4.858   0.543   0.156  0.0179  0.2823 -0.3074
 5429ntf    sn224724   4.941   0.413   0.183  0.1408  0.4955  0.3762
 5429ntf    cn124725   5.076   0.485   0.282  0.5086  0.0876  0.1762
 5429ntf    fn424726   4.794   0.886  -0.008 -0.0440 -0.3559 -0.1941
 5429ntf    fn424727   4.680   0.784   0.144 -0.3064 -0.4082  0.3789
 5429ntf    fn424728   4.878   0.845   0.188 -0.3748  0.0602  0.3980
 5429ntf    on524729   4.779   0.608  -0.073  0.0449  0.3223  0.1703
 5429ntf    on524730   5.003   0.664  -0.015  0.2236  0.3915 -0.0236
 5429ntf    on524731   5.001   0.347   0.069  0.0978  0.5352  0.3305
 5429ntf    on524732   4.874   0.321   0.271 -0.2583  0.7991  0.3899
 5429ntf    fn424733   5.147   0.398   0.353  0.5112  0.1872  0.2953
 5429ntf    fn424734   5.158   0.565   0.216  0.3930 -0.2092 -0.3337
 5429ntf    fn424735   5.029   0.570   0.371 -0.2777  0.4018 -0.5210
 5430ntf    cn124736   3.158   6.855   0.461  0.4306 -0.0237 -0.1708
 5430ntf    sn224737   3.036   6.723   0.434  0.2490  0.0550  0.2511
 5430ntf    nn324738   2.902   6.802   0.416 -0.0311 -0.3546  0.5112
 5430ntf    sn224739   2.754   6.749   0.422 -0.1876  0.0526  0.2647
 5430ntf    cn124740   2.687   6.877   0.533  0.1482  0.4854 -0.0298
 5430ntf    fn424741   3.277   6.803   0.487  0.2575 -0.3331  0.0196
 5430ntf    fn424742   3.165   6.935   0.357  0.0014  0.8841  0.4868
 5430ntf    fn424743   3.127   6.935   0.561  0.3422 -0.0523 -0.1748
 5430ntf    on524744   3.095   6.659   0.319 -0.3354 -0.3864  0.1916
 5430ntf    on524745   3.037   6.637   0.550 -0.3538  0.3953  0.5114
 5430ntf    on524746   2.727   6.638   0.510 -0.2953  0.0006  0.1659
 5430ntf    on524747   2.676   6.773   0.303 -0.0391  0.6667  0.2852
 5430ntf    fn424748   2.565   6.844   0.570  0.2624  0.3303  0.2074
 5430ntf    fn424749   2.763   6.890   0.640  0.2119 -0.1841  0.0123
 5430ntf    fn424750   2.682   6.995   0.473 -0.4676  0.4585 -0.0371
 5431ntf    cn124751   7.542   1.957   2.860 -0.1729 -0.4515  0.1894
 5431ntf    sn224752   7.433   2.036   2.982  0.1226  0.2758 -0.0126
 5431ntf    nn324753   7.550   2.087   3.073  0.1624  0.4370 -0.1552
 5431ntf    sn224754   7.563   2.213   3.166  0.4651  0.2619  0.0408
 5431ntf    cn124755   7.527   2.148   3.332 -0.3165  0.3245 -0.0987
 5431ntf    fn424756   7.620   2.043   2.797 -0.2188 -0.2848  0.3591
 5431ntf    fn424757   7.616   1.859   2.910 -0.1212 -0.5286 -0.0368
 5431ntf    fn424758   7.467   1.900   2.767  0.1352 -0.0163 -0.3266
 5431ntf    on524759   7.350   2.132   2.913 -0.3193 -0.0092  0.1192
 5431ntf    on524760   7.367   1.922   3.040 -0.5772  0.5667 -0.2251
 5431ntf    on524761   7.463   2.316   3.152 -0.5880 -0.7145  0.2028
 5431ntf    on524762   7.701   2.250   3.184  0.4014  0.1013  0.9348
 5431ntf    fn424763   7.544   2.239   3.427  0.0013  0.0815  0.0839
 5431ntf    fn424764   7.405   2.099   3.346 -0.1238 -0.3854 -0.8007
 5431ntf    fn424765   7.619   2.055   3.355 -0.0050  0.5638 -0.3639
 5432ntf    cn124766   1.757   4.169   7.118 -0.0737 -0.1593  0.0162
 5432ntf    sn224767   1.851   4.269   7.237 -0.0723 -0.2412  0.0832
 5432ntf    nn324768   1.918   4.361   7.130  0.3400 -0.2764  0.3081
 5432ntf    sn224769   2.023   4.475   7.155 -0.0438  0.0730  0.3326
 5432ntf    cn124770   1.967   4.605   7.040 -0.2326 -0.0104  0.3282
 5432ntf    fn424771   1.671   4.234   7.041  0.4608 -0.3433 -0.7473
 5432ntf    fn424772   1.831   4.095   7.036  0.2651  0.4401 -0.2249
 5432ntf    fn424773   1.682   4.088   7.191  0.0053 -0.4736 -0.2458
 5432ntf    on524774   1.747   4.330   7.317  0.7225  0.2967  0.7263
 5432ntf    on524775   1.941   4.174   7.297  0.0288  0.0383  0.3747
 5432ntf    on524776   2.152   4.441   7.100  0.0111  0.3852  0.2675
 5432ntf    on524777   2.028   4.529   7.288  0.1184  0.0827  0.3221
 5432ntf    fn424778   2.063   4.693   7.013 -0.1186 -0.1675  0.2231
 5432ntf    fn424779   1.930   4.559   6.922  0.3185 -0.1374  0.2024
 5432ntf    fn424780   1.858   4.665   7.084  0.1616  0.2848  0.9288
 5433ntf    cn124781   5.982   1.710   6.134 -0.1708 -0.0359 -0.3103
 5433ntf    sn224782   5.959   1.854   6.024 -0.3937  0.2314  0.0837
 5433ntf    nn324783   5.935   1.778   5.889 -0.3705  0.1271  0.1376
 5433ntf    sn224784   6.034   1.709   5.789 -0.0207  0.3632  0.3188
 5433ntf    cn124785   5.936   1.699   5.636  0.4303  0.1433  0.0413
 5433ntf    fn424786   6.087   1.633   6.115 -0.1701 -0.2484  0.5513
 5433ntf    fn424787   5.998   1.748   6.259 -0.5460 -0.5361 -0.1077
 5433ntf    fn424788   5.873   1.635   6.132 -0.2094  0.0243 -0.6423
 5433ntf    on524789   5.838   1.905   6.083 -0.6309 -0.5137  0.2492
 5433ntf    on524790   6.078   1.935   6.035  0.0666 -0.3797 -0.2841
 5433ntf    on524791   6.071   1.573   5.820 -0.3830  0.2387  0.2119
 5433ntf    on524792   6.140   1.799   5.751 -0.0346 -0.0378 -0.7086
 5433ntf    fn424793   6.007   1.663   5.530 -0.6436 -0.5444 -0.4724
 5433ntf    fn424794   5.838   1.611   5.644  0.6209 -0.1030 -0.3130
 5433ntf    fn424795   5.875   1.811   5.601  0.0095  0.1101  0.6643
 5434ntf    cn124796   6.210   1.190   2.918  0.0969  0.2325  0.4625
 5434ntf    sn224797   6.383   1.163   2.969  0.1459 -0.1083  0.1197
 5434ntf    nn324798   6.412   1.039   2.878 -0.0600  0.0991 -0.2312
 5434ntf    sn224799   6.497   0.908   2.900 -0.0774  0.1434  0.1063
 5434ntf    cn124800   6.379   0.780   2.951 -0.1379  0.1370 -0.0472
 5434ntf    fn424801   6.157   1.076   2.876 -0.2446  0.4115  0.4052
 5434ntf    fn424802   6.134   1.252   3.007 -0.3199  0.3841  0.0014
 5434ntf    fn424803   6.209   1.271   2.814  0.3299  0.0872  0.3473
 5434ntf    on524804   6.456   1.275   2.915 -0.1612  0.0868  0.1032
 5434ntf    on524805   6.370   1.148   3.112 -0.6387 -0.0467  0.0632
 5434ntf    on524806   6.592   0.913   3.008 -0.4281 -0.1288  0.4293
 5434ntf    on524807   6.550   0.855   2.777 -0.3103  0.7362 -0.2542
 5434ntf    fn424808   6.281   0.762   2.864  0.1164  0.5430 -0.4159
 5434ntf    fn424809   6.436   0.662   2.970 -0.8268 -0.2075 -0.0950
 5434ntf    fn424810   6.331   0.815   3.070  0.3789 -0.0759  0.2306
 5435ntf    cn124811   2.948   2.044   7.202 -0.1440 -0.2038 -0.1327
 5435ntf    sn224812   3.092   2.133   7.137 -0.2671  0.1414  0.0676
 5435ntf    nn324813   3.179   2.128   7.267  0.0958  0.1782 -0.1736
 5435ntf    sn224814   3.208   2.242   7.371 -0.1722  0.1446 -0.0611
 5435ntf    cn124815   3.073   2.208   7.487  0.0167  0.1862  0.1723
 5435ntf    fn424816   2.911   1.955   7.112 -0.1752  0.2794 -0.5994
 5435ntf    fn424817   2.974   1.978   7.314 -0.3854  0.2355  0.1868
 5435ntf    fn424818   2.841   2.120   7.218  0.0651  0.0859 -0.1227
 5435ntf    on524819   3.150   2.057   7.029 -0.4171  0.4996 -0.2691
 5435ntf    on524820   3.036   2.264   7.110 -0.3417  0.1094  0.0645
 5435ntf    on524821   3.177   2.379   7.340  0.1077  0.1664 -0.2523
 5435ntf    on524822   3.327   2.216   7.448  0.0294 -0.1988 -0.4809
 5435ntf    fn424823   2.955   2.224   7.429  0.2214 -0.2097 -0.3698
 5435ntf    fn424824   3.074   2.083   7.531 -0.4176  0.1001 -0.0514
 5435ntf    fn424825   3.079   2.295   7.586  0.4668  0.1506  0.1767
 5436ntf    cn124826   1.723   5.700   5.160 -0.2500  0.4383  0.1857
 5436ntf    sn224827   1.695   5.551   5.059  0.1138  0.1881  0.4521
 5436ntf    nn324828   1.543   5.567   5.023  0.2096 -0.2724 -0.1641
 5436ntf    sn224829   1.470   5.626   4.897  0.0651 -0.1056 -0.0009
 5436ntf    cn124830   1.430   5.470   4.812  0.2947  0.0157 -0.3313
 5436ntf    fn424831   1.816   5.677   5.252 -0.0050 -0.2703 -0.2281
 5436ntf    fn424832   1.766   5.803   5.089  0.3507 -0.4824 -0.8079
 5436ntf    fn424833   1.620   5.744   5.230 -0.3695  0.0178  0.2801
 5436ntf    on524834   1.783   5.571   4.947 -0.2351  0.3035  0.1986
 5436ntf    on524835   1.721   5.446   5.155 -1.1187 -0.2286  0.3545
 5436ntf    on524836   1.554   5.694   4.803  0.2226 -0.7495 -0.3283
 5436ntf    on524837   1.341   5.681   4.932  0.1081  0.2680 -0.4208
 5436ntf    fn424838   1.542   5.402   4.796  0.4609  0.2501 -0.1873
 5436ntf    fn424839   1.342   5.402   4.884  0.2717 -0.0153 -0.3885
 5436ntf    fn424840   1.378   5.485   4.692 -0.3325  0.2601 -0.0349
 5437ntf    cn124841   2.009   7.414   5.944  0.6890  0.3561  0.2143
 5437ntf    sn224842   2.049   7.254   6.019  0.0621  0.1288  0.0738
 5437ntf    nn324843   1.979   7.147   5.927  0.2913  0.2194 -0.2096
 5437ntf    sn224844   2.042   7.078   5.801  0.0781 -0.0906 -0.1474
 5437ntf    cn124845   2.121   6.929   5.869  0.0947 -0.0283 -0.0285
 5437ntf    fn424846   1.903   7.472   5.998  0.2239 -0.4140  0.1425
 5437ntf    fn424847   2.100   7.510   5.948  0.5985  0.4349  0.3941
 5437ntf    fn424848   1.987   7.395   5.814  0.2826  0.1177  0.3136
 5437ntf    on524849   2.194   7.253   6.022  0.0648 -0.5048 -0.0914
 5437ntf    on524850   1.985   7.260   6.148  0.2983  0.9492  0.1571
 5437ntf    on524851   2.141   7.148   5.723 -0.5404  0.7283 -0.2178
 5437ntf    on524852   1.937   7.018   5.723 -0.0352  0.0207 -0.0817
 5437ntf    fn424853   2.098   6.823   5.793  0.7331  0.0744 -0.3737
 5437ntf    fn424854   2.252   6.934   5.886  0.1587 -0.5309 -0.3786
 5437ntf    fn424855   2.073   6.909   5.991  0.2008 -0.2039 -0.0158
 5438ntf    cn124856   6.384   0.356   3.315  0.0743 -0.0876 -0.0816
 5438ntf    sn224857   6.208   0.392   3.346  0.1760  0.0129  0.3877
 5438ntf    nn324858   6.154   0.248   3.379  0.7414 -0.2083  0.3673
 5438ntf    sn224859   6.088   0.179   3.503  0.2089  0.0880  0.2554
 5438ntf    cn124860   5.950   0.090   3.424  0.0235  0.2427  0.4052
 5438ntf    fn424861   6.468   0.457   3.302  0.3134 -0.2701  0.0382
 5438ntf    fn424862   6.436   0.278   3.407 -0.4843  0.0350  0.3463
 5438ntf    fn424863   6.386   0.284   3.205  0.0252 -0.2571  0.0287
 5438ntf    on524864   6.208   0.486   3.455  0.2361  0.0981  0.3139
 5438ntf    on524865   6.164   0.438   3.216  0.5383 -0.1336  0.2122
 5438ntf    on524866   6.022   0.272   3.591 -0.0235  0.0007  0.1738
 5438ntf    on524867   6.173   0.080   3.565  0.0193 -0.3241 -0.1422
 5438ntf    fn424868   5.857   0.047   3.507 -0.1410  0.3637  0.2837
 5438ntf    fn424869   5.874   0.161   3.342  0.1553 -0.0709  0.0094
 5438ntf    fn424870   5.987  -0.013   3.351 -0.7773  0.1158  0.1676
 5439ntf    cn124871   3.171   5.775   3.016  0.2958  0.0560  0.2545
 5439ntf    sn224872   3.004   5.773   2.944  0.2292 -0.0912  0.4115
 5439ntf    nn324873   3.011   5.899   2.851  0.1026 -0.4852 -0.1369
 5439ntf    sn224874   3.060   5.902   2.702 -0.1255  0.5385 -0.2027
 5439ntf    cn124875   3.165   6.050   2.710  0.2491  0.2831 -0.3264
 5439ntf    fn424876   3.185   5.685   3.113  0.1856 -0.2437 -0.0076
 5439ntf    fn424877   3.264   5.759   2.923  0.2884  0.8437  0.1103
 5439ntf    fn424878   3.192   5.892   3.074  0.4161  0.1315  0.0598
 5439ntf    on524879   3.000   5.645   2.879  0.0876 -0.1658  0.5657
 5439ntf    on524880   2.912   5.794   3.053  0.2225 -0.2553  0.4376
 5439ntf    on524881   2.963   5.940   2.603  0.1985  0.4234 -0.5670
 5439ntf    on524882   3.156   5.798   2.670 -0.0132  0.7282 -0.4872
 5439ntf    fn424883   3.095   6.158   2.742  0.4725  0.4094 -0.2642
 5439ntf    fn424884   3.270   6.040   2.789  0.2938 -0.1089 -0.4319
 5439ntf    fn424885   3.215   6.082   2.591  0.1372  0.1676 -0.4047
 5440ntf    cn124886   3.557   0.223   6.849 -0.2747 -0.0906  0.2061
 5440ntf    sn224887   3.719   0.203   6.769 -0.4470  0.1242 -0.1989
 5440ntf    nn324888   3.669   0.207   6.620  0.0708 -0.2610 -0.3870
 5440ntf    sn224889   3.689   0.315   6.508  0.2237 -0.0096 -0.1204
 5440ntf    cn124890   3.562   0.438   6.550  0.1877 -0.1702  0.2405
 5440ntf    fn424891   3.472   0.123   6.836 -0.3893  0.0760 -0.3857
 5440ntf    fn424892   3.571   0.244   6.979 -0.1440 -0.0634  0.1883
 5440ntf    fn424893   3.490   0.328   6.804 -0.3727 -0.1363  0.2458
 5440ntf    on524894   3.795   0.320   6.807 -0.1012  0.0027 -0.5056
 5440ntf    on524895   3.763   0.075   6.818  0.1754  0.1193 -0.7471
 5440ntf    on524896   3.641   0.278   6.377  0.1254  0.1612 -0.1334
 5440ntf    on524897   3.814   0.386   6.517  0.2017  0.0232 -0.0750
 5440ntf    fn424898   3.563   0.471   6.678  0.4314  0.1709  0.1535
 5440ntf    fn424899   3.575   0.545   6.473 -0.3217  0.1149  0.5447
 5440ntf    fn424900   3.444   0.385   6.521  0.3229 -0.6063  0.4778
 5441ntf    cn124901   7.481   2.678   0.715 -0.1349  0.4081  0.1061
 5441ntf    sn224902   7.567   2.735   0.864  0.0993  0.0834  0.0956
 5441ntf    nn324903   7.486   2.867   0.892 -0.3110 -0.1612  0.0534
 5441ntf    sn224904   7.409   2.923   1.016 -0.4085 -0.1890  0.0060
 5441ntf    cn124905   7.522   3.061   1.053 -0.3480 -0.1988 -0.1440
 5441ntf    fn424906   7.534   2.573   0.655  0.2152  0.3438  0.5288
 5441ntf    fn424907   7.356   2.641   0.737 -0.0109 -0.2765 -0.3113
 5441ntf    fn424908   7.470   2.772   0.622 -0.3610 -0.0207 -0.3041
 5441ntf    on524909   7.551   2.628   0.959  0.4293 -0.7992 -0.8270
 5441ntf    on524910   7.705   2.761   0.830  0.2124  0.1210  0.5659
 5441ntf    on524911   7.415   2.854   1.142 -0.2602  0.3598  0.3034
 5441ntf    on524912   7.281   2.982   0.982 -0.5815 -0.0550  0.8668
 5441ntf    fn424913   7.468   3.154   1.129  0.2732 -0.2542  0.3695
 5441ntf    fn424914   7.629   3.021   1.120  0.2407  0.8111 -0.4695
 5441ntf    fn424915   7.567   3.128   0.948 -0.4540 -0.0359 -0.0855
 5442ntf    cn124916   7.494   7.202   5.944  0.0427  0.3750  0.7943
 5442ntf    sn224917   7.659   7.167   6.010  0.1962 -0.0988  0.1675
 5442ntf    nn324918   7.674   7.011   5.994  0.4280 -0.0290 -0.3018
 5442ntf    sn224919   7.730   6.894   6.081  0.1917  0.0563 -0.0317
 5442ntf    cn124920   7.614   6.759   6.045  0.0041  0.1171  0.3484
 5442ntf    fn424921   7.396   7.147   6.015 -0.1472  0.0779  0.3077
 5442ntf    fn424922   7.473   7.332   5.952 -0.7385  0.3240 -0.1790
 5442ntf    fn424923   7.475   7.179   5.815 -0.2577 -0.0617  0.9127
 5442ntf    on524924   7.747   7.235   5.918 -0.4653 -0.1127 -0.4850
 5442ntf    on524925   7.665   7.209   6.148 -0.0297 -0.2379  0.2189
 5442ntf    on524926   7.722   6.916   6.223 -0.1387 -0.0808 -0.0284
 5442ntf    on524927   7.858   6.852   6.028  0.0379  0.0386 -0.3901
 5442ntf    fn424928   7.623   6.722   5.918  0.1712  0.6478  0.2041
 5442ntf    fn424929   7.638   6.656   6.126  0.2437  0.2359  0.4282
 5442ntf    fn424930   7.489   6.794   6.073  0.0208  0.0336  0.5349
 5443ntf    cn124931   0.557   3.974   4.854 -0.0816  0.0258  0.3901
 5443ntf    sn224932   0.597   4.148   4.886  0.2109  0.0782 -0.2414
 5443ntf    nn324933   0.743   4.138   4.943  0.1167  0.7964  0.1341
 5443ntf    sn224934   0.875   4.187   4.873  0.2863  0.2658  0.0784
 5443ntf    cn124935   0.973   4.211   5.024 -0.0280 -0.2020  0.3579
 5443ntf    fn424936   0.465   3.962   4.759  0.4573 -0.1877 -0.1141
 5443ntf    fn424937   0.661   3.906   4.809 -0.0824  0.1355  0.2199
 5443ntf    fn424938   0.507   3.905   4.956  0.0162 -0.3376  0.1956
 5443ntf    on524939   0.570   4.208   4.758 -0.4029 -0.3896 -0.3376
 5443ntf    on524940   0.508   4.176   4.996 -0.2585 -0.1523 -0.5616
 5443ntf    on524941   0.871   4.318   4.812  0.5374  0.2338 -0.0074
 5443ntf    on524942   0.946   4.080   4.808 -0.0999  0.0255  0.0519
 5443ntf    fn424943   0.999   4.103   5.096 -0.1260 -0.0179  0.6741
 5443ntf    fn424944   1.088   4.274   5.007 -0.1843 -0.0458 -0.1397
 5443ntf    fn424945   0.902   4.277   5.113 -0.4228  0.0122 -0.1108
 5444ntf    cn124946   3.176   5.597   4.753 -0.2304  0.0209 -0.2025
 5444ntf    sn224947   3.308   5.499   4.831 -0.1524  0.0243 -0.3296
 5444ntf    nn324948   3.260   5.513   4.980  0.3932  0.6209 -0.2077
 5444ntf    sn224949   3.303   5.621   5.085  0.0400  0.0352  0.5467
 5444ntf    cn124950   3.471   5.580   5.139  0.2653  0.1176 -0.0820
 5444ntf    fn424951   3.059   5.534   4.751 -0.1380 -0.1859  0.5720
 5444ntf    fn424952   3.160   5.715   4.809  0.0751 -0.0575  0.0478
 5444ntf    fn424953   3.205   5.620   4.626  0.0018 -0.3690 -0.2244
 5444ntf    on524954   3.288   5.362   4.789  0.5776 -0.1294 -0.1775
 5444ntf    on524955   3.430   5.561   4.788  0.1932 -0.3870  0.0503
 5444ntf    on524956   3.227   5.604   5.206 -0.1782 -0.2719  0.3681
 5444ntf    on524957   3.307   5.756   5.032 -0.9933 -0.2413 -0.2902
 5444ntf    fn424958   3.556   5.558   5.040 -0.3360 -0.2234 -0.5232
 5444ntf    fn424959   3.531   5.665   5.222 -0.0818 -0.0209  0.3121
 5444ntf    fn424960   3.456   5.465   5.202  0.1884  0.2634  0.1674
 5445ntf    cn124961   0.866   6.594   5.552 -0.2067 -0.0184 -0.1239
 5445ntf    sn224962   0.932   6.615   5.720  0.0458  0.3901 -0.2733
 5445ntf    nn324963   0.901   6.479   5.792  0.5233  0.7635  0.6687
 5445ntf    sn224964   0.854   6.462   5.941 -0.0087 -0.4680  0.3780
 5445ntf    cn124965   0.674   6.484   5.933  0.0752 -0.0016 -0.4394
 5445ntf    fn424966   0.919   6.490   5.491 -0.2268 -0.0753 -0.0459
 5445ntf    fn424967   0.737   6.565   5.555 -0.1413 -0.2797  0.1930
 5445ntf    fn424968   0.885   6.703   5.479 -0.2665  0.1358  0.0896
 5445ntf    on524969   1.073   6.643   5.709  0.1818 -0.2730 -0.2452
 5445ntf    on524970   0.856   6.729   5.767  0.3720  0.5065 -0.0169
 5445ntf    on524971   0.904   6.564   6.029  0.1270  0.2070 -0.4639
 5445ntf    on524972   0.889   6.326   5.974 -0.3430 -0.4632  0.7588
 5445ntf    fn424973   0.628   6.582   5.857 -0.0218  0.0878 -0.2684
 5445ntf    fn424974   0.614   6.378   5.881 -0.4338  0.5280 -0.9422
 5445ntf    fn424975   0.618   6.501   6.052  0.0278 -0.4377 -0.3985
 5446ntf    cn124976   2.285   5.240   6.319  0.5159 -0.1431 -0.0149
 5446ntf    sn224977   2.329   5.398   6.240  0.2297  0.0381  0.1863
 5446ntf    nn324978   2.478   5.382   6.193  0.2654 -0.0688  0.3340
 5446ntf    sn224979   2.543   5.322   6.063 -0.2310  0.1376 -0.0130
 5446ntf    cn124980   2.530   5.459   5.943  0.5021 -0.0060 -0.2575
 5446ntf    fn424981   2.289   5.136   6.238  0.7777 -0.0739 -0.0912
 5446ntf    fn424982   2.348   5.213   6.432  0.3252 -0.1883  0.0800
 5446ntf    fn424983   2.160   5.242   6.361  0.6230  0.3612  0.2836
 5446ntf    on524984   2.231   5.405   6.134  0.5824 -0.3492 -0.1720
 5446ntf    on524985   2.308   5.493   6.346  0.2844  0.1506  0.0957
 5446ntf    on524986   2.465   5.218   6.002  0.2049  0.0361 -0.3986
 5446ntf    on524987   2.682   5.287   6.081 -0.2564 -0.0435 -0.1687
 5446ntf    fn424988   2.407   5.507   5.950  0.3206 -0.5183  0.1501
 5446ntf    fn424989   2.607   5.565   5.960  0.4299  0.0857 -0.5074
 5446ntf    fn424990   2.546   5.423   5.817  0.1757 -0.0044 -0.3000
 5447ntf    cn124991   6.401   2.249   7.457  0.3380 -0.0452  0.3622
 5447ntf    sn224992   6.347   2.095   7.537 -0.0669 -0.2091 -0.2216
 5447ntf    nn324993   6.264   2.026   7.423 -0.2327 -0.4299  0.0335
 5447ntf    sn224994   6.328   1.949   7.301  0.0193  0.0365 -0.1332
 5447ntf    cn124995   6.254   2.040   7.163 -0.4399 -0.0171  0.0730
 5447ntf    fn424996   6.298   2.321   7.415  0.1940 -0.0399  0.7246
 5447ntf    fn424997   6.464   2.328   7.542  0.2876  0.7301 -0.3046
 5447ntf    fn424998   6.476   2.224   7.351  0.3857  0.7348  0.2042
 5447ntf    on524999   6.460   2.018   7.582  0.0021 -0.0353 -0.0942
 5447ntf    on525000   6.262   2.137   7.645 -0.0975 -0.0199 -0.3178
 5447ntf    on525001   6.272   1.816   7.291 -0.5434  0.2303  0.3465
 5447ntf    on525002   6.471   1.950   7.289  0.0803 -0.3187  0.4646
 5447ntf    fn425003   6.235   1.960   7.059 -0.2574 -0.2278  0.2011
 5447ntf    fn425004   6.136   2.091   7.194 -0.2219  0.3307  0.3265
 5447ntf    fn425005   6.322   2.147   7.125 -0.0002 -0.5292 -0.6113
 5448ntf    cn125006   5.315   2.553   5.563 -0.0227 -0.2573  0.0453
 5448ntf    sn225007   5.311   2.711   5.473  0.4121 -0.2205  0.0886
 5448ntf    nn325008   5.255   2.804   5.586  0.1513 -0.4906  0.1824
 5448ntf    sn225009   5.330   2.911   5.673  0.1677 -0.2273 -0.1539
 5448ntf    cn125010   5.334   3.048   5.554 -0.2662  0.0649  0.1649
 5448ntf    fn425011   5.197   2.505   5.597  0.0017 -0.2143  0.1879
 5448ntf    fn425012   5.381   2.456   5.502  0.9532  0.3159  0.1661
 5448ntf    fn425013   5.386   2.572   5.673  0.3900 -0.6181 -0.1528
 5448ntf    on525014   5.448   2.724   5.428  0.5097 -0.5982  0.2710
 5448ntf    on525015   5.206   2.697   5.375  0.1120  0.3400  0.3280
 5448ntf    on525016   5.465   2.880   5.713  0.0931  0.2036  0.4418
 5448ntf    on525017   5.239   2.967   5.769  0.1538  0.3062 -0.4703
 5448ntf    fn425018   5.221   3.071   5.490  0.2254  0.4691 -0.5857
 5448ntf    fn425019   5.369   3.166   5.604 -0.1617  0.4313 -0.7396
 5448ntf    fn425020   5.420   3.016   5.458 -0.6354  0.1017 -0.1779
 5449ntf    cn125021   0.447   7.173   3.833  0.4068 -0.0568  0.3404
 5449ntf    sn225022   0.464   7.297   3.966 -0.1999  0.1148  0.2624
 5449ntf    nn325023   0.523   7.203   4.077  0.2428 -0.1326 -0.1736
 5449ntf    sn225024   0.451   7.094   4.164 -0.1549  0.0021 -0.3341
 5449ntf    cn125025   0.421   7.187   4.318  0.1482 -0.1727 -0.1702
 5449ntf    fn425026   0.370   7.216   3.735 -0.0573 -0.5365  0.4971
 5449ntf    fn425027   0.560   7.129   3.780 -0.0119 -0.2795 -0.3781
 5449ntf    fn425028   0.396   7.058   3.871  0.0298  0.0438  0.1396
 5449ntf    on525029   0.570   7.381   3.915 -0.2794 -0.4158 -0.8024
 5449ntf    on525030   0.339   7.365   3.986 -0.3287 -0.1159  0.2514
 5449ntf    on525031   0.546   7.000   4.219 -0.4901  0.0338  0.3154
 5449ntf    on525032   0.320   7.055   4.116 -0.3798  0.1645  0.1416
 5449ntf    fn425033   0.532   7.214   4.385 -0.2377 -0.1042  0.4520
 5449ntf    fn425034   0.360   7.302   4.300  0.6738  0.2605  0.7726
 5449ntf    fn425035   0.341   7.115   4.395 -0.2843  0.0565 -0.4024
 5450ntf    cn125036   5.570   1.369   1.911  0.3762  0.1384  0.2396
 5450ntf    sn225037   5.709   1.485   1.925  0.2302  0.3233  0.1668
 5450ntf    nn325038   5.644   1.611   1.993  0.3133  0.0749  0.7116
 5450ntf    sn225039   5.587   1.734   1.915  0.0779 -0.4884 -0.0167
 5450ntf    cn125040   5.445   1.775   2.022  0.1750  0.2328 -0.1566
 5450ntf    fn425041   5.471   1.408   1.832  0.1526  0.0175  0.4580
 5450ntf    fn425042   5.607   1.253   1.861 -0.3627 -0.0181  0.0456
 5450ntf    fn425043   5.508   1.337   2.024 -0.2922 -0.0480 -0.1768
 5450ntf    on525044   5.800   1.415   2.012  0.0995 -0.0341  0.0142
 5450ntf    on525045   5.750   1.502   1.788 -0.3758 -0.3539 -0.1046
 5450ntf    on525046   5.522   1.711   1.788  0.5359  0.0936 -0.3673
 5450ntf    on525047   5.673   1.849   1.924 -0.4208 -0.0083 -1.1582
 5450ntf    fn425048   5.372   1.874   1.973  0.6853  0.5196 -0.3548
 5450ntf    fn425049   5.363   1.672   2.013  0.5450 -0.0762 -0.0495
 5450ntf    fn425050   5.473   1.794   2.150 -0.5218  0.2468 -0.0066
 5451ntf    cn125051   6.901   1.200   0.183  0.2327  0.0226 -0.3096
 5451ntf    sn225052   6.764   1.181   0.065 -0.0681  0.1560  0.0135
 5451ntf    nn325053   6.644   1.139   0.157  0.0882  0.0027  0.1470
 5451ntf    sn225054   6.520   1.230   0.188  0.0012 -0.0649 -0.0032
 5451ntf    cn125055   6.386   1.146   0.099  0.1147 -0.2710  0.0185
 5451ntf    fn425056   6.943   1.083   0.225  0.1837  0.2975  0.5237
 5451ntf    fn425057   7.009   1.257   0.132  0.2451 -0.1071 -0.4292
 5451ntf    fn425058   6.857   1.268   0.288  0.2651  0.0584 -0.3193
 5451ntf    on525059   6.755   1.304  -0.011 -0.9621  0.1932  0.1658
 5451ntf    on525060   6.818   1.067  -0.006  0.6961  0.4415  0.1223
 5451ntf    on525061   6.515   1.363   0.132 -0.0374  0.1089  0.4068
 5451ntf    on525062   6.474   1.224   0.325 -0.1251 -0.4320 -0.0610
 5451ntf    fn425063   6.393   1.160  -0.033  0.4887  0.4649  0.1096
 5451ntf    fn425064   6.400   1.016   0.118 -0.8036 -0.3724  0.0233
 5451ntf    fn425065   6.264   1.175   0.141  0.2837 -0.0353  0.3481
 5452ntf    cn125066   4.504   1.416   2.547  0.4627 -0.3670 -0.1611
 5452ntf    sn225067   4.436   1.264   2.474 -0.1436 -0.0934 -0.1676
 5452ntf    nn325068   4.469   1.293   2.323  0.4225  0.2132  0.0134
 5452ntf    sn225069   4.371   1.346   2.212  0.1140 -0.1669  0.1042
 5452ntf    cn125070   4.341   1.186   2.132  0.0682 -0.0975 -0.0173
 5452ntf    fn425071   4.487   1.430   2.677 -0.0978 -0.2597 -0.2428
 5452ntf    fn425072   4.636   1.415   2.533  0.4981  0.2683  0.1198
 5452ntf    fn425073   4.449   1.511   2.473  0.0367 -0.2587  0.2955
 5452ntf    on525074   4.521   1.160   2.526 -0.8599 -0.4508  0.3165
 5452ntf    on525075   4.297   1.257   2.511 -0.1738 -0.4744 -0.3486
 5452ntf    on525076   4.437   1.415   2.105 -0.0153  0.3688  0.3637
 5452ntf    on525077   4.236   1.383   2.249  0.0534 -0.1637 -0.1168
 5452ntf    fn425078   4.277   1.102   2.213 -0.6259 -0.1992 -0.6549
 5452ntf    fn425079   4.248   1.206   2.041 -0.3834  0.0134  0.4635
 5452ntf    fn425080   4.442   1.133   2.065  0.3675 -0.2340  0.5363
 5453ntf    cn125081   5.215   7.021   6.810 -0.2003  0.1108 -0.7478
 5453ntf    sn225082   5.168   6.896   6.687 -0.4430 -0.3897 -0.1544
 5453ntf    nn325083   5.307   6.884   6.614 -0.2383  0.2431  0.1209
 5453ntf    sn225084   5.405   6.762   6.618 -0.0650  0.3692 -0.2479
 5453ntf    cn125085   5.420   6.721   6.442 -0.3043  0.2982 -0.2522
 5453ntf    fn425086   5.256   7.140   6.770 -0.4494  0.3307 -0.3557
 5453ntf    fn425087   5.118   7.035   6.899  0.0657 -0.4693 -0.3558
 5453ntf    fn425088   5.319   6.978   6.880 -0.5411  0.2822 -0.1269
 5453ntf    on525089   5.127   6.778   6.758 -0.0213 -0.4676 -0.0337
 5453ntf    on525090   5.072   6.965   6.604 -0.0020  0.2962 -0.1043
 5453ntf    on525091   5.367   6.636   6.677  0.1059  0.9385  1.1217
 5453ntf    on525092   5.536   6.807   6.659 -0.3097  0.1526  0.7933
 5453ntf    fn425093   5.461   6.825   6.370  0.2218 -0.1209 -0.5696
 5453ntf    fn425094   5.510   6.628   6.415  0.0620  0.3834  0.6443
 5453ntf    fn425095   5.305   6.679   6.392  0.0317 -0.2851 -0.5544
 5454ntf    cn125096   3.869   2.747   1.158  0.3462  0.2302  0.0911
 5454ntf    sn225097   3.848   2.774   0.979 -0.0170  0.0186  0.1005
 5454ntf    nn325098   3.975   2.695   0.931 -0.5507 -0.8788  0.1477
 5454ntf    sn225099   4.021   2.679   0.782 -0.2565 -0.2300  0.1663
 5454ntf    cn125100   4.138   2.819   0.771 -0.0006 -0.4342  0.2598
 5454ntf    fn425101   3.995   2.717   1.186  0.2672 -0.1798  0.0228
 5454ntf    fn425102   3.834   2.849   1.234  0.0444  0.5395 -0.4583
 5454ntf    fn425103   3.799   2.644   1.202  0.7418 -0.0026  0.1846
 5454ntf    on525104   3.722   2.708   0.957  0.0662 -0.0307 -0.2250
 5454ntf    on525105   3.861   2.916   0.958 -0.2113  0.0716  0.3342
 5454ntf    on525106   3.914   2.707   0.690 -0.0875 -0.1318 -0.0027
 5454ntf    on525107   4.101   2.561   0.759  0.0054  0.0559 -0.4077
 5454ntf    fn425108   4.232   2.810   0.864  0.5794  0.2092 -0.2574
 5454ntf    fn425109   4.197   2.841   0.655 -0.2571  0.7412  0.3429
 5454ntf    fn425110   4.075   2.931   0.802 -0.1739 -0.4462 -0.0501
 5455ntf    cn125111   7.353   3.051   3.544 -0.0839 -0.1702 -0.4798
 5455ntf    sn225112   7.190   3.048   3.465 -0.1665 -0.1339 -0.3095
 5455ntf    nn325113   7.101   3.034   3.594  0.0345 -0.2897 -0.1885
 5455ntf    sn225114   7.031   2.902   3.641 -0.2123  0.0561  0.4375
 5455ntf    cn125115   6.974   2.944   3.808 -0.0858  0.2558  0.4312
 5455ntf    fn425116   7.365   3.155   3.626 -0.0801 -0.4849 -0.0793
 5455ntf    fn425117   7.374   2.945   3.620  0.4595  0.0821 -0.2715
 5455ntf    fn425118   7.454   3.056   3.458  0.4965 -0.2713  0.1827
 5455ntf    on525119   7.187   3.180   3.408 -0.3417  0.0942  0.2135
 5455ntf    on525120   7.178   2.943   3.368 -0.4836 -0.7976  0.4362
 5455ntf    on525121   7.119   2.792   3.668 -0.1736  0.0147  0.1523
 5455ntf    on525122   6.900   2.874   3.585  0.0262 -0.3403  0.0689
 5455ntf    fn425123   6.875   3.032   3.809 -0.0557  0.2874  0.7259
 5455ntf    fn425124   6.938   2.836   3.876 -0.4525  0.3716  0.4209
 5455ntf    fn425125   7.069   3.007   3.875  0.2789  0.4145 -0.2247
 5456ntf    cn125126   4.864   5.622   0.381 -0.0708  0.1587  0.4285
 5456ntf    sn225127   4.983   5.659   0.514  0.2056  0.1195  0.1944
 5456ntf    nn325128   5.021   5.807   0.477  0.5461  0.0395  0.2256
 5456ntf    sn225129   4.969   5.948   0.522  0.1375 -0.0712  0.1018
 5456ntf    cn125130   5.037   5.963   0.690 -0.0291  0.4054  0.1304
 5456ntf    fn425131   4.809   5.503   0.399  0.1050 -0.0568 -0.4170
 5456ntf    fn425132   4.773   5.714   0.355 -0.1215 -0.0304 -0.0750
 5456ntf    fn425133   4.923   5.616   0.263 -0.9192 -0.0947  0.0153
 5456ntf    on525134   4.915   5.641   0.640 -0.0129 -0.4085  0.0016
 5456ntf    on525135   5.095   5.573   0.490 -0.0022 -0.0273 -0.2597
 5456ntf    on525136   4.826   5.954   0.543  0.0237 -0.3205 -0.5858
 5456ntf    on525137   5.024   6.055   0.442 -0.6572  0.3691  0.1270
 5456ntf    fn425138   5.035   6.078   0.755 -0.2737  0.2016  0.4891
 5456ntf    fn425139   4.981   5.874   0.771 -0.2381  0.1187 -0.3235
 5456ntf    fn425140   5.168   5.943   0.690 -0.0601  0.1869 -0.1260
 5457ntf    cn125141   6.151   6.929   2.530  0.2718  0.0627 -0.3560
 5457ntf    sn225142   6.291   7.028   2.590 -0.1305  0.4006  0.0371
 5457ntf    nn325143   6.386   7.003   2.468 -0.0588 -0.2125  0.2118
 5457ntf    sn225144   6.502   7.096   2.416 -0.4345  0.1327 -0.0132
 5457ntf    cn125145   6.648   7.014   2.485 -0.3258  0.0752 -0.3082
 5457ntf    fn425146   6.192   6.803   2.527  0.2802  0.0600 -0.1738
 5457ntf    fn425147   6.046   6.935   2.611  0.0662 -0.0957 -0.6118
 5457ntf    fn425148   6.112   6.964   2.409 -0.1512 -0.0818 -0.2658
 5457ntf    on525149   6.232   7.158   2.603 -0.2543  0.3834 -0.3398
 5457ntf    on525150   6.339   6.957   2.707 -0.6252 -0.1494 -0.0890
 5457ntf    on525151   6.499   7.231   2.465  0.1711 -0.0824  0.6220
 5457ntf    on525152   6.527   7.083   2.274 -0.2622  0.4594 -0.0130
 5457ntf    fn425153   6.642   6.997   2.616 -0.2420 -0.2676 -0.3492
 5457ntf    fn425154   6.670   6.896   2.430  0.2613  0.3179 -0.6119
 5457ntf    fn425155   6.758   7.086   2.468 -0.2103  0.0287  0.2078
 5458ntf    cn125156   5.377   3.022   0.771  0.3925 -0.4336  0.0147
 5458ntf    sn225157   5.465   3.097   0.632  0.0387  0.1190  0.0848
 5458ntf    nn325158   5.606   3.027   0.638  0.0483  0.1034 -0.3109
 5458ntf    sn225159   5.739   3.083   0.699  0.0914  0.2148 -0.5060
 5458ntf    cn125160   5.789   3.199   0.568  0.6082 -0.3258 -0.7931
 5458ntf    fn425161   5.422   3.071   0.886  0.4567  0.1075 -0.2392
 5458ntf    fn425162   5.247   3.047   0.769  0.3815 -0.4554  0.3050
 5458ntf    fn425163   5.383   2.890   0.767 -0.4444 -0.4847  0.1874
 5458ntf    on525164   5.403   3.050   0.511  0.3995 -0.4117  0.1019
 5458ntf    on525165   5.469   3.241   0.646  1.1725  0.0851  0.2182
 5458ntf    on525166   5.842   2.982   0.700 -0.0009  0.1241 -0.0646
 5458ntf    on525167   5.725   3.160   0.820 -0.6145 -0.3630 -0.2154
 5458ntf    fn425168   5.712   3.306   0.579  0.5497 -0.4128 -0.3470
 5458ntf    fn425169   5.916   3.237   0.580  0.4582 -0.1978  0.5315
 5458ntf    fn425170   5.768   3.150   0.448  0.3099 -0.8323 -0.5355
 5459ntf    cn125171   5.400   5.986   2.823  0.0037 -0.4912  0.2245
 5459ntf    sn225172   5.495   6.135   2.782  0.0847 -0.4456  0.5702
 5459ntf    nn325173   5.637   6.079   2.817  0.2145 -0.3755  0.1649
 5459ntf    sn225174   5.717   6.106   2.949 -0.0994  0.0058  0.2787
 5459ntf    cn125175   5.823   6.247   2.909 -0.1616  0.0652  0.3226
 5459ntf    fn425176   5.374   5.975   2.952 -0.1453  0.2318  0.2609
 5459ntf    fn425177   5.286   5.983   2.756  0.3284 -0.8642 -0.3141
 5459ntf    fn425178   5.465   5.875   2.792  0.2413 -0.2379 -0.1886
 5459ntf    on525179   5.467   6.149   2.641  0.1445  0.1946  0.6187
 5459ntf    on525180   5.442   6.240   2.867  0.3383 -0.0810  0.2835
 5459ntf    on525181   5.816   6.006   2.981 -0.1130 -0.2257 -0.3894
 5459ntf    on525182   5.642   6.154   3.063  0.5478  0.1055  0.6630
 5459ntf    fn425183   5.757   6.338   2.839  0.2454  0.0408 -0.1032
 5459ntf    fn425184   5.872   6.299   3.020  0.1265  0.3436  0.0684
 5459ntf    fn425185   5.933   6.215   2.842 -0.1840  0.5726  0.0421
 5460ntf    cn125186   6.839   5.814   0.921  0.0473 -0.1477 -0.2771
 5460ntf    sn225187   6.763   5.966   0.986  0.0427 -0.3112  0.1041
 5460ntf    nn325188   6.886   6.022   1.066  0.2609 -0.5396 -0.0691
 5460ntf    sn225189   7.005   6.108   1.012 -0.1734  0.1651  0.0823
 5460ntf    cn125190   6.930   6.274   1.007 -0.1084  0.2055  0.3832
 5460ntf    fn425191   6.945   5.834   0.845 -0.1079  0.1812 -0.4113
 5460ntf    fn425192   6.885   5.741   1.021 -0.1976  0.3314  0.1910
 5460ntf    fn425193   6.751   5.744   0.852  0.0999  0.1270 -0.6252
 5460ntf    on525194   6.731   6.039   0.866  0.6149 -0.5845 -0.2188
 5460ntf    on525195   6.654   5.911   1.063 -0.3300  0.0832 -0.1350
 5460ntf    on525196   7.043   6.069   0.879  0.4366 -0.1843  0.3539
 5460ntf    on525197   7.111   6.121   1.109 -0.2602  0.0880  0.1886
 5460ntf    fn425198   6.817   6.259   0.940  0.0460  0.2950  0.0984
 5460ntf    fn425199   6.903   6.324   1.126  0.1757 -0.2439  0.6413
 5460ntf    fn425200   6.998   6.366   0.941 -0.3545  0.0244 -0.1272
 5461ntf    cn125201   7.512   1.306   5.277 -0.1504 -0.2770 -0.2510
 5461ntf    sn225202   7.488   1.279   5.099  0.3447 -0.1207 -0.3442
 5461ntf    nn325203   7.360   1.367   5.078  0.3581 -0.1697 -0.6409
 5461ntf    sn225204   7.298   1.419   4.944 -0.2390 -0.1499 -0.3631
 5461ntf    cn125205   7.350   1.592   4.925  0.1985 -0.2687 -0.2523
 5461ntf    fn425206   7.542   1.430   5.314 -0.0053 -0.2770 -0.3639
 5461ntf    fn425207   7.401   1.271   5.340  0.0581 -0.0497  0.2500
 5461ntf    fn425208   7.610   1.233   5.329  0.0429  0.1557 -0.0009
 5461ntf    on525209   7.613   1.328   5.047  0.0583  0.6666 -0.2974
 5461ntf    on525210   7.468   1.136   5.099 -0.2371 -0.0437  0.4726
 5461ntf    on525211   7.156   1.431   4.968 -0.0901  0.1932  0.3730
 5461ntf    on525212   7.347   1.354   4.825 -0.0672 -0.8725  0.0935
 5461ntf    fn425213   7.272   1.654   4.837 -0.0331 -0.5750 -0.2639
 5461ntf    fn425214   7.347   1.664   5.036 -0.5131  0.0346 -0.4640
 5461ntf    fn425215   7.474   1.588   4.879  0.2345  0.0612 -0.1864
 5462ntf    cn125216   3.782   4.264   1.431 -0.1457  0.0416 -0.0065
 5462ntf    sn225217   3.651   4.158   1.501 -0.0567 -0.0261  0.0573
 5462ntf    nn325218   3.609   4.078   1.373 -0.1089  0.3529 -0.1627
 5462ntf    sn225219   3.668   3.950   1.303  0.1517  0.2614  0.2249
 5462ntf    cn125220   3.712   4.009   1.137  0.0632  0.1574  0.1644
 5462ntf    fn425221   3.738   4.306   1.314  0.3907 -0.3739 -0.3622
 5462ntf    fn425222   3.804   4.368   1.510  0.0925  0.0035 -0.0228
 5462ntf    fn425223   3.896   4.199   1.413 -0.0914  0.0585  0.2768
 5462ntf    on525224   3.711   4.081   1.607  0.4071  0.2553  0.0036
 5462ntf    on525225   3.538   4.237   1.543 -0.0373 -0.0055  0.0706
 5462ntf    on525226   3.566   3.851   1.279  0.3838  0.1649 -0.3832
 5462ntf    on525227   3.789   3.900   1.364 -0.0870 -0.1391  0.3714
 5462ntf    fn425228   3.778   3.927   1.058 -0.0641  0.0035  0.2174
 5462ntf    fn425229   3.599   4.039   1.075  0.2821 -0.1066 -0.3639
 5462ntf    fn425230   3.777   4.124   1.137 -0.0115  0.2041  0.7559
 5463ntf    cn125231   4.512   7.377   7.159  0.2415  0.3095  0.3362
 5463ntf    sn225232   4.557   7.327   6.990 -0.5455 -0.0879  0.2382
 5463ntf    nn325233   4.580   7.467   6.923  0.1516 -0.4493 -0.2880
 5463ntf    sn225234   4.500   7.533   6.804  0.0392  0.1434  0.1120
 5463ntf    cn125235   4.571   7.437   6.667 -0.1370  0.0148  0.1121
 5463ntf    fn425236   4.481   7.274   7.237 -0.5140  0.3557  0.1050
 5463ntf    fn425237   4.611   7.438   7.220  0.2639  0.4587  0.1496
 5463ntf    fn425238   4.413   7.465   7.152  0.2686  0.2628 -0.9430
 5463ntf    on525239   4.672   7.244   7.014 -0.5136 -0.1296 -0.0470
 5463ntf    on525240   4.437   7.257   6.951 -0.2920 -0.2596 -0.2431
 5463ntf    on525241   4.544   7.661   6.756  0.2995 -0.3453 -0.9788
 5463ntf    on525242   4.359   7.507   6.806  0.1407 -0.4388 -0.2073
 5463ntf    fn425243   4.549   7.310   6.698 -0.4899  0.0575  0.0425
 5463ntf    fn425244   4.515   7.461   6.549  0.1671 -0.6506 -0.1736
 5463ntf    fn425245   4.700   7.454   6.645 -0.1736  0.1075 -0.0327
 5464ntf    cn125246   1.259   0.953   6.327 -0.2889 -0.9167 -0.1312
 5464ntf    sn225247   1.298   0.895   6.495 -0.2897 -0.0896  0.1591
 5464ntf    nn325248   1.337   1.032   6.561  0.9470 -0.4436  0.1827
 5464ntf    sn225249   1.264   1.103   6.681  0.2709 -0.2059 -0.3616
 5464ntf    cn125250   1.327   1.006   6.821 -0.3916 -0.2227 -0.0727
 5464ntf    fn425251   1.160   1.041   6.336  0.2459 -0.2960 -0.2167
 5464ntf    fn425252   1.361   1.019   6.275 -0.1047 -0.8856  0.2684
 5464ntf    fn425253   1.233   0.860   6.237 -0.8138 -0.2478 -0.6872
 5464ntf    on525254   1.174   0.838   6.542 -0.6710  0.2758 -0.3869
 5464ntf    on525255   1.410   0.807   6.472  0.0664  0.3600  0.1604
 5464ntf    on525256   1.121   1.090   6.692  0.2976 -0.6841 -0.5669
 5464ntf    on525257   1.321   1.234   6.704  0.1579 -0.2567  0.2310
 5464ntf    fn425258   1.312   0.877   6.797  0.0291 -0.2465 -0.2202
 5464ntf    fn425259   1.456   1.029   6.842 -0.5288 -0.0291  0.5996
 5464ntf    fn425260   1.254   1.028   6.929 -0.2850  0.1830 -0.0831
 5465ntf    cn125261   1.804   1.709   4.678 -0.2173  0.1031  0.2206
 5465ntf    sn225262   1.628   1.732   4.639 -0.1635 -0.1141 -0.1484
 5465ntf    nn325263   1.562   1.593   4.668 -0.0461 -0.1007  0.1817
 5465ntf    sn225264   1.624   1.453   4.632 -0.0225  0.0613 -0.4062
 5465ntf    cn125265   1.489   1.357   4.557 -0.2867  0.0818  0.0405
 5465ntf    fn425266   1.871   1.664   4.574 -0.6907  0.4076 -0.2183
 5465ntf    fn425267   1.864   1.820   4.717  0.2386  0.0305 -0.2767
 5465ntf    fn425268   1.821   1.624   4.778 -0.0313 -0.0320  0.0746
 5465ntf    on525269   1.592   1.840   4.727 -0.0277 -0.5120  0.3966
 5465ntf    on525270   1.631   1.766   4.499 -0.7894  0.4961 -0.0189
 5465ntf    on525271   1.648   1.385   4.756 -0.0569 -0.2298 -0.5577
 5465ntf    on525272   1.720   1.456   4.524 -0.2192  0.3614 -0.5757
 5465ntf    fn425273   1.372   1.375   4.616 -0.1498  0.0164  0.3328
 5465ntf    fn425274   1.472   1.381   4.428  0.7052 -0.1361 -0.1375
 5465ntf    fn425275   1.511   1.227   4.564  0.0024  0.1451  0.3423
 5466ntf    cn125276   3.859   1.176   6.271  0.0227 -0.0827  0.3462
 5466ntf    sn225277   3.888   1.330   6.364 -0.0018  0.4203 -0.4701
 5466ntf    nn325278   3.935   1.425   6.249  0.4130  0.2752 -0.4218
 5466ntf    sn225279   3.864   1.549   6.182 -0.1534  0.1873  0.0071
 5466ntf    cn125280   3.954   1.681   6.267 -0.4267  0.3430  0.0550
 5466ntf    fn425281   3.826   1.078   6.353 -0.1219  0.1163  0.5244
 5466ntf    fn425282   3.753   1.188   6.193 -0.0846  0.1480  0.5267
 5466ntf    fn425283   3.960   1.140   6.194  0.0899 -0.2530  0.5122
 5466ntf    on525284   3.759   1.357   6.423  0.2480 -0.0269  0.2959
 5466ntf    on525285   3.991   1.275   6.448 -0.0992  0.2216 -0.4780
 5466ntf    on525286   3.728   1.575   6.221 -0.3384 -0.2889 -0.3081
 5466ntf    on525287   3.902   1.573   6.045  0.0022 -0.2223 -0.0242
 5466ntf    fn425288   4.084   1.658   6.256 -0.5123 -0.0207 -0.2166
 5466ntf    fn425289   3.924   1.804   6.227 -0.7475  0.3778  0.3954
 5466ntf    fn425290   3.923   1.679   6.396 -0.1144  0.2312  0.1303
 5467ntf    cn125291   3.331   5.141   3.534 -0.3852 -0.1943  0.5736
 5467ntf    sn225292   3.436   5.042   3.423 -0.5258  0.2472  0.0447
 5467ntf    nn325293   3.579   5.102   3.451 -0.2523 -0.2438 -0.2872
 5467ntf    sn225294   3.711   5.027   3.490 -0.3277 -0.0082  0.4392
 5467ntf    cn125295   3.778   5.164   3.588  0.2699  0.0952 -0.1091
 5467ntf    fn425296   3.375   5.136   3.659  0.5321  0.4004  0.2865
 5467ntf    fn425297   3.328   5.266   3.492 -0.2505 -0.2416  0.4215
 5467ntf    fn425298   3.202   5.112   3.533 -0.5085  0.3503 -0.5732
 5467ntf    on525299   3.415   4.908   3.470 -0.4981  0.2900  0.1817
 5467ntf    on525300   3.388   5.066   3.289  0.2083  0.3615 -0.2050
 5467ntf    on525301   3.812   5.024   3.387 -0.4914  0.3488  0.2645
 5467ntf    on525302   3.710   4.916   3.583  0.4387 -0.3079  0.0964
 5467ntf    fn425303   3.711   5.182   3.700 -0.0357 -0.6404 -0.1733
 5467ntf    fn425304   3.905   5.139   3.617  0.3631  0.1103 -0.5096
 5467ntf    fn425305   3.762   5.277   3.522 -0.1484  0.1310  0.0545
 5468ntf    cn125306   5.264   0.599   4.410  0.1407  0.2124 -0.1064
 5468ntf    sn225307   5.284   0.704   4.557  0.2734 -0.1031  0.1027
 5468ntf    nn325308   5.363   0.821   4.488  0.1435  0.0199  0.1631
 5468ntf    sn225309   5.458   0.926   4.555  0.1980  0.1227 -0.0745
 5468ntf    cn125310   5.340   1.064   4.545 -0.1725 -0.1836  0.0744
 5468ntf    fn425311   5.197   0.487   4.434 -0.0685  0.3745  0.0672
 5468ntf    fn425312   5.195   0.662   4.317  0.3090  0.0026 -0.3790
 5468ntf    fn425313   5.384   0.571   4.361  0.2681  0.7184 -0.0871
 5468ntf    on525314   5.147   0.730   4.593  0.1706 -0.8058  0.2379
 5468ntf    on525315   5.357   0.616   4.644  0.8732  0.1619 -0.1272
 5468ntf    on525316   5.570   0.964   4.472  0.4229 -1.2492 -0.4191
 5468ntf    on525317   5.483   0.907   4.696 -0.7880 -0.8027 -0.0096
 5468ntf    fn425318   5.278   1.078   4.428 -0.1674  0.4351  0.1438
 5468ntf    fn425319   5.247   1.043   4.637 -0.3506  0.2960  0.0053
 5468ntf    fn425320   5.398   1.178   4.576 -0.3116 -0.1524  0.2216
 5469ntf    cn125321   7.003   6.863   5.977  0.1835  0.2619  0.4046
 5469ntf    sn225322   7.058   6.722   5.876  0.1640  0.5887 -0.0639
 5469ntf    nn325323   7.112   6.785   5.743 -0.0698 -0.0874 -0.4803
 5469ntf    sn225324   7.204   6.728   5.629  0.2779 -0.3744 -0.0616
 5469ntf    cn125325   7.368   6.803   5.656 -0.0051  0.4155 -0.4933
 5469ntf    fn425326   6.933   6.951   5.907  0.2348 -0.1094 -0.1168
 5469ntf    fn425327   6.926   6.819   6.076  0.3194 -0.3620  0.2387
 5469ntf    fn425328   7.108   6.922   6.033  0.6839  0.1257 -0.3808
 5469ntf    on525329   7.157   6.660   5.961  0.3276 -0.2061 -0.8276
 5469ntf    on525330   6.937   6.646   5.856  0.1714  0.5315  0.1063
 5469ntf    on525331   7.165   6.778   5.499  0.1955  0.0119  0.1112
 5469ntf    on525332   7.225   6.586   5.635 -0.6666 -0.4842  0.6525
 5469ntf    fn425333   7.441   6.756   5.756 -0.1691  0.3642 -0.3967
 5469ntf    fn425334   7.444   6.776   5.551  0.4264  0.6383 -0.2402
 5469ntf    fn425335   7.360   6.935   5.662  0.3603  0.4099  0.1854
 5470ntf    cn125336   6.396   4.589   7.412  0.0666 -0.1721  0.2635
 5470ntf    sn225337   6.451   4.433   7.337 -0.1897 -0.2483  0.2348
 5470ntf    nn325338   6.325   4.349   7.379 -0.2971  0.0178  0.4411
 5470ntf    sn225339   6.252   4.242   7.291  0.0785  0.1536 -0.0393
 5470ntf    cn125340   6.085   4.314   7.305  0.1838  0.3913 -0.0036
 5470ntf    fn425341   6.369   4.570   7.540 -0.5413  0.1197  0.1852
 5470ntf    fn425342   6.488   4.683   7.409  0.0743 -0.1955 -0.3329
 5470ntf    fn425343   6.289   4.645   7.358 -0.0185 -0.3154  0.2823
 5470ntf    on525344   6.462   4.478   7.200  0.1067 -0.1042  0.3052
 5470ntf    on525345   6.568   4.392   7.410 -0.2322 -0.3019  0.2727
 5470ntf    on525346   6.235   4.114   7.354  0.6186  0.3205  0.4500
 5470ntf    on525347   6.268   4.248   7.148 -0.1754  0.0319 -0.0733
 5470ntf    fn425348   5.989   4.260   7.232  0.3362  0.2281 -0.0834
 5470ntf    fn425349   6.027   4.318   7.424  0.2451  0.4779  0.0243
 5470ntf    fn425350   6.087   4.440   7.264 -0.1062  0.3057 -0.2805
 5471ntf    cn125351   6.177   6.021   6.454  0.3432  0.0835  0.4489
 5471ntf    sn225352   6.292   6.156   6.415  0.2682  0.0716  0.1867
 5471ntf    nn325353   6.205   6.232   6.309  0.0759 -0.5870 -0.1316
 5471ntf    sn225354   6.113   6.358   6.334  0.3402 -0.3903 -0.1506
 5471ntf    cn125355   6.067   6.387   6.161 -0.0327  0.3295  0.0668
 5471ntf    fn425356   6.067   6.066   6.511 -0.1234 -0.4163 -0.0438
 5471ntf    fn425357   6.142   5.967   6.338 -0.1937  0.4959  0.4186
 5471ntf    fn425358   6.226   5.916   6.519  0.4932  0.1376  0.4218
 5471ntf    on525359   6.305   6.215   6.546  0.6263  0.1914  0.0985
 5471ntf    on525360   6.412   6.096   6.362  0.2192  0.3114 -0.1999
 5471ntf    on525361   6.187   6.476   6.369  0.4630 -0.4529 -0.1967
 5471ntf    on525362   5.988   6.322   6.396  0.5301 -0.8532 -0.0245
 5471ntf    fn425363   6.039   6.273   6.098 -0.2075  0.2306  0.3221
 5471ntf    fn425364   5.963   6.467   6.147 -0.4227 -0.2362 -0.3525
 5471ntf    fn425365   6.165   6.448   6.096  0.3285 -0.1134  0.1923
 5472ntf    cn125366   0.314   2.394   4.667 -0.3914 -0.1392 -0.0547
 5472ntf    sn225367   0.317   2.569   4.619 -0.3585 -0.0266  0.3534
 5472ntf    nn325368   0.354   2.559   4.467 -0.0768  0.2353  0.4045
 5472ntf    sn225369   0.496   2.537   4.402 -0.2237  0.3139  0.0556
 5472ntf    cn125370   0.557   2.707   4.376  0.4774  0.0488 -0.0426
 5472ntf    fn425371   0.305   2.375   4.798 -0.0682  0.1664  0.0115
 5472ntf    fn425372   0.209   2.333   4.614 -0.2792  0.0274 -0.4730
 5472ntf    fn425373   0.419   2.329   4.619 -0.6085 -0.3707 -0.2226
 5472ntf    on525374   0.183   2.617   4.643 -0.3517 -0.1447  0.6242
 5472ntf    on525375   0.425   2.626   4.696 -0.2300 -0.1552  0.2693
 5472ntf    on525376   0.497   2.486   4.267  0.3297 -0.4380  0.3391
 5472ntf    on525377   0.596   2.474   4.484  0.2580  0.7346 -0.2073
 5472ntf    fn425378   0.654   2.718   4.286  0.3779 -0.5326 -0.2285
 5472ntf    fn425379   0.456   2.778   4.328  0.2740 -0.3648 -0.2434
 5472ntf    fn425380   0.601   2.754   4.491  0.2479  0.3291 -0.0688
 5473ntf    cn125381   0.111   2.275   0.880  0.5233 -0.1743 -0.1299
 5473ntf    sn225382   0.211   2.125   0.862  0.3559 -0.2888 -0.1105
 5473ntf    nn325383   0.152   2.050   0.738 -0.5285  0.0578  0.0981
 5473ntf    sn225384   0.220   1.931   0.662  0.1164  0.1984  0.4493
 5473ntf    cn125385   0.123   1.786   0.714 -0.2581  0.0380 -0.6521
 5473ntf    fn425386   0.096   2.338   0.765  0.4599 -0.1568 -0.1120
 5473ntf    fn425387  -0.011   2.246   0.924  0.1798  0.7168 -0.4562
 5473ntf    fn425388   0.167   2.367   0.957  0.5786 -0.3961  0.0977
 5473ntf    on525389   0.347   2.174   0.849  0.2829 -0.2409 -0.7247
 5473ntf    on525390   0.183   2.057   0.986  0.6685 -0.4023 -0.1000
 5473ntf    on525391   0.354   1.904   0.707 -0.0384 -0.8143  0.3300
 5473ntf    on525392   0.194   1.935   0.520  0.3406  0.2377  0.4095
 5473ntf    fn425393   0.115   1.763   0.844 -0.7809  0.0976 -0.6703
 5473ntf    fn425394  -0.002   1.800   0.674 -0.5693 -0.1317  0.2439
 5473ntf    fn425395   0.162   1.672   0.661  0.4372 -0.0336 -0.0122
 5474ntf    cn125396   4.927   5.259   0.245 -0.4651 -0.3097  0.5955
 5474ntf    sn225397   5.053   5.128   0.255 -0.1750 -0.0870 -0.0657
 5474ntf    nn325398   4.998   5.032   0.143  0.4235 -0.5498  0.0360
 5474ntf    sn225399   4.890   4.918   0.142  0.0467 -0.1920 -0.0751
 5474ntf    cn125400   4.972   4.775   0.065 -0.0498 -0.2787 -0.0172
 5474ntf    fn425401   4.816   5.241   0.315 -0.7557 -0.2911  0.1506
 5474ntf    fn425402   4.973   5.378   0.277  0.0655 -0.2583 -0.3355
 5474ntf    fn425403   4.885   5.277   0.120  0.4564  0.3208  0.3675
 5474ntf    on525404   5.172   5.200   0.215 -0.1922 -0.0355 -0.0240
 5474ntf    on525405   5.049   5.087   0.393  0.8981 -0.0416 -0.0101
 5474ntf    on525406   4.787   4.966   0.053  0.0140  0.3151  0.2369
 5474ntf    on525407   4.834   4.873   0.267  0.3597  0.0687  0.1601
 5474ntf    fn425408   4.898   4.667   0.082 -0.2501 -0.1412 -0.0186
 5474ntf    fn425409   4.992   4.784  -0.065 -0.5812 -0.3981 -0.1095
 5474ntf    fn425410   5.093   4.759   0.116 -0.0465 -0.5254 -0.1025
 5475ntf    cn125411   6.767   6.855   3.495 -0.0550 -0.2848 -0.0475
 5475ntf    sn225412   6.891   6.964   3.419  0.0880 -0.3895  0.0348
 5475ntf    nn325413   6.829   7.096   3.477  0.3010 -0.1240 -0.3377
 5475ntf    sn225414   6.899   7.189   3.583 -0.2223 -0.0147 -0.0847
 5475ntf    cn125415   6.771   7.244   3.700  0.1796  0.3949  0.1656
 5475ntf    fn425416   6.793   6.728   3.467 -0.0709 -0.2985 -0.0002
 5475ntf    fn425417   6.755   6.867   3.627  0.3600  0.0563 -0.0371
 5475ntf    fn425418   6.643   6.881   3.457  0.3610  0.3243 -1.0257
 5475ntf    on525419   7.017   6.927   3.477  0.4581  0.1514 -0.4166
 5475ntf    on525420   6.871   6.942   3.278  0.8390 -0.1379 -0.1135
 5475ntf    on525421   6.950   7.313   3.530  0.2760 -0.3700 -0.4419
 5475ntf    on525422   6.991   7.123   3.671 -0.4112  0.4247  0.4465
 5475ntf    fn425423   6.706   7.138   3.745  0.5551 -0.0658 -0.3652
 5475ntf    fn425424   6.831   7.309   3.799  0.5572  0.1155  0.1234
 5475ntf    fn425425   6.687   7.332   3.648 -0.3411 -0.2691 -0.1324
 5476ntf    cn125426   2.149   0.792   5.549  0.0754  0.0891  0.0015
 5476ntf    sn225427   2.008   0.687   5.501 -0.0399  0.2201  0.0501
 5476ntf    nn325428   1.996   0.722   5.348 -0.4030 -0.3589 -0.0563
 5476ntf    sn225429   1.895   0.828   5.292  0.1121  0.2557  0.1611
 5476ntf    cn125430   1.798   0.711   5.191 -0.1445  0.2232  0.4434
 5476ntf    fn425431   2.173   0.779   5.678  0.1406 -0.3974 -0.0572
 5476ntf    fn425432   2.260   0.760   5.485  0.3229  0.5016  0.2169
 5476ntf    fn425433   2.118   0.918   5.522 -0.3864  0.0703  0.4194
 5476ntf    on525434   2.067   0.557   5.524 -0.6580 -0.0291  0.2374
 5476ntf    on525435   1.903   0.725   5.591 -0.2350 -0.4576  0.1182
 5476ntf    on525436   1.957   0.911   5.192  0.1782 -0.2683 -0.2399
 5476ntf    on525437   1.800   0.895   5.377 -0.3496  0.1641 -0.2796
 5476ntf    fn425438   1.709   0.768   5.111  0.2794  0.4855  0.1533
 5476ntf    fn425439   1.878   0.647   5.108 -0.2144 -0.0226  0.5661
 5476ntf    fn425440   1.739   0.619   5.267  0.0255 -0.1958  0.0688
 5477ntf    cn125441   0.002   4.200   3.132 -0.5667  0.1649 -0.1354
 5477ntf    sn225442  -0.177   4.222   3.150 -0.5313  0.6296 -0.3458
 5477ntf    nn325443  -0.228   4.129   3.033 -0.4537  0.5149 -0.2888
 5477ntf    sn225444  -0.280   3.983   3.056  0.4738  0.2709  0.2989
 5477ntf    cn125445  -0.446   4.021   3.119  0.1666 -0.1631 -0.2409
 5477ntf    fn425446   0.074   4.264   3.223 -0.4777 -0.4075  0.2093
 5477ntf    fn425447   0.035   4.073   3.149 -0.3619  0.1979 -0.2758
 5477ntf    fn425448   0.058   4.230   3.016  0.4589  0.1683  0.3402
 5477ntf    on525449  -0.219   4.187   3.283  0.4400  0.1727 -0.1476
 5477ntf    on525450  -0.191   4.358   3.104 -0.6206  0.8425  0.3066
 5477ntf    on525451  -0.209   3.897   3.148 -0.2775 -0.0876  0.5475
 5477ntf    on525452  -0.312   3.928   2.927 -0.4808  1.1573  0.1509
 5477ntf    fn425453  -0.508   4.116   3.051  0.6663  0.3236 -0.0263
 5477ntf    fn425454  -0.530   3.920   3.131 -0.3520  0.2782 -0.1066
 5477ntf    fn425455  -0.436   4.069   3.242 -0.0130 -0.3096 -0.1693
 5478ntf    cn125456   4.007   6.955   0.982  0.5516  0.3631 -0.0814
 5478ntf    sn225457   3.828   6.978   1.006  0.5288  0.1577 -0.0572
 5478ntf    nn325458   3.774   6.940   0.864 -0.8542  0.5570  0.3487
 5478ntf    sn225459   3.730   6.800   0.808  0.1345  0.3696  0.0089
 5478ntf    cn125460   3.767   6.834   0.633  0.2585 -0.4326 -0.1202
 5478ntf    fn425461   4.039   6.855   0.902  0.2075  0.3448 -0.1961
 5478ntf    fn425462   4.066   7.063   0.934  0.5102  0.5364  0.2500
 5478ntf    fn425463   4.062   6.930   1.100 -0.2802 -0.2266  0.1937
 5478ntf    on525464   3.788   6.884   1.108  0.5771 -0.0425 -0.2216
 5478ntf    on525465   3.822   7.119   1.031  0.3284  0.2153 -0.4254
 5478ntf    on525466   3.597   6.743   0.815 -0.0716  0.7964 -0.3379
 5478ntf    on525467   3.831   6.703   0.841 -0.3196  0.1059  0.6486
 5478ntf    fn425468   3.795   6.725   0.562  0.1865 -0.1851 -0.5282
 5478ntf    fn425469   3.679   6.907   0.568  0.3216 -0.5144 -0.2966
 5478ntf    fn425470   3.884   6.896   0.633 -0.0859  0.2398  0.7727
 5479ntf    cn125471   2.800   0.459   0.980  0.1308 -0.2882 -0.1410
 5479ntf    sn225472   2.959   0.381   0.941  0.3538 -0.0343  0.2610
 5479ntf    nn325473   3.048   0.508   0.917  0.0405  0.2173  0.4183
 5479ntf    sn225474   3.196   0.541   0.958  0.1342  0.2043  0.1007
 5479ntf    cn125475   3.285   0.497   0.806 -0.1597 -0.3983  0.1027
 5479ntf    fn425476   2.713   0.375   1.034  0.4911 -0.9471 -0.5667
 5479ntf    fn425477   2.808   0.556   1.070 -0.4774 -0.5345  0.1803
 5479ntf    fn425478   2.735   0.501   0.872 -0.6422 -0.7209  0.1494
 5479ntf    on525479   2.981   0.301   1.059 -0.6027 -0.2007  0.3337
 5479ntf    on525480   2.940   0.316   0.814  0.5277  0.4197 -0.0002
 5479ntf    on525481   3.258   0.456   1.057  0.3199  0.5137  0.2538
 5479ntf    on525482   3.215   0.683   0.972 -0.4642  0.3014 -0.0506
 5479ntf    fn425483   3.295   0.369   0.775 -0.1466 -0.3844  0.0506
 5479ntf    fn425484   3.228   0.545   0.697  0.5366 -0.6332 -0.3664
 5479ntf    fn425485   3.409   0.541   0.804 -0.3703  0.2192  0.4648
 5480ntf    cn125486   0.949   1.304   0.402 -0.3112 -0.0543  0.1601
 5480ntf    sn225487   0.863   1.409   0.523 -0.1395  0.3558 -0.0695
 5480ntf    nn325488   0.938   1.543   0.492  0.3262  0.1265  0.0392
 5480ntf    sn225489   0.899   1.647   0.381  0.1924 -0.0106 -0.0426
 5480ntf    cn125490   1.067   1.699   0.334  0.2212  0.0046  0.0787
 5480ntf    fn425491   0.897   1.325   0.282  0.0744 -0.8619 -0.1566
 5480ntf    fn425492   1.078   1.331   0.395 -0.2505 -0.3650  0.0669
 5480ntf    fn425493   0.941   1.176   0.435 -0.2963 -0.0933  0.0148
 5480ntf    on525494   0.722   1.398   0.496 -0.0666  0.3090 -0.4315
 5480ntf    on525495   0.913   1.354   0.647  0.1396 -0.7651 -0.6583
 5480ntf    on525496   0.845   1.771   0.433 -0.0355 -0.1127 -0.0341
 5480ntf    on525497   0.854   1.594   0.255 -0.0424  0.2478 -0.0695
 5480ntf    fn425498   1.059   1.773   0.225  0.1338 -0.0910  0.0191
 5480ntf    fn425499   1.146   1.750   0.427 -0.3623  0.2152  0.4669
 5480ntf    fn425500   1.127   1.589   0.292 -0.1124 -0.0990 -0.1307
 5481ntf    cn125501   2.760   7.378   0.381  0.2250 -0.1694  0.1213
 5481ntf    sn225502   2.627   7.486   0.441  0.3761 -0.0805  0.2994
 5481ntf    nn325503   2.620   7.590   0.323  0.2289 -0.0464  0.3372
 5481ntf    sn225504   2.561   7.735   0.329 -0.4202 -0.2940 -0.0124
 5481ntf    cn125505   2.673   7.811   0.208 -0.4388 -0.0475  0.1238
 5481ntf    fn425506   2.872   7.439   0.347  0.1760 -0.3054 -0.2884
 5481ntf    fn425507   2.801   7.292   0.474  0.2059 -0.7049 -0.3591
 5481ntf    fn425508   2.721   7.303   0.279 -0.0670  0.2046 -0.0399
 5481ntf    on525509   2.513   7.397   0.437 -0.2304  0.7016 -0.0448
 5481ntf    on525510   2.671   7.534   0.569  0.1592  0.9311  0.0009
 5481ntf    on525511   2.582   7.812   0.449 -0.0893 -0.5198  0.0769
 5481ntf    on525512   2.433   7.745   0.263 -0.0060  0.4871 -0.7066
 5481ntf    fn425513   2.637   7.935   0.180  0.3984  0.0059 -0.7439
 5481ntf    fn425514   2.797   7.811   0.254 -0.2901  0.0056 -0.2748
 5481ntf    fn425515   2.682   7.746   0.093  0.4997  0.0558  0.1343
 5482ntf    cn125516   2.055   6.582   1.116 -0.3193  0.1390 -0.4521
 5482ntf    sn225517   1.965   6.691   1.230  0.2106 -0.2309  0.3306
 5482ntf    nn325518   1.884   6.577   1.301 -0.0372 -0.2844 -0.0336
 5482ntf    sn225519   1.737   6.529   1.273 -0.1093 -0.0692 -0.0251
 5482ntf    cn125520   1.632   6.667   1.327 -0.1678 -0.0889 -0.0880
 5482ntf    fn425521   2.146   6.639   1.040 -0.0498  0.3593  0.0327
 5482ntf    fn425522   2.115   6.487   1.185 -0.0264  0.2610 -0.5406
 5482ntf    fn425523   1.975   6.515   1.034 -0.8882  0.1966  0.0482
 5482ntf    on525524   2.073   6.754   1.302  0.0281  0.2600  0.1838
 5482ntf    on525525   1.880   6.773   1.147  0.1336 -0.2279  0.4112
 5482ntf    on525526   1.698   6.422   1.360  0.0117  0.0174  0.1370
 5482ntf    on525527   1.698   6.516   1.135 -0.0791  0.4302 -0.0844
 5482ntf    fn425528   1.509   6.655   1.281 -0.2360 -0.1980  0.1214
 5482ntf    fn425529   1.640   6.670   1.459 -0.0691  0.0633 -0.0961
 5482ntf    fn425530   1.688   6.778   1.281 -0.2422  0.2562  0.6321
 5483ntf    cn125531   5.859   2.709   6.872  0.5577 -0.1462 -0.1458
 5483ntf    sn225532   5.732   2.592   6.815  0.5701  0.0029 -0.4817
 5483ntf    nn325533   5.755   2.461   6.899 -0.1215  0.1841 -0.0040
 5483ntf    sn225534   5.727   2.435   7.051  0.1133 -0.4063 -0.0606
 5483ntf    cn125535   5.891   2.388   7.115  0.2575  0.0857 -0.0637
 5483ntf    fn425536   5.984   2.667   6.872  0.5413 -0.1949 -0.0174
 5483ntf    fn425537   5.850   2.820   6.801  0.8689  0.5282  0.8511
 5483ntf    fn425538   5.836   2.752   6.995  0.5083 -0.3454 -0.0847
 5483ntf    on525539   5.607   2.658   6.841  0.6132 -0.2654  0.4377
 5483ntf    on525540   5.766   2.568   6.676  0.3000 -0.3954 -0.4798
 5483ntf    on525541   5.649   2.317   7.077  0.3537 -0.5678 -0.0629
 5483ntf    on525542   5.700   2.551   7.131 -0.1710 -0.2956 -0.3181
 5483ntf    fn425543   5.899   2.380   7.247 -0.9865 -0.3027  0.0019
 5483ntf    fn425544   5.914   2.266   7.070  0.0074 -0.1568  0.4512
 5483ntf    fn425545   5.990   2.463   7.071 -0.0959  0.7692  0.2848
 5484ntf    cn125546   1.892   0.174   1.746  0.0356  0.1044 -0.0606
 5484ntf    sn225547   1.983   0.040   1.828  0.2905  0.4217  0.1797
 5484ntf    nn325548   2.119   0.034   1.750  0.4614  0.4016  0.4794
 5484ntf    sn225549   2.158  -0.019   1.607 -0.0044 -0.0035  0.4982
 5484ntf    cn125550   2.310  -0.111   1.645 -0.0019 -0.1110  0.2285
 5484ntf    fn425551   1.953   0.288   1.773 -0.1090  0.0627  0.4413
 5484ntf    fn425552   1.885   0.162   1.614 -0.2976  0.0742 -0.0412
 5484ntf    fn425553   1.767   0.179   1.790 -0.1066 -0.3714 -0.4055
 5484ntf    on525554   1.989   0.088   1.963 -0.0788  0.5306  0.1603
 5484ntf    on525555   1.904  -0.079   1.807 -0.1529  0.6588  0.4949
 5484ntf    on525556   2.198   0.091   1.522  0.0443 -0.3334  0.0911
 5484ntf    on525557   2.068  -0.111   1.542  0.1568  0.2049 -0.0191
 5484ntf    fn425558   2.375  -0.136   1.532  0.2019 -0.1754  0.3599
 5484ntf    fn425559   2.397  -0.047   1.721 -0.0236  0.3257 -0.1097
 5484ntf    fn425560   2.279  -0.227   1.702  0.0679 -0.3103 -0.1333
 5485ntf    cn125561   5.596   5.180   3.762 -0.0370  0.3061 -0.0283
 5485ntf    sn225562   5.639   5.356   3.745  0.2969  0.2114 -0.1845
 5485ntf    nn325563   5.759   5.357   3.643  0.3123  0.0221 -0.1707
 5485ntf    sn225564   5.751   5.370   3.487  0.2829  0.0294 -0.1683
 5485ntf    cn125565   5.823   5.213   3.430  0.1526 -0.0494 -0.1144
 5485ntf    fn425566   5.605   5.122   3.643 -0.3600  0.2106 -0.0046
 5485ntf    fn425567   5.682   5.114   3.838  0.1302  0.3336 -0.1924
 5485ntf    fn425568   5.480   5.149   3.817 -0.1037  0.1563 -0.2523
 5485ntf    on525569   5.514   5.409   3.697  0.1241 -0.1106 -0.0963
 5485ntf    on525570   5.682   5.392   3.878  0.0308 -0.2229  0.0227
 5485ntf    on525571   5.836   5.476   3.439  0.5186 -0.1411 -0.1269
 5485ntf    on525572   5.620   5.353   3.428  0.3318  0.1321 -0.3045
 5485ntf    fn425573   5.764   5.104   3.477 -0.1230 -0.0276 -0.4032
 5485ntf    fn425574   5.821   5.200   3.298 -0.2257  0.3540 -0.1519
 5485ntf    fn425575   5.949   5.206   3.469  0.2192 -0.0799 -0.3307
 5486ntf    cn125576   6.864   5.759   5.331 -0.1220  0.0614 -0.1377
 5486ntf    sn225577   6.755   5.903   5.319  0.1679  0.2668 -0.3024
 5486ntf    nn325578   6.744   5.913   5.162 -0.0120 -0.5271 -0.3430
 5486ntf    sn225579   6.619   5.874   5.076 -0.0216  0.0168 -0.5786
 5486ntf    cn125580   6.646   5.988   4.937  0.0301  0.2834 -0.3510
 5486ntf    fn425581   6.811   5.643   5.295  0.3958 -0.1526 -0.2247
 5486ntf    fn425582   6.974   5.771   5.258 -0.1076  0.1589 -0.0998
 5486ntf    fn425583   6.903   5.746   5.457 -0.0777  0.1034 -0.1475
 5486ntf    on525584   6.634   5.852   5.376  0.0904  0.3883 -0.3568
 5486ntf    on525585   6.829   6.012   5.378 -0.1577  0.3392 -0.0291
 5486ntf    on525586   6.494   5.909   5.137 -0.1246 -0.8468 -0.2758
 5486ntf    on525587   6.637   5.745   5.014  0.2058 -0.0050 -0.4690
 5486ntf    fn425588   6.645   6.117   4.966 -0.5160  0.1346  0.3167
 5486ntf    fn425589   6.759   5.964   4.871 -0.0164  0.2015 -0.4013
 5486ntf    fn425590   6.549   5.973   4.848 -0.3475  0.0916  0.0898
 5487ntf    cn125591   3.841   6.322   0.372  0.0496  0.0474  0.0938
 5487ntf    sn225592   4.014   6.337   0.428  0.1104  0.1209 -0.1120
 5487ntf    nn325593   4.047   6.184   0.418 -0.6216 -0.0287 -0.3764
 5487ntf    sn225594   4.158   6.116   0.330 -0.2017 -0.3724  0.4044
 5487ntf    cn125595   4.060   6.093   0.178 -0.1543 -0.2681  0.3584
 5487ntf    fn425596   3.767   6.429   0.395 -0.2312 -0.1863  0.2790
 5487ntf    fn425597   3.838   6.297   0.242  0.2167 -0.2471  0.1460
 5487ntf    fn425598   3.777   6.220   0.425  0.0904 -0.2196 -0.3697
 5487ntf    on525599   4.058   6.426   0.324  0.0697  0.3737  0.0852
 5487ntf    on525600   4.002   6.387   0.563  0.2716 -0.0505 -0.0351
 5487ntf    on525601   4.180   5.978   0.367  0.3990 -0.5244 -0.4911
 5487ntf    on525602   4.271   6.197   0.292  0.1685 -0.8344  0.5152
 5487ntf    fn425603   4.119   6.006   0.099 -0.7452  0.1038 -0.5111
 5487ntf    fn425604   3.940   6.049   0.210 -0.5416  0.4922 -0.0115
 5487ntf    fn425605   4.040   6.200   0.103 -0.3530 -0.1693  0.5511
 5488ntf    cn125606   4.114   3.826   2.397  0.1551 -0.2576  0.3329
 5488ntf    sn225607   4.143   3.829   2.218 -0.1973 -0.2305  0.2744
 5488ntf    nn325608   4.046   3.948   2.185  0.1458 -0.0397 -0.0660
 5488ntf    sn225609   4.092   4.097   2.170  0.1406 -0.0165  0.1345
 5488ntf    cn125610   4.160   4.099   2.001 -0.3377 -0.1710 -0.0616
 5488ntf    fn425611   4.099   3.947   2.448  0.4847  0.1294 -0.4734
 5488ntf    fn425612   4.005   3.756   2.425 -0.0577 -0.1615 -0.2473
 5488ntf    fn425613   4.220   3.776   2.458  0.4043  0.0504  0.1537
 5488ntf    on525614   4.284   3.861   2.215 -0.2970  0.1852 -0.1499
 5488ntf    on525615   4.093   3.708   2.160 -0.1278  0.1289 -0.5475
 5488ntf    on525616   4.200   4.137   2.256  0.1422  0.9174 -0.2923
 5488ntf    on525617   3.979   4.186   2.157  0.0403 -0.2920 -1.0367
 5488ntf    fn425618   4.069   4.054   1.917 -0.3118 -0.0938 -0.1316
 5488ntf    fn425619   4.196   4.221   1.963 -0.5984  0.1938  0.8416
 5488ntf    fn425620   4.269   4.027   1.981  0.1699  0.5179  0.1698
 5489ntf    cn125621   2.827   3.732   6.862 -0.2370 -0.2557  0.0432
 5489ntf    sn225622   2.771   3.837   6.999 -0.0642  0.3254 -0.3257
 5489ntf    nn325623   2.682   3.949   6.935 -0.5693  0.3002  0.3194
 5489ntf    sn225624   2.717   4.097   6.896 -0.3029  0.1866  0.1258
 5489ntf    cn125625   2.623   4.134   6.746 -0.1635 -0.2225 -0.0625
 5489ntf    fn425626   2.888   3.801   6.767  0.1005 -0.2048  0.2970
 5489ntf    fn425627   2.907   3.631   6.891 -0.0177 -0.1243 -0.1023
 5489ntf    fn425628   2.724   3.676   6.800 -0.2931 -0.2789  0.1577
 5489ntf    on525629   2.686   3.750   7.076  0.0982  0.1790 -0.3112
 5489ntf    on525630   2.889   3.882   7.069  0.1896  0.1213 -0.6207
 5489ntf    on525631   2.852   4.115   6.847 -0.1710  0.4816  0.5928
 5489ntf    on525632   2.663   4.195   6.988 -0.6439  0.2340 -0.1268
 5489ntf    fn425633   2.645   4.026   6.673  0.1928 -0.2455  0.0816
 5489ntf    fn425634   2.492   4.152   6.752 -0.1237 -0.0493  0.2854
 5489ntf    fn425635   2.682   4.235   6.685 -0.4167 -0.3334 -0.4984
 5490ntf    cn125636   3.615   3.068   5.301 -0.1625  0.1030  0.1675
 5490ntf    sn225637   3.783   3.047   5.367 -0.0837  0.2461  0.0139
 5490ntf    nn325638   3.858   3.169   5.304 -0.0358  0.0542 -0.3028
 5490ntf    sn225639   3.868   3.315   5.362  0.0963 -0.1436  0.1794
 5490ntf    cn125640   4.015   3.304   5.468  0.1160 -0.4949  0.1166
 5490ntf    fn425641   3.563   3.184   5.340 -0.1228  0.3037 -0.3776
 5490ntf    fn425642   3.612   3.080   5.170  0.8336  0.0892  0.1349
 5490ntf    fn425643   3.533   2.971   5.336  0.3033 -0.4189 -0.1828
 5490ntf    on525644   3.779   3.057   5.511 -0.6023 -0.2038  0.0352
 5490ntf    on525645   3.828   2.925   5.304 -0.1408  0.0076  0.4309
 5490ntf    on525646   3.760   3.352   5.450  0.2223  0.4992  0.0658
 5490ntf    on525647   3.907   3.409   5.260 -0.2531  0.1505  0.3163
 5490ntf    fn425648   4.109   3.243   5.398  0.0258 -0.0617 -0.3877
 5490ntf    fn425649   4.057   3.425   5.500 -0.3316 -0.3010 -0.0235
 5490ntf    fn425650   3.990   3.235   5.578  0.0635 -0.3365  0.2044
 5491ntf    cn125651   3.181   1.383   1.325 -0.3240 -0.1540  0.0972
 5491ntf    sn225652   3.113   1.269   1.201  0.1485 -0.1056 -0.2097
 5491ntf    nn325653   3.020   1.369   1.122 -0.4386 -0.9398 -0.5934
 5491ntf    sn225654   3.043   1.462   0.998  0.2311 -0.1919  0.0833
 5491ntf    cn125655   2.983   1.353   0.866 -0.0891 -0.0954  0.1474
 5491ntf    fn425656   3.087   1.452   1.388 -0.0922  0.2392  0.0151
 5491ntf    fn425657   3.251   1.313   1.412 -0.0174 -0.6077 -0.5065
 5491ntf    fn425658   3.255   1.474   1.263 -0.7536 -0.4084 -0.8123
 5491ntf    on525659   3.224   1.213   1.130  0.3366  0.0841 -0.0661
 5491ntf    on525660   3.030   1.180   1.278 -0.2761  0.2611 -0.2366
 5491ntf    on525661   3.181   1.490   0.965  0.1376  0.3568  0.1428
 5491ntf    on525662   2.953   1.574   0.993  0.3795 -0.0819 -0.1300
 5491ntf    fn425663   3.024   1.227   0.863 -0.3214 -0.1573 -0.5240
 5491ntf    fn425664   2.853   1.347   0.884 -0.1811 -0.0885 -0.4987
 5491ntf    fn425665   3.007   1.400   0.744  0.1026  0.0212  0.2293
 5492ntf    cn125666   4.428   7.334   5.907  0.0010 -0.2631 -0.0772
 5492ntf    sn225667   4.320   7.189   5.886  0.1765 -0.3855 -0.1404
 5492ntf    nn325668   4.371   7.124   5.752 -0.0489 -0.3400 -0.2484
 5492ntf    sn225669   4.455   6.992   5.744 -0.0027 -0.3164 -0.1547
 5492ntf    cn125670   4.565   7.044   5.609  0.2488 -0.1375  0.1194
 5492ntf    fn425671   4.545   7.299   5.960 -0.0614 -0.1992  0.1039
 5492ntf    fn425672   4.456   7.396   5.794  0.4139 -0.2204  0.0452
 5492ntf    fn425673   4.380   7.425   5.990 -0.1713 -0.3020 -0.1345
 5492ntf    on525674   4.343   7.107   6.002  0.9366 -0.9606 -0.6911
 5492ntf    on525675   4.186   7.241   5.879  0.0560 -0.6295  0.2984
 5492ntf    on525676   4.375   6.882   5.694 -0.0193 -0.5341  0.3413
 5492ntf    on525677   4.544   6.965   5.854  0.3598  0.4874 -0.2497
 5492ntf    fn425678   4.625   7.156   5.649 -0.0472  0.0179  0.1296
 5492ntf    fn425679   4.648   6.950   5.566  0.1095 -0.0012 -0.4554
 5492ntf    fn425680   4.487   7.077   5.508  0.6224  0.1356 -0.0830
 5493ntf    cn125681   5.582   0.534   6.874 -0.0069 -0.2369 -0.5739
 5493ntf    sn225682   5.447   0.629   6.949  0.3542 -0.1503 -0.0320
 5493ntf    nn325683   5.519   0.762   6.993  0.9438 -0.4530 -0.0699
 5493ntf    sn225684   5.545   0.815   7.138  0.0052 -0.1568 -0.0038
 5493ntf    cn125685   5.588   0.988   7.103 -0.5146 -0.0271 -0.0076
 5493ntf    fn425686   5.693   0.530   6.946 -0.0934 -0.1961 -0.4373
 5493ntf    fn425687   5.549   0.407   6.853 -0.2978 -0.3128  0.3257
 5493ntf    fn425688   5.611   0.585   6.755 -0.0299 -0.3128 -0.6124
 5493ntf    on525689   5.352   0.657   6.845 -0.0039 -0.0913  0.3074
 5493ntf    on525690   5.397   0.545   7.055 -0.5044 -0.1637 -0.4448
 5493ntf    on525691   5.660   0.762   7.208  0.3462  0.4193 -0.1222
 5493ntf    on525692   5.428   0.832   7.221 -0.1627 -0.0690 -0.2570
 5493ntf    fn425693   5.669   1.006   7.000 -0.0731 -0.3565  0.2813
 5493ntf    fn425694   5.481   1.063   7.079 -0.4357 -0.0264 -0.3592
 5493ntf    fn425695   5.648   1.040   7.209  0.4192  0.1261 -0.5972
 5494ntf    cn125696   2.118   5.777   6.407 -0.2219 -0.1767  0.2175
 5494ntf    sn225697   2.059   5.908   6.518  0.1241 -0.0089  0.2044
 5494ntf    nn325698   1.955   5.980   6.425  0.1875 -0.0205  0.1251
 5494ntf    sn225699   1.799   5.971   6.433  0.1749  0.0881  0.0055
 5494ntf    cn125700   1.745   6.129   6.503 -0.0802  0.0090 -0.0123
 5494ntf    fn425701   2.042   5.669   6.414 -0.2812 -0.1429  0.0885
 5494ntf    fn425702   2.132   5.819   6.282 -0.2889 -0.1447  0.2206
 5494ntf    fn425703   2.238   5.737   6.446  0.0855  0.1859 -0.3370
 5494ntf    on525704   2.000   5.827   6.622 -0.3533  0.2112  0.1061
 5494ntf    on525705   2.173   5.988   6.555  0.2201 -0.1597  0.2344
 5494ntf    on525706   1.738   5.875   6.523  0.6073  0.0292  0.2387
 5494ntf    on525707   1.741   5.978   6.301 -0.0487  0.3692  0.1178
 5494ntf    fn425708   1.819   6.170   6.605 -0.0551 -0.2709  0.0821
 5494ntf    fn425709   1.750   6.225   6.412 -0.2408 -0.5267 -0.5917
 5494ntf    fn425710   1.619   6.126   6.545 -0.3380  0.0087 -0.7808
 5495ntf    cn125711   4.193   2.946   1.845 -0.1447 -0.2890 -0.7335
 5495ntf    sn225712   4.320   2.823   1.890  0.0775  0.1212 -0.2264
 5495ntf    nn325713   4.316   2.715   1.776 -0.3300  0.1784 -0.2704
 5495ntf    sn225714   4.277   2.563   1.785  0.4190  0.0097  0.3197
 5495ntf    cn125715   4.397   2.507   1.660 -0.0104  0.1306 -0.1524
 5495ntf    fn425716   4.183   3.038   1.939  0.0371 -0.3197 -0.6826
 5495ntf    fn425717   4.224   3.001   1.729  0.9836 -0.1697 -0.3949
 5495ntf    fn425718   4.075   2.889   1.831 -0.2224 -0.3515  0.0994
 5495ntf    on525719   4.438   2.906   1.892  0.0198  0.1920  0.2834
 5495ntf    on525720   4.256   2.778   2.011  0.1986  0.3257 -0.0856
 5495ntf    on525721   4.142   2.537   1.741  0.3537 -0.5213  0.8206
 5495ntf    on525722   4.311   2.491   1.905 -0.0185  0.0188  0.4506
 5495ntf    fn425723   4.404   2.375   1.659 -0.3417  0.1108 -0.1331
 5495ntf    fn425724   4.357   2.542   1.539  0.0176 -0.0602 -0.2171
 5495ntf    fn425725   4.513   2.568   1.680  0.3829 -0.6854  0.1059
 5496ntf    cn125726   2.683   1.005   1.850  0.0366  0.2462 -0.1100
 5496ntf    sn225727   2.625   0.838   1.893  0.1753  0.2966  0.2720
 5496ntf    nn325728   2.656   0.751   1.767 -0.5158  0.1351  0.2062
 5496ntf    sn225729   2.578   0.737   1.631 -0.2489 -0.0132  0.0659
 5496ntf    cn125730   2.705   0.797   1.516 -0.1865  0.3816  0.3386
 5496ntf    fn425731   2.708   1.089   1.949  0.2955 -0.1714  0.1839
 5496ntf    fn425732   2.805   0.996   1.800  0.1723  0.4144  0.1899
 5496ntf    fn425733   2.615   1.073   1.758 -0.2914  0.2065  0.1004
 5496ntf    on525734   2.707   0.815   2.010 -0.0335 -0.4744  0.2725
 5496ntf    on525735   2.484   0.861   1.917  0.2578  0.3213  0.7550
 5496ntf    on525736   2.483   0.842   1.604 -0.7474 -0.5004 -0.0991
 5496ntf    on525737   2.544   0.605   1.584 -0.4653  0.0234  0.1178
 5496ntf    fn425738   2.819   0.731   1.505 -0.2957  0.2225  0.1610
 5496ntf    fn425739   2.660   0.796   1.392  0.3040  0.6135  0.1567
 5496ntf    fn425740   2.739   0.922   1.544  0.1631  0.1858  0.8003
 5497ntf    cn125741   7.275   2.593   1.979  0.1110  0.0111 -0.2478
 5497ntf    sn225742   7.094   2.611   1.977  0.0867 -0.2111 -0.0396
 5497ntf    nn325743   7.051   2.460   1.982 -0.2339 -0.1110  0.2902
 5497ntf    sn225744   6.998   2.368   1.867 -0.1819  0.0697  0.1221
 5497ntf    cn125745   6.824   2.417   1.887 -0.0933  0.3727  0.1501
 5497ntf    fn425746   7.313   2.531   1.869  0.0609  0.2181 -0.3843
 5497ntf    fn425747   7.335   2.711   1.982 -0.3374  0.2365  0.2073
 5497ntf    fn425748   7.319   2.528   2.086 -0.5391  0.3245  0.2228
 5497ntf    on525749   7.064   2.676   2.102  0.2365 -0.4866  0.1410
 5497ntf    on525750   7.067   2.686   1.857  0.7027 -0.2240 -0.1870
 5497ntf    on525751   7.004   2.228   1.904 -0.4824  0.1356  0.4271
 5497ntf    on525752   7.042   2.389   1.731 -0.2786 -0.7164 -0.0389
 5497ntf    fn425753   6.805   2.485   1.999 -0.6410  0.0361  0.2662
 5497ntf    fn425754   6.778   2.496   1.791  0.3097 -0.1697 -0.5012
 5497ntf    fn425755   6.743   2.313   1.888 -0.3505  0.5711  0.1374
 5498ntf    cn125756   2.880   5.723   1.706 -0.4329  0.0785  0.1931
 5498ntf    sn225757   2.920   5.696   1.881  0.0420 -0.0648  0.0638
 5498ntf    nn325758   3.036   5.591   1.862 -0.0332 -0.1560  0.1041
 5498ntf    sn225759   3.052   5.446   1.920  0.0521 -0.1774  0.0279
 5498ntf    cn125760   2.964   5.339   1.802 -0.0230 -0.4028  0.2876
 5498ntf    fn425761   2.985   5.763   1.635 -0.1968 -0.4639  0.2315
 5498ntf    fn425762   2.815   5.622   1.650 -0.4208  0.6402 -0.8629
 5498ntf    fn425763   2.789   5.817   1.689 -0.0747  0.3525 -0.2650
 5498ntf    on525764   2.960   5.828   1.923 -0.5025  0.1165  0.0091
 5498ntf    on525765   2.803   5.641   1.945 -0.0687 -0.2749 -0.3170
 5498ntf    on525766   2.991   5.425   2.049  0.1955  0.1958  0.1585
 5498ntf    on525767   3.188   5.401   1.907  0.2810  0.3589  0.4872
 5498ntf    fn425768   2.951   5.216   1.847  0.1693 -0.3970  0.3574
 5498ntf    fn425769   2.840   5.375   1.773 -0.0038 -0.3269  0.3001
 5498ntf    fn425770   3.031   5.330   1.689 -0.2367 -0.0521  0.1298
 5499ntf    cn125771   6.444   3.270   5.699 -0.3495  0.1746  0.2265
 5499ntf    sn225772   6.333   3.180   5.811 -0.3752  0.0035  0.0644
 5499ntf    nn325773   6.197   3.258   5.804 -0.1035  0.4301 -0.4956
 5499ntf    sn225774   6.143   3.373   5.896 -0.1830  0.1991 -0.2525
 5499ntf    cn125775   6.035   3.467   5.784 -0.1697  0.5275  0.0078
 5499ntf    fn425776   6.550   3.197   5.668 -0.3216  0.1964  0.2682
 5499ntf    fn425777   6.390   3.315   5.587 -0.2248  0.0962  0.1343
 5499ntf    fn425778   6.500   3.377   5.753 -0.0439 -0.0407  0.3395
 5499ntf    on525779   6.329   3.051   5.748  0.0212  0.0085  0.0267
 5499ntf    on525780   6.391   3.183   5.943 -0.1538  1.0330 -0.0472
 5499ntf    on525781   6.234   3.478   5.936 -0.2113  0.1244  0.0150
 5499ntf    on525782   6.043   3.332   5.991  0.0487  0.3044  0.0407
 5499ntf    fn425783   5.930   3.400   5.739  0.3212  0.0973 -0.5079
 5499ntf    fn425784   5.983   3.580   5.830 -0.0520  0.7237 -0.3442
 5499ntf    fn425785   6.104   3.504   5.678  0.3913 -0.0741  0.1577
 5500ntf    cn125786   1.283   2.718   2.579 -0.1256  0.1554 -0.1287
 5500ntf    sn225787   1.126   2.731   2.668 -0.0701  0.0341 -0.0118
 5500ntf    nn325788   1.047   2.834   2.579 -0.3423 -0.3681 -0.2366
 5500ntf    sn225789   0.919   2.913   2.621 -0.1745 -0.0076 -0.3937
 5500ntf    cn125790   0.971   3.079   2.568 -0.0020 -0.0505 -0.3575
 5500ntf    fn425791   1.352   2.615   2.626  0.0692  0.3185 -0.0547
 5500ntf    fn425792   1.264   2.695   2.450  1.0443 -0.1690 -0.2627
 5500ntf    fn425793   1.361   2.825   2.581  0.0192  0.0591 -0.5420
 5500ntf    on525794   1.070   2.599   2.656 -0.0895  0.0485 -0.0787
 5500ntf    on525795   1.165   2.781   2.798 -0.1256  0.0489 -0.0003
 5500ntf    on525796   0.892   2.920   2.763 -0.1607 -0.1328 -0.3845
 5500ntf    on525797   0.801   2.878   2.546 -0.2112 -0.6143 -0.0588
 5500ntf    fn425798   0.993   3.092   2.438  0.2358  0.1035 -0.3034
 5500ntf    fn425799   0.885   3.173   2.602 -0.0815 -0.2797  0.0796
 5500ntf    fn425800   1.080   3.107   2.636  0.0448  0.3269 -0.5860
 5501ntf    cn125801   0.023   1.914   5.666 -0.1426  0.1220 -0.2671
 5501ntf    sn225802  -0.099   1.780   5.654 -0.0864  0.0418  0.0535
 5501ntf    nn325803  -0.224   1.864   5.609  0.1429  0.0447 -0.5964
 5501ntf    sn225804  -0.370   1.842   5.662  0.2430 -0.1878 -0.4156
 5501ntf    cn125805  -0.453   1.902   5.512 -0.2219  0.1838 -0.0139
 5501ntf    fn425806  -0.018   2.009   5.748 -0.0887  0.2272 -0.3603
 5501ntf    fn425807   0.139   1.868   5.710 -0.3509 -0.1160  0.0338
 5501ntf    fn425808   0.048   1.975   5.551  0.3811  0.4079 -0.0071
 5501ntf    on525809  -0.046   1.697   5.548  0.6844  0.4801  0.0853
 5501ntf    on525810  -0.088   1.732   5.790  0.3088  0.1789  0.0712
 5501ntf    on525811  -0.408   1.923   5.776  0.3484  0.2738 -0.7080
 5501ntf    on525812  -0.421   1.707   5.666 -0.1119 -0.0461  0.0123
 5501ntf    fn425813  -0.405   2.014   5.460  0.0042  0.1077  0.0272
 5501ntf    fn425814  -0.450   1.811   5.416 -0.4031 -0.3403  0.4699
 5501ntf    fn425815  -0.579   1.928   5.542 -0.2604  0.3048 -0.2765
 5502ntf    cn125816   3.231   1.049   3.273  0.2857 -0.0502  0.0714
 5502ntf    sn225817   3.287   0.960   3.124 -0.0325 -0.1046 -0.0153
 5502ntf    nn325818   3.221   1.059   3.021 -0.0880 -0.2174 -0.0880
 5502ntf    sn225819   3.294   1.164   2.930 -0.0485  0.0418  0.2389
 5502ntf    cn125820   3.154   1.236   2.838 -0.0637 -0.1058  0.1456
 5502ntf    fn425821   3.280   1.172   3.277 -0.0012  0.0544  0.4076
 5502ntf    fn425822   3.103   1.052   3.304  0.3560 -0.1169  0.3719
 5502ntf    fn425823   3.283   0.981   3.374 -0.0701 -0.1935  0.1587
 5502ntf    on525824   3.431   0.962   3.119 -0.0282 -0.6462 -0.0848
 5502ntf    on525825   3.229   0.828   3.128  0.0840 -0.1786 -0.7349
 5502ntf    on525826   3.377   1.105   2.828 -0.4712 -0.2085  0.0336
 5502ntf    on525827   3.350   1.273   3.005 -0.1885  0.2911 -0.0146
 5502ntf    fn425828   3.082   1.142   2.779  0.1562 -0.6099  0.6666
 5502ntf    fn425829   3.074   1.310   2.913  0.3674 -0.1311  0.6370
 5502ntf    fn425830   3.184   1.319   2.739  0.4509  0.1738  0.5280
 5503ntf    cn125831   6.567   3.598   5.457 -0.3497  0.1149  0.0985
 5503ntf    sn225832   6.702   3.532   5.356 -0.3629 -0.0268  0.1730
 5503ntf    nn325833   6.625   3.434   5.260 -0.2257 -0.0861  0.1230
 5503ntf    sn225834   6.592   3.447   5.108  0.5982 -0.0626 -0.0585
 5503ntf    cn125835   6.411   3.465   5.118  0.5700 -0.1296 -0.4130
 5503ntf    fn425836   6.501   3.511   5.533  0.0755 -0.1613  0.1533
 5503ntf    fn425837   6.627   3.684   5.538  0.0137 -0.0578  0.0140
 5503ntf    fn425838   6.471   3.661   5.392 -0.3964 -0.1481 -0.0882
 5503ntf    on525839   6.755   3.650   5.292  0.2179 -0.3527  0.0414
 5503ntf    on525840   6.777   3.466   5.460  0.2047  0.3079 -0.0151
 5503ntf    on525841   6.619   3.322   5.042 -0.1085 -0.0919 -0.3036
 5503ntf    on525842   6.630   3.565   5.034 -0.8138  0.6664  0.3507
 5503ntf    fn425843   6.350   3.367   5.182 -0.2358  0.3958 -0.3662
 5503ntf    fn425844   6.381   3.570   5.192  0.3982 -0.4893  0.0313
 5503ntf    fn425845   6.359   3.477   4.997 -0.2128  0.2487 -0.0407
 5504ntf    cn125846   5.653   3.903   6.816  0.4457  0.0381 -0.0483
 5504ntf    sn225847   5.674   3.873   6.638 -0.0415  0.0511 -0.1086
 5504ntf    nn325848   5.528   3.829   6.601 -0.0040  0.1551 -0.3795
 5504ntf    sn225849   5.464   3.691   6.562 -0.0126  0.1063 -0.1906
 5504ntf    cn125850   5.458   3.685   6.381  0.0094  0.0888 -0.1910
 5504ntf    fn425851   5.557   3.993   6.832  0.0409 -0.4271  0.1755
 5504ntf    fn425852   5.609   3.801   6.888  0.2505  0.0575 -0.1409
 5504ntf    fn425853   5.762   3.940   6.881  0.1493 -0.0807  0.5223
 5504ntf    on525854   5.713   4.000   6.581  0.0305 -0.2497 -0.7426
 5504ntf    on525855   5.778   3.774   6.635  0.0316  0.1413 -0.7980
 5504ntf    on525856   5.326   3.688   6.605  0.0242 -0.3806 -0.1011
 5504ntf    on525857   5.541   3.574   6.599 -0.1216  0.0690 -0.0803
 5504ntf    fn425858   5.359   3.610   6.335  0.3611 -0.3082 -0.3173
 5504ntf    fn425859   5.430   3.801   6.324 -0.0345  0.1698 -0.0027
 5504ntf    fn425860   5.563   3.641   6.313  0.2337  0.3753 -0.0336
 5505ntf    cn125861   6.189   3.614   1.507  0.0946  0.0523 -0.1342
 5505ntf    sn225862   6.264   3.643   1.670 -0.2600  0.2886 -0.0117
 5505ntf    nn325863   6.398   3.712   1.628 -0.0930 -0.2864 -0.4321
 5505ntf    sn225864   6.447   3.860   1.645  0.0971 -0.4372  0.3479
 5505ntf    cn125865   6.571   3.869   1.513 -0.4619 -0.2941 -0.1683
 5505ntf    fn425866   6.062   3.577   1.519  0.0130  0.4615  0.3075
 5505ntf    fn425867   6.193   3.727   1.438  0.3044  0.6055  0.7656
 5505ntf    fn425868   6.241   3.525   1.424 -0.0492  0.0854 -0.2610
 5505ntf    on525869   6.173   3.723   1.749  0.0217  0.5608  0.0385
 5505ntf    on525870   6.291   3.506   1.707 -0.4625  0.2999  0.1844
 5505ntf    on525871   6.528   3.879   1.763  0.0765 -0.7359  0.4100
 5505ntf    on525872   6.347   3.957   1.608 -0.2384 -1.0031 -0.2462
 5505ntf    fn425873   6.613   3.990   1.478 -0.2065 -0.4659 -0.4643
 5505ntf    fn425874   6.678   3.797   1.541 -0.4077 -0.3134 -0.4191
 5505ntf    fn425875   6.530   3.822   1.396  0.4598 -1.2306 -0.1249
 5506ntf    cn125876   1.427   4.747   4.760 -0.3063  0.0985 -0.1188
 5506ntf    sn225877   1.490   4.643   4.624  0.3347 -0.2499  0.4341
 5506ntf    nn325878   1.377   4.673   4.518  0.7548  0.1428  0.0956
 5506ntf    sn225879   1.313   4.578   4.411 -0.1621  0.1904  0.5957
 5506ntf    cn125880   1.346   4.689   4.271  0.2867 -0.3367  0.2803
 5506ntf    fn425881   1.306   4.711   4.798 -0.1613  0.4771  0.7026
 5506ntf    fn425882   1.509   4.725   4.861  0.1326  0.1116 -0.4676
 5506ntf    fn425883   1.426   4.875   4.726 -0.1647  0.0481 -0.3177
 5506ntf    on525884   1.614   4.705   4.584  0.1806 -0.0673  0.2324
 5506ntf    on525885   1.492   4.509   4.676 -0.2689 -0.5202 -0.2267
 5506ntf    on525886   1.169   4.575   4.402 -0.1529  0.4076  0.3841
 5506ntf    on525887   1.386   4.456   4.386  0.0036  0.3726  0.1916
 5506ntf    fn425888   1.301   4.639   4.157  0.6398 -0.2886  0.1195
 5506ntf    fn425889   1.281   4.802   4.292  0.3803 -0.2283 -0.0056
 5506ntf    fn425890   1.472   4.725   4.257  0.2855 -0.2833  0.3995
 5507ntf    cn125891   6.065   0.069   7.336  0.1772  0.0567  0.4884
 5507ntf    sn225892   5.938   0.048   7.209  0.3928  0.0235  0.2774
 5507ntf    nn325893   6.030   0.007   7.088 -0.3289 -0.0173 -0.2680
 5507ntf    sn225894   6.075  -0.137   7.043  0.0568  0.1099 -0.2822
 5507ntf    cn125895   6.254  -0.114   7.018  0.0882  0.4979  0.2787
 5507ntf    fn425896   6.173   0.132   7.292  0.0017 -0.3834 -0.6067
 5507ntf    fn425897   6.023   0.127   7.448 -0.4699  0.3314  0.1079
 5507ntf    fn425898   6.110  -0.045   7.386  0.2880 -0.2422 -0.2828
 5507ntf    on525899   5.850  -0.055   7.259  0.2131 -0.3169 -0.7150
 5507ntf    on525900   5.881   0.178   7.185 -0.2654 -0.2942  0.0837
 5507ntf    on525901   6.036  -0.169   6.908 -0.0006  0.9150 -0.4633
 5507ntf    on525902   6.064  -0.237   7.146 -0.2919  0.3844 -0.0511
 5507ntf    fn425903   6.309  -0.129   7.137 -0.4517 -0.9865  0.3624
 5507ntf    fn425904   6.321  -0.194   6.937 -0.2103  0.0582  0.4634
 5507ntf    fn425905   6.278   0.011   6.982  0.2855  0.3111 -0.2487
 5508ntf    cn125906   5.393   5.258   5.125  0.0523  0.0612  0.1052
 5508ntf    sn225907   5.257   5.142   5.159  0.1787 -0.1159  0.0113
 5508ntf    nn325908   5.221   5.091   5.016  0.5379  0.1189 -0.1639
 5508ntf    sn225909   5.097   5.119   4.923  0.0599 -0.3090  0.3346
 5508ntf    cn125910   5.111   5.297   4.885 -0.5040 -0.2298  0.4885
 5508ntf    fn425911   5.358   5.374   5.071  0.1751 -0.0870 -0.2910
 5508ntf    fn425912   5.444   5.308   5.236 -0.2893  0.8097 -0.0678
 5508ntf    fn425913   5.488   5.200   5.054  0.1848  0.1710  0.1935
 5508ntf    on525914   5.324   5.042   5.238  0.4047  0.5568  0.6959
 5508ntf    on525915   5.153   5.218   5.225 -0.1168  0.2808 -0.8962
 5508ntf    on525916   4.969   5.098   4.985 -0.2455 -0.8478 -0.4646
 5508ntf    on525917   5.120   5.054   4.796 -0.5209  0.5255 -0.2103
 5508ntf    fn425918   5.004   5.347   4.825 -0.3223 -0.5500 -0.1210
 5508ntf    fn425919   5.137   5.374   4.988  0.3941  0.7949 -0.4767
 5508ntf    fn425920   5.211   5.315   4.800 -0.9658  0.1645  0.0232
 5509ntf    cn125921   5.142   1.442   1.308  0.4026 -0.1817  0.0866
 5509ntf    sn225922   4.991   1.467   1.406  0.5090  0.0636  0.1892
 5509ntf    nn325923   4.903   1.356   1.338 -0.2080  0.6239  0.1905
 5509ntf    sn225924   4.791   1.352   1.228 -0.0161  0.2090  0.0079
 5509ntf    cn125925   4.877   1.275   1.088  0.0063 -0.0478  0.1622
 5509ntf    fn425926   5.107   1.468   1.183 -0.4715 -0.0230  0.3605
 5509ntf    fn425927   5.235   1.531   1.336  0.5765 -0.3472  0.0361
 5509ntf    fn425928   5.191   1.319   1.311 -0.0636 -0.3892 -0.5493
 5509ntf    on525929   5.031   1.430   1.539  0.1759  0.5577  0.4299
 5509ntf    on525930   4.952   1.603   1.379 -0.8020 -0.4225 -0.4895
 5509ntf    on525931   4.741   1.477   1.178  0.3860  0.1918 -0.4398
 5509ntf    on525932   4.687   1.254   1.252  0.0753  0.0309 -0.3151
 5509ntf    fn425933   4.920   1.151   1.109  0.0887 -0.0690 -0.1287
 5509ntf    fn425934   4.810   1.272   0.974 -0.1726  0.1266  0.2608
 5509ntf    fn425935   4.983   1.346   1.057 -0.3004  0.4829  0.3145
 5510ntf    cn125936   5.520   2.655   3.217  0.2508 -0.2842 -0.4198
 5510ntf    sn225937   5.361   2.590   3.158 -0.1732  0.1489  0.2322
 5510ntf    nn325938   5.411   2.451   3.106  0.0725  0.1325  0.5103
 5510ntf    sn225939   5.380   2.310   3.167 -0.0880  0.0281  0.1943
 5510ntf    cn125940   5.401   2.202   3.022 -0.0915  0.2064  0.0606
 5510ntf    fn425941   5.583   2.568   3.295 -0.7693 -0.4884  0.2063
 5510ntf    fn425942   5.601   2.702   3.124  0.6064  0.3184  0.1875
 5510ntf    fn425943   5.499   2.757   3.299 -0.1283 -0.4527 -0.3051
 5510ntf    on525944   5.272   2.595   3.272 -0.4095  0.3615  0.0411
 5510ntf    on525945   5.318   2.677   3.051  0.2966 -0.1429 -0.1932
 5510ntf    on525946   5.246   2.276   3.206 -0.0408 -0.2312  0.1296
 5510ntf    on525947   5.487   2.273   3.256  0.2427  0.1233 -0.1604
 5510ntf    fn425948   5.520   2.203   2.963 -0.0541  0.2853  0.1353
 5510ntf    fn425949   5.365   2.078   3.050 -0.0666  0.1511 -0.1555
 5510ntf    fn425950   5.314   2.234   2.929 -0.1285 -0.0829 -0.0038
 5511ntf    cn125951   1.936   4.450   1.113  0.1269  0.6448  0.1548
 5511ntf    sn225952   1.867   4.296   1.180  0.2945  0.5470  0.1019
 5511ntf    nn325953   1.811   4.355   1.314 -0.2502 -0.1470  0.1839
 5511ntf    sn225954   1.855   4.325   1.461 -0.1293 -0.0714  0.1627
 5511ntf    cn125955   1.706   4.385   1.545 -0.0437 -0.3461  0.5137
 5511ntf    fn425956   1.950   4.453   0.981  0.1049  0.2539  0.1432
 5511ntf    fn425957   1.857   4.550   1.148 -0.9077  0.0095 -0.3299
 5511ntf    fn425958   2.057   4.477   1.159  0.3187  0.2624 -0.1144
 5511ntf    on525959   1.769   4.254   1.083  0.4743  0.1107  0.1037
 5511ntf    on525960   1.984   4.212   1.194 -0.1628 -0.1239 -0.0554
 5511ntf    on525961   1.963   4.408   1.509 -0.1703  0.3861 -0.5268
 5511ntf    on525962   1.863   4.183   1.487  0.2460 -0.1890 -0.5584
 5511ntf    fn425963   1.731   4.429   1.667  0.3164 -0.2059  0.3887
 5511ntf    fn425964   1.644   4.481   1.479  0.1641 -0.2084  0.5202
 5511ntf    fn425965   1.623   4.281   1.553 -0.4088 -0.0942  0.0594
 5512ntf    cn125966   2.360   2.116   6.793 -0.5134 -0.1174 -0.1420
 5512ntf    sn225967   2.346   2.186   6.961  0.5324 -0.3191  0.0342
 5512ntf    nn325968   2.191   2.191   6.979  0.5840 -0.7422  0.5842
 5512ntf    sn225969   2.099   2.077   7.038  0.0685 -0.5343  0.1902
 5512ntf    cn125970   1.937   2.148   6.996  0.1915 -0.1551  0.3533
 5512ntf    fn425971   2.251   2.144   6.723 -0.1051  0.8098 -0.4239
 5512ntf    fn425972   2.462   2.153   6.717 -0.0383 -1.0010  0.0482
 5512ntf    fn425973   2.362   1.984   6.799  0.5704 -0.0998 -0.0247
 5512ntf    on525974   2.417   2.095   7.047  0.1808 -0.4788  0.1549
 5512ntf    on525975   2.404   2.318   6.948 -0.3551  0.0283 -0.4849
 5512ntf    on525976   2.105   2.076   7.182 -0.6151 -0.1412  0.2266
 5512ntf    on525977   2.109   1.947   6.977 -0.2740 -0.4350 -0.0797
 5512ntf    fn425978   1.847   2.093   7.076  0.0614  0.2544  0.4921
 5512ntf    fn425979   1.929   2.278   7.019  0.3891 -0.0452 -0.1800
 5512ntf    fn425980   1.897   2.123   6.872  0.2609 -0.0553  0.3100
 5513ntf    cn125981   5.478   4.907   6.558  0.1229  0.0439  0.0117
 5513ntf    sn225982   5.572   4.754   6.534  0.1993  0.0792  0.0843
 5513ntf    nn325983   5.455   4.652   6.511  0.4165 -0.1718  0.0697
 5513ntf    sn225984   5.462   4.501   6.470 -0.1102 -0.1237 -0.2115
 5513ntf    cn125985   5.315   4.438   6.555  0.1015 -0.3377 -0.0019
 5513ntf    fn425986   5.421   4.905   6.677 -0.3622 -0.2424 -0.2254
 5513ntf    fn425987   5.551   5.017   6.556  0.3311 -0.0978 -0.2114
 5513ntf    fn425988   5.374   4.912   6.477 -0.0478  0.1980  0.2398
 5513ntf    on525989   5.649   4.795   6.419 -0.3474  0.4604 -0.1469
 5513ntf    on525990   5.645   4.742   6.658  0.3800 -0.0652 -0.0351
 5513ntf    on525991   5.576   4.433   6.528  0.0094  0.5146  0.3151
 5513ntf    on525992   5.430   4.496   6.329  0.0525 -0.0425 -0.2520
 5513ntf    fn425993   5.329   4.446   6.686 -0.0911  0.2174 -0.0133
 5513ntf    fn425994   5.208   4.514   6.538  0.6874  0.4313 -0.2970
 5513ntf    fn425995   5.274   4.318   6.517  0.0196 -0.3920  0.2532
 5514ntf    cn125996   6.692   0.896   5.629 -0.4519 -0.0703 -0.3157
 5514ntf    sn225997   6.862   0.961   5.625 -0.4676  0.0014  0.1711
 5514ntf    nn325998   6.837   1.112   5.663  0.8636  0.2386  0.1447
 5514ntf    sn225999   6.849   1.242   5.575 -0.1234  0.0333 -0.3073
 5514ntf    cn126000   6.852   1.372   5.702  0.5404 -0.0984 -0.1848
 5514ntf    fn426001   6.610   0.960   5.548 -0.6152  0.1233 -0.0003
 5514ntf    fn426002   6.682   0.769   5.592 -0.0397 -0.2533  0.1902
 5514ntf    fn426003   6.643   0.888   5.752 -0.2983  0.0661 -0.2455
 5514ntf    on526004   6.926   0.897   5.737  0.1956  0.3643  0.0003
 5514ntf    on526005   6.923   0.932   5.498  0.0060  0.4814  0.2874
 5514ntf    on526006   6.731   1.266   5.495 -0.5950  0.0009  0.3623
 5514ntf    on526007   6.974   1.259   5.507  0.1517  0.0840  0.2044
 5514ntf    fn426008   6.896   1.491   5.665  0.1294  0.0057 -0.3434
 5514ntf    fn426009   6.736   1.391   5.763  0.2859 -0.2364 -0.6238
 5514ntf    fn426010   6.925   1.352   5.810 -0.3322 -0.1934  0.3998
 5515ntf    cn126011   4.721   7.307   5.026  0.1048  0.1324  0.1296
 5515ntf    sn226012   4.594   7.426   4.974  0.0600  0.1705  0.3247
 5515ntf    nn326013   4.477   7.357   5.051  0.1890  0.1024  0.4598
 5515ntf    sn226014   4.400   7.396   5.183 -0.3738 -0.0245  0.1718
 5515ntf    cn126015   4.239   7.317   5.151 -0.3288 -0.1219  0.1825
 5515ntf    fn426016   4.846   7.331   4.991  0.1262 -0.2719 -0.0755
 5515ntf    fn426017   4.699   7.301   5.156 -0.0125 -0.6299  0.0802
 5515ntf    fn426018   4.717   7.180   4.986  0.0564  0.1978 -0.0762
 5515ntf    on526019   4.642   7.550   5.031  0.3943  0.1339  0.1289
 5515ntf    on526020   4.589   7.415   4.830 -0.1539 -0.7079  0.3968
 5515ntf    on526021   4.368   7.535   5.198 -0.8445 -0.1171  0.0544
 5515ntf    on526022   4.459   7.328   5.295  0.4369  0.5001  0.0705
 5515ntf    fn426023   4.233   7.185   5.158  0.1847 -0.1432  0.2116
 5515ntf    fn426024   4.148   7.359   5.238 -0.2162  0.2012  0.1453
 5515ntf    fn426025   4.187   7.350   5.034 -0.3510 -0.6780  0.0350
 5516ntf    cn126026   6.904   5.554   0.620 -0.0374  0.3485  0.1446
 5516ntf    sn226027   6.864   5.615   0.454  0.0183  0.1388  0.0542
 5516ntf    nn326028   6.707   5.614   0.447  0.0338 -0.0292 -0.3028
 5516ntf    sn226029   6.610   5.542   0.347 -0.0764 -0.2951 -0.0068
 5516ntf    cn126030   6.494   5.677   0.311  0.3573  0.1216  0.1485
 5516ntf    fn426031   7.031   5.577   0.650  0.1194 -0.1554 -0.1246
 5516ntf    fn426032   6.827   5.613   0.711 -0.0819 -0.4468  0.6273
 5516ntf    fn426033   6.893   5.423   0.627  0.2158  0.2881 -0.5628
 5516ntf    on526034   6.909   5.752   0.443  0.2576  0.0437 -0.1527
 5516ntf    on526035   6.917   5.518   0.363 -0.2514  0.3932 -0.3794
 5516ntf    on526036   6.530   5.446   0.419 -0.2585  0.4539  0.8018
 5516ntf    on526037   6.667   5.506   0.219  0.1856 -0.2543  0.0970
 5516ntf    fn426038   6.532   5.759   0.215  0.3844  0.6153  0.5785
 5516ntf    fn426039   6.376   5.635   0.268  0.2434  0.3489  0.2399
 5516ntf    fn426040   6.478   5.749   0.421 -0.7268  0.1920 -0.0505
 5517ntf    cn126041   3.892   5.187   4.954  0.0062 -0.3597 -0.0320
 5517ntf    sn226042   3.893   5.045   4.840 -0.1361 -0.3954  0.0105
 5517ntf    nn326043   3.829   4.934   4.930  0.0122 -0.5644 -0.0940
 5517ntf    sn226044   3.683   4.878   4.919 -0.1553 -0.2226  0.3517
 5517ntf    cn126045   3.625   4.900   5.090  0.0893 -0.2039  0.4331
 5517ntf    fn426046   3.769   5.230   4.977  0.2002  0.2473 -0.1204
 5517ntf    fn426047   3.941   5.160   5.074  0.3850 -0.1333 -0.1353
 5517ntf    fn426048   3.955   5.293   4.906 -0.0077 -0.2272  0.2389
 5517ntf    on526049   3.823   5.089   4.722  0.1343 -0.0555 -0.0239
 5517ntf    on526050   4.034   5.018   4.836 -0.0382  0.1257 -0.2021
 5517ntf    on526051   3.688   4.734   4.909  0.8924 -0.1464 -0.3455
 5517ntf    on526052   3.582   4.936   4.833  0.1052  0.1176  0.2753
 5517ntf    fn426053   3.691   4.835   5.183  0.2430 -0.8183 -0.0976
 5517ntf    fn426054   3.638   5.030   5.113 -0.2071 -0.1100  0.0879
 5517ntf    fn426055   3.499   4.861   5.100 -0.2440  0.5621 -0.5984
 5518ntf    cn126056   1.223   6.569   6.862 -0.0435  0.2111  0.0766
 5518ntf    sn226057   1.118   6.478   6.745  0.1060 -0.0997  0.1859
 5518ntf    nn326058   0.979   6.458   6.817  0.1363  0.4203  0.3954
 5518ntf    sn226059   0.832   6.508   6.795  0.0629  0.0889  0.1049
 5518ntf    cn126060   0.820   6.640   6.920 -0.0787 -0.0589  0.2480
 5518ntf    fn426061   1.353   6.570   6.840 -0.0409 -0.5889  0.0436
 5518ntf    fn426062   1.199   6.699   6.851  0.0748  0.2214 -0.0571
 5518ntf    fn426063   1.205   6.535   6.988 -0.2099 -0.2766 -0.0763
 5518ntf    on526064   1.114   6.564   6.630 -0.2541  0.1592  0.3902
 5518ntf    on526065   1.193   6.357   6.721 -0.2400 -0.1143 -0.8715
 5518ntf    on526066   0.730   6.418   6.844  0.3530 -0.4419 -0.2523
 5518ntf    on526067   0.805   6.575   6.671 -0.3586 -0.4900 -0.1191
 5518ntf    fn426068   0.696   6.682   6.939  0.2197  0.8652  0.1856
 5518ntf    fn426069   0.863   6.597   7.037 -0.6881 -0.3218  0.3802
 5518ntf    fn426070   0.896   6.745   6.892  0.0215 -0.2225 -0.1033
 5519ntf    cn126071   0.561   0.465   4.589  0.1305  0.0648 -0.0651
 5519ntf    sn226072   0.580   0.285   4.573 -0.4134 -0.0065  0.0522
 5519ntf    nn326073   0.735   0.268   4.595 -0.5028 -1.1308 -0.1510
 5519ntf    sn226074   0.811   0.244   4.730  0.1832  0.0727 -0.3205
 5519ntf    cn126075   0.936   0.375   4.709  0.3541 -0.0661 -0.1713
 5519ntf    fn426076   0.650   0.530   4.515 -0.3711  0.1075 -0.6353
 5519ntf    fn426077   0.443   0.503   4.544  0.0270 -0.0217  0.1296
 5519ntf    fn426078   0.583   0.501   4.715  0.0747 -0.0632 -0.0178
 5519ntf    on526079   0.497   0.222   4.672 -0.3062  0.5997  0.5350
 5519ntf    on526080   0.544   0.255   4.436  0.1637 -0.4503 -0.0055
 5519ntf    on526081   0.884   0.120   4.726 -0.0693 -0.0572 -0.8971
 5519ntf    on526082   0.739   0.275   4.851  0.0213 -0.1247 -0.3659
 5519ntf    fn426083   0.987   0.381   4.587  0.0995  0.3052 -0.2612
 5519ntf    fn426084   0.885   0.497   4.717  0.0055 -0.1986 -0.3422
 5519ntf    fn426085   1.036   0.365   4.794  0.4374  0.2494 -0.2311
 5520ntf    cn126086   5.747   7.313   1.892  0.1449  0.3575 -0.2560
 5520ntf    sn226087   5.898   7.317   1.792  0.3547 -0.2538  0.0287
 5520ntf    nn326088   5.852   7.411   1.675  0.2853 -0.2929  0.0243
 5520ntf    sn226089   5.878   7.565   1.660  0.2100 -0.2781  0.0486
 5520ntf    cn126090   6.059   7.578   1.644  0.2257 -0.1117  0.3478
 5520ntf    fn426091   5.768   7.229   1.992  0.1866 -0.1995 -0.7258
 5520ntf    fn426092   5.689   7.426   1.929  0.3748  0.4027 -0.0339
 5520ntf    fn426093   5.650   7.256   1.821  0.0729  0.0451  0.0882
 5520ntf    on526094   5.989   7.386   1.880 -0.2951  0.4333  0.1665
 5520ntf    on526095   5.929   7.179   1.761 -0.0560 -0.2956 -0.2008
 5520ntf    on526096   5.833   7.642   1.774  0.2255  0.6834 -0.5836
 5520ntf    on526097   5.827   7.620   1.537 -0.5497 -0.4156  0.2996
 5520ntf    fn426098   6.106   7.684   1.581 -0.5211  0.1099  0.1572
 5520ntf    fn426099   6.112   7.580   1.766  0.3327 -0.2598  0.3042
 5520ntf    fn426100   6.109   7.477   1.575  0.0051  0.2285 -0.3112
 5521ntf    cn126101   0.746   4.675   2.654  0.3918  0.2362  0.1614
 5521ntf    sn226102   0.569   4.666   2.694  0.3474 -0.2906 -0.1410
 5521ntf    nn326103   0.573   4.702   2.847  0.0642 -0.2502 -0.1442
 5521ntf    sn226104   0.540   4.619   2.977  0.0342 -0.4010 -0.2474
 5521ntf    cn126105   0.710   4.570   3.016  0.2200  0.2943 -0.1661
 5521ntf    fn426106   0.787   4.799   2.674 -0.1888  0.3737  0.5090
 5521ntf    fn426107   0.827   4.595   2.723 -0.0850 -0.4075 -0.0128
 5521ntf    fn426108   0.757   4.646   2.525  0.3652  0.6579  0.0652
 5521ntf    on526109   0.506   4.763   2.609  0.9748  0.3549  0.1213
 5521ntf    on526110   0.545   4.526   2.670  0.1679 -0.2329 -0.2988
 5521ntf    on526111   0.466   4.496   2.963 -0.1748 -0.3435  0.3474
 5521ntf    on526112   0.499   4.702   3.087  0.1988 -0.6412 -0.0031
 5521ntf    fn426113   0.794   4.672   3.027  0.3275  0.1682  0.1842
 5521ntf    fn426114   0.728   4.499   3.126  0.5549  0.1355 -0.3202
 5521ntf    fn426115   0.756   4.490   2.921 -0.2102 -0.0358 -0.0989
 5522ntf    cn126116   4.999   0.646   3.495 -0.2117  0.2608  0.2928
 5522ntf    sn226117   5.001   0.775   3.367  0.2443  0.2503  0.2874
 5522ntf    nn326118   4.999   0.899   3.463 -0.0531 -0.4177  1.1578
 5522ntf    sn226119   5.119   0.990   3.507  0.0521 -0.0674  0.1691
 5522ntf    cn126120   5.047   1.040   3.666  0.2651 -0.3454  0.3539
 5522ntf    fn426121   5.103   0.658   3.577  0.3355 -0.0386 -0.3538
 5522ntf    fn426122   4.889   0.649   3.569 -0.3059 -0.0597  0.1678
 5522ntf    fn426123   4.986   0.524   3.445  0.8298  0.3020 -0.1023
 5522ntf    on526124   5.130   0.757   3.306 -0.0971  0.0606 -0.3823
 5522ntf    on526125   4.881   0.757   3.288  0.7349 -0.4649 -0.3001
 5522ntf    on526126   5.126   1.112   3.430 -0.0607  0.0170  0.2910
 5522ntf    on526127   5.243   0.925   3.544  0.2267  0.1223 -0.0768
 5522ntf    fn426128   5.070   0.965   3.773  0.2645 -0.2705  0.4072
 5522ntf    fn426129   5.088   1.160   3.706 -0.4741 -0.0054  0.1022
 5522ntf    fn426130   4.917   1.061   3.656  0.3285  0.0238  0.2775
 5523ntf    cn126131   2.947   4.897   0.773  0.0735  0.1274  0.1501
 5523ntf    sn226132   3.063   4.767   0.720 -0.1743 -0.0361  0.0108
 5523ntf    nn326133   2.973   4.639   0.738 -0.2002 -0.0393 -0.1398
 5523ntf    sn226134   2.973   4.530   0.850 -0.9197 -0.0274 -0.1231
 5523ntf    cn126135   2.794   4.501   0.864 -0.8852 -0.2540 -0.1374
 5523ntf    fn426136   2.910   4.878   0.899  0.4979 -0.0114  0.2584
 5523ntf    fn426137   3.017   5.009   0.784  0.7545 -0.3053  0.2921
 5523ntf    fn426138   2.839   4.924   0.702  0.3650  0.0725 -0.3178
 5523ntf    on526139   3.089   4.808   0.584  0.3944  0.4184  0.2547
 5523ntf    on526140   3.174   4.785   0.810 -0.1579  0.1529 -0.0478
 5523ntf    on526141   3.013   4.570   0.983 -0.3611 -0.1835 -0.2402
 5523ntf    on526142   3.027   4.403   0.807  0.5321  0.6596 -0.3996
 5523ntf    fn426143   2.736   4.615   0.898  0.0485  0.2264 -0.1223
 5523ntf    fn426144   2.736   4.451   0.756 -0.2186 -0.1085 -0.5667
 5523ntf    fn426145   2.768   4.424   0.968 -0.7014 -0.6622 -0.3943
 5524ntf    cn126146   6.818   4.418   5.591 -0.0280 -0.1109 -0.3063
 5524ntf    sn226147   6.956   4.536   5.595 -0.1960  0.0856 -0.3188
 5524ntf    nn326148   7.062   4.443   5.664 -0.3985 -0.2020 -0.3921
 5524ntf    sn226149   7.158   4.475   5.783 -0.1449  0.3119 -0.7297
 5524ntf    cn126150   7.039   4.453   5.919  0.2860 -0.6896 -0.5003
 5524ntf    fn426151   6.840   4.302   5.531 -0.4223 -0.4249  0.1497
 5524ntf    fn426152   6.775   4.394   5.714  0.7533  0.2574  0.0443
 5524ntf    fn426153   6.709   4.476   5.543  0.2652  0.2000 -0.6030
 5524ntf    on526154   6.994   4.564   5.459  0.3132 -0.0415 -0.2025
 5524ntf    on526155   6.911   4.644   5.679  0.2049 -0.7598  1.0136
 5524ntf    on526156   7.196   4.612   5.805 -0.1529  0.3100 -0.7037
 5524ntf    on526157   7.258   4.371   5.795 -0.4189  0.1779  0.5460
 5524ntf    fn426158   6.946   4.547   5.929  0.3108 -0.6653 -0.4940
 5524ntf    fn426159   6.969   4.343   5.897  0.1321 -0.6518 -0.2028
 5524ntf    fn426160   7.084   4.431   6.041 -0.2750  0.3067 -0.1058
 5525ntf    cn126161   5.863   1.293   6.084  0.0591 -0.2886  0.2311
 5525ntf    sn226162   5.833   1.196   5.933  0.2421  0.0976 -0.0563
 5525ntf    nn326163   5.692   1.133   5.963  0.4448 -0.8989 -1.1138
 5525ntf    sn226164   5.663   1.009   6.054 -0.1845  0.2449  0.2736
 5525ntf    cn126165   5.657   0.874   5.933  0.0730  0.4175  0.0675
 5525ntf    fn426166   5.961   1.382   6.081 -0.5622  0.3917 -0.3332
 5525ntf    fn426167   5.754   1.356   6.124 -0.1883 -0.2336 -0.4979
 5525ntf    fn426168   5.905   1.212   6.179 -0.4168  0.2178  0.8833
 5525ntf    on526169   5.832   1.291   5.825 -0.0683 -0.3650 -0.4675
 5525ntf    on526170   5.940   1.099   5.938  0.1884  0.0517  0.1972
 5525ntf    on526171   5.526   1.001   6.101 -0.1872 -0.3986  0.1652
 5525ntf    on526172   5.766   0.985   6.152 -0.3266  0.0054  0.3641
 5525ntf    fn426173   5.591   0.906   5.823 -0.4965 -0.2581  0.2046
 5525ntf    fn426174   5.778   0.842   5.891 -0.0990 -0.1552 -0.0098
 5525ntf    fn426175   5.607   0.762   5.983  0.6665 -0.0601 -0.4012
 5526ntf    cn126176   7.390   3.193   2.263  0.0601 -0.1459 -0.0334
 5526ntf    sn226177   7.393   3.172   2.082  0.1509 -0.1487 -0.0321
 5526ntf    nn326178   7.455   3.312   2.049 -0.7166  0.2799  0.1281
 5526ntf    sn226179   7.526   3.370   1.921  0.0540 -0.0374  0.4077
 5526ntf    cn126180   7.693   3.360   1.992  0.1583  0.3397  0.2148
 5526ntf    fn426181   7.312   3.100   2.314  0.1151  0.1441  0.5884
 5526ntf    fn426182   7.513   3.178   2.308  0.1035  0.0041 -0.0999
 5526ntf    fn426183   7.351   3.316   2.294 -0.0144 -0.1848  0.0260
 5526ntf    on526184   7.466   3.052   2.049  0.3886 -0.2046  0.6668
 5526ntf    on526185   7.253   3.175   2.049  0.0367  0.3842  0.4763
 5526ntf    on526186   7.510   3.512   1.901  0.2927 -0.1402 -0.5316
 5526ntf    on526187   7.547   3.286   1.806 -0.1945  0.0230  0.3179
 5526ntf    fn426188   7.733   3.238   2.022  0.1551  0.2450 -0.1603
 5526ntf    fn426189   7.776   3.397   1.895  0.2194  0.4408  0.3049
 5526ntf    fn426190   7.708   3.440   2.096  0.0973  0.2791  0.2700
 5527ntf    cn126191   0.397   2.018   3.831  0.0782  0.1398 -0.4564
 5527ntf    sn226192   0.344   1.844   3.816  0.1169  0.0973 -0.0990
 5527ntf    nn326193   0.203   1.871   3.753  0.0242 -0.0111  0.0619
 5527ntf    sn226194   0.154   1.838   3.608 -0.1479 -0.1048  0.1406
 5527ntf    cn126195   0.085   1.671   3.631 -0.4827  0.0415  0.2015
 5527ntf    fn426196   0.316   2.101   3.894 -0.1151 -0.5176  0.1761
 5527ntf    fn426197   0.508   2.040   3.899 -0.3024  0.3577  0.1032
 5527ntf    fn426198   0.421   2.063   3.709 -0.1362  0.0988 -0.5151
 5527ntf    on526199   0.449   1.775   3.745 -0.0569 -0.5572  0.2696
 5527ntf    on526200   0.329   1.800   3.952 -1.0573 -0.1383 -0.2987
 5527ntf    on526201   0.251   1.821   3.503 -0.8135  0.5033 -0.5884
 5527ntf    on526202   0.038   1.913   3.569 -0.0067 -0.2425 -0.5673
 5527ntf    fn426203   0.187   1.590   3.657 -0.7204 -0.4020 -0.2353
 5527ntf    fn426204   0.004   1.674   3.735 -0.0844 -0.9657  0.5465
 5527ntf    fn426205   0.013   1.631   3.528 -0.3635 -0.0272  0.1444
 5528ntf    cn126206   5.560   7.427   5.138  0.0597  0.6777 -0.1997
 5528ntf    sn226207   5.577   7.509   4.976  0.2739  0.0911 -0.4743
 5528ntf    nn326208   5.563   7.661   5.012  0.0206  0.0533 -0.4128
 5528ntf    sn226209   5.430   7.745   5.020  0.0195  0.0055  0.1104
 5528ntf    cn126210   5.425   7.808   4.850 -0.0773 -0.1063  0.0722
 5528ntf    fn426211   5.643   7.474   5.231 -0.3011  0.4953  0.2180
 5528ntf    fn426212   5.437   7.435   5.186 -0.0689  0.0113 -0.4160
 5528ntf    fn426213   5.583   7.297   5.131 -0.3293  0.6030 -0.1118
 5528ntf    on526214   5.714   7.485   4.937  0.4116  0.7003 -0.3745
 5528ntf    on526215   5.469   7.463   4.893  0.2778 -0.1737 -0.3355
 5528ntf    on526216   5.456   7.866   5.094 -0.1850  0.5760 -0.7460
 5528ntf    on526217   5.308   7.672   5.040  0.0064 -0.0045 -0.0050
 5528ntf    fn426218   5.529   7.878   4.809 -0.4933  0.1410 -0.5808
 5528ntf    fn426219   5.422   7.712   4.758 -0.5527  0.5239 -0.5845
 5528ntf    fn426220   5.321   7.884   4.823  0.0615  0.2163  0.4401
 5529ntf    cn126221   1.084   0.146   5.459  0.1584  0.2237  0.2549
 5529ntf    sn226222   1.048   0.196   5.288 -0.1197  0.2336  0.3153
 5529ntf    nn326223   1.144   0.319   5.270  0.1710 -0.0420 -0.0604
 5529ntf    sn226224   1.119   0.473   5.288 -0.1884 -0.0931 -0.1081
 5529ntf    cn126225   1.100   0.534   5.117  0.5530 -0.1310 -0.2099
 5529ntf    fn426226   0.999   0.055   5.504  0.3740 -0.1433 -0.0754
 5529ntf    fn426227   1.208   0.100   5.474  0.0649 -0.2511 -0.4151
 5529ntf    fn426228   1.064   0.242   5.548 -0.4649  0.1562  0.1865
 5529ntf    on526229   1.105   0.095   5.202  0.6097  0.7727  0.1534
 5529ntf    on526230   0.909   0.230   5.278  0.0112  0.8271  0.4647
 5529ntf    on526231   1.236   0.538   5.343 -0.1995 -0.1720  0.0084
 5529ntf    on526232   0.995   0.497   5.357 -0.0114 -0.2889  0.2806
 5529ntf    fn426233   1.090   0.665   5.123  0.0972 -0.1699 -0.0497
 5529ntf    fn426234   1.203   0.499   5.042  0.3227 -0.3952 -0.4058
 5529ntf    fn426235   0.992   0.483   5.060  0.0413  0.6299  0.0653
 5530ntf    cn126236   4.649   4.594   5.077  0.0576 -0.2716 -0.1430
 5530ntf    sn226237   4.561   4.503   5.207 -0.2538 -0.0268 -0.1804
 5530ntf    nn326238   4.426   4.584   5.207 -0.1606  0.1298 -0.0600
 5530ntf    sn226239   4.287   4.549   5.143 -0.0321 -0.2449 -0.1388
 5530ntf    cn126240   4.192   4.699   5.182  0.0381 -0.2918  0.2163
 5530ntf    fn426241   4.585   4.607   4.962 -0.3788 -0.3210  0.0928
 5530ntf    fn426242   4.674   4.718   5.114 -0.0733 -0.2179 -0.2301
 5530ntf    fn426243   4.766   4.542   5.043  0.1555 -0.2564  0.1709
 5530ntf    on526244   4.565   4.364   5.169  0.4444 -0.1380  0.2766
 5530ntf    on526245   4.642   4.533   5.323 -0.3409 -0.6128  0.0329
 5530ntf    on526246   4.221   4.440   5.211  0.7397 -0.1796  0.7424
 5530ntf    on526247   4.288   4.537   5.000  0.1277 -0.1125 -0.1481
 5530ntf    fn426248   4.072   4.688   5.128  0.0700  0.3851 -0.0043
 5530ntf    fn426249   4.174   4.697   5.313  0.4107 -0.0458  0.2726
 5530ntf    fn426250   4.249   4.812   5.144 -0.3439  0.0770  0.7280
 5531ntf    cn126251   2.795   1.936   2.647  0.0909 -0.1045 -0.3708
 5531ntf    sn226252   2.762   2.115   2.652 -0.2703 -0.1804  0.0060
 5531ntf    nn326253   2.618   2.103   2.714 -0.1840 -0.0290  0.2405
 5531ntf    sn226254   2.487   2.160   2.649 -0.1831 -0.3098 -0.0106
 5531ntf    cn126255   2.387   2.191   2.797 -0.0194  0.1266  0.0093
 5531ntf    fn426256   2.917   1.914   2.601  0.2920 -0.2552  0.2229
 5531ntf    fn426257   2.787   1.877   2.765 -0.7690 -0.0647 -0.4027
 5531ntf    fn426258   2.702   1.889   2.566 -0.1684 -0.5531  0.1821
 5531ntf    on526259   2.863   2.166   2.741  0.1290 -0.0336 -0.5287
 5531ntf    on526260   2.783   2.168   2.520  0.1101  0.0339  0.1509
 5531ntf    on526261   2.409   2.059   2.581 -0.0543 -0.8218  0.5917
 5531ntf    on526262   2.486   2.294   2.595  0.1075 -0.2141  0.2254
 5531ntf    fn426263   2.384   2.081   2.870 -0.2550  0.1014 -0.0349
 5531ntf    fn426264   2.429   2.287   2.878 -0.5249  0.2866  0.0913
 5531ntf    fn426265   2.261   2.225   2.775 -0.2830 -0.4478  0.6108
 5532ntf    cn126266   0.531   6.926   1.558  0.0383  0.0789  0.0101
 5532ntf    sn226267   0.635   6.839   1.679 -0.2198 -0.1922  0.0376
 5532ntf    nn326268   0.725   6.961   1.719 -0.3971 -0.1141  0.1981
 5532ntf    sn226269   0.843   7.031   1.642 -0.4337 -0.4496 -0.1657
 5532ntf    cn126270   0.966   7.035   1.775 -0.5137 -0.2295 -0.0977
 5532ntf    fn426271   0.428   6.856   1.514 -0.0587  0.1547  0.1160
 5532ntf    fn426272   0.490   7.041   1.609  0.6933 -0.0668  0.8942
 5532ntf    fn426273   0.605   6.958   1.453  0.0345  0.9397  0.2582
 5532ntf    on526274   0.546   6.802   1.786 -0.1591 -0.0446  0.1391
 5532ntf    on526275   0.688   6.734   1.595 -0.0996 -0.0980 -0.0046
 5532ntf    on526276   0.827   7.171   1.611  0.6737 -0.2369  0.2198
 5532ntf    on526277   0.913   6.953   1.544  0.0183 -0.0161 -0.1901
 5532ntf    fn426278   0.911   7.061   1.893 -0.6666  0.9212 -0.4120
 5532ntf    fn426279   1.040   6.926   1.784 -0.3406 -0.0752  0.4317
 5532ntf    fn426280   1.052   7.135   1.760 -0.2344 -0.3645  0.5655
 5533ntf    cn126281   7.544   5.329   3.147 -0.2542  0.1548  0.3588
 5533ntf    sn226282   7.379   5.262   3.185 -0.0645 -0.3750  0.2576
 5533ntf    nn326283   7.388   5.234   3.339 -0.5212  0.4759  0.4452
 5533ntf    sn226284   7.408   5.099   3.415 -0.2049  0.2512 -0.0324
 5533ntf    cn126285   7.267   5.088   3.529  0.0011 -0.3555  0.1695
 5533ntf    fn426286   7.639   5.240   3.166  0.1353  0.3674 -0.5237
 5533ntf    fn426287   7.554   5.365   3.020 -0.0773  0.5373  0.4789
 5533ntf    fn426288   7.569   5.431   3.227  0.0881 -0.0788  0.5468
 5533ntf    on526289   7.299   5.381   3.170  0.0040 -0.4270 -0.6204
 5533ntf    on526290   7.351   5.161   3.086  0.5277 -0.0528 -0.2487
 5533ntf    on526291   7.522   5.109   3.504 -0.2335  0.0903  0.0239
 5533ntf    on526292   7.400   4.978   3.336 -0.4934 -0.0715  0.4846
 5533ntf    fn426293   7.153   5.087   3.462 -0.1894  0.0484  0.4885
 5533ntf    fn426294   7.274   4.982   3.608  0.0702 -0.3400  0.1832
 5533ntf    fn426295   7.270   5.197   3.604 -0.1578 -0.1294 -0.1510
 5534ntf    cn126296   5.721   4.186   0.599  0.4106  0.1881  0.1700
 5534ntf    sn226297   5.609   4.324   0.559  0.2375  0.0934  0.3304
 5534ntf    nn326298   5.692   4.406   0.454  0.3901 -0.2533  0.1773
 5534ntf    sn226299   5.668   4.431   0.301 -0.2348 -0.3302  0.2607
 5534ntf    cn126300   5.774   4.297   0.239  0.3069  0.1026  0.2475
 5534ntf    fn426301   5.845   4.225   0.623  0.3807  0.2731  0.1871
 5534ntf    fn426302   5.674   4.110   0.696 -0.2330 -0.0527 -0.3244
 5534ntf    fn426303   5.724   4.109   0.492 -0.3497 -0.0207  0.2967
 5534ntf    on526304   5.488   4.256   0.520  0.0371  0.7799 -0.2617
 5534ntf    on526305   5.606   4.391   0.687  0.7805  0.3101  0.2342
 5534ntf    on526306   5.736   4.548   0.251 -0.0700 -0.3763  0.3766
 5534ntf    on526307   5.532   4.410   0.259 -0.0173 -1.2011 -0.0408
 5534ntf    fn426308   5.786   4.306   0.108 -0.2193 -0.5536  0.1514
 5534ntf    fn426309   5.894   4.301   0.295  0.4626 -0.2013 -0.0620
 5534ntf    fn426310   5.726   4.177   0.268  0.2358  0.1490  0.3254
 5535ntf    cn126311   3.839   1.461   3.030  0.0924 -0.0047 -0.5319
 5535ntf    sn226312   4.008   1.444   3.094 -0.0718  0.0758 -0.0772
 5535ntf    nn326313   3.989   1.313   3.180  0.2274  0.0141 -0.1046
 5535ntf    sn226314   4.037   1.166   3.158 -0.0487 -0.0546 -0.2456
 5535ntf    cn126315   4.172   1.132   3.275 -0.2282  0.1735  0.0242
 5535ntf    fn426316   3.753   1.507   3.119  0.2725  0.1757 -0.4490
 5535ntf    fn426317   3.822   1.537   2.923 -0.5581  0.5574 -0.0304
 5535ntf    fn426318   3.793   1.342   2.993  0.3134 -0.2301 -0.0879
 5535ntf    on526319   4.095   1.441   2.979 -0.5318 -1.1592 -0.4124
 5535ntf    on526320   4.009   1.562   3.176  0.2371  0.1068 -0.1259
 5535ntf    on526321   4.093   1.131   3.029  0.4574 -0.1399 -0.0040
 5535ntf    on526322   3.936   1.074   3.204  0.2966 -0.2689  0.0921
 5535ntf    fn426323   4.149   1.165   3.402  0.8293  0.3430  0.1811
 5535ntf    fn426324   4.207   1.005   3.271  0.3279  0.3173  0.2152
 5535ntf    fn426325   4.273   1.206   3.233  0.0447  0.0140  0.4009
 5536ntf    cn126326   1.671   4.129   6.198  0.1246  0.0112 -0.1490
 5536ntf    sn226327   1.536   4.246   6.163  0.0406 -0.1009 -0.2025
 5536ntf    nn326328   1.416   4.172   6.230 -0.2887  0.2985 -0.3429
 5536ntf    sn226329   1.326   4.220   6.350  0.1293 -0.1633  0.1604
 5536ntf    cn126330   1.178   4.116   6.330 -0.1530  0.2995 -0.1536
 5536ntf    fn426331   1.690   4.124   6.329 -0.1889  0.0057 -0.1023
 5536ntf    fn426332   1.640   4.010   6.150 -0.1114  0.1688 -0.3883
 5536ntf    fn426333   1.791   4.156   6.152  0.1520  0.5104  0.2006
 5536ntf    on526334   1.596   4.361   6.228 -0.0185  0.0295 -0.3770
 5536ntf    on526335   1.532   4.244   6.019  0.1331  0.4217 -0.2161
 5536ntf    on526336   1.279   4.355   6.354 -0.0175 -0.2200  0.3363
 5536ntf    on526337   1.373   4.161   6.473  0.8649  0.2637  0.0946
 5536ntf    fn426338   1.106   4.142   6.222 -0.0820 -0.3953 -0.3711
 5536ntf    fn426339   1.209   3.988   6.336 -0.0087  0.3658  0.6629
 5536ntf    fn426340   1.100   4.135   6.435  0.2093 -0.1510  0.1998
 5537ntf    cn126341   2.089   2.809   4.564  0.5669 -0.0707 -0.1989
 5537ntf    sn226342   2.038   2.788   4.737  0.1000  0.0024 -0.3280
 5537ntf    nn326343   2.011   2.937   4.775  0.4116 -0.0602  0.1434
 5537ntf    sn226344   1.874   3.010   4.748  0.4018 -0.0906  0.1127
 5537ntf    cn126345   1.758   2.942   4.871  0.0141  0.1813 -0.0994
 5537ntf    fn426346   1.996   2.857   4.484  0.2344 -0.2854  0.0564
 5537ntf    fn426347   2.197   2.884   4.549  0.3946  0.1865 -0.1519
 5537ntf    fn426348   2.126   2.691   4.514  0.4476 -0.3925  0.4643
 5537ntf    on526349   1.921   2.703   4.738  0.3197 -0.3032  0.6518
 5537ntf    on526350   2.159   2.739   4.798  0.1690  0.3768 -0.1669
 5537ntf    on526351   1.808   2.977   4.624  0.3108 -0.2291  0.1973
 5537ntf    on526352   1.884   3.148   4.789 -0.2303  0.0287 -0.1231
 5537ntf    fn426353   1.723   2.816   4.855  0.8318 -0.0280 -0.3016
 5537ntf    fn426354   1.815   2.945   4.991  0.5211 -0.0913 -0.3300
 5537ntf    fn426355   1.647   3.013   4.886 -0.4045 -0.4944  0.0104
 5538ntf    cn126356   1.355   4.956   5.126 -0.2866  0.5041  0.1451
 5538ntf    sn226357   1.294   4.991   5.294 -0.2672  0.1462  0.2271
 5538ntf    nn326358   1.422   5.016   5.381 -0.4724  0.2464  0.4988
 5538ntf    sn226359   1.502   5.149   5.402  0.0222  0.0015  0.1813
 5538ntf    cn126360   1.398   5.205   5.541 -0.2368  0.2994 -0.1295
 5538ntf    fn426361   1.266   4.898   5.048  0.1005  0.3450 -0.1824
 5538ntf    fn426362   1.395   5.068   5.068 -0.1975  0.4187  0.0418
 5538ntf    fn426363   1.459   4.873   5.123 -0.3727  0.4151 -0.5731
 5538ntf    on526364   1.202   5.100   5.275  0.3184  0.5121 -0.5937
 5538ntf    on526365   1.234   4.866   5.335 -0.3073  0.0299 -0.1713
 5538ntf    on526366   1.492   5.233   5.285  0.3943 -0.7151 -0.3717
 5538ntf    on526367   1.632   5.126   5.458 -0.0315  0.0157  0.3133
 5538ntf    fn426368   1.276   5.241   5.503 -0.3314  0.1770  0.0609
 5538ntf    fn426369   1.379   5.109   5.629 -0.1989  0.3914 -0.0212
 5538ntf    fn426370   1.441   5.313   5.605 -1.0389  0.2797  0.4455
 5539ntf    cn126371   6.470   1.954   3.877  0.2036  0.0982 -0.3694
 5539ntf    sn226372   6.311   1.929   3.792 -0.0819  0.1930  0.1315
 5539ntf    nn326373   6.211   1.998   3.892 -0.6388 -0.2518 -0.1140
 5539ntf    sn226374   6.128   2.129   3.868 -0.0957  0.1365  0.1134
 5539ntf    cn126375   6.119   2.194   4.038 -0.3228  0.0460  0.1354
 5539ntf    fn426376   6.574   1.903   3.813  0.0232 -0.5781 -0.1280
 5539ntf    fn426377   6.504   2.080   3.898 -0.2707  0.2004 -0.2029
 5539ntf    fn426378   6.476   1.903   3.999  0.9017  1.2655  0.1012
 5539ntf    on526379   6.329   1.989   3.662 -0.7023 -0.7256 -0.3836
 5539ntf    on526380   6.302   1.786   3.803 -0.3174  0.1242 -0.8394
 5539ntf    on526381   5.991   2.107   3.830  0.0850 -0.1664 -0.3604
 5539ntf    on526382   6.197   2.244   3.814  0.1569  0.1707  0.5052
 5539ntf    fn426383   6.228   2.250   4.086 -0.2938 -0.2191  0.3798
 5539ntf    fn426384   6.030   2.289   4.061 -0.2451  0.1194  0.1321
 5539ntf    fn426385   6.078   2.102   4.124 -0.2199  0.3139  0.4728
 5540ntf    cn126386   3.945   5.749   5.867 -0.5540  0.2337  0.2250
 5540ntf    sn226387   3.844   5.792   6.012  0.0021  0.4553  0.5525
 5540ntf    nn326388   3.725   5.856   5.931  0.4507  0.0964 -0.4157
 5540ntf    sn226389   3.578   5.809   5.904  0.3895 -0.0479  0.1371
 5540ntf    cn126390   3.496   5.972   5.910 -0.0437 -0.2521 -0.1918
 5540ntf    fn426391   4.070   5.710   5.889 -0.5833  0.5561  0.9726
 5540ntf    fn426392   3.892   5.642   5.809  0.5731 -0.6862  0.8424
 5540ntf    fn426393   3.954   5.839   5.770 -0.3705 -0.1714 -0.1382
 5540ntf    on526394   3.820   5.663   6.071 -0.0566  0.1930 -0.0326
 5540ntf    on526395   3.920   5.888   6.087  0.1350  0.6303  0.1952
 5540ntf    on526396   3.522   5.719   6.001 -0.3177 -0.1697 -0.3710
 5540ntf    on526397   3.562   5.779   5.763 -0.0782 -0.2345  0.2261
 5540ntf    fn426398   3.363   5.969   5.914 -0.0612 -0.1701 -0.6380
 5540ntf    fn426399   3.539   6.046   6.010 -0.2058 -0.9503  0.4083
 5540ntf    fn426400   3.526   6.048   5.806 -0.8052  0.1424 -0.1272
 5541ntf    cn126401   5.605   1.978   4.113 -0.4663 -0.5220  0.3443
 5541ntf    sn226402   5.509   1.942   3.963 -0.1614 -0.1002  0.0475
 5541ntf    nn326403   5.440   1.815   4.024  0.1358 -0.1457  0.2925
 5541ntf    sn226404   5.487   1.665   4.027 -0.1424 -0.2347  0.2141
 5541ntf    cn126405   5.367   1.598   3.908 -0.1408 -0.2817  0.2398
 5541ntf    fn426406   5.526   1.974   4.219 -0.2338 -0.1436  0.5333
 5541ntf    fn426407   5.706   1.895   4.129  0.3693  0.3872 -0.1450
 5541ntf    fn426408   5.652   2.102   4.116 -0.0503 -0.6688  0.0020
 5541ntf    on526409   5.421   2.053   3.935  0.8004  0.6789  0.0472
 5541ntf    on526410   5.612   1.918   3.864 -0.2731 -0.1216 -0.0636
 5541ntf    on526411   5.450   1.604   4.152 -0.1769 -0.3798  0.1334
 5541ntf    on526412   5.615   1.631   3.970 -0.2103  0.6464 -0.5040
 5541ntf    fn426413   5.372   1.647   3.786  0.4680 -0.0393  0.3610
 5541ntf    fn426414   5.365   1.468   3.885 -0.4346 -0.0787 -0.9201
 5541ntf    fn426415   5.243   1.620   3.952 -0.2863 -0.0437 -0.2824
 5542ntf    cn126416   3.366   1.234   4.940  0.1723  0.1087  0.1295
 5542ntf    sn226417   3.488   1.117   5.006 -0.0474 -0.0935  0.1754
 5542ntf    nn326418   3.564   1.071   4.877  0.4942 -0.1957  0.5296
 5542ntf    sn226419   3.715   1.030   4.862  0.4940  0.0652 -0.1933
 5542ntf    cn126420   3.708   0.848   4.859 -0.1095  0.0808  0.0453
 5542ntf    fn426421   3.288   1.181   4.847 -0.0649 -0.0117  0.3981
 5542ntf    fn426422   3.290   1.298   5.027  0.1735  0.1573  0.0951
 5542ntf    fn426423   3.435   1.322   4.870  0.1784 -0.2000 -0.2536
 5542ntf    on526424   3.564   1.197   5.099 -0.2247  0.0156  0.2275
 5542ntf    on526425   3.398   1.016   5.057 -0.1958 -0.0523 -0.0022
 5542ntf    on526426   3.796   1.062   4.977  0.2889  0.4377 -0.1524
 5542ntf    on526427   3.771   1.056   4.731  0.3604  0.4608 -0.1725
 5542ntf    fn426428   3.643   0.797   4.756 -0.4240 -0.3644  0.4599
 5542ntf    fn426429   3.832   0.803   4.846  0.0794  0.4144  0.6536
 5542ntf    fn426430   3.655   0.799   4.970  0.2794  0.2668  0.3174
 5543ntf    cn126431   7.154   1.044   3.684 -0.3273  0.3043 -0.1630
 5543ntf    sn226432   7.115   1.026   3.860 -0.3244  0.2007 -0.1727
 5543ntf    nn326433   6.972   1.090   3.872 -0.3963  0.1126 -0.5635
 5543ntf    sn226434   6.927   1.233   3.918 -0.0026  0.1077 -0.1596
 5543ntf    cn126435   6.881   1.208   4.092 -0.5586  0.3799 -0.2623
 5543ntf    fn426436   7.285   1.044   3.660 -0.3602 -0.0823 -0.3581
 5543ntf    fn426437   7.094   0.943   3.622  0.2038  0.0590 -0.2863
 5543ntf    fn426438   7.111   1.160   3.639  0.4779  0.5358 -0.3661
 5543ntf    on526439   7.104   0.885   3.887  0.3273  0.1406 -0.2033
 5543ntf    on526440   7.221   1.090   3.935  0.0493 -0.9220  0.2821
 5543ntf    on526441   6.796   1.265   3.866 -0.0888  0.3660  0.2137
 5543ntf    on526442   7.029   1.334   3.918 -0.1428  0.2502  0.1933
 5543ntf    fn426443   6.983   1.166   4.166 -0.7354  0.3795 -0.0167
 5543ntf    fn426444   6.838   1.323   4.142  0.0299  0.2548  0.5730
 5543ntf    fn426445   6.786   1.117   4.101  0.0083 -0.2451 -0.4698
 5544ntf    cn126446   4.928   3.108   0.691  0.2026  0.4435 -0.0419
 5544ntf    sn226447   4.818   3.106   0.546 -0.0060 -0.3313  0.1230
 5544ntf    nn326448   4.771   2.956   0.548 -0.3545 -0.2198  0.3288
 5544ntf    sn226449   4.631   2.897   0.508 -0.3673  0.1408 -0.1826
 5544ntf    cn126450   4.703   2.733   0.472  0.1572  0.1932  0.5947
 5544ntf    fn426451   4.962   3.231   0.726 -0.0086  0.4781  0.0467
 5544ntf    fn426452   4.860   3.059   0.793  0.2844 -0.0464 -0.2221
 5544ntf    fn426453   5.037   3.035   0.675 -0.0824  0.0117 -0.0231
 5544ntf    on526454   4.718   3.203   0.580  0.0218 -0.3139  0.1552
 5544ntf    on526455   4.916   3.139   0.444  0.3183 -0.2237  0.4681
 5544ntf    on526456   4.576   2.933   0.380  0.5829  0.4814 -0.5021
 5544ntf    on526457   4.544   2.870   0.620  0.1234 -0.1157  0.1446
 5544ntf    fn426458   4.793   2.703   0.565  0.5015 -0.1215  0.1609
 5544ntf    fn426459   4.617   2.633   0.471  0.0609  0.2750  0.5839
 5544ntf    fn426460   4.773   2.729   0.360  0.3209  0.2907  0.6922
 5545ntf    cn126461   4.403   4.964   3.644 -0.3944  0.3618 -0.0095
 5545ntf    sn226462   4.463   5.051   3.792 -0.1123  0.1566 -0.0018
 5545ntf    nn326463   4.461   5.198   3.735  0.0605  0.1818  0.0542
 5545ntf    sn226464   4.479   5.329   3.819 -0.0196  0.1958  0.0503
 5545ntf    cn126465   4.624   5.399   3.735  0.1858  0.0682  0.2976
 5545ntf    fn426466   4.400   4.833   3.667 -0.1170  0.3619  0.0388
 5545ntf    fn426467   4.278   4.992   3.612 -0.6894 -0.4450  0.4007
 5545ntf    fn426468   4.482   4.991   3.541  0.5257 -0.5343  0.4335
 5545ntf    on526469   4.354   5.029   3.884  0.0555 -0.4013  0.0675
 5545ntf    on526470   4.594   5.002   3.828 -0.3029  0.0783  0.5940
 5545ntf    on526471   4.532   5.302   3.950  0.0853 -0.3390 -0.0979
 5545ntf    on526472   4.386   5.437   3.796 -0.6833 -0.3895 -0.0630
 5545ntf    fn426473   4.641   5.520   3.786 -0.5120  0.4546 -0.3629
 5545ntf    fn426474   4.737   5.335   3.758  0.0346 -0.4063 -0.2564
 5545ntf    fn426475   4.614   5.409   3.603 -0.2730  0.4635  0.3547
 5546ntf    cn126476   5.436   4.616   3.832 -0.0282  0.1269  0.3874
 5546ntf    sn226477   5.416   4.443   3.779  0.4163  0.2024 -0.0335
 5546ntf    nn326478   5.299   4.396   3.872  0.3945 -0.4573 -0.3915
 5546ntf    sn226479   5.146   4.387   3.839  0.2162  0.2760  0.2280
 5546ntf    cn126480   5.148   4.230   3.747  0.2898  0.3021  0.1871
 5546ntf    fn426481   5.468   4.694   3.730  0.4068  0.0088  0.4321
 5546ntf    fn426482   5.321   4.670   3.869 -0.1803 -0.3472  0.6143
 5546ntf    fn426483   5.515   4.637   3.936  0.1638 -0.5362  0.3810
 5546ntf    on526484   5.401   4.440   3.635 -0.0971  0.5748  0.0118
 5546ntf    on526485   5.537   4.375   3.818  0.6547  0.3681 -0.4738
 5546ntf    on526486   5.086   4.489   3.757 -0.0139 -0.1927 -0.1994
 5546ntf    on526487   5.058   4.352   3.949 -0.5141 -0.0042 -0.4336
 5546ntf    fn426488   5.031   4.187   3.704  0.4353 -0.1539  0.2411
 5546ntf    fn426489   5.223   4.243   3.639 -0.0282 -0.0431 -0.0761
 5546ntf    fn426490   5.198   4.130   3.818  0.5143 -0.0489 -0.4569
 5547ntf    cn126491   5.157   5.955   6.270  0.0889 -0.2506  0.0777
 5547ntf    sn226492   5.074   6.062   6.391  0.1911 -0.1050  0.0178
 5547ntf    nn326493   5.132   6.008   6.526  0.2165  0.3092  0.1740
 5547ntf    sn226494   5.088   5.872   6.591  0.0621  0.1571 -0.2434
 5547ntf    cn126495   5.005   5.936   6.740 -0.3970 -0.8832 -0.0420
 5547ntf    fn426496   5.102   5.835   6.258 -0.1622 -0.1458  0.1708
 5547ntf    fn426497   5.166   6.015   6.153 -0.1175 -0.1570  0.1091
 5547ntf    fn426498   5.280   5.930   6.313  0.3468 -0.0540 -0.5327
 5547ntf    on526499   5.122   6.192   6.350  0.3600 -0.0671  0.3378
 5547ntf    on526500   4.933   6.046   6.365  0.1231 -0.0749  0.3657
 5547ntf    on526501   5.209   5.806   6.633 -0.4283 -0.0567  0.8957
 5547ntf    on526502   4.997   5.785   6.522  0.9528 -0.7220 -0.3245
 5547ntf    fn426503   4.880   5.977   6.733 -0.3081 -0.7141 -0.7524
 5547ntf    fn426504   5.009   5.863   6.850 -0.5997 -0.2188  0.4164
 5547ntf    fn426505   5.064   6.051   6.771 -0.1344 -0.9797 -0.1766
 5548ntf    cn126506   3.108   6.320   4.558 -0.1450  0.4638  0.2209
 5548ntf    sn226507   3.100   6.409   4.717  0.2051  0.1682  0.4033
 5548ntf    nn326508   2.977   6.343   4.788  0.0053 -0.1007 -0.1862
 5548ntf    sn226509   2.872   6.403   4.889  0.2700  0.1166 -0.0371
 5548ntf    cn126510   2.736   6.431   4.772  0.1540  0.3975  0.1654
 5548ntf    fn426511   3.166   6.394   4.465  0.0723  0.0168  0.0020
 5548ntf    fn426512   3.170   6.204   4.568 -0.2723  0.3693 -0.0783
 5548ntf    fn426513   2.986   6.287   4.517 -0.1833  0.4573  0.3396
 5548ntf    on526514   3.224   6.374   4.783  0.5079 -0.3461 -0.4205
 5548ntf    on526515   3.082   6.546   4.675  0.5056  0.0501 -0.1275
 5548ntf    on526516   2.909   6.535   4.931  0.5238 -0.0837  0.3762
 5548ntf    on526517   2.822   6.313   4.990 -0.3497  0.3153 -0.1679
 5548ntf    fn426518   2.771   6.509   4.671 -0.0656 -0.1036 -0.3016
 5548ntf    fn426519   2.691   6.323   4.711 -0.4817  0.4068  0.6168
 5548ntf    fn426520   2.623   6.476   4.823  0.0320 -0.0143  0.2582
 5549ntf    cn126521   4.801   0.256   4.085  0.1709  0.0299  0.0085
 5549ntf    sn226522   4.920   0.134   4.022 -0.2442 -0.0642 -0.6014
 5549ntf    nn326523   5.051   0.222   4.022 -0.2586 -0.0379  0.0845
 5549ntf    sn226524   5.102   0.292   3.892  0.1514  0.0951  0.3150
 5549ntf    cn126525   5.156   0.455   3.950 -0.2787  0.5195 -0.4612
 5549ntf    fn426526   4.819   0.378   4.036  0.1896 -0.0600 -0.2050
 5549ntf    fn426527   4.675   0.226   4.059 -0.0500  0.6850  0.2764
 5549ntf    fn426528   4.811   0.264   4.217  0.2300  0.2620 -0.0078
 5549ntf    on526529   4.920   0.040   4.131  0.4373  0.0456 -0.5008
 5549ntf    on526530   4.863   0.081   3.901  0.3925 -0.3041 -0.8028
 5549ntf    on526531   5.010   0.321   3.785  0.3018 -0.1441  0.1167
 5549ntf    on526532   5.216   0.222   3.837 -0.2164 -1.1365  1.0793
 5549ntf    fn426533   5.227   0.443   4.061 -0.0827  0.8296 -0.5501
 5549ntf    fn426534   5.228   0.533   3.870  0.8369 -0.0193 -0.0009
 5549ntf    fn426535   5.052   0.527   3.989  0.1229  0.4183  0.8509
 5550ntf    cn126536   1.353   3.500   0.382 -0.2553 -0.2239  0.3528
 5550ntf    sn226537   1.493   3.480   0.496  0.2370 -0.0660 -0.2191
 5550ntf    nn326538   1.519   3.628   0.540  0.4883 -0.3261  0.5235
 5550ntf    sn226539   1.458   3.715   0.655  0.1074  0.0777  0.0220
 5550ntf    cn126540   1.474   3.886   0.596 -0.1782  0.1282  0.0903
 5550ntf    fn426541   1.340   3.624   0.339 -0.0881 -0.2155  0.3234
 5550ntf    fn426542   1.376   3.424   0.275  0.1468 -0.3718  0.5415
 5550ntf    fn426543   1.239   3.462   0.437 -0.0504 -0.4210  0.6408
 5550ntf    on526544   1.454   3.391   0.602 -0.6459  0.2445 -0.2798
 5550ntf    on526545   1.600   3.437   0.408  0.1589 -0.3973 -0.1518
 5550ntf    on526546   1.540   3.693   0.772  0.6381  0.1978 -0.3236
 5550ntf    on526547   1.315   3.703   0.668  0.1097  0.2753  0.2585
 5550ntf    fn426548   1.398   3.904   0.488 -0.3997  0.9152  0.3648
 5550ntf    fn426549   1.431   3.970   0.689 -0.2742  0.0520  0.1154
 5550ntf    fn426550   1.601   3.910   0.569 -0.1540 -0.0731  0.0255
 5551ntf    cn126551   6.985   5.728   2.070  0.1921 -0.5038 -0.4390
 5551ntf    sn226552   7.107   5.636   1.971  0.3062 -0.4458 -0.3528
 5551ntf    nn326553   7.187   5.577   2.092 -0.0460 -0.5345 -0.1603
 5551ntf    sn226554   7.333   5.520   2.075  0.1343 -0.1070 -0.0527
 5551ntf    cn126555   7.437   5.664   2.112  0.2862 -0.1740 -0.2185
 5551ntf    fn426556   6.920   5.643   2.147 -0.1547  0.1494 -0.0103
 5551ntf    fn426557   7.044   5.810   2.154  0.2595 -0.0757 -0.8992
 5551ntf    fn426558   6.896   5.796   1.999  0.1805 -0.1470 -0.0816
 5551ntf    on526559   7.033   5.544   1.888 -0.2162  0.0811 -0.4811
 5551ntf    on526560   7.172   5.743   1.898  0.4083 -0.0939  0.2525
 5551ntf    on526561   7.363   5.480   1.940  0.1765 -0.3781  0.0368
 5551ntf    on526562   7.362   5.422   2.177  0.0684  0.4265  0.4884
 5551ntf    fn426563   7.566   5.632   2.107  0.4650  0.4776  0.1115
 5551ntf    fn426564   7.422   5.768   2.032  0.5844  0.4119  0.4672
 5551ntf    fn426565   7.419   5.709   2.236  0.2781  0.0692 -0.3077
 5552ntf    cn126566   6.009   1.071   0.441  0.1623  0.0450 -0.2724
 5552ntf    sn226567   5.897   0.967   0.539  0.2107  0.1735 -0.0793
 5552ntf    nn326568   6.002   0.874   0.608  0.0459 -0.1242 -0.2278
 5552ntf    sn226569   6.019   0.820   0.754 -0.0340  0.1127 -0.1317
 5552ntf    cn126570   5.965   0.648   0.735 -0.1480  0.1489 -0.1368
 5552ntf    fn426571   6.098   1.126   0.522  0.0391 -0.0021 -0.1047
 5552ntf    fn426572   6.066   1.000   0.345  0.1562 -0.4470  0.0870
 5552ntf    fn426573   5.955   1.169   0.370 -0.0814  0.2036  0.1281
 5552ntf    on526574   5.822   1.062   0.617  0.5839  0.5146 -0.1335
 5552ntf    on526575   5.822   0.891   0.441  0.4856 -0.0175 -0.1408
 5552ntf    on526576   5.925   0.870   0.852 -0.2530  0.0637 -0.3177
 5552ntf    on526577   6.157   0.809   0.794 -0.2074 -0.5633  0.2855
 5552ntf    fn426578   5.835   0.640   0.712 -0.1043  0.0269 -0.3505
 5552ntf    fn426579   6.020   0.581   0.634 -0.1937  0.1223 -0.1437
 5552ntf    fn426580   5.996   0.574   0.841  0.4641 -0.3859 -0.6764
 5553ntf    cn126581   2.292   6.338   4.542  0.0730 -0.0061 -0.0944
 5553ntf    sn226582   2.231   6.174   4.493 -0.0263  0.0352 -0.1067
 5553ntf    nn326583   2.341   6.081   4.554 -0.1437  0.1091  0.2221
 5553ntf    sn226584   2.309   5.957   4.646  0.0185  0.0937  0.2585
 5553ntf    cn126585   2.429   5.837   4.580  0.0350 -0.0470  0.5483
 5553ntf    fn426586   2.352   6.333   4.660 -0.6464 -0.3056  0.2647
 5553ntf    fn426587   2.369   6.394   4.451 -0.0122  0.1688 -0.0587
 5553ntf    fn426588   2.176   6.399   4.562  0.1309  0.2547 -0.5520
 5553ntf    on526589   2.100   6.176   4.553  0.0178 -0.2113 -0.0023
 5553ntf    on526590   2.239   6.178   4.349 -0.2940  0.4953 -0.1109
 5553ntf    on526591   2.182   5.892   4.629  0.4470 -0.5625 -0.5494
 5553ntf    on526592   2.359   5.974   4.780 -0.3224 -0.0326  0.4012
 5553ntf    fn426593   2.421   5.717   4.637  0.3375 -0.3729 -0.0843
 5553ntf    fn426594   2.408   5.818   4.451 -0.8199  0.7383  0.5620
 5553ntf    fn426595   2.552   5.883   4.593 -0.1130  0.4281  0.2622
 5554ntf    cn126596   2.365   0.230   5.838  0.1930 -0.1593 -0.1316
 5554ntf    sn226597   2.476   0.342   5.930 -0.1438  0.0019  0.0799
 5554ntf    nn326598   2.575   0.386   5.816 -0.5787 -0.4804 -0.4877
 5554ntf    sn226599   2.558   0.506   5.716  0.0006 -0.1105 -0.1460
 5554ntf    cn126600   2.721   0.581   5.743 -0.0795  0.0253 -0.0393
 5554ntf    fn426601   2.275   0.183   5.922 -0.4319  0.5531 -0.3827
 5554ntf    fn426602   2.306   0.297   5.741 -0.5525  0.1473  0.5220
 5554ntf    fn426603   2.426   0.126   5.783 -0.0217 -0.1515 -0.3848
 5554ntf    on526604   2.378   0.433   5.983  0.3599  0.1593  0.7571
 5554ntf    on526605   2.543   0.256   6.024  0.1080  0.4388  0.3058
 5554ntf    on526606   2.459   0.608   5.742 -0.2955 -0.5315  0.4033
 5554ntf    on526607   2.557   0.452   5.582  0.4808  0.5357 -0.4165
 5554ntf    fn426608   2.733   0.644   5.859  0.0836  0.0765 -0.0830
 5554ntf    fn426609   2.818   0.491   5.740  0.0654  0.1775  0.0270
 5554ntf    fn426610   2.743   0.666   5.644 -0.2190 -0.1367 -0.2086
 5555ntf    cn126611   0.438   3.572   2.468  0.3182 -0.3264 -0.1674
 5555ntf    sn226612   0.363   3.735   2.499  0.3444 -0.2910 -0.2926
 5555ntf    nn326613   0.215   3.686   2.510  0.2282  0.1095 -0.0514
 5555ntf    sn226614   0.110   3.676   2.393  0.2201  0.2572 -0.0568
 5555ntf    cn126615   0.050   3.508   2.425 -0.4919  0.6042  0.4550
 5555ntf    fn426616   0.403   3.520   2.352  0.1430 -0.1296 -0.2043
 5555ntf    fn426617   0.570   3.581   2.468  0.3384 -0.5457  0.8320
 5555ntf    fn426618   0.405   3.488   2.565 -0.0897  0.4550  0.3899
 5555ntf    on526619   0.415   3.780   2.626 -0.1339 -0.4048 -0.0562
 5555ntf    on526620   0.400   3.808   2.380  0.4251 -0.5895 -0.4503
 5555ntf    on526621   0.165   3.672   2.260  0.0663 -0.1383 -0.1111
 5555ntf    on526622  -0.003   3.763   2.412 -0.0368 -0.2179  0.6135
 5555ntf    fn426623  -0.048   3.477   2.341  0.0270 -0.3864  0.1921
 5555ntf    fn426624   0.149   3.421   2.411 -0.9522  0.1091  0.2225
 5555ntf    fn426625   0.002   3.494   2.548 -0.2670 -0.1361  0.4651
 5556ntf    cn126626   4.548   5.861   2.779 -0.8779  0.4362  0.0975
 5556ntf    sn226627   4.537   6.035   2.729 -0.1509  0.3800 -0.2639
 5556ntf    nn326628   4.636   6.056   2.608 -0.0475 -0.1379 -0.2683
 5556ntf    sn226629   4.787   6.016   2.601  0.1041  0.3842  0.0012
 5556ntf    cn126630   4.787   5.867   2.496 -0.0189  0.0728  0.4424
 5556ntf    fn426631   4.507   5.786   2.677 -0.0112 -0.0901  0.1295
 5556ntf    fn426632   4.670   5.814   2.800 -0.6297  1.0436  0.0239
 5556ntf    fn426633   4.478   5.819   2.883  0.3546 -0.8840  0.4242
 5556ntf    on526634   4.403   6.034   2.678 -0.1959 -0.1275 -0.1430
 5556ntf    on526635   4.574   6.111   2.847 -0.8353  0.3782 -0.0446
 5556ntf    on526636   4.848   5.974   2.724 -0.5988 -0.7606 -0.0313
 5556ntf    on526637   4.861   6.112   2.523  0.3736  0.2051  0.0342
 5556ntf    fn426638   4.709   5.764   2.523 -0.2829  0.2801  0.4819
 5556ntf    fn426639   4.768   5.894   2.368 -0.5821 -0.0976  0.4901
 5556ntf    fn426640   4.906   5.809   2.504  0.0643  0.1994  0.1211
 5557ntf    cn126641   2.809   7.048   2.701  0.1628 -0.4779  0.2833
 5557ntf    sn226642   2.787   6.903   2.808  0.1099 -0.5211  0.2137
 5557ntf    nn326643   2.753   6.793   2.701  0.4032  0.3130 -0.7582
 5557ntf    sn226644   2.837   6.665   2.666  0.2087 -0.1000  0.2220
 5557ntf    cn126645   2.912   6.711   2.506  0.0851  0.3665  0.2952
 5557ntf    fn426646   2.697   7.119   2.699  0.2817 -0.3022 -0.2817
 5557ntf    fn426647   2.904   7.129   2.745 -0.0656  0.3809 -0.7704
 5557ntf    fn426648   2.840   7.015   2.576  0.2082 -0.0715  0.1849
 5557ntf    on526649   2.911   6.884   2.878  0.4214  0.1561 -0.1408
 5557ntf    on526650   2.676   6.948   2.889  0.1727 -0.0115  0.0211
 5557ntf    on526651   2.744   6.560   2.632  0.3228  0.1644 -0.9587
 5557ntf    on526652   2.945   6.629   2.754  0.5641 -0.2317 -0.2579
 5557ntf    fn426653   2.982   6.607   2.464 -0.0369  0.3006  0.2533
 5557ntf    fn426654   2.823   6.735   2.411 -0.0142 -0.2999  0.2127
 5557ntf    fn426655   2.989   6.818   2.513  0.8307 -0.1316 -0.1599
 5558ntf    cn126656   2.037   5.479   1.806 -0.4491 -0.2261 -0.1919
 5558ntf    sn226657   2.105   5.470   1.637  0.1279 -0.3486  0.0455
 5558ntf    nn326658   2.258   5.491   1.665  0.2005 -0.6081 -0.1525
 5558ntf    sn226659   2.366   5.566   1.580 -0.0555  0.1198  0.1518
 5558ntf    cn126660   2.443   5.415   1.514  0.3753  0.3604  0.0961
 5558ntf    fn426661   2.053   5.601   1.855 -0.1362 -0.2785 -0.1652
 5558ntf    fn426662   1.907   5.455   1.817 -0.4177 -0.1319  0.4280
 5558ntf    fn426663   2.099   5.400   1.891 -0.0725 -0.1397 -0.3844
 5558ntf    on526664   2.075   5.334   1.600  0.4620 -0.3881 -0.0743
 5558ntf    on526665   2.040   5.577   1.566 -0.5215 -0.5561  0.3165
 5558ntf    on526666   2.481   5.620   1.648  0.1352  0.1156 -0.1644
 5558ntf    on526667   2.312   5.634   1.465  0.5943  0.1870 -0.1188
 5558ntf    fn426668   2.479   5.333   1.611 -0.0312 -0.6275 -0.5727
 5558ntf    fn426669   2.343   5.350   1.455  0.5144  0.1512  0.0918
 5558ntf    fn426670   2.548   5.432   1.435 -0.1797  0.1075 -0.7114
 5559ntf    cn126671   5.103   2.864   0.993  0.2382  0.1736  0.1240
 5559ntf    sn226672   5.119   2.868   1.174 -0.2587  0.0411  0.1709
 5559ntf    nn326673   5.194   2.734   1.209  0.2407  0.2022 -0.2712
 5559ntf    sn226674   5.140   2.595   1.256  0.0356  0.3434 -0.0833
 5559ntf    cn126675   5.124   2.619   1.435  0.2007  0.2055 -0.0489
 5559ntf    fn426676   5.223   2.868   0.937  0.2615 -0.3630  0.1367
 5559ntf    fn426677   5.051   2.752   0.948  0.2040  0.5164 -0.7126
 5559ntf    fn426678   5.038   2.967   0.940  0.8974  0.1742 -0.7034
 5559ntf    on526679   5.207   2.981   1.192  0.0696 -0.1828 -0.0019
 5559ntf    on526680   4.982   2.881   1.215 -0.4701  0.0570 -0.5250
 5559ntf    on526681   5.242   2.493   1.240 -0.2086  0.1463 -0.3991
 5559ntf    on526682   5.011   2.563   1.201  0.0338  0.9180 -0.4164
 5559ntf    fn426683   5.091   2.744   1.462  0.3931  0.2477 -0.0097
 5559ntf    fn426684   5.031   2.539   1.485  0.1287  0.2451 -0.1211
 5559ntf    fn426685   5.236   2.589   1.499 -0.0764 -0.2455  0.2285
 5560ntf    cn126686   4.484   1.000   1.142 -0.1115 -0.0173 -0.2770
 5560ntf    sn226687   4.306   0.968   1.161 -0.0239 -0.4321 -0.1427
 5560ntf    nn326688   4.304   0.857   1.272 -0.3446 -0.0445  0.2442
 5560ntf    sn226689   4.261   0.869   1.422 -0.4561  0.0194  0.2073
 5560ntf    cn126690   4.081   0.868   1.397 -0.3654  0.0079 -0.4476
 5560ntf    fn426691   4.506   1.103   1.063 -0.0341 -0.1833 -0.4713
 5560ntf    fn426692   4.546   1.008   1.259  0.0585  0.2528 -0.3860
 5560ntf    fn426693   4.546   0.896   1.090  0.4361  0.1095  0.1184
 5560ntf    on526694   4.246   1.095   1.193 -0.3043 -0.5295 -0.2702
 5560ntf    on526695   4.276   0.904   1.035  0.1754  0.0939 -0.4598
 5560ntf    on526696   4.298   0.990   1.491 -0.3347  0.0176  0.1445
 5560ntf    on526697   4.304   0.747   1.487  0.3059  0.3555  0.3351
 5560ntf    fn426698   4.046   0.786   1.299 -0.3013 -0.0087 -0.4566
 5560ntf    fn426699   4.012   0.822   1.500 -0.1446  0.1779 -0.2269
 5560ntf    fn426700   4.038   0.988   1.364  0.0404  0.2139 -0.2200
 5561ntf    cn126701   1.461   1.129   7.495  0.2024  0.3665 -0.6447
 5561ntf    sn226702   1.292   1.077   7.453  0.1773 -0.1100  0.0264
 5561ntf    nn326703   1.306   0.925   7.418  0.3586 -0.0245 -0.2676
 5561ntf    sn226704   1.280   0.849   7.282  0.0776 -0.1449 -0.1474
 5561ntf    cn126705   1.261   0.682   7.350 -0.3643 -0.0064  0.0718
 5561ntf    fn426706   1.548   1.095   7.402  0.7368  0.7232 -0.2790
 5561ntf    fn426707   1.470   1.260   7.511  0.2917  0.3558 -0.6073
 5561ntf    fn426708   1.509   1.073   7.605 -1.0139  0.5086 -0.0187
 5561ntf    on526709   1.229   1.091   7.582  0.0001  0.0793 -0.0792
 5561ntf    on526710   1.232   1.168   7.358 -0.3859 -0.3347  0.1589
 5561ntf    on526711   1.403   0.849   7.206  0.3021 -0.1543  0.2108
 5561ntf    on526712   1.154   0.867   7.215  0.1813 -0.3213 -0.3861
 5561ntf    fn426713   1.178   0.612   7.274  0.1052 -0.6329  0.1334
 5561ntf    fn426714   1.379   0.625   7.366 -0.2183  0.1946 -0.2885
 5561ntf    fn426715   1.196   0.690   7.465 -0.2188 -0.1439  0.1643
 5562ntf    cn126716   2.720   1.247   3.804  0.2512 -0.4042 -0.2939
 5562ntf    sn226717   2.629   1.180   3.662 -0.4095 -0.3395  0.0930
 5562ntf    nn326718   2.548   1.066   3.734  0.1324 -0.8127 -0.0371
 5562ntf    sn226719   2.399   1.073   3.784  0.2923  0.2034  0.3188
 5562ntf    cn126720   2.302   1.022   3.639  0.2954  0.2628  0.2960
 5562ntf    fn426721   2.791   1.151   3.862  0.3315  0.3427  0.8828
 5562ntf    fn426722   2.803   1.342   3.765 -0.6529  0.3944 -0.3030
 5562ntf    fn426723   2.641   1.298   3.898  0.4253  0.2689 -0.5059
 5562ntf    on526724   2.563   1.292   3.600  0.1362 -0.2319 -0.2995
 5562ntf    on526725   2.745   1.127   3.595 -0.4245 -0.1813 -0.0574
 5562ntf    on526726   2.351   1.206   3.813 -0.3720  0.0089  0.1341
 5562ntf    on526727   2.365   0.966   3.874 -0.3189  0.0619 -0.0727
 5562ntf    fn426728   2.351   0.905   3.603 -0.1849  0.1299  0.0681
 5562ntf    fn426729   2.172   1.017   3.664  0.2737 -0.2604  0.0786
 5562ntf    fn426730   2.316   1.086   3.524 -0.3548 -0.1181  0.0012
 5563ntf    cn126731   2.862   3.865   0.322  0.1796 -0.4299  0.2924
 5563ntf    sn226732   2.984   3.779   0.217  0.0712 -0.3172  0.0734
 5563ntf    nn326733   2.902   3.714   0.100  0.0013  0.2042 -0.1737
 5563ntf    sn226734   2.842   3.770  -0.033 -0.5451  0.1874  0.0634
 5563ntf    cn126735   2.677   3.695  -0.019 -0.4570 -0.0297 -0.0623
 5563ntf    fn426736   2.785   3.954   0.261  0.0891 -0.4964  0.3086
 5563ntf    fn426737   2.785   3.785   0.395  0.1924 -0.4869  0.2438
 5563ntf    fn426738   2.930   3.934   0.411  0.8066 -0.6410 -0.0168
 5563ntf    on526739   3.071   3.884   0.170 -0.3037 -0.0334  0.0003
 5563ntf    on526740   3.042   3.680   0.304 -0.4738 -0.8830 -0.1976
 5563ntf    on526741   2.896   3.720  -0.157 -0.2304  0.3327  0.1405
 5563ntf    on526742   2.827   3.914  -0.029  0.3921  0.3065 -0.4323
 5563ntf    fn426743   2.684   3.564  -0.040  0.2618 -0.0296  0.1277
 5563ntf    fn426744   2.615   3.720   0.095  0.4158  0.0264  0.4080
 5563ntf    fn426745   2.599   3.748  -0.112 -0.5285  0.1357  0.0908
 5564ntf    cn126746   1.667   1.249   0.960 -0.2203  0.4204 -0.0022
 5564ntf    sn226747   1.669   1.227   1.140 -0.1043  0.4017 -0.0060
 5564ntf    nn326748   1.594   1.359   1.179 -0.3575  0.3366 -0.2734
 5564ntf    sn226749   1.601   1.431   1.319 -0.0402  0.0850 -0.1612
 5564ntf    cn126750   1.688   1.578   1.257 -0.0895  0.2019  0.0488
 5564ntf    fn426751   1.708   1.367   0.917  0.2849  0.5039  0.6922
 5564ntf    fn426752   1.734   1.160   0.889 -0.3374  0.0310  0.3691
 5564ntf    fn426753   1.543   1.234   0.916 -0.0087 -0.8419 -0.2087
 5564ntf    on526754   1.599   1.103   1.160 -0.1640  0.2905 -0.8821
 5564ntf    on526755   1.809   1.231   1.174 -0.1506  0.3247  0.1937
 5564ntf    on526756   1.697   1.381   1.414  0.3724  0.3836 -0.4127
 5564ntf    on526757   1.479   1.482   1.375 -0.0643 -0.0648 -0.0764
 5564ntf    fn426758   1.616   1.637   1.163 -0.5949  0.0367  0.3298
 5564ntf    fn426759   1.696   1.661   1.360 -0.5915  0.4233 -0.0897
 5564ntf    fn426760   1.810   1.555   1.212  0.0488  0.6599  0.1773
 5565ntf    cn126761   2.902   7.482   2.802 -0.5940  0.3547 -0.2605
 5565ntf    sn226762   2.821   7.557   2.947 -0.3866 -0.0322  0.0581
 5565ntf    nn326763   2.937   7.531   3.049 -0.5352  0.2771  0.3092
 5565ntf    sn226764   2.934   7.534   3.206 -0.2015 -0.1206  0.3269
 5565ntf    cn126765   2.910   7.360   3.253 -0.6947 -0.1340  0.0329
 5565ntf    fn426766   3.003   7.558   2.762 -0.2244 -0.2613 -0.5128
 5565ntf    fn426767   2.960   7.371   2.844 -0.2804  0.5286 -0.2238
 5565ntf    fn426768   2.819   7.457   2.703 -0.1635 -0.1407 -0.4975
 5565ntf    on526769   2.797   7.691   2.900 -0.1599 -0.0575 -0.1314
 5565ntf    on526770   2.699   7.482   2.964 -0.4905  0.1448  0.0978
 5565ntf    on526771   2.815   7.594   3.261 -0.6623 -0.4985 -0.2378
 5565ntf    on526772   3.065   7.567   3.254 -0.0223  0.3586 -0.4659
 5565ntf    fn426773   2.795   7.303   3.221 -0.5257  0.1052 -1.0481
 5565ntf    fn426774   3.004   7.285   3.197 -0.2009  0.1270  0.5003
 5565ntf    fn426775   2.928   7.348   3.383 -0.2237  0.2165  0.0024
 5566ntf    cn126776   4.017   0.208   1.408 -0.0970  0.2791 -0.0127
 5566ntf    sn226777   4.026   0.325   1.269  0.1830  0.0189 -0.2128
 5566ntf    nn326778   3.876   0.319   1.225  0.2092  0.3320 -0.3435
 5566ntf    sn226779   3.798   0.237   1.116  0.3251 -0.5401  0.2169
 5566ntf    cn126780   3.787   0.363   0.985  0.1899 -0.7089  0.0671
 5566ntf    fn426781   4.135   0.202   1.467  0.1509  0.0385 -0.5347
 5566ntf    fn426782   3.928   0.243   1.501 -0.0363  0.0451  0.1333
 5566ntf    fn426783   3.987   0.085   1.370  0.2134  0.4164 -0.7032
 5566ntf    on526784   4.074   0.444   1.334 -0.0704  0.1292 -0.2298
 5566ntf    on526785   4.115   0.262   1.174 -0.1948 -0.6162 -0.1551
 5566ntf    on526786   3.660   0.226   1.157  0.4829 -0.1902  0.8543
 5566ntf    on526787   3.855   0.119   1.056 -0.2497 -0.6418 -0.1346
 5566ntf    fn426788   3.733   0.472   1.035 -0.0238 -0.5703 -0.4587
 5566ntf    fn426789   3.904   0.403   0.938 -0.2349  0.3398 -0.1155
 5566ntf    fn426790   3.723   0.328   0.874  0.2759  0.0354 -0.2252
 5567ntf    cn126791   3.667   6.440   2.179  0.1693  0.1207 -0.2310
 5567ntf    sn226792   3.721   6.614   2.187  0.1772  0.1250 -0.3688
 5567ntf    nn326793   3.820   6.614   2.065  0.2045  0.4692 -0.3476
 5567ntf    sn226794   3.962   6.548   2.060 -0.0370 -0.0969  0.1724
 5567ntf    cn126795   4.045   6.672   1.958 -0.1616  0.0607  0.2620
 5567ntf    fn426796   3.586   6.416   2.280 -0.0476  0.4047 -0.3364
 5567ntf    fn426797   3.590   6.409   2.076 -0.3198 -0.0083  0.1732
 5567ntf    fn426798   3.758   6.344   2.180  0.1379  0.0950  0.2452
 5567ntf    on526799   3.599   6.689   2.172  0.2901  0.4819  0.4581
 5567ntf    on526800   3.790   6.628   2.313  0.4696  0.2437 -0.5410
 5567ntf    on526801   3.962   6.425   1.985 -0.0087  0.0571 -0.0792
 5567ntf    on526802   4.043   6.559   2.179  0.6895 -0.4656 -0.2827
 5567ntf    fn426803   4.177   6.665   1.967 -0.1004  0.3395 -0.3289
 5567ntf    fn426804   4.015   6.674   1.829 -0.3901  0.2696  0.3179
 5567ntf    fn426805   4.017   6.796   1.996 -0.3986  0.0482  0.1327
 5568ntf    cn126806   2.013   3.395   6.223  0.2898 -0.5804 -0.2200
 5568ntf    sn226807   1.906   3.352   6.082 -0.0411 -0.1443 -0.1071
 5568ntf    nn326808   1.982   3.406   5.956 -0.2755  0.1009 -0.1424
 5568ntf    sn226809   1.996   3.552   5.899  0.4770  0.0706 -0.0377
 5568ntf    cn126810   2.145   3.538   5.795  0.4997 -0.4148  0.0540
 5568ntf    fn426811   2.136   3.357   6.194  0.5910  0.2802 -0.0971
 5568ntf    fn426812   2.023   3.524   6.251  0.2673 -0.5599 -0.3074
 5568ntf    fn426813   1.977   3.350   6.342  0.0899  0.5440  0.1613
 5568ntf    on526814   1.902   3.208   6.082  0.3906 -0.1615  0.3707
 5568ntf    on526815   1.784   3.426   6.104  0.2595  0.4613 -0.4480
 5568ntf    on526816   2.051   3.641   5.999 -0.0693 -0.3454  0.6394
 5568ntf    on526817   1.902   3.603   5.803 -0.0865 -0.3019  0.3133
 5568ntf    fn426818   2.245   3.481   5.859  0.3432 -0.3860  0.3288
 5568ntf    fn426819   2.128   3.458   5.691  0.8609 -0.2994 -0.0940
 5568ntf    fn426820   2.193   3.655   5.757 -0.4231 -0.1032 -0.1997
 5569ntf    cn126821   3.944   1.764   3.536  0.1654 -0.4459 -0.1568
 5569ntf    sn226822   3.985   1.899   3.650 -0.2779 -0.3889 -0.0627
 5569ntf    nn326823   3.882   2.008   3.602  0.1635  0.0721  0.0273
 5569ntf    sn226824   3.814   2.117   3.693  0.0163  0.2063 -0.2446
 5569ntf    cn126825   3.674   2.018   3.754  0.0371  0.4224  0.1547
 5569ntf    fn426826   3.963   1.783   3.407  0.1917 -0.2050 -0.1183
 5569ntf    fn426827   4.008   1.652   3.565  0.2041 -0.3461  0.1463
 5569ntf    fn426828   3.817   1.727   3.549  0.0585 -0.0762 -0.1262
 5569ntf    on526829   3.968   1.826   3.773  0.8192  0.6242  0.7147
 5569ntf    on526830   4.122   1.929   3.616 -0.4763 -0.0285 -0.5445
 5569ntf    on526831   3.751   2.223   3.618  0.0614  0.0154 -0.5534
 5569ntf    on526832   3.889   2.151   3.811  0.9683 -0.2335 -0.7134
 5569ntf    fn426833   3.601   1.959   3.661 -0.0822 -0.1755  0.6248
 5569ntf    fn426834   3.715   1.920   3.834 -0.3937  0.0317 -0.0986
 5569ntf    fn426835   3.594   2.086   3.834  0.1715  0.5941  0.1438
 5570ntf    cn126836   4.271   5.502   6.836 -0.0212  0.1771  0.3192
 5570ntf    sn226837   4.221   5.657   6.917 -0.4378  0.3610 -0.2809
 5570ntf    nn326838   4.065   5.645   6.914 -0.4402  0.0749  0.6002
 5570ntf    sn226839   3.959   5.749   6.861 -0.4123 -0.1520  0.1000
 5570ntf    cn126840   3.962   5.885   6.981 -0.1331 -0.1701  0.1139
 5570ntf    fn426841   4.234   5.503   6.709 -0.3223  0.1240  0.4067
 5570ntf    fn426842   4.401   5.477   6.830 -0.0865 -0.0575 -0.1083
 5570ntf    fn426843   4.207   5.398   6.888 -0.4830  0.3189  0.0372
 5570ntf    on526844   4.264   5.654   7.055  0.3315  0.0321 -0.5212
 5570ntf    on526845   4.276   5.754   6.826  0.1902  0.1505 -0.1309
 5570ntf    on526846   3.834   5.689   6.899 -0.3490 -0.1200  0.3584
 5570ntf    on526847   3.988   5.808   6.732  0.3293 -0.3689  0.1620
 5570ntf    fn426848   3.976   5.836   7.103 -0.1770 -0.1587  0.1235
 5570ntf    fn426849   4.050   5.982   6.958 -0.6127  0.2839  0.1664
 5570ntf    fn426850   3.846   5.947   6.975  0.1599  0.3620 -0.1558
 5571ntf    cn126851   1.203   5.260   0.547 -0.2028  0.2023 -0.1239
 5571ntf    sn226852   1.361   5.315   0.476 -0.1272 -0.0270 -0.1351
 5571ntf    nn326853   1.316   5.402   0.354 -0.3434 -0.2596 -0.2218
 5571ntf    sn226854   1.310   5.559   0.357  0.1200 -0.2463  0.1451
 5571ntf    cn126855   1.478   5.616   0.321  0.1035 -0.2213  0.1077
 5571ntf    fn426856   1.138   5.360   0.604 -0.4056  0.0141 -0.0240
 5571ntf    fn426857   1.129   5.204   0.453 -0.1773 -0.3190  0.1636
 5571ntf    fn426858   1.225   5.163   0.635 -0.1990  0.2424 -0.0802
 5571ntf    on526859   1.430   5.371   0.590  0.0708 -0.1292 -0.2038
 5571ntf    on526860   1.407   5.193   0.415  0.2194  0.0479 -0.0259
 5571ntf    on526861   1.270   5.615   0.484 -0.2246  0.1933 -0.1508
 5571ntf    on526862   1.234   5.603   0.243  0.1545  0.2964  0.3288
 5571ntf    fn426863   1.567   5.557   0.399  0.0825 -0.4819 -0.0630
 5571ntf    fn426864   1.502   5.586   0.194 -0.8082  0.2308 -0.1770
 5571ntf    fn426865   1.496   5.747   0.330  0.1367 -0.2140 -0.0520
 5572ntf    cn126866   2.475   1.563   5.899  0.0351 -0.5751  0.0464
 5572ntf    sn226867   2.533   1.547   6.071 -0.1575  0.0392  0.1712
 5572ntf    nn326868   2.571   1.395   6.078  0.1684  0.1318  0.4350
 5572ntf    sn226869   2.707   1.331   6.124  0.1258 -0.0874  0.2607
 5572ntf    cn126870   2.830   1.385   6.001 -0.1422  0.0954  0.0721
 5572ntf    fn426871   2.567   1.561   5.805 -0.2138 -0.2572 -0.2046
 5572ntf    fn426872   2.397   1.458   5.878 -0.1594 -0.3846 -0.1840
 5572ntf    fn426873   2.400   1.668   5.869  0.0883 -0.5050  0.1587
 5572ntf    on526874   2.637   1.647   6.066  0.2364 -0.3620  0.2233
 5572ntf    on526875   2.412   1.567   6.146 -0.5024 -0.2213 -0.3091
 5572ntf    on526876   2.700   1.188   6.111  0.1749 -0.0730  0.0768
 5572ntf    on526877   2.757   1.376   6.252  0.7098  0.2189 -0.0708
 5572ntf    fn426878   2.952   1.340   6.024  0.0370  0.2349 -0.5830
 5572ntf    fn426879   2.799   1.331   5.884  0.1848 -0.0262  0.0393
 5572ntf    fn426880   2.840   1.515   5.979  0.5223  0.0647  0.1786
 5573ntf    cn126881   7.160   4.220   0.968 -0.0555 -0.0613  0.2083
 5573ntf    sn226882   7.199   4.343   0.840  0.0533 -0.1387  0.1665
 5573ntf    nn326883   7.148   4.474   0.911 -0.2253  0.1048 -0.4748
 5573ntf    sn226884   7.004   4.536   0.911 -0.2027  0.1568  0.0496
 5573ntf    cn126885   7.013   4.621   0.751 -0.2431 -0.0444 -0.0602
 5573ntf    fn426886   7.195   4.094   0.948  0.2066  0.0827 -0.2579
 5573ntf    fn426887   7.235   4.245   1.074 -0.3154 -0.0785  0.3963
 5573ntf    fn426888   7.036   4.226   1.012 -0.1215 -0.6752  0.1123
 5573ntf    on526889   7.343   4.329   0.842  0.0600 -0.0233  0.5351
 5573ntf    on526890   7.129   4.293   0.725 -0.1877  0.1197  0.2001
 5573ntf    on526891   6.982   4.637   1.012  0.7695  1.2839 -0.8296
 5573ntf    on526892   6.898   4.439   0.898 -0.3866  0.3640 -0.0034
 5573ntf    fn426893   6.905   4.690   0.720 -0.3164  0.0099  0.3122
 5573ntf    fn426894   7.111   4.711   0.748  0.2430 -0.5804 -0.5442
 5573ntf    fn426895   7.037   4.538   0.651 -0.5012 -0.0592 -0.1091
 5574ntf    cn126896   6.308   4.649   1.420  0.1226  0.2066  0.0066
 5574ntf    sn226897   6.173   4.768   1.449 -0.0650 -0.0564  0.2223
 5574ntf    nn326898   6.182   4.795   1.603  0.3732 -0.0888  0.2048
 5574ntf    sn226899   6.237   4.924   1.676  0.0783  0.1146  0.0694
 5574ntf    cn126900   6.168   4.899   1.842 -0.5885 -0.6148 -0.3058
 5574ntf    fn426901   6.423   4.714   1.413  0.1138  0.1964 -0.2375
 5574ntf    fn426902   6.326   4.568   1.523 -0.2449  0.2078  0.0732
 5574ntf    fn426903   6.304   4.574   1.310 -0.5955 -0.0338  0.1919
 5574ntf    on526904   6.211   4.868   1.352  0.5435 -0.7159 -0.2427
 5574ntf    on526905   6.063   4.682   1.414 -0.3114  0.3977 -0.1194
 5574ntf    on526906   6.171   5.047   1.641  0.0186  0.0641  0.0026
 5574ntf    on526907   6.378   4.919   1.703  0.0271 -0.3962  0.2504
 5574ntf    fn426908   6.038   4.876   1.841 -0.7063  0.0436 -0.7315
 5574ntf    fn426909   6.225   4.805   1.915 -0.3061 -0.3335 -0.1592
 5574ntf    fn426910   6.172   5.009   1.916 -0.3359 -0.2340 -0.8752
 5575ntf    cn126911   3.625   3.154   2.856  0.3618  0.1117 -0.0338
 5575ntf    sn226912   3.543   3.313   2.889  0.0268 -0.0797  0.0616
 5575ntf    nn326913   3.413   3.263   2.961 -0.1159  0.3042  0.0719
 5575ntf    sn226914   3.362   3.322   3.097 -0.2426  0.0011  0.1576
 5575ntf    cn126915   3.441   3.230   3.232 -0.0781  0.0437  0.0906
 5575ntf    fn426916   3.733   3.174   2.782  0.2692  0.0659 -0.1832
 5575ntf    fn426917   3.675   3.090   2.960 -0.1604  0.3082  0.3406
 5575ntf    fn426918   3.548   3.068   2.791  0.4557 -0.2430  0.3186
 5575ntf    on526919   3.645   3.378   2.968 -0.0421  0.1080 -0.0035
 5575ntf    on526920   3.526   3.364   2.755  0.3250  0.2654  0.1551
 5575ntf    on526921   3.221   3.294   3.110 -0.3470  0.2393 -0.4286
 5575ntf    on526922   3.403   3.459   3.117 -0.2491  0.0945 -0.4552
 5575ntf    fn426923   3.363   3.231   3.339 -0.1110  0.1275  0.0666
 5575ntf    fn426924   3.470   3.106   3.197 -0.0784 -0.0167  0.2987
 5575ntf    fn426925   3.556   3.275   3.281 -0.1034  0.2565 -0.0452
 5576ntf    cn126926   6.397   4.286   5.307  0.2017  0.2326  0.1084
 5576ntf    sn226927   6.335   4.380   5.164  0.2578  0.2593  0.1023
 5576ntf    nn326928   6.396   4.522   5.191  0.2122  0.3227 -0.1296
 5576ntf    sn226929   6.548   4.560   5.180  0.2133  0.2572 -0.3446
 5576ntf    cn126930   6.580   4.624   5.013  0.4275  0.2941 -0.2896
 5576ntf    fn426931   6.310   4.305   5.405  0.0152  0.2368 -0.0578
 5576ntf    fn426932   6.389   4.155   5.296 -0.3998  0.2479  0.3616
 5576ntf    fn426933   6.518   4.312   5.354  0.2887  0.2717 -0.1344
 5576ntf    on526934   6.386   4.317   5.045  0.1454 -0.1794  0.2844
 5576ntf    on526935   6.193   4.381   5.186  0.3385 -0.1172  0.6745
 5576ntf    on526936   6.645   4.454   5.192 -0.5098 -0.3711  0.0386
 5576ntf    on526937   6.573   4.680   5.256 -0.2724  0.1207  0.0430
 5576ntf    fn426938   6.707   4.658   4.998  0.5399 -0.1710 -0.4069
 5576ntf    fn426939   6.560   4.531   4.921  0.2766 -0.2483  0.2791
 5576ntf    fn426940   6.508   4.732   4.989  0.0139  0.0413 -0.2066
 5577ntf    cn126941   4.749   1.704   5.401  0.0663 -0.0599 -0.3128
 5577ntf    sn226942   4.864   1.649   5.530 -0.0189 -0.0726 -0.2419
 5577ntf    nn326943   4.846   1.781   5.613 -0.2349 -0.1907 -0.1018
 5577ntf    sn226944   4.750   1.814   5.733  0.0703 -0.1820  0.1427
 5577ntf    cn126945   4.863   1.883   5.857 -0.0415  0.3129 -0.0269
 5577ntf    fn426946   4.630   1.742   5.444  0.2545  0.1177  0.0589
 5577ntf    fn426947   4.797   1.813   5.342  0.1347  0.3329  0.4629
 5577ntf    fn426948   4.732   1.610   5.310 -0.3980  0.0290 -0.3190
 5577ntf    on526949   4.819   1.520   5.574  0.1780 -0.2918 -0.6767
 5577ntf    on526950   4.985   1.643   5.451  0.0687 -0.1759 -0.1015
 5577ntf    on526951   4.686   1.702   5.796  0.2496 -0.0836  0.4998
 5577ntf    on526952   4.668   1.932   5.711 -0.2711 -0.4940 -0.2865
 5577ntf    fn426953   4.953   1.794   5.896 -0.2598  0.2084  0.2419
 5577ntf    fn426954   4.908   1.997   5.808 -0.3542  0.3587 -0.2099
 5577ntf    fn426955   4.794   1.907   5.967  0.0569 -0.5155  0.2185
 5578ntf    cn126956   3.577   0.761   6.735  0.3626  0.3762 -0.6629
 5578ntf    sn226957   3.511   0.928   6.765 -0.3865  0.0102 -0.2551
 5578ntf    nn326958   3.636   0.998   6.829 -0.3372 -0.3090  0.0031
 5578ntf    sn226959   3.638   1.149   6.874  0.1039 -0.3027 -0.0349
 5578ntf    cn126960   3.704   1.226   6.723 -0.0724 -0.0159  0.0339
 5578ntf    fn426961   3.640   0.696   6.831 -0.1733  0.4962 -0.2305
 5578ntf    fn426962   3.487   0.674   6.692  0.5195  0.0313 -0.2995
 5578ntf    fn426963   3.672   0.756   6.642  0.3296 -0.3861 -0.6603
 5578ntf    on526964   3.482   0.981   6.635  0.0941  0.4117 -0.2004
 5578ntf    on526965   3.402   0.896   6.855 -0.0371 -0.1071  0.1327
 5578ntf    on526966   3.736   1.167   6.978 -0.4337 -0.2092  0.4605
 5578ntf    on526967   3.507   1.205   6.897  0.2949 -0.0537  0.4525
 5578ntf    fn426968   3.822   1.173   6.695 -0.4159 -0.5448 -0.4208
 5578ntf    fn426969   3.621   1.217   6.621  0.4040 -0.7881 -0.2891
 5578ntf    fn426970   3.722   1.356   6.743  0.0706 -0.0064 -0.1505
 5579ntf    cn126971   2.933   7.340   3.917 -0.4400 -0.1512  0.2797
 5579ntf    sn226972   3.060   7.447   3.990 -0.1567 -0.0398 -0.3684
 5579ntf    nn326973   3.102   7.519   3.857  0.5062  0.6085  0.1806
 5579ntf    sn226974   3.220   7.484   3.761 -0.0391 -0.1116 -0.2417
 5579ntf    cn126975   3.363   7.561   3.843 -0.2897 -0.1332  0.2130
 5579ntf    fn426976   2.823   7.398   3.871 -0.1875  0.0095 -0.1257
 5579ntf    fn426977   2.984   7.266   3.820  0.1571  0.1168  0.3891
 5579ntf    fn426978   2.888   7.258   4.011  0.0262 -0.4732  0.2263
 5579ntf    on526979   2.985   7.535   4.077  0.0570 -0.0978 -0.1231
 5579ntf    on526980   3.156   7.355   4.047 -0.2672 -0.1724 -0.3952
 5579ntf    on526981   3.214   7.564   3.641  0.1845  0.9211  0.4266
 5579ntf    on526982   3.256   7.345   3.748 -0.2804 -0.1535 -0.4742
 5579ntf    fn426983   3.394   7.513   3.962  0.5244  0.1311  0.1103
 5579ntf    fn426984   3.472   7.540   3.772 -0.9294 -0.2097 -0.7649
 5579ntf    fn426985   3.344   7.690   3.863  0.0476 -0.0427 -0.0605
 5580ntf    cn126986   6.595   3.377   1.372  0.1221 -0.2206  0.5149
 5580ntf    sn226987   6.682   3.339   1.217 -0.0168 -0.0377  0.3913
 5580ntf    nn326988   6.565   3.315   1.115  0.3996 -0.1962 -0.0529
 5580ntf    sn226989   6.556   3.217   0.992  0.1305 -0.3690  0.1028
 5580ntf    cn126990   6.498   3.332   0.864  0.0668 -0.5113  0.0041
 5580ntf    fn426991   6.678   3.378   1.475 -0.1850 -0.2514  0.7634
 5580ntf    fn426992   6.533   3.494   1.367 -0.3910 -0.4995  0.2487
 5580ntf    fn426993   6.499   3.291   1.401 -0.1541 -0.2586 -0.4563
 5580ntf    on526994   6.758   3.458   1.192  1.0301 -0.6813  0.4337
 5580ntf    on526995   6.756   3.223   1.258  0.3510 -0.0308 -0.2408
 5580ntf    on526996   6.445   3.127   1.015 -0.5825  0.6258  0.6284
 5580ntf    on526997   6.673   3.164   0.926 -0.5570 -0.4425 -1.0836
 5580ntf    fn426998   6.383   3.392   0.890 -0.0392 -0.3909 -0.7351
 5580ntf    fn426999   6.582   3.430   0.835 -0.5212 -0.0842 -0.2724
 5580ntf    fn427000   6.477   3.262   0.754  0.6301 -0.0495 -0.4041
 5581ntf    cn127001   7.087   4.610   0.340  0.1642  0.2248  0.2298
 5581ntf    sn227002   6.952   4.559   0.229  0.2000  0.0440  0.2700
 5581ntf    nn327003   6.831   4.552   0.329  0.0710  0.2721  0.1302
 5581ntf    sn227004   6.733   4.671   0.357 -0.1432  0.1025  0.1096
 5581ntf    cn127005   6.609   4.656   0.225  0.3571 -0.4692 -0.3023
 5581ntf    fn427006   7.177   4.667   0.261  0.1429 -0.4855 -0.3185
 5581ntf    fn427007   7.038   4.700   0.424  0.3997  0.8416 -0.2830
 5581ntf    fn427008   7.141   4.523   0.423 -0.0772  0.1815  0.3441
 5581ntf    on527009   6.948   4.652   0.119 -0.3875 -0.0340  0.2201
 5581ntf    on527010   6.993   4.423   0.203  0.4288  0.1601  0.0222
 5581ntf    on527011   6.790   4.802   0.337  0.2702 -0.0708  0.1437
 5581ntf    on527012   6.651   4.646   0.474 -0.3125  0.8271  0.1534
 5581ntf    fn427013   6.512   4.744   0.247 -0.0170 -0.9050 -0.1920
 5581ntf    fn427014   6.654   4.675   0.103  0.4186 -0.1908 -0.2367
 5581ntf    fn427015   6.552   4.537   0.225 -0.2525 -0.1838 -0.5782
 5582ntf    cn127016   6.259   4.410   5.690  0.2123 -0.2368 -0.2766
 5582ntf    sn227017   6.087   4.465   5.666  0.2636  0.1342  0.1863
 5582ntf    nn327018   6.029   4.493   5.809 -0.0525 -0.0908  0.1044
 5582ntf    sn227019   5.995   4.627   5.884  0.2086  0.1341 -0.1773
 5582ntf    cn127020   5.814   4.621   5.875  0.2073 -0.4586  0.1294
 5582ntf    fn427021   6.316   4.478   5.788 -0.2088 -0.3622  0.0607
 5582ntf    fn427022   6.278   4.283   5.719  0.2932 -0.0570  0.4663
 5582ntf    fn427023   6.324   4.432   5.577  0.2073 -0.9919 -0.4302
 5582ntf    on527024   6.095   4.570   5.568  0.0544 -0.2772 -0.2821
 5582ntf    on527025   6.031   4.341   5.617 -0.2410  0.3411  0.2372
 5582ntf    on527026   6.025   4.742   5.803  1.0795  0.5837  0.7584
 5582ntf    on527027   6.028   4.640   6.024 -0.0764  0.1243 -0.1077
 5582ntf    fn427028   5.757   4.733   5.918  0.6449 -0.2224  0.0942
 5582ntf    fn427029   5.777   4.609   5.748  0.0441  0.4451  0.0792
 5582ntf    fn427030   5.770   4.513   5.938  0.4377 -0.3068  0.5549
 5583ntf    cn127031   5.387   3.034   1.644  0.0305 -0.1552 -0.0811
 5583ntf    sn227032   5.295   3.172   1.570 -0.1305 -0.0263  0.3526
 5583ntf    nn327033   5.283   3.271   1.690  0.5013 -0.1617  0.5301
 5583ntf    sn227034   5.327   3.422   1.698  0.2916 -0.0715  0.0301
 5583ntf    cn127035   5.495   3.391   1.763  0.3180  0.5370  0.2513
 5583ntf    fn427036   5.389   2.932   1.559  0.1426 -0.3725  0.1795
 5583ntf    fn427037   5.512   3.052   1.685 -0.2021 -0.0969  0.6226
 5583ntf    fn427038   5.320   2.994   1.751 -0.0972  0.7509  0.1864
 5583ntf    on527039   5.378   3.215   1.460 -0.0526  0.0645  0.4478
 5583ntf    on527040   5.172   3.110   1.526  0.2546 -0.1704 -0.5590
 5583ntf    on527041   5.258   3.496   1.801  0.4528  0.1866 -0.0466
 5583ntf    on527042   5.352   3.494   1.576  0.8179 -0.2488  0.0304
 5583ntf    fn427043   5.506   3.319   1.873 -0.1968 -0.2271 -0.1896
 5583ntf    fn427044   5.573   3.341   1.669 -0.2349 -0.2812  0.2228
 5583ntf    fn427045   5.553   3.507   1.790 -0.0910  0.8408 -0.1422
 5584ntf    cn127046   3.901   6.332   3.060 -0.2420  0.2527 -0.0249
 5584ntf    sn227047   3.897   6.334   2.878 -0.2299 -0.1473 -0.0296
 5584ntf    nn327048   3.779   6.240   2.835  0.0235 -0.8570  0.7858
 5584ntf    sn227049   3.764   6.155   2.704  0.2788  0.1051  0.1167
 5584ntf    cn127050   3.663   6.279   2.617  0.0976 -0.1636 -0.0595
 5584ntf    fn427051   4.006   6.396   3.108  0.1406 -0.3966  0.0127
 5584ntf    fn427052   3.789   6.374   3.116 -0.2012  0.2079  0.0897
 5584ntf    fn427053   3.906   6.208   3.105 -0.1716  0.1529 -0.3059
 5584ntf    on527054   3.858   6.469   2.847  0.2031  0.1237  0.5688
 5584ntf    on527055   4.029   6.296   2.835 -0.0167  0.1553  0.3427
 5584ntf    on527056   3.679   6.039   2.717  0.3341  0.0032 -0.3890
 5584ntf    on527057   3.876   6.147   2.613  0.1037  0.6292 -0.1517
 5584ntf    fn427058   3.714   6.401   2.624  0.2479 -0.2462  0.3316
 5584ntf    fn427059   3.633   6.267   2.489 -0.1364  0.2502 -0.0431
 5584ntf    fn427060   3.551   6.298   2.685  0.2375  0.6762 -0.0518
 5585ntf    cn127061   6.140   6.166   3.291  0.1090  0.5073  0.2212
 5585ntf    sn227062   6.026   6.198   3.430 -0.0476 -0.3142  0.2854
 5585ntf    nn327063   5.999   6.351   3.411  0.8136 -0.2684 -0.6489
 5585ntf    sn227064   6.060   6.470   3.493 -0.0427 -0.1468 -0.1794
 5585ntf    cn127065   5.918   6.492   3.604 -0.0134 -0.1910 -0.1325
 5585ntf    fn427066   6.167   6.038   3.275  0.3153  0.5704  0.0672
 5585ntf    fn427067   6.096   6.201   3.171 -0.3398  0.0148  0.2346
 5585ntf    fn427068   6.260   6.219   3.308  0.3015  0.0544  0.2974
 5585ntf    on527069   5.914   6.117   3.388  0.0018 -0.1928 -0.0868
 5585ntf    on527070   6.095   6.156   3.550  0.0287 -0.0406  0.3366
 5585ntf    on527071   6.064   6.595   3.421 -0.0885 -0.1236 -0.1427
 5585ntf    on527072   6.166   6.452   3.589 -0.1096  0.5326  0.0296
 5585ntf    fn427073   5.934   6.591   3.691  0.0520  0.6019 -1.0231
 5585ntf    fn427074   5.807   6.517   3.536  0.2889 -0.0503 -0.5772
 5585ntf    fn427075   5.885   6.384   3.672 -0.0948 -0.2057 -0.1948
 5586ntf    cn127076   2.809   6.928   5.629  0.3193  0.2187 -0.2648
 5586ntf    sn227077   2.909   6.988   5.489 -0.0154  0.3913 -0.4329
 5586ntf    nn327078   2.845   6.912   5.368 -0.4403  0.1207 -0.0442
 5586ntf    sn227079   2.883   6.773   5.303  0.1792  0.0119  0.5349
 5586ntf    cn127080   2.723   6.709   5.245  0.2550  0.3733 -0.0806
 5586ntf    fn427081   2.807   6.796   5.642  0.4991  0.2041 -0.3843
 5586ntf    fn427082   2.845   6.970   5.748  0.1910 -1.0184  0.2269
 5586ntf    fn427083   2.682   6.964   5.617  0.1373 -0.1939  0.3774
 5586ntf    on527084   2.889   7.131   5.483 -0.2752  0.3780  0.0269
 5586ntf    on527085   3.040   6.937   5.522 -0.3451  0.1533  0.5467
 5586ntf    on527086   2.921   6.672   5.398  0.1767 -0.2451  0.2613
 5586ntf    on527087   2.958   6.794   5.182 -0.0114 -0.2445  0.3718
 5586ntf    fn427088   2.726   6.580   5.217 -0.5592  0.1820  0.6909
 5586ntf    fn427089   2.624   6.732   5.330  0.1250  0.0911 -0.1541
 5586ntf    fn427090   2.683   6.763   5.131 -0.4297 -0.3705 -0.2012
 5587ntf    cn127091   1.821   1.290   5.923  0.0486 -0.2052 -0.0846
 5587ntf    sn227092   1.723   1.222   5.787  0.0435  0.4351 -0.4054
 5587ntf    nn327093   1.716   1.340   5.683  0.1766  0.4933 -0.3469
 5587ntf    sn227094   1.640   1.476   5.693 -0.5525  0.0585  0.1241
 5587ntf    cn127095   1.503   1.452   5.575 -0.3321 -0.5423 -0.0121
 5587ntf    fn427096   1.778   1.409   5.962 -0.5129 -0.2985 -0.4189
 5587ntf    fn427097   1.803   1.222   6.035  0.3722 -0.1039  0.0317
 5587ntf    fn427098   1.952   1.301   5.903 -0.0496  0.4978 -0.3690
 5587ntf    on527099   1.796   1.113   5.728 -0.2019 -0.0510  0.1781
 5587ntf    on527100   1.598   1.189   5.851  0.0726  0.0456 -0.5483
 5587ntf    on527101   1.716   1.581   5.630 -0.2802 -0.1081  0.1763
 5587ntf    on527102   1.584   1.514   5.820  0.4977  0.1137  0.5732
 5587ntf    fn427103   1.405   1.384   5.633 -0.4203 -0.4030  0.0023
 5587ntf    fn427104   1.442   1.560   5.531  0.5875 -0.1446 -0.3395
 5587ntf    fn427105   1.545   1.395   5.464 -0.1424 -0.4317  0.0033
 5588ntf    cn127106   5.279   3.941   5.260  0.1383  0.0162 -0.0347
 5588ntf    sn227107   5.269   4.121   5.287 -0.2430  0.0303 -0.2599
 5588ntf    nn327108   5.133   4.122   5.366  0.0947  0.0662  0.3263
 5588ntf    sn227109   5.025   4.235   5.384 -0.2794 -0.2053 -0.1944
 5588ntf    cn127110   4.914   4.196   5.246 -0.2027  0.2616 -0.3899
 5588ntf    fn427111   5.244   3.877   5.371  0.3255  0.4052  0.2555
 5588ntf    fn427112   5.189   3.897   5.174 -0.0308  0.2313  0.0299
 5588ntf    fn427113   5.394   3.896   5.214 -0.3081 -0.4790 -0.6882
 5588ntf    on527114   5.377   4.159   5.374 -0.3052  0.0480 -0.1909
 5588ntf    on527115   5.268   4.175   5.154 -0.0813  0.2726 -0.1639
 5588ntf    on527116   5.071   4.368   5.351  0.5098 -0.3779  0.1838
 5588ntf    on527117   4.945   4.234   5.503  0.4523 -0.6624  0.3026
 5588ntf    fn427118   4.840   4.087   5.258 -0.0820  0.2121 -0.0897
 5588ntf    fn427119   4.829   4.296   5.227  0.3276  0.6625 -0.6664
 5588ntf    fn427120   4.977   4.192   5.130 -0.3436  0.0077 -0.4583
 5589ntf    cn127121   6.423   5.682   3.172 -0.1844  0.3522  0.1380
 5589ntf    sn227122   6.582   5.756   3.220 -0.0546  0.0588  0.1636
 5589ntf    nn327123   6.671   5.630   3.254  0.1121  0.0529 -0.2959
 5589ntf    sn227124   6.810   5.620   3.326 -0.1853  0.1690  0.2992
 5589ntf    cn127125   6.748   5.605   3.496  0.1901 -0.1525  0.4086
 5589ntf    fn427126   6.320   5.764   3.171 -0.3538  0.1381 -0.6092
 5589ntf    fn427127   6.424   5.618   3.056  0.4853  0.0150  0.3227
 5589ntf    fn427128   6.386   5.589   3.259  0.1031 -0.0687 -0.1857
 5589ntf    on527129   6.632   5.824   3.103  0.4674 -0.8547 -0.1565
 5589ntf    on527130   6.524   5.829   3.330 -0.0762 -0.0925  0.2532
 5589ntf    on527131   6.889   5.741   3.318  0.2713 -0.1551 -0.1372
 5589ntf    on527132   6.888   5.501   3.304 -0.1647  0.1396  0.5287
 5589ntf    fn427133   6.649   5.691   3.516  0.6996  0.5082  0.1109
 5589ntf    fn427134   6.700   5.483   3.517 -0.4679  0.0628  0.1636
 5589ntf    fn427135   6.840   5.620   3.589  0.6452  0.1516 -0.0861
 5590ntf    cn127136   7.384   3.921   4.611 -0.1152 -0.1511 -0.2099
 5590ntf    sn227137   7.402   4.019   4.459  0.2624 -0.0237 -0.0836
 5590ntf    nn327138   7.428   4.164   4.514 -0.3563  0.1834 -0.3270
 5590ntf    sn227139   7.472   4.286   4.426 -0.1638  0.3317 -0.0275
 5590ntf    cn127140   7.308   4.354   4.387 -0.1951  0.2689 -0.0052
 5590ntf    fn427141   7.499   3.905   4.674 -0.2146  0.0442  0.0226
 5590ntf    fn427142   7.311   3.988   4.698 -0.0353 -0.5530  0.1727
 5590ntf    fn427143   7.324   3.804   4.595 -0.6269  0.1184 -0.2947
 5590ntf    on527144   7.514   3.953   4.396 -0.0747 -0.3003 -0.4005
 5590ntf    on527145   7.276   4.003   4.391  0.4503  0.0372 -0.4499
 5590ntf    on527146   7.517   4.244   4.296  0.9790  0.4251  0.3252
 5590ntf    on527147   7.544   4.386   4.501 -0.4813  0.3082  0.3120
 5590ntf    fn427148   7.312   4.470   4.323  0.1240 -0.0914 -0.6360
 5590ntf    fn427149   7.239   4.266   4.317 -0.3797  0.0222  0.4792
 5590ntf    fn427150   7.245   4.382   4.501 -0.2716  0.0815 -0.0020
 5591ntf    cn127151   0.563   3.007   5.345  0.0986 -0.5779 -0.0196
 5591ntf    sn227152   0.630   3.033   5.512 -0.2470 -0.0101  0.0348
 5591ntf    nn327153   0.502   3.101   5.572 -0.1073 -0.1409  0.4886
 5591ntf    sn227154   0.455   3.104   5.722 -0.1744 -0.0771  0.4667
 5591ntf    cn127155   0.300   3.009   5.724 -0.1554 -0.1230  0.0006
 5591ntf    fn427156   0.555   3.121   5.278  0.0595 -0.0974  0.7915
 5591ntf    fn427157   0.647   2.935   5.272  0.3381 -0.1865 -0.1345
 5591ntf    fn427158   0.445   2.948   5.350 -0.4087  0.3856 -0.4040
 5591ntf    on527159   0.663   2.904   5.568  0.4838  0.2808  0.2834
 5591ntf    on527160   0.736   3.128   5.492  0.1003 -0.4380 -0.1727
 5591ntf    on527161   0.415   3.236   5.764 -0.9756 -0.3276  0.4930
 5591ntf    on527162   0.530   3.026   5.818  0.1234 -0.6840 -0.2460
 5591ntf    fn427163   0.213   3.027   5.627 -0.0170  0.8071  0.0385
 5591ntf    fn427164   0.326   2.880   5.714  0.0080 -0.0973  0.1002
 5591ntf    fn427165   0.236   3.025   5.839 -0.4673  0.2907 -0.2245
 5592ntf    cn127166   6.493   6.458   0.859 -0.2480  0.1670 -0.2044
 5592ntf    sn227167   6.361   6.582   0.839 -0.3082  0.1346 -0.0111
 5592ntf    nn327168   6.371   6.644   0.695 -0.0164 -0.2034 -0.1369
 5592ntf    sn227169   6.339   6.577   0.557 -0.0119 -0.1119 -0.1824
 5592ntf    cn127170   6.166   6.628   0.530 -0.0609 -0.1493  0.0491
 5592ntf    fn427171   6.614   6.510   0.846 -0.0783 -0.1894 -0.0674
 5592ntf    fn427172   6.491   6.411   0.983  0.1277 -0.1546 -0.3224
 5592ntf    fn427173   6.486   6.351   0.783  0.2349  0.0033 -0.0217
 5592ntf    on527174   6.238   6.510   0.858 -0.2143 -0.0376 -0.0591
 5592ntf    on527175   6.379   6.685   0.939 -0.5663 -0.3597  0.5471
 5592ntf    on527176   6.330   6.434   0.568  0.8019 -0.1472  0.0701
 5592ntf    on527177   6.412   6.631   0.445  0.5196 -0.6324 -0.0923
 5592ntf    fn427178   6.124   6.590   0.410  0.0190  0.2930 -0.1240
 5592ntf    fn427179   6.086   6.582   0.624  0.0527  0.2096  0.3267
 5592ntf    fn427180   6.161   6.760   0.539  0.4650 -0.1089 -0.1781
 5593ntf    cn127181   0.809   1.943   6.287 -0.0888  0.2361  0.2615
 5593ntf    sn227182   0.788   1.765   6.255  0.4481  0.1787  0.2256
 5593ntf    nn327183   0.821   1.764   6.101  0.1672  0.2594  0.1640
 5593ntf    sn227184   0.716   1.781   5.986  0.2608 -0.1216  0.0214
 5593ntf    cn127185   0.810   1.877   5.863 -0.1677  0.0695 -0.1579
 5593ntf    fn427186   0.716   2.017   6.228 -0.2668 -0.2664 -0.0962
 5593ntf    fn427187   0.805   1.970   6.416  0.0211 -0.1424  0.3442
 5593ntf    fn427188   0.924   1.988   6.240 -0.1869  0.2448  0.0270
 5593ntf    on527189   0.890   1.694   6.328 -0.2832 -0.6738  0.4247
 5593ntf    on527190   0.653   1.747   6.299  0.2530 -0.0040 -0.4309
 5593ntf    on527191   0.608   1.870   6.020  0.0301 -0.5204  0.3459
 5593ntf    on527192   0.688   1.658   5.916 -0.0594 -0.0999  0.1131
 5593ntf    fn427193   0.862   1.987   5.915  0.0328 -0.2728  0.3718
 5593ntf    fn427194   0.909   1.810   5.805  0.0902  0.0148  0.3391
 5593ntf    fn427195   0.738   1.916   5.759 -0.2371  0.3691  0.0023
 5594ntf    cn127196   4.470   4.136   6.312  0.7031 -0.0259 -0.3565
 5594ntf    sn227197   4.544   3.982   6.251  0.1792 -0.2477 -0.4408
 5594ntf    nn327198   4.478   3.957   6.110  0.0122  0.1305 -0.4318
 5594ntf    sn227199   4.358   3.867   6.066  0.1871 -0.1970 -0.2495
 5594ntf    cn127200   4.436   3.747   5.953  0.6842  0.2682 -0.4030
 5594ntf    fn427201   4.532   4.167   6.424 -0.3958  0.3632  0.1545
 5594ntf    fn427202   4.489   4.238   6.230  0.3698 -0.0355 -0.4476
 5594ntf    fn427203   4.339   4.137   6.329  0.7338  0.0751 -0.1181
 5594ntf    on527204   4.685   4.009   6.234  0.1799  0.1882  0.2190
 5594ntf    on527205   4.519   3.883   6.353 -0.0654 -0.0328 -0.2912
 5594ntf    on527206   4.262   3.932   5.980  0.0119  0.0223  0.1114
 5594ntf    on527207   4.296   3.787   6.169  0.0949  0.4042  0.1674
 5594ntf    fn427208   4.489   3.814   5.852  1.0413  0.3549 -0.1592
 5594ntf    fn427209   4.534   3.677   6.009 -0.2945 -0.6227  0.2486
 5594ntf    fn427210   4.349   3.665   5.897  0.2427  0.4197  0.0474
 5595ntf    cn127211   2.217   0.733   0.859  0.1872 -0.0571  0.1874
 5595ntf    sn227212   2.200   0.710   1.038  0.1769 -0.0656  0.1855
 5595ntf    nn327213   2.043   0.696   1.045  0.1204  0.5024  0.0876
 5595ntf    sn227214   1.934   0.801   1.086 -0.0470  0.3417  0.0509
 5595ntf    cn127215   1.819   0.678   1.155  0.2795 -0.0082 -0.0263
 5595ntf    fn427216   2.137   0.830   0.817 -0.1940 -0.2404  0.4904
 5595ntf    fn427217   2.341   0.763   0.822 -0.0645 -0.1492 -0.7544
 5595ntf    fn427218   2.186   0.629   0.783  0.3635  0.2920 -0.3739
 5595ntf    on527219   2.264   0.583   1.062  0.9848  0.3406  0.1936
 5595ntf    on527220   2.255   0.825   1.106  0.3421 -0.0980  0.1053
 5595ntf    on527221   1.862   0.868   0.980 -0.3773  0.1317  0.1420
 5595ntf    on527222   1.975   0.878   1.201  0.0472 -0.0637  0.2919
 5595ntf    fn427223   1.717   0.740   1.212  0.6843  0.4204  0.2420
 5595ntf    fn427224   1.778   0.592   1.062 -0.7197  0.0888  0.3087
 5595ntf    fn427225   1.882   0.610   1.250 -0.0410 -0.0789  0.1377
 5596ntf    cn127226   0.239   5.774   0.576  0.1831 -0.2644 -0.3879
 5596ntf    sn227227   0.288   5.662   0.710 -0.1485  0.0871  0.0297
 5596ntf    nn327228   0.144   5.622   0.757  0.0023 -0.2369  0.2174
 5596ntf    sn227229   0.080   5.605   0.900 -0.2318  0.0965  0.1542
 5596ntf    cn127230   0.141   5.437   0.934  0.0159  0.1703  0.0766
 5596ntf    fn427231   0.159   5.870   0.622  0.1444 -0.5511  0.1488
 5596ntf    fn427232   0.344   5.819   0.510  0.2789 -0.2803 -0.2445
 5596ntf    fn427233   0.163   5.710   0.487 -0.1708 -0.3205 -0.0480
 5596ntf    on527234   0.361   5.565   0.632  0.2353 -0.2201  0.7589
 5596ntf    on527235   0.376   5.741   0.793  0.2278 -0.0292 -0.2577
 5596ntf    on527236  -0.063   5.586   0.898 -0.1274 -0.7513  0.2298
 5596ntf    on527237   0.128   5.691   1.005 -0.0031  0.1193  0.0318
 5596ntf    fn427238   0.080   5.351   0.854 -0.0756  0.2692  0.0397
 5596ntf    fn427239   0.273   5.433   0.919  0.0300  0.2229  0.1863
 5596ntf    fn427240   0.117   5.403   1.060 -0.3963 -0.6628 -0.2209
 5597ntf    cn127241   2.683   4.946   0.317  0.0079 -0.2053 -0.3206
 5597ntf    sn227242   2.773   5.104   0.332 -0.1024 -0.1812  0.0957
 5597ntf    nn327243   2.659   5.209   0.356  0.2182  0.0810  0.4814
 5597ntf    sn227244   2.618   5.339   0.277  0.2840 -0.0737  0.1907
 5597ntf    cn127245   2.495   5.272   0.162  0.1045  0.0022  0.3385
 5597ntf    fn427246   2.766   4.844   0.323 -0.2843 -0.4164  0.1950
 5597ntf    fn427247   2.602   4.946   0.422 -0.3182  0.5085 -0.5598
 5597ntf    fn427248   2.613   4.942   0.204  0.7474 -0.4288 -0.7771
 5597ntf    on527249   2.862   5.080   0.442 -0.2517 -0.4594  0.1572
 5597ntf    on527250   2.843   5.116   0.207 -0.1344  0.1512  0.1094
 5597ntf    on527251   2.712   5.397   0.184  0.0353  0.6874  0.4051
 5597ntf    on527252   2.540   5.436   0.350  0.7372  0.1124  0.4317
 5597ntf    fn427253   2.431   5.365   0.093 -0.0773  0.0800  0.6107
 5597ntf    fn427254   2.546   5.188   0.072 -0.6432  0.5104 -0.5823
 5597ntf    fn427255   2.397   5.203   0.220 -0.1478 -0.1870 -0.2998
 5598ntf    cn127256   4.625   4.565   7.548  0.2340  0.3656  0.1882
 5598ntf    sn227257   4.568   4.415   7.634  0.3735  0.0446 -0.2793
 5598ntf    nn327258   4.556   4.319   7.511  0.1995  0.2885 -0.4528
 5598ntf    sn227259   4.482   4.181   7.500  0.4356  0.1381 -0.1800
 5598ntf    cn127260   4.612   4.059   7.529  0.1977 -0.0559  0.0697
 5598ntf    fn427261   4.753   4.543   7.520 -0.0325 -0.4653 -0.3952
 5598ntf    fn427262   4.559   4.585   7.435  0.1465  0.3378  0.2337
 5598ntf    fn427263   4.622   4.681   7.612 -0.0019  0.1328  0.6011
 5598ntf    on527264   4.682   4.390   7.719 -0.0698  0.2267  0.3791
 5598ntf    on527265   4.446   4.444   7.705  0.1082  0.2476 -0.8073
 5598ntf    on527266   4.437   4.156   7.365  0.2186 -0.2589 -0.0371
 5598ntf    on527267   4.384   4.154   7.603  0.7010 -0.5777 -0.1160
 5598ntf    fn427268   4.711   4.068   7.441  0.0182 -0.4447 -0.1746
 5598ntf    fn427269   4.673   4.079   7.646  0.0187  0.3521  0.0946
 5598ntf    fn427270   4.572   3.932   7.528 -0.4810  0.1593 -0.3076
 5599ntf    cn127271   0.230   6.279   6.030  0.1151 -0.2416  0.0282
 5599ntf    sn227272   0.175   6.115   5.975 -0.4655 -0.1255  0.2582
 5599ntf    nn327273   0.300   6.026   6.006 -0.1258  0.1218 -0.3863
 5599ntf    sn227274   0.354   5.901   5.928  0.1779  0.1946 -0.2958
 5599ntf    cn127275   0.505   5.979   5.863  0.0560  0.3021 -0.4496
 5599ntf    fn427276   0.139   6.371   6.002  1.0771  0.8750  0.4664
 5599ntf    fn427277   0.250   6.287   6.161  0.3346  0.1123 -0.0243
 5599ntf    fn427278   0.340   6.326   5.973  0.6499 -0.7019  0.6607
 5599ntf    on527279   0.066   6.081   6.064 -0.7626 -0.0061 -0.0601
 5599ntf    on527280   0.145   6.136   5.836  0.4198 -0.1668  0.0589
 5599ntf    on527281   0.273   5.856   5.817 -0.1763  0.0952 -0.0015
 5599ntf    on527282   0.399   5.794   6.014  0.2816  0.5816  0.1340
 5599ntf    fn427283   0.572   5.898   5.782  0.2853 -0.3747  0.3989
 5599ntf    fn427284   0.475   6.085   5.790 -0.1384  1.0886  0.7548
 5599ntf    fn427285   0.588   6.012   5.960 -0.1811 -0.1641 -0.0855
 5600ntf    cn127286   3.151   0.480   0.422 -0.1797  0.2009  0.1030
 5600ntf    sn227287   3.287   0.430   0.312 -0.2692 -0.0754  0.1170
 5600ntf    nn327288   3.412   0.462   0.401 -0.0600 -0.0764 -0.1751
 5600ntf    sn227289   3.562   0.433   0.367 -0.0078 -0.4085  0.3333
 5600ntf    cn127290   3.608   0.282   0.458  0.2205 -0.2596  0.4674
 5600ntf    fn427291   3.034   0.471   0.361  0.2111  0.3063 -0.6659
 5600ntf    fn427292   3.140   0.395   0.523 -0.1939  0.1208  0.0337
 5600ntf    fn427293   3.165   0.603   0.469  0.0691  0.3604 -0.3794
 5600ntf    on527294   3.245   0.295   0.284 -0.3631  0.0871 -0.5319
 5600ntf    on527295   3.288   0.519   0.198  0.0680  0.0332  0.2032
 5600ntf    on527296   3.648   0.535   0.421  0.4919 -0.3913 -0.4854
 5600ntf    on527297   3.576   0.391   0.230  0.1646  0.5698  0.0406
 5600ntf    fn427298   3.525   0.182   0.432  0.2132 -0.0642 -0.2857
 5600ntf    fn427299   3.726   0.242   0.415 -0.0195 -0.1757 -0.2981
 5600ntf    fn427300   3.620   0.291   0.589  0.0331  0.2944  0.4479
 5601ntf    cn127301   1.680   5.095   2.962  0.1320  0.0279  0.3075
 5601ntf    sn227302   1.757   4.935   2.927  0.0870  0.0347  0.1728
 5601ntf    nn327303   1.868   4.991   2.832 -0.3911  0.3896 -0.1786
 5601ntf    sn227304   1.908   4.968   2.682  0.3513 -0.1932  0.1034
 5601ntf    cn127305   1.957   5.140   2.647 -0.0531 -0.0450  0.2635
 5601ntf    fn427306   1.578   5.072   3.042  0.3623  0.0517  0.6085
 5601ntf    fn427307   1.753   5.179   3.033  0.4149 -0.0833  0.1501
 5601ntf    fn427308   1.624   5.164   2.864  0.4616 -0.7283 -0.4260
 5601ntf    on527309   1.807   4.890   3.055  0.2647  0.0473  0.1076
 5601ntf    on527310   1.650   4.860   2.866  0.2685 -0.3315  0.2996
 5601ntf    on527311   1.791   4.933   2.606 -0.1448 -0.1356  0.8247
 5601ntf    on527312   2.031   4.892   2.675  0.1740 -0.4786  0.0653
 5601ntf    fn427313   1.966   5.164   2.518 -0.9898  0.0623  0.2120
 5601ntf    fn427314   1.868   5.225   2.695  0.0774  0.2593 -0.0330
 5601ntf    fn427315   2.069   5.178   2.706  0.0530  0.0875 -0.0243
 5602ntf    cn127316   5.056   1.923   0.014 -0.3144  0.0860  0.1751
 5602ntf    sn227317   5.080   1.933  -0.165  0.2245  0.2042  0.2539
 5602ntf    nn327318   4.951   2.015  -0.201  0.3677  0.2999 -0.0442
 5602ntf    sn227319   4.811   1.954  -0.238  0.4391  0.1193 -0.0177
 5602ntf    cn127320   4.746   2.117  -0.286 -0.2483 -0.1850 -0.1161
 5602ntf    fn427321   5.147   1.849   0.075 -0.5408 -0.0434  0.3590
 5602ntf    fn427322   5.046   2.039   0.078 -0.6862 -0.2026  0.6505
 5602ntf    fn427323   4.942   1.861   0.040 -0.3466 -0.1864 -0.6064
 5602ntf    on527324   5.201   2.008  -0.189  0.2800  0.1593  0.3911
 5602ntf    on527325   5.085   1.791  -0.191 -0.3436  0.2044  0.1331
 5602ntf    on527326   4.729   1.912  -0.127  0.6744 -0.0291  0.1014
 5602ntf    on527327   4.797   1.887  -0.364  0.6666 -0.2301  0.1397
 5602ntf    fn427328   4.836   2.177  -0.360  0.1157  0.3470  0.7436
 5602ntf    fn427329   4.632   2.100  -0.352 -0.2981 -0.5181  0.0502
 5602ntf    fn427330   4.733   2.204  -0.187 -0.3207 -0.1834 -0.1260
 5603ntf    cn127331   5.307   1.501   6.286 -0.0171 -0.1058 -0.3600
 5603ntf    sn227332   5.225   1.655   6.234 -0.0989 -0.0975 -0.2057
 5603ntf    nn327333   5.083   1.628   6.296 -0.3324  0.1186 -0.6432
 5603ntf    sn227334   5.009   1.677   6.426  0.0846 -0.4511 -0.1877
 5603ntf    cn127335   4.922   1.822   6.359  0.2710 -0.1595  0.1972
 5603ntf    fn427336   5.226   1.400   6.308 -0.2901  0.2170  0.1258
 5603ntf    fn427337   5.399   1.458   6.201 -0.0603  0.2015 -0.5654
 5603ntf    fn427338   5.372   1.516   6.401 -0.3812 -0.0784 -0.1562
 5603ntf    on527339   5.297   1.765   6.292  0.0906 -0.1887 -0.2670
 5603ntf    on527340   5.216   1.644   6.090 -0.3089 -0.1136 -0.1917
 5603ntf    on527341   5.094   1.725   6.532 -0.1983 -0.6735  0.1375
 5603ntf    on527342   4.898   1.594   6.464 -0.5412  0.4861  0.0657
 5603ntf    fn427343   4.795   1.826   6.396  0.3665  0.8804  0.4386
 5603ntf    fn427344   4.962   1.942   6.398 -0.1216 -0.0412  0.2384
 5603ntf    fn427345   4.912   1.829   6.227  0.2468 -0.4540  0.1834
 5604ntf    cn127346   3.480   2.971   0.560 -0.3299 -0.4886 -0.1432
 5604ntf    sn227347   3.318   2.903   0.515 -0.3697 -0.5243  0.0521
 5604ntf    nn327348   3.343   2.874   0.363 -0.2694 -0.3534  0.0361
 5604ntf    sn227349   3.420   2.750   0.304  0.1326 -0.0369 -0.1182
 5604ntf    cn127350   3.508   2.831   0.168  0.3578  0.0629  0.0848
 5604ntf    fn427351   3.502   3.086   0.499 -0.8588 -0.2252  0.1606
 5604ntf    fn427352   3.485   2.985   0.691  0.0461 -0.5368 -0.1495
 5604ntf    fn427353   3.578   2.886   0.532  0.0323 -0.2953  0.5187
 5604ntf    on527354   3.300   2.794   0.607  0.0042 -0.4921  0.1642
 5604ntf    on527355   3.231   3.017   0.535  0.0405 -0.3384  0.8288
 5604ntf    on527356   3.321   2.662   0.246  0.2080 -0.5884  0.5788
 5604ntf    on527357   3.523   2.686   0.382  0.3203  0.2887 -0.1000
 5604ntf    fn427358   3.434   2.886   0.073  0.2558 -0.3359 -0.0703
 5604ntf    fn427359   3.579   2.931   0.217  0.4975  0.2288 -0.4482
 5604ntf    fn427360   3.593   2.747   0.111  0.0079 -0.4773  0.3521
 5605ntf    cn127361   3.530   5.568   4.352  0.0879  0.1726 -0.3298
 5605ntf    sn227362   3.602   5.421   4.272 -0.0835 -0.0977  0.0107
 5605ntf    nn327363   3.623   5.475   4.126  0.1572 -0.1480  0.0272
 5605ntf    sn227364   3.539   5.442   3.997 -0.1751  0.2581  0.1413
 5605ntf    cn127365   3.669   5.477   3.875 -0.0794  0.6224  0.3451
 5605ntf    fn427366   3.585   5.683   4.315  0.2513  0.3976  0.6035
 5605ntf    fn427367   3.405   5.582   4.312 -0.0919  0.2806  0.2722
 5605ntf    fn427368   3.529   5.554   4.483  0.7057 -0.1805 -0.3553
 5605ntf    on527369   3.731   5.405   4.334 -0.4246  0.1258  0.7931
 5605ntf    on527370   3.505   5.316   4.290  0.3670 -0.5565 -0.2186
 5605ntf    on527371   3.443   5.546   3.969 -0.2174  0.1618 -0.0692
 5605ntf    on527372   3.514   5.301   3.982 -0.1834  0.2866 -0.1043
 5605ntf    fn427373   3.765   5.388   3.893 -0.4316  0.1554 -0.0778
 5605ntf    fn427374   3.624   5.470   3.751 -0.3166  0.9327  0.4119
 5605ntf    fn427375   3.712   5.600   3.898 -0.0476  0.6569  0.1004
 5606ntf    cn127376   0.531   4.516   0.055 -0.0713  0.3443 -0.0306
 5606ntf    sn227377   0.644   4.514   0.198 -0.1602  0.2969  0.0394
 5606ntf    nn327378   0.555   4.434   0.300 -0.1119 -0.0777 -0.2112
 5606ntf    sn227379   0.560   4.281   0.332 -0.2825 -0.0816 -0.2016
 5606ntf    cn127380   0.720   4.273   0.418 -0.4169  0.0693  0.0671
 5606ntf    fn427381   0.583   4.560  -0.059 -0.0019  0.7125  0.1415
 5606ntf    fn427382   0.485   4.395   0.026 -0.4818  0.6727 -0.7751
 5606ntf    fn427383   0.426   4.594   0.073 -0.2301  0.0823  0.1876
 5606ntf    on527384   0.758   4.440   0.150 -0.0961  0.4023  0.0286
 5606ntf    on527385   0.666   4.652   0.235 -0.0070  0.2073  0.2805
 5606ntf    on527386   0.561   4.197   0.215 -0.6331 -0.1557 -0.1538
 5606ntf    on527387   0.452   4.258   0.426  0.1069  0.2604  0.3391
 5606ntf    fn427388   0.810   4.206   0.347 -0.2704 -0.3101  0.5990
 5606ntf    fn427389   0.768   4.392   0.449 -0.1904 -0.0064  0.0095
 5606ntf    fn427390   0.709   4.205   0.531 -0.1715  0.0034  0.0531
 5607ntf    cn127391   4.573   1.486   4.313 -0.0413 -0.3410  0.1258
 5607ntf    sn227392   4.630   1.526   4.145  0.0367  0.0225  0.2380
 5607ntf    nn327393   4.748   1.423   4.132 -0.4958 -0.5222 -0.3274
 5607ntf    sn227394   4.790   1.334   4.009  0.4444 -0.2928 -0.1772
 5607ntf    cn127395   4.867   1.461   3.905 -0.0007  0.1831  0.0724
 5607ntf    fn427396   4.502   1.374   4.311  0.1561 -0.4745  0.5234
 5607ntf    fn427397   4.681   1.462   4.385 -0.0741  0.0377  0.3015
 5607ntf    fn427398   4.495   1.579   4.365  0.3384 -0.0103  0.1060
 5607ntf    on527399   4.514   1.503   4.064 -0.3395 -0.3290  0.8693
 5607ntf    on527400   4.675   1.662   4.159  1.0534 -0.2542 -0.2043
 5607ntf    on527401   4.689   1.274   3.926  0.3839 -0.2712 -0.1189
 5607ntf    on527402   4.901   1.252   4.052  0.4539  0.0605  0.4926
 5607ntf    fn427403   4.786   1.562   3.875  0.1055  0.2313 -0.0535
 5607ntf    fn427404   4.972   1.511   3.969 -0.1679  0.1157  0.3986
 5607ntf    fn427405   4.918   1.412   3.793  0.3999  0.0440  0.3144
 5608ntf    cn127406   2.323   2.830   0.145 -0.1113 -0.3036  0.0823
 5608ntf    sn227407   2.190   2.707   0.134 -0.0250 -0.3495 -0.4556
 5608ntf    nn327408   2.167   2.683   0.287  0.7133  0.0379 -0.2824
 5608ntf    sn227409   2.249   2.592   0.386 -0.2515 -0.3717  0.1523
 5608ntf    cn127410   2.174   2.430   0.354 -0.5353 -0.2320  0.1075
 5608ntf    fn427411   2.378   2.854   0.027  0.3525 -0.1356  0.3270
 5608ntf    fn427412   2.279   2.945   0.195 -0.2596 -0.2270 -0.2246
 5608ntf    fn427413   2.421   2.789   0.224  0.0367  0.3121  0.2259
 5608ntf    on527414   2.073   2.771   0.077 -0.3387 -0.3088  0.2307
 5608ntf    on527415   2.249   2.595   0.066  0.3415 -0.5086  0.1225
 5608ntf    on527416   2.219   2.617   0.525 -0.0776 -0.5915  0.2302
 5608ntf    on527417   2.388   2.573   0.351 -0.2786 -0.5825  0.1568
 5608ntf    fn427418   2.198   2.395   0.229 -0.7719  0.1301 -0.0405
 5608ntf    fn427419   2.209   2.328   0.430  0.2055 -0.1035 -0.0524
 5608ntf    fn427420   2.044   2.444   0.373 -0.5278 -0.1747  0.1172
 5609ntf    cn127421   1.982   0.169   7.436 -0.2787 -0.2231 -0.0921
 5609ntf    sn227422   1.901   0.262   7.303  0.0212  0.1790  0.0011
 5609ntf    nn327423   1.761   0.265   7.375  0.0209  0.5479 -0.0160
 5609ntf    sn227424   1.724   0.347   7.504 -0.0918  0.1936  0.1769
 5609ntf    cn127425   1.597   0.444   7.419  0.2720  0.0894 -0.4917
 5609ntf    fn427426   2.110   0.151   7.408 -0.2792 -0.5324  0.1004
 5609ntf    fn427427   1.975   0.240   7.548  0.0302 -0.3521  0.0098
 5609ntf    fn427428   1.926   0.051   7.458 -0.5273  0.0288  0.6910
 5609ntf    on527429   1.971   0.388   7.299  0.1645  0.1045  0.1447
 5609ntf    on527430   1.908   0.180   7.185  0.3881  0.4037 -0.1353
 5609ntf    on527431   1.820   0.440   7.557  0.0526  0.0628  0.1464
 5609ntf    on527432   1.661   0.264   7.604 -0.0977  0.4221  0.3634
 5609ntf    fn427433   1.629   0.498   7.302 -0.2717  0.2456 -0.5738
 5609ntf    fn427434   1.489   0.370   7.399  0.3480 -0.0905 -0.2318
 5609ntf    fn427435   1.565   0.545   7.498 -0.5366 -0.1284 -0.5317
 5610ntf    cn127436   2.703   3.462   4.958  0.0421  0.1020  0.0216
 5610ntf    sn227437   2.539   3.411   4.897  0.2601 -0.4842 -0.0749
 5610ntf    nn327438   2.508   3.527   4.796 -0.6593 -0.7570 -0.1142
 5610ntf    sn227439   2.382   3.621   4.795 -0.2053 -0.1347 -0.0364
 5610ntf    cn127440   2.438   3.775   4.874 -0.3795 -0.1533  0.1241
 5610ntf    fn427441   2.699   3.574   5.030  0.1221  0.0998  0.0300
 5610ntf    fn427442   2.748   3.369   5.040 -0.5224 -0.2238 -0.0330
 5610ntf    fn427443   2.790   3.475   4.860  0.0765  0.1327  0.0562
 5610ntf    on527444   2.560   3.285   4.829 -0.8907 -0.8227  0.1886
 5610ntf    on527445   2.463   3.412   5.020 -0.2883  0.1613 -0.4147
 5610ntf    on527446   2.272   3.584   4.881 -0.2478  0.4548  0.1657
 5610ntf    on527447   2.338   3.666   4.665 -0.5554 -0.1034  0.0921
 5610ntf    fn427448   2.336   3.858   4.877 -0.1249  0.1399  0.7265
 5610ntf    fn427449   2.473   3.760   5.001 -0.0433 -0.1827  0.0290
 5610ntf    fn427450   2.538   3.827   4.804 -0.5470  0.3135  0.2307
 5611ntf    cn127451   0.701   0.381   7.418 -0.1031  0.1419  0.2167
 5611ntf    sn227452   0.778   0.462   7.275 -0.1656 -0.0632  0.0681
 5611ntf    nn327453   0.907   0.373   7.261  0.0525  0.2182  0.2794
 5611ntf    sn227454   0.921   0.236   7.185  0.3227  0.2660  0.2435
 5611ntf    cn127455   1.058   0.149   7.268  0.2817  0.0103  0.0421
 5611ntf    fn427456   0.597   0.452   7.462 -0.3014 -0.1246  0.1789
 5611ntf    fn427457   0.640   0.272   7.377 -0.3564  0.4116 -0.1334
 5611ntf    fn427458   0.785   0.349   7.515  0.5323  0.2746 -0.2863
 5611ntf    on527459   0.684   0.451   7.166 -0.4499  0.5170  0.2521
 5611ntf    on527460   0.818   0.596   7.310  0.9503 -0.3314 -0.1317
 5611ntf    on527461   0.983   0.253   7.056  0.6201  0.0290  0.3555
 5611ntf    on527462   0.819   0.136   7.205  0.1184  0.4158 -0.0404
 5611ntf    fn427463   1.175   0.210   7.261  0.1776  0.2216  0.1201
 5611ntf    fn427464   1.036   0.134   7.397 -0.1912 -0.0310 -0.0404
 5611ntf    fn427465   1.076   0.029   7.216  0.2769 -0.2163  0.5587
 5612ntf    cn127466   1.881   6.039   5.446 -0.2608 -0.3150  0.1083
 5612ntf    sn227467   1.976   5.987   5.591  0.0588  0.1198  0.0576
 5612ntf    nn327468   2.121   6.038   5.557  0.1872  0.0306  0.4646
 5612ntf    sn227469   2.254   5.961   5.587  0.0720 -0.2502  0.2624
 5612ntf    cn127470   2.268   5.875   5.427 -0.0306  0.4815 -0.1418
 5612ntf    fn427471   1.923   5.990   5.331  0.2587 -0.3236  0.3007
 5612ntf    fn427472   1.752   6.017   5.463 -0.2474 -0.2942  0.2343
 5612ntf    fn427473   1.893   6.171   5.434  0.0610 -0.2514  1.0907
 5612ntf    on527474   1.912   6.055   5.701 -0.0048 -0.5658  0.4539
 5612ntf    on527475   1.959   5.844   5.587 -0.0896  0.1494 -0.3559
 5612ntf    on527476   2.258   5.865   5.695  0.1221  0.1505  0.6227
 5612ntf    on527477   2.368   6.050   5.584  0.0163 -0.1954 -0.3391
 5612ntf    fn427478   2.323   5.963   5.345 -0.0850  0.1676 -0.5141
 5612ntf    fn427479   2.346   5.769   5.433 -0.2275  0.3278 -0.3222
 5612ntf    fn427480   2.158   5.834   5.366  0.3259 -0.3444 -0.2385
 5613ntf    cn127481   3.047   6.390   6.015 -0.4125  0.0820  0.0498
 5613ntf    sn227482   3.144   6.484   5.893 -0.0211 -0.2152  0.1296
 5613ntf    nn327483   3.086   6.629   5.913  0.1923 -0.2325  0.8960
 5613ntf    sn227484   3.161   6.766   5.927  0.1162 -0.0817 -0.1309
 5613ntf    cn127485   3.257   6.758   5.773 -0.0640  0.4778 -0.2717
 5613ntf    fn427486   3.065   6.259   6.012 -0.1268  0.1270 -0.3611
 5613ntf    fn427487   3.085   6.428   6.136  0.1231  0.1291 -0.1283
 5613ntf    fn427488   2.917   6.411   6.003 -0.3949  0.2650  0.1754
 5613ntf    on527489   3.282   6.465   5.931 -0.0912 -0.1029  0.4418
 5613ntf    on527490   3.101   6.429   5.767 -0.4337  0.5382 -0.0630
 5613ntf    on527491   3.257   6.771   6.035  0.3836 -0.3611 -0.3532
 5613ntf    on527492   3.076   6.881   5.907  0.0283 -0.0413  0.4506
 5613ntf    fn427493   3.327   6.870   5.757  0.7698  0.0757  0.4949
 5613ntf    fn427494   3.342   6.657   5.763 -0.4865  0.0894  0.0296
 5613ntf    fn427495   3.187   6.752   5.661 -0.1008 -0.2827 -0.2078
 5614ntf    cn127496   3.788   4.045   4.405 -0.3831  0.0797  0.4757
 5614ntf    sn227497   3.806   4.224   4.432  0.2060  0.0849  0.0724
 5614ntf    nn327498   3.864   4.271   4.294  0.5542 -0.3415  0.0720
 5614ntf    sn227499   4.017   4.287   4.261  0.5451 -0.4111 -0.0054
 5614ntf    cn127500   4.002   4.245   4.085  0.3961 -0.0871 -0.0712
 5614ntf    fn427501   3.699   4.006   4.316  0.2938 -0.2819 -0.0488
 5614ntf    fn427502   3.907   4.004   4.364 -0.1538 -0.0001  1.2023
 5614ntf    fn427503   3.758   3.981   4.517  0.1474 -0.1955  0.4679
 5614ntf    on527504   3.675   4.275   4.465  0.2350 -0.0471  0.4005
 5614ntf    on527505   3.899   4.231   4.543  0.3481 -0.3330 -0.0198
 5614ntf    on527506   4.114   4.187   4.298  0.4904 -0.2139  0.6876
 5614ntf    on527507   4.059   4.425   4.260  0.0515 -0.2574  0.1253
 5614ntf    fn427508   3.928   4.137   4.064  0.1580  0.0875 -0.1437
 5614ntf    fn427509   3.951   4.351   4.023  0.2419 -0.1825 -0.1086
 5614ntf    fn427510   4.117   4.222   4.024  0.4431  0.1966 -0.0879
 5615ntf    cn127511   2.299   0.542   4.566 -0.3472  0.3028 -0.2826
 5615ntf    sn227512   2.255   0.366   4.546  0.2119  0.1388 -0.1087
 5615ntf    nn327513   2.231   0.370   4.391  0.0531  0.9459 -0.0715
 5615ntf    sn227514   2.100   0.393   4.307 -0.1544  0.3550  0.0819
 5615ntf    cn127515   2.167   0.451   4.148  0.1095  0.1879  0.1312
 5615ntf    fn427516   2.418   0.577   4.520  0.0027 -0.0776  0.3179
 5615ntf    fn427517   2.212   0.620   4.505 -0.2459  0.2216 -0.5338
 5615ntf    fn427518   2.303   0.571   4.695 -0.1903  0.1282 -0.2479
 5615ntf    on527519   2.366   0.282   4.581 -0.0250 -0.1343 -0.0058
 5615ntf    on527520   2.141   0.343   4.632  0.0551 -0.5347 -0.4942
 5615ntf    on527521   2.025   0.504   4.360 -0.1687  0.2870  0.2035
 5615ntf    on527522   2.024   0.276   4.271 -0.0250  0.2483  0.1523
 5615ntf    fn427523   2.209   0.576   4.145  0.3371  0.1140  0.1827
 5615ntf    fn427524   2.271   0.380   4.109 -0.1588  0.0128 -0.2719
 5615ntf    fn427525   2.086   0.437   4.045 -0.1368 -0.0549  0.3551
 5616ntf    cn127526   0.394   3.778   1.200  0.5322  0.0291  0.1970
 5616ntf    sn227527   0.339   3.608   1.235 -0.1140  0.1362 -0.2854
 5616ntf    nn327528   0.190   3.624   1.189 -0.1578  0.4244 -0.0415
 5616ntf    sn227529   0.066   3.658   1.280 -0.2982 -0.0201 -0.0664
 5616ntf    cn127530   0.038   3.486   1.332 -0.3349 -0.0537 -0.1941
 5616ntf    fn427531   0.526   3.782   1.213  0.5747 -0.6444  0.0580
 5616ntf    fn427532   0.368   3.810   1.074 -0.1103 -0.3727  0.2220
 5616ntf    fn427533   0.334   3.872   1.271  0.1120 -0.0646 -0.0305
 5616ntf    on527534   0.409   3.523   1.141 -0.1197 -0.0574 -0.1140
 5616ntf    on527535   0.375   3.591   1.373 -0.4055 -0.3041 -0.2619
 5616ntf    on527536  -0.044   3.699   1.195 -0.0984  0.3379 -0.1534
 5616ntf    on527537   0.088   3.734   1.400 -0.2875 -0.1591  0.0201
 5616ntf    fn427538   0.139   3.430   1.398  0.0265  0.8122  0.0056
 5616ntf    fn427539  -0.065   3.481   1.414 -0.7470  0.2315 -0.6888
 5616ntf    fn427540  -0.001   3.404   1.236  0.1885 -0.1274 -0.3511
 5617ntf    cn127541   4.368   4.293   3.172 -0.0117  0.2981  0.0084
 5617ntf    sn227542   4.250   4.155   3.156 -0.1223  0.4228 -0.2572
 5617ntf    nn327543   4.298   4.066   3.035 -0.2854 -0.0460  0.0226
 5617ntf    sn227544   4.445   4.034   2.992 -0.0144  0.1966  0.7443
 5617ntf    cn127545   4.431   3.887   2.886  0.1435  0.8050 -0.1313
 5617ntf    fn427546   4.491   4.257   3.203 -0.1685 -0.2766 -0.0128
 5617ntf    fn427547   4.380   4.350   3.053  0.7592 -0.1241 -0.1225
 5617ntf    fn427548   4.334   4.387   3.258  0.1076  0.0650  0.3120
 5617ntf    on527549   4.255   4.083   3.280 -0.1186 -0.6417 -0.8615
 5617ntf    on527550   4.125   4.220   3.123 -0.3665 -0.0784 -0.3234
 5617ntf    on527551   4.540   3.999   3.094  0.1465 -0.2614  0.4362
 5617ntf    on527552   4.498   4.121   2.889 -0.5806 -0.3412 -0.0136
 5617ntf    fn427553   4.387   3.786   2.958  0.1618  0.8476 -0.0605
 5617ntf    fn427554   4.346   3.903   2.786  0.2633 -0.5088 -0.4615
 5617ntf    fn427555   4.548   3.849   2.836 -0.1823 -0.0684 -0.2329
 5618ntf    cn127556   2.464   0.049   3.817 -0.4095  0.2758  0.3822
 5618ntf    sn227557   2.452   0.071   3.637 -0.0381  0.0389  0.3265
 5618ntf    nn327558   2.296   0.088   3.626 -0.0005 -0.0857 -0.4350
 5618ntf    sn227559   2.177   0.025   3.545 -0.3061 -0.1074  0.0277
 5618ntf    cn127560   2.018   0.072   3.621 -0.2783 -0.2797  0.1940
 5618ntf    fn427561   2.588   0.053   3.861 -0.1103 -0.0577 -0.4166
 5618ntf    fn427562   2.411   0.149   3.885 -0.1953  0.3214  0.4800
 5618ntf    fn427563   2.402  -0.061   3.859  0.2518  0.0184  0.6862
 5618ntf    on527564   2.529   0.189   3.606 -0.0422 -0.0419  0.0047
 5618ntf    on527565   2.517  -0.043   3.579 -0.6342 -0.1393  0.0045
 5618ntf    on527566   2.180  -0.118   3.562 -0.0092 -0.0989  0.0463
 5618ntf    on527567   2.160   0.075   3.411 -0.2025 -0.4035 -0.0959
 5618ntf    fn427568   2.011   0.204   3.623  0.4593 -0.2233 -0.2575
 5618ntf    fn427569   1.913   0.029   3.554 -0.0363 -0.4018 -0.1116
 5618ntf    fn427570   2.015   0.024   3.744  0.2915 -0.6923  0.0523
 5619ntf    cn127571   2.770   5.667   6.252 -0.0845  0.1506  0.0949
 5619ntf    sn227572   2.947   5.628   6.266 -0.0902  0.0991  0.0337
 5619ntf    nn327573   2.993   5.773   6.225  0.4067  0.2039  0.9175
 5619ntf    sn227574   3.113   5.821   6.136 -0.0678 -0.2372  0.0237
 5619ntf    cn127575   3.055   5.987   6.091 -0.1679 -0.1842  0.3458
 5619ntf    fn427576   2.729   5.654   6.127 -0.4207  0.2656  0.1917
 5619ntf    fn427577   2.697   5.582   6.322 -0.4713  0.3520 -0.0639
 5619ntf    fn427578   2.746   5.788   6.298 -0.0866 -0.0183  0.5423
 5619ntf    on527579   2.961   5.586   6.404  0.5002  0.1641 -0.0015
 5619ntf    on527580   2.965   5.526   6.167  0.0591  0.3461 -0.1943
 5619ntf    on527581   3.147   5.757   6.011  0.6032 -0.2843  0.2241
 5619ntf    on527582   3.237   5.845   6.206  0.0358 -0.3687 -0.1136
 5619ntf    fn427583   2.938   5.981   6.028 -0.2619  0.5391  0.4417
 5619ntf    fn427584   3.031   6.062   6.197  0.0142  0.5081 -0.0986
 5619ntf    fn427585   3.141   6.050   6.013 -0.2509 -0.1055  0.3179
 5620ntf    cn127586   2.266   3.769   5.398 -0.0289 -0.0906 -0.2413
 5620ntf    sn227587   2.180   3.913   5.468 -0.0996 -0.2191 -0.0645
 5620ntf    nn327588   2.303   4.004   5.504 -0.4010  0.0209  0.3606
 5620ntf    sn227589   2.321   4.160   5.500  0.0983 -0.0381  0.2385
 5620ntf    cn127590   2.387   4.164   5.331 -0.0540 -0.1140  0.1762
 5620ntf    fn427591   2.320   3.698   5.496  0.1627  0.4264  0.0315
 5620ntf    fn427592   2.184   3.688   5.333 -0.2299  0.2015 -0.3573
 5620ntf    fn427593   2.364   3.807   5.318 -0.0635 -0.1278 -0.3020
 5620ntf    on527594   2.100   3.958   5.357  0.0191  0.2370  0.0323
 5620ntf    on527595   2.104   3.866   5.581 -0.8374  0.4761 -0.2644
 5620ntf    on527596   2.424   4.221   5.580  0.4032  0.8624 -0.8157
 5620ntf    on527597   2.199   4.238   5.490 -0.0069 -0.2694 -0.3396
 5620ntf    fn427598   2.306   4.110   5.242  0.6442 -0.5153 -0.2274
 5620ntf    fn427599   2.416   4.285   5.284  0.0152 -0.1710  0.0716
 5620ntf    fn427600   2.498   4.091   5.331 -0.2195 -0.3713 -0.3120
 5621ntf    cn127601   5.279   1.977   5.512  0.2316  0.0704  0.2391
 5621ntf    sn227602   5.347   1.965   5.344 -0.2112  0.0250  0.0618
 5621ntf    nn327603   5.491   1.905   5.358 -0.1872 -0.1404 -0.7969
 5621ntf    sn227604   5.552   1.763   5.332  0.0889 -0.2429  0.3249
 5621ntf    cn127605   5.723   1.813   5.295 -0.0354 -0.1528 -0.1380
 5621ntf    fn427606   5.364   2.029   5.598  0.3572 -0.1994  0.2766
 5621ntf    fn427607   5.166   2.047   5.516  0.5921  0.6448  0.4411
 5621ntf    fn427608   5.246   1.859   5.563 -0.1417  0.2099  0.3250
 5621ntf    on527609   5.247   1.883   5.278 -0.2783  0.0166  0.1737
 5621ntf    on527610   5.349   2.102   5.299 -0.2925 -0.0003 -0.0225
 5621ntf    on527611   5.502   1.704   5.210 -0.0251  0.6905 -0.0920
 5621ntf    on527612   5.566   1.682   5.450  0.4088  0.2021  0.5918
 5621ntf    fn427613   5.724   1.900   5.196  0.1974 -0.0964 -0.0860
 5621ntf    fn427614   5.782   1.872   5.397  0.3855  0.0145 -0.4768
 5621ntf    fn427615   5.804   1.717   5.255  0.5829  0.3372 -0.0667
 5622ntf    cn127616   4.889   5.858   3.731 -0.1544 -0.2417  0.4869
 5622ntf    sn227617   5.005   5.973   3.812 -0.0843  0.1175 -0.1198
 5622ntf    nn327618   5.051   5.889   3.937  0.9970  0.7578 -0.0758
 5622ntf    sn227619   5.164   5.780   3.942  0.1674 -0.1320 -0.3734
 5622ntf    cn127620   5.303   5.863   4.023 -0.0640  0.1517 -0.2666
 5622ntf    fn427621   4.821   5.915   3.634  0.0110  0.1736  0.6133
 5622ntf    fn427622   4.959   5.762   3.672 -0.3936 -0.0732 -0.0738
 5622ntf    fn427623   4.801   5.802   3.813 -0.5184  0.1607  0.3716
 5622ntf    on527624   5.104   6.012   3.716  0.3477  0.0145  0.2819
 5622ntf    on527625   4.918   6.073   3.870 -0.4560 -0.4405  0.3089
 5622ntf    on527626   5.216   5.729   3.818 -0.1235 -0.7348 -0.2537
 5622ntf    on527627   5.120   5.678   4.034 -0.1622  0.7742  0.4915
 5622ntf    fn427628   5.286   5.910   4.146 -0.2307 -0.2337 -0.1410
 5622ntf    fn427629   5.409   5.785   4.037  0.0695  0.4716  0.6376
 5622ntf    fn427630   5.342   5.968   3.953  0.0533  0.2426 -0.0683
 5623ntf    cn127631   7.351   5.956   2.557 -0.1336 -0.0755 -0.3005
 5623ntf    sn227632   7.340   5.948   2.738  0.3118  0.0055 -0.2699
 5623ntf    nn327633   7.482   5.999   2.785  0.2460  0.0970 -0.1720
 5623ntf    sn227634   7.526   6.137   2.844  0.0578  0.1196 -0.0819
 5623ntf    cn127635   7.520   6.077   3.015 -0.1328 -0.2714 -0.2269
 5623ntf    fn427636   7.460   5.897   2.511  0.3542  0.0794  0.6364
 5623ntf    fn427637   7.247   5.891   2.507 -0.0997 -0.4999  0.1786
 5623ntf    fn427638   7.360   6.077   2.504 -0.6957  0.2899  0.4230
 5623ntf    on527639   7.229   6.037   2.759  0.4434  0.0652  0.1990
 5623ntf    on527640   7.330   5.810   2.777  0.3476  0.0636 -0.0526
 5623ntf    on527641   7.429   6.244   2.837 -0.1148 -0.0040  0.3918
 5623ntf    on527642   7.665   6.170   2.820  0.1107  0.1760  0.3021
 5623ntf    fn427643   7.549   6.169   3.105 -0.0314 -0.1716 -0.3619
 5623ntf    fn427644   7.404   6.023   3.049 -0.0686 -0.1606  0.1787
 5623ntf    fn427645   7.615   5.988   3.040 -0.0763  0.0147  0.6140
 5624ntf    cn127646   1.389   3.440   4.731 -0.0711 -0.3391  0.1029
 5624ntf    sn227647   1.307   3.576   4.643  0.2025 -0.3194 -0.1190
 5624ntf    nn327648   1.315   3.520   4.496  0.0327  0.0559 -0.2748
 5624ntf    sn227649   1.223   3.419   4.419  0.4342 -0.1870 -0.4436
 5624ntf    cn127650   1.154   3.536   4.298  0.2663  0.2598  0.0822
 5624ntf    fn427651   1.509   3.424   4.680 -0.1580 -0.3671 -0.0939
 5624ntf    fn427652   1.409   3.466   4.860  0.1858 -0.3161  0.0568
 5624ntf    fn427653   1.326   3.324   4.723 -0.2403 -0.2069 -0.4975
 5624ntf    on527654   1.174   3.591   4.695  0.2813 -1.0950  0.3082
 5624ntf    on527655   1.390   3.692   4.664 -0.2650  0.0389 -0.2359
 5624ntf    on527656   1.105   3.369   4.485  0.6377  0.0052  0.0783
 5624ntf    on527657   1.302   3.329   4.339  0.5774 -0.4138 -0.0475
 5624ntf    fn427658   1.101   3.486   4.188  0.0372  0.6193  0.0266
 5624ntf    fn427659   1.067   3.618   4.356 -0.2174 -0.1401 -0.0758
 5624ntf    fn427660   1.251   3.610   4.246  0.6370 -0.5037 -0.3302
 5625ntf    cn127661   1.714   4.765   6.033  0.7632  0.7217 -0.2895
 5625ntf    sn227662   1.604   4.823   6.166  0.0565 -0.2158 -0.4563
 5625ntf    nn327663   1.681   4.765   6.289 -0.4163 -0.0841 -0.0946
 5625ntf    sn227664   1.799   4.837   6.364 -0.5259 -0.0943  0.0863
 5625ntf    cn127665   1.845   4.706   6.482  0.3663 -0.0303 -0.1852
 5625ntf    fn427666   1.711   4.633   6.028  0.2036  0.7362 -0.3632
 5625ntf    fn427667   1.675   4.805   5.913 -0.6035 -0.0152 -0.1127
 5625ntf    fn427668   1.841   4.799   6.047  0.8043  0.6036 -0.3721
 5625ntf    on527669   1.615   4.967   6.158 -0.5586 -0.1230  0.2967
 5625ntf    on527670   1.477   4.759   6.140 -0.0881  0.1561 -0.6807
 5625ntf    on527671   1.766   4.953   6.443 -0.4988  0.2268 -0.3773
 5625ntf    on527672   1.917   4.845   6.282 -0.1902 -0.0693  0.5687
 5625ntf    fn427673   1.746   4.666   6.560  0.5769  0.1038  0.1546
 5625ntf    fn427674   1.894   4.598   6.424  0.3446 -0.5897  0.8089
 5625ntf    fn427675   1.938   4.754   6.564  0.6317 -0.5119 -0.2010
 5626ntf    cn127676   0.949   6.650   3.789 -0.7697 -0.1248 -0.5522
 5626ntf    sn227677   1.088   6.649   3.672 -0.1563  0.1546  0.1671
 5626ntf    nn327678   1.000   6.676   3.545 -0.1944  0.0480  0.1708
 5626ntf    sn227679   0.981   6.813   3.470  0.4596 -0.0253 -0.1352
 5626ntf    cn127680   0.801   6.821   3.499  0.3936 -0.5068 -0.3909
 5626ntf    fn427681   0.879   6.763   3.786 -0.2012  0.2375 -0.3542
 5626ntf    fn427682   0.861   6.552   3.795 -1.0604  0.1772  0.3147
 5626ntf    fn427683   0.991   6.639   3.914 -0.4035  0.2064 -0.6425
 5626ntf    on527684   1.184   6.750   3.709  0.1183 -0.1443  0.2746
 5626ntf    on527685   1.138   6.514   3.662 -0.3298  0.1217 -0.2826
 5626ntf    on527686   0.994   6.800   3.327 -0.5129 -0.9772 -0.1568
 5626ntf    on527687   1.033   6.935   3.526 -0.6647  0.1898  0.4872
 5626ntf    fn427688   0.774   6.865   3.621 -0.1287 -0.1362 -0.6345
 5626ntf    fn427689   0.746   6.903   3.411 -1.0006 -0.5899  0.3853
 5626ntf    fn427690   0.734   6.709   3.483 -0.0824 -0.3379  0.3868
 5627ntf    cn127691   7.016   2.600   2.694 -0.5539  0.1191  0.0544
 5627ntf    sn227692   6.956   2.771   2.676 -0.1197  0.2963  0.2764
 5627ntf    nn327693   6.808   2.747   2.723 -0.2497 -0.0836 -0.3084
 5627ntf    sn227694   6.679   2.799   2.650 -0.2430 -0.2429 -0.4332
 5627ntf    cn127695   6.641   2.653   2.549  0.0472 -0.6660  0.0649
 5627ntf    fn427696   7.042   2.579   2.822  0.1189 -0.2773 -0.1423
 5627ntf    fn427697   6.943   2.502   2.643 -0.2053 -0.2428  0.2472
 5627ntf    fn427698   7.136   2.588   2.638 -0.4359  0.0703  0.3161
 5627ntf    on527699   7.030   2.845   2.775 -0.3353  0.0215  0.6459
 5627ntf    on527700   6.970   2.795   2.535 -0.3683  0.1289  0.2216
 5627ntf    on527701   6.701   2.912   2.564  0.5367  0.1796  0.3034
 5627ntf    on527702   6.568   2.810   2.741 -0.2893  0.2945 -0.5485
 5627ntf    fn427703   6.736   2.636   2.458  0.3482  0.1729  0.2157
 5627ntf    fn427704   6.639   2.548   2.630  0.6576 -0.3146  0.5469
 5627ntf    fn427705   6.524   2.655   2.488  0.0931 -0.2574 -0.0107
 5628ntf    cn127706   1.570   7.505   1.925  0.1658 -0.3214 -0.1805
 5628ntf    sn227707   1.480   7.353   1.969 -0.2267 -0.0782 -0.1354
 5628ntf    nn327708   1.459   7.377   2.123  0.2398 -0.5287  0.0019
 5628ntf    sn227709   1.557   7.348   2.243  0.3202 -0.0339  0.0573
 5628ntf    cn127710   1.475   7.204   2.317  0.3117 -0.3222 -0.5045
 5628ntf    fn427711   1.667   7.521   2.014  0.2941 -0.4133 -0.3030
 5628ntf    fn427712   1.618   7.515   1.802 -0.0908  0.1727 -0.2412
 5628ntf    fn427713   1.503   7.618   1.942  0.4862 -0.1986  0.2822
 5628ntf    on527714   1.356   7.362   1.896 -0.4340 -0.3474  0.1795
 5628ntf    on527715   1.570   7.245   1.937  0.3028  0.4733 -0.5416
 5628ntf    on527716   1.529   7.449   2.342  0.2015 -0.0307  0.0209
 5628ntf    on527717   1.693   7.314   2.208  0.0790 -0.6795 -0.2719
 5628ntf    fn427718   1.453   7.122   2.215 -0.5094 -0.2275 -0.4049
 5628ntf    fn427719   1.544   7.138   2.409  0.5663  0.4350 -0.1455
 5628ntf    fn427720   1.360   7.225   2.378  0.6166  0.3607 -0.1544
 5629ntf    cn127721   5.549   3.539   5.068  0.0196  0.0345 -0.2935
 5629ntf    sn227722   5.551   3.378   4.984  0.1465 -0.1731  0.1039
 5629ntf    nn327723   5.701   3.334   4.966  0.1340 -0.1797  0.0198
 5629ntf    sn227724   5.773   3.227   4.877 -0.0279 -0.2410 -0.0389
 5629ntf    cn127725   5.797   3.338   4.734 -0.1151  0.1877  0.2759
 5629ntf    fn427726   5.428   3.576   5.107  0.0430  0.2328 -0.4086
 5629ntf    fn427727   5.633   3.540   5.171 -0.0132 -0.3015 -0.2609
 5629ntf    fn427728   5.584   3.637   4.987  0.1854 -0.1939 -0.4994
 5629ntf    on527729   5.480   3.294   5.078 -0.1998  0.1280  0.1138
 5629ntf    on527730   5.481   3.411   4.862 -0.7062 -0.2723  0.5566
 5629ntf    on527731   5.689   3.121   4.828  0.2288 -0.4243 -0.0873
 5629ntf    on527732   5.905   3.193   4.924  0.1231 -0.6323 -0.7412
 5629ntf    fn427733   5.886   3.434   4.753 -0.2128  0.2203  0.5765
 5629ntf    fn427734   5.841   3.267   4.631  0.3547  0.2934  0.4019
 5629ntf    fn427735   5.693   3.400   4.683 -0.1459 -0.1110 -0.0262
 5630ntf    cn127736   0.386   0.832   0.155 -0.0106  0.1942 -0.5498
 5630ntf    sn227737   0.204   0.830   0.148 -0.0304 -0.0823  0.0098
 5630ntf    nn327738   0.166   0.931   0.035  0.0355  0.0858  0.1374
 5630ntf    sn227739   0.020   0.966  -0.013  0.1408  0.0996 -0.1793
 5630ntf    cn127740   0.045   1.145  -0.033 -0.3079  0.1823 -0.0055
 5630ntf    fn427741   0.434   0.804   0.035 -0.1670 -0.9428 -0.3627
 5630ntf    fn427742   0.432   0.951   0.190 -0.2986  0.3611 -0.7329
 5630ntf    fn427743   0.437   0.734   0.227 -0.4723  0.1049 -0.3446
 5630ntf    on527744   0.171   0.695   0.110  0.0619 -0.0851 -0.0629
 5630ntf    on527745   0.163   0.872   0.280 -0.2869  0.3918 -0.2200
 5630ntf    on527746  -0.080   0.962   0.091 -0.1865 -0.0400 -0.4996
 5630ntf    on527747  -0.014   0.931  -0.148  0.5370  0.1703 -0.2981
 5630ntf    fn427748   0.090   1.197   0.080 -0.0694  0.1436 -0.0830
 5630ntf    fn427749   0.132   1.166  -0.130  0.1420 -0.7122  0.2052
 5630ntf    fn427750  -0.066   1.210  -0.064 -0.7307 -0.5285  0.0007
 5631ntf    cn127751   1.271   2.412   4.209 -0.0547  0.1755 -0.4574
 5631ntf    sn227752   1.352   2.453   4.367  0.1599 -0.1049 -0.4940
 5631ntf    nn327753   1.220   2.453   4.450  0.3880 -0.4088 -0.1271
 5631ntf    sn227754   1.165   2.343   4.548 -0.3713  0.2146  0.1654
 5631ntf    cn127755   1.233   2.395   4.709  0.1054  0.2560 -0.0460
 5631ntf    fn427756   1.190   2.509   4.172  0.0784  0.3737 -0.2341
 5631ntf    fn427757   1.362   2.390   4.115 -0.0381 -0.5948 -0.2697
 5631ntf    fn427758   1.193   2.306   4.219 -0.6519  0.6013 -0.5573
 5631ntf    on527759   1.439   2.341   4.394  0.4965  0.2210 -0.2077
 5631ntf    on527760   1.406   2.583   4.335  0.7765 -0.2270  0.0392
 5631ntf    on527761   1.213   2.208   4.526 -0.4913  0.2959 -0.6368
 5631ntf    on527762   1.023   2.360   4.565 -0.4114 -0.1598  0.2112
 5631ntf    fn427763   1.361   2.427   4.703  0.2616 -0.2596  0.4521
 5631ntf    fn427764   1.159   2.501   4.738  0.1480  0.2500  0.0841
 5631ntf    fn427765   1.224   2.306   4.806 -0.3082  0.3834  0.0346
 5632ntf    cn127766   4.987   6.999   2.878 -0.0284  0.2119  0.1596
 5632ntf    sn227767   4.903   6.862   2.793 -0.0082  0.0904  0.3338
 5632ntf    nn327768   4.766   6.937   2.784 -0.0338  0.0728  0.5583
 5632ntf    sn227769   4.630   6.869   2.746  0.1654  0.0323 -0.1020
 5632ntf    cn127770   4.540   6.898   2.902  0.2681 -0.0560 -0.0268
 5632ntf    fn427771   4.990   7.106   2.800 -0.0974  0.0060 -0.1288
 5632ntf    fn427772   4.941   7.038   2.995 -0.2748  0.7443 -0.1141
 5632ntf    fn427773   5.115   6.970   2.901  0.0752  0.3846 -0.1901
 5632ntf    on527774   4.975   6.857   2.668  0.2236 -0.0018  0.4698
 5632ntf    on527775   4.924   6.759   2.892 -0.6529 -1.0967 -0.7279
 5632ntf    on527776   4.638   6.726   2.738  0.0741 -0.0085  0.4681
 5632ntf    on527777   4.559   6.929   2.635 -0.7135 -0.2414  0.3016
 5632ntf    fn427778   4.422   6.838   2.900  0.1882  0.1125 -0.8532
 5632ntf    fn427779   4.598   6.854   3.013  0.0826  0.0314  0.1048
 5632ntf    fn427780   4.521   7.028   2.917 -0.1504 -0.1369  0.1320
 5633ntf    cn127781   0.480   1.134   1.712  0.4446  0.0838 -0.2808
 5633ntf    sn227782   0.318   1.145   1.632  0.1396  0.0233  0.3269
 5633ntf    nn327783   0.301   1.011   1.553  0.2153  0.2962 -0.1582
 5633ntf    sn227784   0.325   0.971   1.404  0.2580 -0.4543  0.0454
 5633ntf    cn127785   0.406   0.809   1.422 -0.2433 -0.7628 -0.4148
 5633ntf    fn427786   0.504   1.021   1.777  0.0303 -0.0511 -0.3653
 5633ntf    fn427787   0.571   1.141   1.616  0.9860 -0.1030  0.2113
 5633ntf    fn427788   0.498   1.235   1.796  0.0537  0.0611 -0.1711
 5633ntf    on527789   0.227   1.163   1.743  0.2114 -0.0359  0.3959
 5633ntf    on527790   0.332   1.267   1.556 -0.5628 -0.0220  0.1162
 5633ntf    on527791   0.424   1.048   1.334 -0.1245 -0.4164 -0.4679
 5633ntf    on527792   0.209   0.927   1.330  0.0797 -0.0609  0.0869
 5633ntf    fn427793   0.509   0.826   1.503  0.2848 -0.5975 -1.1059
 5633ntf    fn427794   0.319   0.725   1.475 -0.2736 -0.1557  0.5202
 5633ntf    fn427795   0.458   0.769   1.307 -0.0772 -0.8800 -0.2981
 5634ntf    cn127796   1.820   6.630   4.159  0.0347 -0.3701 -0.4586
 5634ntf    sn227797   1.849   6.767   4.042 -0.1092 -0.0441 -0.1129
 5634ntf    nn327798   1.721   6.765   3.950  0.0981  0.1230 -0.4049
 5634ntf    sn227799   1.582   6.826   3.989  0.2480  0.1474  0.0997
 5634ntf    cn127800   1.480   6.684   3.939  0.0866  0.2502  0.1367
 5634ntf    fn427801   1.857   6.513   4.110  0.4614 -0.4529  0.0609
 5634ntf    fn427802   1.885   6.658   4.271 -0.2362  0.1317 -0.4213
 5634ntf    fn427803   1.693   6.618   4.192  0.1161  0.2550  0.0920
 5634ntf    on527804   1.869   6.879   4.131 -0.2477 -0.0853 -0.0281
 5634ntf    on527805   1.965   6.713   3.977  0.0965  0.3568 -0.0791
 5634ntf    on527806   1.540   6.934   3.904  0.2047  0.1258  0.0927
 5634ntf    on527807   1.540   6.837   4.127  0.2626 -0.7183  0.1800
 5634ntf    fn427808   1.360   6.679   3.995  0.1049  0.7498  0.2258
 5634ntf    fn427809   1.454   6.691   3.810 -0.3360  0.1014  0.2112
 5634ntf    fn427810   1.539   6.568   3.965  0.1542  0.1538 -0.4413
 5635ntf    cn127811   1.714   3.099   1.945  0.6048 -0.1357  0.0898
 5635ntf    sn227812   1.771   3.170   1.787 -0.2083 -0.0003 -0.1475
 5635ntf    nn327813   1.771   3.321   1.831 -0.0692 -0.0004 -0.1480
 5635ntf    sn227814   1.680   3.435   1.774 -0.0793  0.1057  0.0817
 5635ntf    cn127815   1.729   3.581   1.871  0.3149  0.0455 -0.0263
 5635ntf    fn427816   1.727   2.968   1.951 -0.5548 -0.2652  0.0197
 5635ntf    fn427817   1.796   3.136   2.042  0.7028 -0.0999 -0.0062
 5635ntf    fn427818   1.587   3.122   1.973  0.4626 -0.9573  0.1358
 5635ntf    on527819   1.899   3.111   1.761 -0.1257 -0.1109  0.4930
 5635ntf    on527820   1.660   3.133   1.703 -0.1638 -0.1364 -0.1471
 5635ntf    on527821   1.542   3.417   1.813 -0.1475 -0.4199 -0.3932
 5635ntf    on527822   1.706   3.469   1.636 -0.0839 -0.5317 -0.0775
 5635ntf    fn427823   1.652   3.684   1.842 -0.0827 -0.3817 -0.5026
 5635ntf    fn427824   1.726   3.561   2.002 -0.0621  0.2208 -0.0068
 5635ntf    fn427825   1.850   3.627   1.842  0.0085  0.3446 -0.8514
 5636ntf    cn127826   1.578   5.594   2.018  0.3067 -0.0643  0.8960
 5636ntf    sn227827   1.441   5.567   2.135 -0.4297  0.0553  0.0703
 5636ntf    nn327828   1.346   5.472   2.054 -0.1289 -0.0903 -0.1102
 5636ntf    sn227829   1.251   5.499   1.932 -0.4140  0.1199  0.1563
 5636ntf    cn127830   1.085   5.530   1.999 -0.5108 -0.2365  0.0874
 5636ntf    fn427831   1.609   5.483   1.954  0.3376  0.3850  0.1225
 5636ntf    fn427832   1.540   5.683   1.928 -0.6547 -0.3328  1.0184
 5636ntf    fn427833   1.690   5.630   2.077  0.3941  0.4432  0.4213
 5636ntf    on527834   1.497   5.519   2.259 -0.4718  0.5779  0.2939
 5636ntf    on527835   1.379   5.697   2.137  0.1170  0.3198 -0.1746
 5636ntf    on527836   1.227   5.375   1.861  0.3611  0.0404  0.0266
 5636ntf    on527837   1.287   5.611   1.849 -0.1719  0.4388  0.6939
 5636ntf    fn427838   1.080   5.522   2.131 -0.1870  0.2135  0.1298
 5636ntf    fn427839   1.038   5.652   1.978 -0.2985 -0.1025  0.3697
 5636ntf    fn427840   0.988   5.453   1.953 -0.2899 -0.0785 -0.6463
 5637ntf    cn127841   6.626   1.241   6.016 -0.4529  0.4290 -0.3500
 5637ntf    sn227842   6.529   1.220   6.169 -0.1734  0.1515 -0.2100
 5637ntf    nn327843   6.563   1.359   6.234 -0.2052  0.1216 -0.1299
 5637ntf    sn227844   6.678   1.402   6.332  0.0732 -0.5032 -0.1779
 5637ntf    cn127845   6.595   1.391   6.493  0.4487 -0.7309  0.0026
 5637ntf    fn427846   6.609   1.357   5.954 -0.5300  0.8003  0.3588
 5637ntf    fn427847   6.753   1.239   6.050 -0.6149 -0.4376  0.2485
 5637ntf    fn427848   6.599   1.148   5.926 -0.0080 -0.0595  0.0171
 5637ntf    on527849   6.392   1.212   6.127 -0.3261  0.0669  0.2972
 5637ntf    on527850   6.584   1.101   6.229 -0.3625 -0.0663 -0.4694
 5637ntf    on527851   6.710   1.539   6.304 -0.4644 -0.2701  0.3179
 5637ntf    on527852   6.792   1.314   6.341  0.4798 -0.0173 -0.5087
 5637ntf    fn427853   6.671   1.381   6.601  0.5918  0.0984 -0.0126
 5637ntf    fn427854   6.510   1.490   6.518  0.7380 -0.5153  0.1376
 5637ntf    fn427855   6.521   1.281   6.490 -0.1986 -0.2950 -0.6521
 5638ntf    cn127856   3.093   3.634   1.508  0.0771 -0.0636  0.2004
 5638ntf    sn227857   3.112   3.475   1.422 -0.0046 -0.0249  0.1114
 5638ntf    nn327858   3.170   3.382   1.534  0.0728 -0.2312 -0.0984
 5638ntf    sn227859   3.097   3.295   1.643  0.0342 -0.1611 -0.0680
 5638ntf    cn127860   3.204   3.332   1.785 -0.1389  0.0617  0.0046
 5638ntf    fn427861   3.207   3.688   1.547  0.4659 -0.4918 -0.3284
 5638ntf    fn427862   3.040   3.723   1.425  0.4174 -0.3314 -0.3070
 5638ntf    fn427863   3.012   3.623   1.612 -0.4272 -0.1329 -0.1972
 5638ntf    on527864   2.978   3.444   1.378 -0.0276  0.1329  0.0678
 5638ntf    on527865   3.214   3.498   1.322  0.2494 -0.3017  0.3067
 5638ntf    on527866   3.097   3.154   1.616 -0.1961 -0.2299  0.2829
 5638ntf    on527867   2.972   3.350   1.689 -0.1248 -0.2475 -0.3949
 5638ntf    fn427868   3.327   3.296   1.755  0.0147  0.4628  0.1446
 5638ntf    fn427869   3.207   3.458   1.826  0.0277  0.0028  0.1740
 5638ntf    fn427870   3.185   3.257   1.893 -0.5577 -0.1065 -0.1807
 5639ntf    cn127871   4.231   0.959   0.170  0.1048 -0.3951  0.2973
 5639ntf    sn227872   4.109   0.837   0.113 -0.3539  0.2406 -0.1051
 5639ntf    nn327873   4.072   0.897  -0.027  0.4953  0.5199 -0.2103
 5639ntf    sn227874   3.946   0.880  -0.119  0.2672  0.3614  0.1346
 5639ntf    cn127875   4.034   0.831  -0.270 -0.2387 -0.5384  0.1258
 5639ntf    fn427876   4.269   0.943   0.295 -0.0709 -0.6727  0.3143
 5639ntf    fn427877   4.343   0.960   0.100 -0.0481 -0.0115  0.0535
 5639ntf    fn427878   4.175   1.080   0.174  0.0290 -0.4048 -0.3149
 5639ntf    on527879   4.188   0.717   0.106 -0.3311  0.2605 -0.1915
 5639ntf    on527880   4.009   0.832   0.217  0.0697 -0.4497  0.2761
 5639ntf    on527881   3.870   1.000  -0.146  0.1214  0.2278 -0.0534
 5639ntf    on527882   3.867   0.761  -0.100 -0.4159  0.7933  0.0321
 5639ntf    fn427883   4.165   0.837  -0.258 -0.2535 -0.0402  0.0522
 5639ntf    fn427884   4.006   0.706  -0.304 -0.1267 -0.6152  0.3129
 5639ntf    fn427885   4.012   0.910  -0.374  0.0659  0.0339  0.4913
 5640ntf    cn127886   1.544   6.255   3.753 -0.2036  0.0721 -0.0745
 5640ntf    sn227887   1.680   6.136   3.759 -0.0876  0.2067 -0.0184
 5640ntf    nn327888   1.796   6.241   3.749  0.1693 -0.0251  0.4813
 5640ntf    sn227889   1.949   6.221   3.779  0.2290  0.1819  0.3111
 5640ntf    cn127890   2.025   6.304   3.636  0.0022  0.2990  0.2581
 5640ntf    fn427891   1.539   6.300   3.629 -0.5277 -0.1551 -0.1457
 5640ntf    fn427892   1.426   6.203   3.785 -0.1543  0.0004 -0.0105
 5640ntf    fn427893   1.557   6.363   3.829 -0.0702  0.1114 -0.1533
 5640ntf    on527894   1.670   6.062   3.883 -0.3411  0.1162 -0.0933
 5640ntf    on527895   1.668   6.054   3.641 -0.3807  0.2138  0.0060
 5640ntf    on527896   2.000   6.087   3.767 -0.2781  0.0268 -0.1597
 5640ntf    on527897   1.995   6.291   3.896 -0.4168  0.0141  0.6702
 5640ntf    fn427898   2.041   6.220   3.535 -0.1008  0.1761  0.3443
 5640ntf    fn427899   1.936   6.390   3.591 -0.2880 -0.1076  0.0512
 5640ntf    fn427900   2.146   6.354   3.654  0.2066 -0.1671  0.2028
 5641ntf    cn127901   5.279   4.037   0.136  0.2260 -0.4003  0.3139
 5641ntf    sn227902   5.221   3.923   0.006 -0.0096 -0.1398  0.1888
 5641ntf    nn327903   5.349   3.833  -0.012 -0.0076 -0.0940 -0.0330
 5641ntf    sn227904   5.364   3.681  -0.049  0.4017 -0.0668  0.0183
 5641ntf    cn127905   5.388   3.672  -0.229 -0.1901 -0.3226 -0.0491
 5641ntf    fn427906   5.188   4.131   0.154  0.3923 -0.2414  0.3165
 5641ntf    fn427907   5.297   3.969   0.248 -0.2632  0.0713  0.6833
 5641ntf    fn427908   5.390   4.103   0.110 -0.0048 -0.0307  0.2616
 5641ntf    on527909   5.105   3.860   0.064 -0.3251  0.4461  0.2003
 5641ntf    on527910   5.197   4.010  -0.107  0.3396 -0.1411  0.1132
 5641ntf    on527911   5.244   3.603  -0.029  0.1239  0.2198 -0.4952
 5641ntf    on527912   5.487   3.628   0.004  0.4242 -0.0636 -0.0320
 5641ntf    fn427913   5.507   3.711  -0.270 -0.1599 -0.3277  0.0334
 5641ntf    fn427914   5.369   3.551  -0.278 -0.1033 -0.1642 -0.4779
 5641ntf    fn427915   5.301   3.750  -0.292  0.4704  0.4656 -0.0050
 5642ntf    cn127916   2.080   4.864   7.384 -0.0177  0.1618  0.4261
 5642ntf    sn227917   2.110   5.012   7.485  0.0014  0.5086 -0.0852
 5642ntf    nn327918   1.987   5.095   7.435 -0.3407  0.2097  0.2451
 5642ntf    sn227919   1.845   5.126   7.493 -0.6300 -0.1952 -0.2339
 5642ntf    cn127920   1.882   5.291   7.560  0.3287 -0.5284  0.0593
 5642ntf    fn427921   1.959   4.812   7.398 -0.0752  0.0052 -0.5988
 5642ntf    fn427922   2.087   4.892   7.255  1.0369 -0.5313  0.3123
 5642ntf    fn427923   2.175   4.774   7.405 -0.0098  0.1629  0.3960
 5642ntf    on527924   2.094   4.969   7.622  0.6491 -0.0209 -0.1705
 5642ntf    on527925   2.239   5.058   7.441  0.1196  0.2080 -0.0550
 5642ntf    on527926   1.806   5.045   7.606 -0.1235 -0.1152  0.0004
 5642ntf    on527927   1.746   5.155   7.392 -0.1474  0.4269 -0.5340
 5642ntf    fn427928   1.772   5.344   7.610  0.4894 -0.2768  0.1517
 5642ntf    fn427929   1.972   5.299   7.657  0.1084 -0.0143  0.2263
 5642ntf    fn427930   1.923   5.383   7.474 -0.1676 -0.6272 -0.2852
 5643ntf    cn127931   7.327   1.016   1.821 -0.2822 -0.2195  0.0411
 5643ntf    sn227932   7.292   1.151   1.938  0.0886 -0.3046  0.2533
 5643ntf    nn327933   7.346   1.098   2.075  0.1439  0.1259  0.4002
 5643ntf    sn227934   7.285   1.125   2.218 -0.1153  0.3510  0.2472
 5643ntf    cn127935   7.204   0.965   2.250  0.2498  0.0784 -0.1725
 5643ntf    fn427936   7.453   0.976   1.834 -0.0361  0.5011 -0.0956
 5643ntf    fn427937   7.255   0.908   1.850 -0.8350  0.1717  0.1467
 5643ntf    fn427938   7.302   1.049   1.696 -0.6710  0.3808  0.2729
 5643ntf    on527939   7.376   1.259   1.891 -0.2624 -0.2775 -0.3191
 5643ntf    on527940   7.148   1.157   1.932  0.0641 -1.1059  0.0026
 5643ntf    on527941   7.179   1.223   2.218 -0.2382  0.2190  0.3586
 5643ntf    on527942   7.386   1.136   2.319  0.2764 -0.2008 -0.0804
 5643ntf    fn427943   7.291   0.866   2.242  0.3668  0.1579  0.0967
 5643ntf    fn427944   7.138   0.955   2.364  0.6712 -0.6251  0.0110
 5643ntf    fn427945   7.108   0.940   2.163  0.1217  0.4563 -0.1420
 5644ntf    cn127946   3.253   1.739   5.322  0.2119 -0.2277 -0.1543
 5644ntf    sn227947   3.347   1.839   5.202  0.3769  0.0597  0.2112
 5644ntf    nn327948   3.281   1.788   5.069  0.1796 -0.1287  0.3800
 5644ntf    sn227949   3.332   1.818   4.924 -0.5850  0.5492  0.2432
 5644ntf    cn127950   3.312   1.650   4.859  0.2485  0.4563  0.2141
 5644ntf    fn427951   3.124   1.763   5.339  0.3149  0.0657  0.2373
 5644ntf    fn427952   3.254   1.613   5.282  0.0409 -0.3458  0.2107
 5644ntf    fn427953   3.306   1.746   5.443  0.2269  0.6607 -0.2033
 5644ntf    on527954   3.310   1.974   5.236  0.1703  0.1298 -0.2838
 5644ntf    on527955   3.479   1.790   5.232  0.1586 -0.7154 -0.0648
 5644ntf    on527956   3.476   1.824   4.913 -0.5436 -0.1919  0.3875
 5644ntf    on527957   3.252   1.899   4.836 -0.5403 -0.1958 -0.4915
 5644ntf    fn427958   3.378   1.559   4.930  0.2282  0.3432  0.0879
 5644ntf    fn427959   3.183   1.620   4.859  0.1404  0.8820 -0.6343
 5644ntf    fn427960   3.355   1.630   4.735  0.8354  0.1152  0.4689
 5645ntf    cn127961   3.433   1.907   1.969  0.1999  0.2465  0.1318
 5645ntf    sn227962   3.579   1.805   1.936  0.0398  0.1497 -0.2878
 5645ntf    nn327963   3.510   1.677   1.877  0.0872 -0.2375  0.4760
 5645ntf    sn227964   3.527   1.531   1.933  0.0148 -0.3498  0.2050
 5645ntf    cn127965   3.510   1.436   1.778 -0.1429 -0.0652  0.0473
 5645ntf    fn427966   3.335   1.831   2.016 -0.1228  0.1070 -0.7434
 5645ntf    fn427967   3.460   2.006   2.052  0.2994 -0.1971  0.6321
 5645ntf    fn427968   3.383   1.966   1.862 -0.4135 -0.0776  0.2353
 5645ntf    on527969   3.657   1.864   1.831 -0.0394  0.2988 -0.2633
 5645ntf    on527970   3.646   1.791   2.064 -0.1422  0.0585 -0.2015
 5645ntf    on527971   3.419   1.486   2.018 -0.2040  0.3640  0.3128
 5645ntf    on527972   3.659   1.501   1.982  0.3295  0.5767 -0.0553
 5645ntf    fn427973   3.598   1.468   1.684 -0.2951  0.6357  0.1351
 5645ntf    fn427974   3.524   1.312   1.820 -0.3952 -0.1182 -0.0281
 5645ntf    fn427975   3.394   1.447   1.715 -0.0659 -0.0424 -0.0927
 5646ntf    cn127976   5.191   1.422   2.895  0.2902 -0.0739 -0.3765
 5646ntf    sn227977   5.024   1.350   2.900  0.1124  0.3631  0.0146
 5646ntf    nn327978   4.937   1.471   2.951  0.0387  0.4636 -0.3470
 5646ntf    sn227979   4.962   1.548   3.086 -0.4055 -0.0306  0.0214
 5646ntf    cn127980   4.940   1.719   3.028  0.1285  0.0826  0.1491
 5646ntf    fn427981   5.261   1.375   2.793 -0.1536  0.1432 -0.7861
 5646ntf    fn427982   5.196   1.554   2.885 -0.2775  0.0060  0.3054
 5646ntf    fn427983   5.260   1.393   3.004  0.4262  0.2393 -0.3776
 5646ntf    on527984   4.993   1.312   2.765 -0.5780  0.0508  0.2566
 5646ntf    on527985   5.039   1.245   2.997 -0.0554  0.1497 -0.1905
 5646ntf    on527986   5.099   1.550   3.131 -0.3485  0.8799 -0.1759
 5646ntf    on527987   4.863   1.529   3.189 -0.2735 -0.0548  0.1446
 5646ntf    fn427988   5.010   1.750   2.920 -0.1075 -0.1253 -0.0649
 5646ntf    fn427989   4.813   1.741   2.998  0.0571  0.0926  0.4575
 5646ntf    fn427990   4.978   1.809   3.118 -0.7229  0.2431  0.3554
 5647ntf    cn127991   6.484   7.414   6.545  0.0024 -0.1032  0.4038
 5647ntf    sn227992   6.561   7.249   6.537  0.1633  0.0004 -0.2043
 5647ntf    nn327993   6.431   7.163   6.525  0.1607 -0.0688  0.2942
 5647ntf    sn227994   6.382   7.039   6.609  0.1171 -0.2366  0.0240
 5647ntf    cn127995   6.293   7.128   6.740  0.3584 -0.2365  0.1877
 5647ntf    fn427996   6.565   7.518   6.539  0.1608 -0.2777 -0.5475
 5647ntf    fn427997   6.395   7.430   6.448  0.0366 -0.4810  0.3076
 5647ntf    fn427998   6.407   7.422   6.653 -0.3504 -0.0149  0.1478
 5647ntf    on527999   6.622   7.255   6.406  0.0518  0.0645 -0.2545
 5647ntf    on528000   6.647   7.241   6.653  0.4294  0.4455 -0.3684
 5647ntf    on528001   6.479   6.960   6.680  0.6964  0.3012 -0.1614
 5647ntf    on528002   6.274   6.979   6.535 -0.0828 -0.0549  0.1672
 5647ntf    fn428003   6.215   7.049   6.813  0.3383 -0.0007  0.4253
 5647ntf    fn428004   6.373   7.180   6.832 -0.4731  0.3854  0.5680
 5647ntf    fn428005   6.209   7.220   6.696  0.0359 -0.2176  0.8216
 5648ntf    cn128006   3.600   4.219   0.232  0.0138 -0.2854  0.2154
 5648ntf    sn228007   3.690   4.337   0.338 -0.1258 -0.1079  0.1359
 5648ntf    nn328008   3.616   4.311   0.474 -0.5068 -0.2717 -0.1001
 5648ntf    sn228009   3.677   4.226   0.591 -0.0631  0.1924  0.0111
 5648ntf    cn128010   3.555   4.092   0.610  0.1731  0.0644  0.6466
 5648ntf    fn428011   3.603   4.095   0.279 -0.0825 -0.2327  0.3611
 5648ntf    fn428012   3.471   4.244   0.224  0.1864  0.4886 -0.2567
 5648ntf    fn428013   3.653   4.218   0.111  0.0821  0.3679  0.2379
 5648ntf    on528014   3.828   4.300   0.323 -0.1496 -0.0882 -0.1378
 5648ntf    on528015   3.654   4.468   0.289 -0.1250 -0.0979  0.1630
 5648ntf    on528016   3.675   4.280   0.725  0.4483 -0.8355  0.4431
 5648ntf    on528017   3.798   4.156   0.557 -0.1032 -0.0281  0.3194
 5648ntf    fn428018   3.570   4.023   0.722 -0.3572 -0.7378  0.2332
 5648ntf    fn428019   3.433   4.142   0.603  0.2823  0.2693  0.1027
 5648ntf    fn428020   3.576   4.003   0.515  0.1257  0.1554  0.5500
 5649ntf    cn128021   1.526   7.451   6.081 -0.1313 -0.1416  0.3692
 5649ntf    sn228022   1.471   7.625   6.078 -0.0999 -0.1325  0.2806
 5649ntf    nn328023   1.515   7.682   6.218  0.2019 -0.5735  0.3694
 5649ntf    sn228024   1.649   7.746   6.266  0.1532 -0.0529 -0.1710
 5649ntf    cn128025   1.599   7.918   6.238  0.3056 -0.0594 -0.4882
 5649ntf    fn428026   1.484   7.374   5.983 -0.0409  0.2212  0.0408
 5649ntf    fn428027   1.658   7.435   6.077 -0.1093  0.0885  0.1071
 5649ntf    fn428028   1.477   7.397   6.191 -0.4241 -0.3735  0.1218
 5649ntf    on528029   1.532   7.689   5.964 -0.3655  0.0039  0.2145
 5649ntf    on528030   1.328   7.616   6.062 -0.1167  0.3119  0.1813
 5649ntf    on528031   1.765   7.723   6.183  0.1854  0.2339 -0.2043
 5649ntf    on528032   1.659   7.721   6.408 -0.3360 -0.3531 -0.1905
 5649ntf    fn428033   1.563   7.933   6.111 -0.5224  0.2622 -0.2256
 5649ntf    fn428034   1.492   7.966   6.299  0.5005  0.2313 -0.3736
 5649ntf    fn428035   1.702   7.997   6.260 -0.1467  0.3770  0.1009
 5650ntf    cn128036   0.943   2.087   1.773 -0.7358  0.3251 -0.1390
 5650ntf    sn228037   0.985   2.070   1.597 -0.2535 -0.0799  0.0139
 5650ntf    nn328038   0.843   2.073   1.531 -0.2710  0.1835  0.0616
 5650ntf    sn228039   0.768   1.956   1.458 -0.1553  0.0831  0.1022
 5650ntf    cn128040   0.697   1.845   1.584 -0.5003  0.2529  0.0593
 5650ntf    fn428041   0.871   2.194   1.802 -0.3297  0.6351 -0.2827
 5650ntf    fn428042   0.857   1.995   1.814  0.5088 -1.0067 -0.4526
 5650ntf    fn428043   1.046   2.085   1.856 -0.4650  0.1485 -0.4764
 5650ntf    on528044   1.069   2.186   1.579  0.4742 -0.7038 -0.7174
 5650ntf    on528045   1.047   1.940   1.596  0.4020  0.2234  0.2684
 5650ntf    on528046   0.846   1.877   1.366 -1.1034 -0.3458 -0.3458
 5650ntf    on528047   0.643   2.010   1.409 -0.1535 -0.0403 -0.0397
 5650ntf    fn428048   0.794   1.808   1.667 -0.3940 -0.3372 -0.3295
 5650ntf    fn428049   0.606   1.908   1.657 -0.4363  0.3399  0.0642
 5650ntf    fn428050   0.634   1.735   1.547 -0.1407  0.1271 -0.1871
 5651ntf    cn128051   1.659   0.463   0.793  0.1448 -0.1722  0.3159
 5651ntf    sn228052   1.740   0.461   0.629  0.0194  0.0631  0.2514
 5651ntf    nn328053   1.769   0.614   0.609  0.3433  0.0211  0.4007
 5651ntf    sn228054   1.829   0.675   0.477 -0.0066 -0.3496  0.0708
 5651ntf    cn128055   1.995   0.717   0.536 -0.0419 -0.4409  0.2366
 5651ntf    fn428056   1.527   0.453   0.793  0.1193  0.0452 -0.5544
 5651ntf    fn428057   1.704   0.366   0.871 -0.2509 -0.2846  0.4055
 5651ntf    fn428058   1.698   0.580   0.841 -0.2306  0.0711  0.0354
 5651ntf    on528059   1.855   0.376   0.646  0.1752  0.1969 -0.1443
 5651ntf    on528060   1.647   0.404   0.535  0.2347 -0.3567  0.2926
 5651ntf    on528061   1.792   0.812   0.450 -0.3107 -0.3831  0.3037
 5651ntf    on528062   1.847   0.584   0.366  0.0250 -0.0697 -0.1545
 5651ntf    fn428063   2.058   0.608   0.576  0.6667  0.0434  0.4607
 5651ntf    fn428064   2.069   0.772   0.441 -0.6211 -0.0569  0.0042
 5651ntf    fn428065   1.992   0.803   0.637  0.0326 -0.1947  0.0286
 5652ntf    cn128066   6.227   6.175   4.907  0.0366 -0.1468 -0.2410
 5652ntf    sn228067   6.197   6.125   4.735 -0.3372 -0.3801 -0.1092
 5652ntf    nn328068   6.343   6.097   4.684 -0.2486  0.0450 -0.0965
 5652ntf    sn228069   6.434   6.201   4.609  0.0944 -0.0702  0.1539
 5652ntf    cn128070   6.392   6.124   4.449 -0.0803 -0.1047  0.2165
 5652ntf    fn428071   6.319   6.269   4.925  0.0752 -0.2545  0.1335
 5652ntf    fn428072   6.116   6.226   4.958  0.1345  0.0809 -0.2517
 5652ntf    fn428073   6.257   6.065   4.974  0.5617  0.1274 -0.0184
 5652ntf    on528074   6.125   6.002   4.753 -0.6031 -0.3065 -0.6344
 5652ntf    on528075   6.115   6.235   4.691  0.7571  0.3476 -0.3869
 5652ntf    on528076   6.575   6.177   4.626  0.1762  0.5187  0.3025
 5652ntf    on528077   6.381   6.334   4.595  0.3318 -0.0540 -0.6923
 5652ntf    fn428078   6.446   6.192   4.350 -0.0839 -1.2074 -0.5615
 5652ntf    fn428079   6.452   6.006   4.448 -0.3347 -0.2402  0.5549
 5652ntf    fn428080   6.263   6.110   4.423  0.0549 -0.0290 -0.5207
 5653ntf    cn128081   7.553   1.625   1.530 -0.1885  0.2223 -0.1648
 5653ntf    sn228082   7.578   1.795   1.589 -0.2974  0.0184  0.4669
 5653ntf    nn328083   7.706   1.763   1.676 -0.0628  0.2824  0.2222
 5653ntf    sn228084   7.852   1.815   1.657 -0.0387  0.1164 -0.0528
 5653ntf    cn128085   7.921   1.753   1.813  0.0570  0.2363 -0.0467
 5653ntf    fn428086   7.668   1.562   1.517 -0.1208  0.3771 -0.3383
 5653ntf    fn428087   7.466   1.553   1.598  0.0400  0.3779  0.2918
 5653ntf    fn428088   7.502   1.631   1.408  0.1972 -0.1219 -0.3440
 5653ntf    on528089   7.605   1.869   1.469 -0.2682 -0.6325  0.0714
 5653ntf    on528090   7.454   1.820   1.658 -0.4141  0.4259  0.1128
 5653ntf    on528091   7.879   1.957   1.669 -0.0908  0.1102  0.1311
 5653ntf    on528092   7.923   1.744   1.553 -0.0221 -0.3447  0.2759
 5653ntf    fn428093   8.052   1.732   1.815  0.0485  0.1953  0.1199
 5653ntf    fn428094   7.896   1.837   1.911 -0.4133  0.2789 -0.1994
 5653ntf    fn428095   7.863   1.640   1.851  0.1495  0.2243  0.0572
 5654ntf    cn128096   2.354   3.327   6.840 -0.2707 -0.5896 -0.0566
 5654ntf    sn228097   2.506   3.235   6.801  0.0225 -0.0302 -0.2381
 5654ntf    nn328098   2.529   3.154   6.933  0.5031  0.2918 -0.1226
 5654ntf    sn228099   2.462   3.018   6.974  0.4372  0.3396 -0.0708
 5654ntf    cn128100   2.431   3.050   7.151 -0.1804 -0.0564 -0.1065
 5654ntf    fn428101   2.314   3.311   6.965  0.2481  0.2971  0.2297
 5654ntf    fn428102   2.372   3.457   6.821  0.2416 -0.6957 -0.3041
 5654ntf    fn428103   2.252   3.291   6.764 -0.4601 -0.0358 -0.0751
 5654ntf    on528104   2.459   3.158   6.688  0.4147 -0.8077  0.1212
 5654ntf    on528105   2.595   3.344   6.771 -0.0145 -0.0003 -0.2396
 5654ntf    on528106   2.546   2.902   6.987  0.3235  0.3200  0.5185
 5654ntf    on528107   2.324   2.997   6.939  0.4410 -0.1014  0.1792
 5654ntf    fn428108   2.389   2.944   7.218 -0.4928  0.1406  0.0116
 5654ntf    fn428109   2.537   3.092   7.217 -0.2881 -0.2131  0.1664
 5654ntf    fn428110   2.333   3.135   7.173  0.1433  0.3653 -0.2895
 5655ntf    cn128111   1.640   3.377   3.650 -0.0965 -0.5614  0.1104
 5655ntf    sn228112   1.691   3.437   3.486 -0.1379 -0.2877  0.1980
 5655ntf    nn328113   1.843   3.401   3.499  0.1929  0.8928 -0.3110
 5655ntf    sn228114   1.937   3.350   3.384  0.1589  0.1221 -0.0002
 5655ntf    cn128115   2.032   3.503   3.359 -0.3700  0.4412 -0.0745
 5655ntf    fn428116   1.679   3.456   3.749 -0.0547 -0.5418  0.0784
 5655ntf    fn428117   1.510   3.352   3.653 -0.2620  0.2567 -0.1193
 5655ntf    fn428118   1.700   3.261   3.673  0.1650 -0.4578 -0.0420
 5655ntf    on528119   1.616   3.355   3.395 -0.0979  0.0483 -0.1384
 5655ntf    on528120   1.669   3.579   3.483 -0.3286 -0.3101  0.5020
 5655ntf    on528121   1.877   3.318   3.257 -0.3497 -0.5593  0.4014
 5655ntf    on528122   2.026   3.251   3.438 -0.3268 -0.1668  0.2855
 5655ntf    fn428123   2.065   3.547   3.479  0.4560 -0.1666 -0.0667
 5655ntf    fn428124   2.143   3.487   3.290 -0.3515  0.0412  0.0415
 5655ntf    fn428125   1.955   3.593   3.300 -0.6115  0.4540  0.2537
 5656ntf    cn128126   0.100   3.550   6.463 -0.0232 -0.4934  0.3929
 5656ntf    sn228127   0.070   3.480   6.298 -0.1407 -0.1866  0.2848
 5656ntf    nn328128   0.143   3.342   6.314 -0.2871 -0.3148 -0.1243
 5656ntf    sn228129   0.262   3.279   6.234 -0.1165  0.1097 -0.2117
 5656ntf    cn128130   0.404   3.332   6.336 -0.1525  0.0160 -0.1123
 5656ntf    fn428131   0.230   3.551   6.488  0.1296 -0.7342 -0.3847
 5656ntf    fn428132   0.069   3.677   6.479  0.5890 -0.2654 -0.1975
 5656ntf    fn428133   0.039   3.478   6.556 -0.4544 -0.0999  0.4193
 5656ntf    on528134  -0.072   3.462   6.277  0.0817 -1.0604 -0.4832
 5656ntf    on528135   0.145   3.569   6.214 -0.5732 -0.1800 -0.0998
 5656ntf    on528136   0.297   3.341   6.109  0.8668 -0.1742 -0.0901
 5656ntf    on528137   0.257   3.135   6.245 -0.3532  0.1987  1.1027
 5656ntf    fn428138   0.408   3.462   6.356  0.3164 -0.0149  0.0070
 5656ntf    fn428139   0.404   3.270   6.453 -0.2703 -0.6499 -0.4564
 5656ntf    fn428140   0.526   3.304   6.293  0.1140  0.8259  0.1048
 5657ntf    cn128141   5.636   1.694   2.677  0.4115 -0.0423  0.1287
 5657ntf    sn228142   5.626   1.514   2.701 -0.1679 -0.0099  0.1402
 5657ntf    nn328143   5.712   1.507   2.832  0.2185  0.3630 -0.0908
 5657ntf    sn228144   5.844   1.424   2.852 -0.0602 -0.0912 -0.1229
 5657ntf    cn128145   5.969   1.556   2.838  0.0775 -0.1774  0.3103
 5657ntf    fn428146   5.556   1.761   2.758 -0.1373 -0.1184 -0.3468
 5657ntf    fn428147   5.758   1.741   2.699  0.5469 -0.1109 -0.4629
 5657ntf    fn428148   5.591   1.730   2.558  0.1674 -0.3980  0.1151
 5657ntf    on528149   5.486   1.492   2.726 -0.1478 -0.0982  0.1719
 5657ntf    on528150   5.682   1.453   2.583  0.2313 -0.0159  0.3311
 5657ntf    on528151   5.884   1.334   2.746 -0.0580 -0.1237 -0.0940
 5657ntf    on528152   5.854   1.373   2.986  0.4178 -0.2197 -0.2053
 5657ntf    fn428153   5.950   1.657   2.922  0.1051  0.1517 -0.0766
 5657ntf    fn428154   6.090   1.508   2.863  0.2195  0.0155 -0.0143
 5657ntf    fn428155   5.978   1.607   2.717 -0.4834  0.5856  0.5859
 5658ntf    cn128156   7.250   6.556   5.118  0.1740 -0.2772  0.3286
 5658ntf    sn228157   7.272   6.735   5.099  0.0921 -0.2950  0.0675
 5658ntf    nn328158   7.251   6.748   4.944 -0.2376 -0.3032  0.1096
 5658ntf    sn228159   7.122   6.762   4.856  0.0006 -0.0066 -0.1968
 5658ntf    cn128160   7.177   6.676   4.705 -0.1354 -0.5085  0.0381
 5658ntf    fn428161   7.359   6.496   5.072  0.2153  0.0568 -0.0109
 5658ntf    fn428162   7.228   6.520   5.243  0.2256  0.0445  0.4302
 5658ntf    fn428163   7.154   6.506   5.041  0.1394  0.2613  0.0154
 5658ntf    on528164   7.165   6.796   5.174 -0.3459 -0.2384 -0.5965
 5658ntf    on528165   7.406   6.763   5.145  0.1728 -0.3951 -0.1059
 5658ntf    on528166   7.090   6.896   4.812 -0.0590  0.1361  0.2811
 5658ntf    on528167   7.008   6.685   4.897  0.2738 -0.3668 -0.1127
 5658ntf    fn428168   7.090   6.690   4.607  0.6058  0.1727 -0.5320
 5658ntf    fn428169   7.293   6.726   4.665 -0.2292 -0.1727  0.1824
 5658ntf    fn428170   7.201   6.548   4.730  0.3103 -0.4762 -0.2059
 5659ntf    cn128171   1.938   6.330   3.160  0.5258  0.6782 -0.0846
 5659ntf    sn228172   1.954   6.216   3.020  0.0493 -0.0512  0.4497
 5659ntf    nn328173   1.917   6.079   3.088 -0.0988 -0.3176 -0.1612
 5659ntf    sn228174   2.018   5.975   3.147  0.2219 -0.0244 -0.1909
 5659ntf    cn128175   2.036   5.868   3.001 -0.2599  0.2199 -0.4329
 5659ntf    fn428176   1.816   6.367   3.196  0.1310 -0.3171 -0.3998
 5659ntf    fn428177   1.988   6.280   3.272 -0.1865  0.1774  0.0150
 5659ntf    fn428178   2.007   6.440   3.133  0.7044  0.6061  0.0671
 5659ntf    on528179   1.855   6.244   2.919  0.4992  0.2093  0.0763
 5659ntf    on528180   2.087   6.230   2.968 -0.2850 -0.3061 -0.4950
 5659ntf    on528181   1.956   5.890   3.245  0.4029 -0.3221 -0.3306
 5659ntf    on528182   2.146   6.029   3.186  0.1222  0.1390 -0.0897
 5659ntf    fn428183   1.922   5.819   2.957  0.1754 -1.0639 -0.1696
 5659ntf    fn428184   2.083   5.932   2.895 -0.1452  0.9443  0.0513
 5659ntf    fn428185   2.112   5.762   3.022 -0.6586  0.0191  0.0095
 5660ntf    cn128186   2.162   4.937   3.599  0.2633 -0.0569  0.1078
 5660ntf    sn228187   2.102   5.092   3.673 -0.0723 -0.0513 -0.1729
 5660ntf    nn328188   1.966   5.105   3.596 -0.3438  0.0602  0.3206
 5660ntf    sn228189   1.834   5.180   3.637 -0.3902  0.1327  0.0445
 5660ntf    cn128190   1.712   5.046   3.625 -0.1180 -0.1036 -0.0888
 5660ntf    fn428191   2.276   4.890   3.644  0.0992 -0.8068 -0.2496
 5660ntf    fn428192   2.069   4.846   3.620  0.3355 -0.2327 -0.3318
 5660ntf    fn428193   2.175   4.945   3.467 -0.0704 -0.0732  0.0725
 5660ntf    on528194   2.098   5.058   3.813 -0.6596  0.0322 -0.1649
 5660ntf    on528195   2.195   5.195   3.635 -0.0312 -0.0858 -0.1642
 5660ntf    on528196   1.796   5.281   3.541  0.0087  0.1775 -0.0699
 5660ntf    on528197   1.817   5.218   3.775 -0.3640  0.2997  0.0018
 5660ntf    fn428198   1.714   4.964   3.729 -0.5831 -0.4884 -0.3831
 5660ntf    fn428199   1.588   5.091   3.618 -0.0755  0.0383  0.0405
 5660ntf    fn428200   1.726   4.973   3.516  0.1593 -0.4979  0.2018
 5661ntf    cn128201   5.957   4.302   3.020  0.0412 -0.1782  0.1005
 5661ntf    sn228202   5.808   4.390   3.074  0.2509  0.3569 -0.1790
 5661ntf    nn328203   5.816   4.345   3.224  0.1266 -0.6237 -0.4592
 5661ntf    sn228204   5.730   4.254   3.320 -0.1171 -0.0062 -0.0876
 5661ntf    cn128205   5.769   4.357   3.465  0.3213 -0.1141 -0.1271
 5661ntf    fn428206   6.064   4.365   3.065 -0.0262 -0.3311  0.4790
 5661ntf    fn428207   5.956   4.172   3.044  0.2888 -0.0601  0.7859
 5661ntf    fn428208   5.963   4.312   2.888  0.0566  0.2718  0.1320
 5661ntf    on528209   5.836   4.528   3.043  0.5262  0.2822 -0.2683
 5661ntf    on528210   5.719   4.311   2.992  0.5012  0.2008 -0.3026
 5661ntf    on528211   5.786   4.126   3.355 -0.4884 -0.2383 -0.3390
 5661ntf    on528212   5.587   4.267   3.307 -0.1289 -0.2194 -0.1864
 5661ntf    fn428213   5.742   4.486   3.449  0.6175 -0.0202  0.1332
 5661ntf    fn428214   5.698   4.316   3.568  0.0410  0.6995  0.0132
 5661ntf    fn428215   5.897   4.352   3.497  0.2961  0.2762  0.0427
 5662ntf    cn128216   4.405   6.638   0.462  0.1322 -0.3183 -0.1416
 5662ntf    sn228217   4.544   6.753   0.483 -0.1060 -0.0619  0.0597
 5662ntf    nn328218   4.668   6.656   0.478  0.0867  0.1655  0.4131
 5662ntf    sn228219   4.819   6.700   0.488  0.2436 -0.3074  0.1690
 5662ntf    cn128220   4.879   6.690   0.317  0.1159  0.0262  0.1039
 5662ntf    fn428221   4.421   6.569   0.350  0.0279 -0.0755 -0.3063
 5662ntf    fn428222   4.384   6.557   0.565  0.2269  0.0565  0.1763
 5662ntf    fn428223   4.293   6.707   0.447 -0.1867 -0.7747  0.0986
 5662ntf    on528224   4.533   6.845   0.373 -0.1044 -0.3383 -0.1741
 5662ntf    on528225   4.509   6.803   0.613 -0.0263  0.4074 -0.0993
 5662ntf    on528226   4.891   6.600   0.563  0.4757  0.0431  0.4140
 5662ntf    on528227   4.845   6.837   0.523  0.5251 -0.4712  0.6039
 5662ntf    fn428228   5.002   6.740   0.316  0.2362 -0.2749 -0.2530
 5662ntf    fn428229   4.881   6.571   0.260 -0.6179  0.1107 -0.1009
 5662ntf    fn428230   4.815   6.770   0.233 -0.4404 -0.3579  0.1545
 5663ntf    cn128231   2.684   2.608   4.158  0.0482 -0.0703  0.2866
 5663ntf    sn228232   2.542   2.683   4.073  0.2858 -0.0879 -0.1262
 5663ntf    nn328233   2.450   2.556   4.084  0.0011  0.0655 -0.6897
 5663ntf    sn228234   2.293   2.559   4.084 -0.0040  0.0180 -0.0047
 5663ntf    cn128235   2.250   2.577   4.260  0.0497 -0.0622  0.0172
 5663ntf    fn428236   2.728   2.501   4.094  0.4093  0.1524  0.1566
 5663ntf    fn428237   2.783   2.695   4.168 -0.4330  0.5069  0.0737
 5663ntf    fn428238   2.659   2.566   4.281  0.3609 -0.2224  0.2997
 5663ntf    on528239   2.519   2.797   4.158  0.3072 -0.3320  0.2088
 5663ntf    on528240   2.589   2.713   3.939 -0.0434  0.3462 -0.1455
 5663ntf    on528241   2.243   2.426   4.062 -0.1972 -0.0167  0.6268
 5663ntf    on528242   2.225   2.664   4.011 -0.0264  0.1111  0.1500
 5663ntf    fn428243   2.121   2.607   4.264  0.0897  0.0872  0.1746
 5663ntf    fn428244   2.285   2.473   4.332 -0.3686  0.1534  0.5337
 5663ntf    fn428245   2.316   2.677   4.316  0.3721 -0.1560 -0.1912
 5664ntf    cn128246   2.868   4.174   5.252  0.0432  0.1239  0.0146
 5664ntf    sn228247   2.973   4.322   5.246  0.1653  0.0275 -0.2344
 5664ntf    nn328248   2.872   4.417   5.172 -0.5416 -0.3792  0.1901
 5664ntf    sn228249   2.848   4.414   5.017 -0.3020  0.0524  0.1412
 5664ntf    cn128250   2.670   4.451   5.011 -0.1880  0.5161 -0.4843
 5664ntf    fn428251   2.875   4.118   5.371  0.1121 -0.3502 -0.2093
 5664ntf    fn428252   2.738   4.200   5.257 -0.0476 -0.3808  0.4256
 5664ntf    fn428253   2.886   4.073   5.168  0.1455  0.1907 -0.0437
 5664ntf    on528254   2.994   4.362   5.383 -0.2271  0.4230 -0.2873
 5664ntf    on528255   3.090   4.283   5.171  0.4732  0.0535  0.2304
 5664ntf    on528256   2.851   4.287   4.948  0.4894  0.3500 -0.3885
 5664ntf    on528257   2.912   4.522   4.945 -0.4882 -0.3869 -0.7016
 5664ntf    fn428258   2.634   4.563   5.072 -0.1770  0.4958 -0.4410
 5664ntf    fn428259   2.631   4.465   4.885 -0.1575  0.2586 -0.5234
 5664ntf    fn428260   2.590   4.355   5.053 -0.1087  0.5632 -0.2251
 5665ntf    cn128261   2.999   4.090   1.522  0.4058 -0.2964 -0.1654
 5665ntf    sn228262   2.844   4.065   1.429  0.2040  0.2123  0.0310
 5665ntf    nn328263   2.786   4.210   1.449  0.0721  0.2391 -0.5357
 5665ntf    sn228264   2.765   4.323   1.342  0.0427  0.2248 -0.5451
 5665ntf    cn128265   2.637   4.241   1.242 -0.3357 -0.2986  0.3577
 5665ntf    fn428266   2.979   4.123   1.648  0.6096 -0.0985 -0.1854
 5665ntf    fn428267   3.074   3.981   1.520 -0.0527 -0.6349  0.5203
 5665ntf    fn428268   3.069   4.190   1.472  0.5195 -0.1504  0.2891
 5665ntf    on528269   2.894   4.043   1.296 -0.3225 -0.0794 -0.1198
 5665ntf    on528270   2.777   3.962   1.503  0.3169 -0.0412 -0.2193
 5665ntf    on528271   2.883   4.343   1.262  0.4004 -0.0057 -0.0774
 5665ntf    on528272   2.693   4.438   1.390  0.2229  0.2382 -0.3054
 5665ntf    fn428273   2.528   4.211   1.311 -0.7085  0.1736 -0.0216
 5665ntf    fn428274   2.598   4.324   1.146 -0.2644  0.0591  0.6343
 5665ntf    fn428275   2.673   4.135   1.174 -0.3226  0.1743 -0.3820
 5666ntf    cn128276   0.104   3.928   6.590  0.1898  0.0237 -0.0656
 5666ntf    sn228277   0.163   4.061   6.481 -0.3120 -0.0000 -0.3677
 5666ntf    nn328278   0.311   4.013   6.462 -0.1632  0.3931 -0.1994
 5666ntf    sn228279   0.439   4.070   6.533 -0.1866  0.0281  0.1449
 5666ntf    cn128280   0.561   3.935   6.523 -0.1304  0.0659  0.3135
 5666ntf    fn428281   0.114   3.950   6.720  0.1885  0.5075 -0.1455
 5666ntf    fn428282  -0.024   3.899   6.570 -0.0294  0.8788  0.0572
 5666ntf    fn428283   0.180   3.822   6.569  0.0678 -0.0180 -0.2983
 5666ntf    on528284   0.087   4.056   6.358 -0.1157  0.0060 -0.4911
 5666ntf    on528285   0.138   4.174   6.567 -0.0927 -0.3197  0.1201
 5666ntf    on528286   0.429   4.079   6.676  0.7162 -0.0305  0.2218
 5666ntf    on528287   0.501   4.180   6.463 -0.1508 -0.0837  0.0009
 5666ntf    fn428288   0.533   3.830   6.598  0.0017 -0.0998  0.1302
 5666ntf    fn428289   0.575   3.895   6.398 -0.0119 -0.3909  0.4725
 5666ntf    fn428290   0.675   3.979   6.572 -0.0672  0.4279 -0.1422
 5667ntf    cn128291   3.357   1.570   3.628  0.3448 -0.1055  0.2335
 5667ntf    sn228292   3.312   1.521   3.798 -0.1941 -0.0969  0.0958
 5667ntf    nn328293   3.239   1.386   3.767 -0.1196 -0.0689 -0.2104
 5667ntf    sn228294   3.290   1.241   3.798  0.0662  0.0522  0.0549
 5667ntf    cn128295   3.277   1.181   3.627 -0.6020  0.4112 -0.0193
 5667ntf    fn428296   3.437   1.675   3.622 -0.3540  0.4202  0.0115
 5667ntf    fn428297   3.425   1.475   3.566  0.1780 -0.3826  0.4685
 5667ntf    fn428298   3.261   1.602   3.543  0.1794  0.0615  0.4823
 5667ntf    on528299   3.439   1.516   3.866  0.1961  0.8087 -0.5434
 5667ntf    on528300   3.231   1.634   3.835  0.0284 -0.0268  0.3746
 5667ntf    on528301   3.191   1.168   3.873  0.5604 -0.0424  0.6192
 5667ntf    on528302   3.431   1.232   3.830  0.1464  0.0003 -0.3094
 5667ntf    fn428303   3.300   1.051   3.615 -0.2091  0.4333  0.4941
 5667ntf    fn428304   3.154   1.194   3.578 -0.4533 -0.2968 -0.6073
 5667ntf    fn428305   3.355   1.246   3.543 -0.1541  0.0755  0.1354
 5668ntf    cn128306   0.839   4.236   1.314 -0.1936 -0.0233  0.3660
 5668ntf    sn228307   0.748   4.221   1.157  0.0473  0.2219  0.2000
 5668ntf    nn328308   0.867   4.249   1.059  0.2537  0.1107  0.4184
 5668ntf    sn228309   0.916   4.393   1.018  0.2135  0.0148  0.0381
 5668ntf    cn128310   0.815   4.419   0.868 -0.0955  0.0292  0.2475
 5668ntf    fn428311   0.761   4.183   1.406  0.0148 -0.4391  0.3075
 5668ntf    fn428312   0.951   4.165   1.308  0.2314  0.6573  0.0343
 5668ntf    fn428313   0.878   4.359   1.344  0.2740 -0.0734 -0.0044
 5668ntf    on528314   0.703   4.084   1.157  0.8378 -0.0405  0.8738
 5668ntf    on528315   0.645   4.323   1.165  0.6495  0.8267  0.3133
 5668ntf    on528316   1.050   4.394   0.966 -0.0442  0.4049 -0.6403
 5668ntf    on528317   0.876   4.500   1.105 -0.1299 -0.1838  0.1299
 5668ntf    fn428318   0.851   4.342   0.767 -0.0372  0.3239  0.0432
 5668ntf    fn428319   0.685   4.404   0.887 -0.0802 -0.0861  0.2658
 5668ntf    fn428320   0.833   4.545   0.834  0.3853  0.0093  0.4151
 5669ntf    cn128321   1.337   2.440   6.101 -0.2179  0.0072  0.0184
 5669ntf    sn228322   1.516   2.416   6.091 -0.2264 -0.0725  0.0551
 5669ntf    nn328323   1.574   2.562   6.095  0.4273 -0.3180 -0.1706
 5669ntf    sn228324   1.685   2.635   6.178 -0.0602 -0.2493  0.4275
 5669ntf    cn128325   1.589   2.749   6.283 -0.5423 -0.3970  0.1518
 5669ntf    fn428326   1.289   2.556   6.058 -0.3398 -0.0439  0.0143
 5669ntf    fn428327   1.271   2.345   6.037  0.2258 -0.4359  0.2159
 5669ntf    fn428328   1.296   2.445   6.227 -0.6890 -0.1110 -0.1270
 5669ntf    on528329   1.549   2.334   6.205  0.0649 -0.1499 -0.0835
 5669ntf    on528330   1.519   2.345   5.965 -0.7970 -0.3878  0.2212
 5669ntf    on528331   1.761   2.727   6.098 -0.2793 -0.3116  0.1474
 5669ntf    on528332   1.762   2.555   6.269 -0.1716 -0.6641  0.1591
 5669ntf    fn428333   1.478   2.689   6.321 -0.8455  0.0080 -0.0938
 5669ntf    fn428334   1.646   2.794   6.394 -0.2933  0.0767 -0.1631
 5669ntf    fn428335   1.554   2.853   6.209 -0.1288 -0.0728  0.4050
 5670ntf    cn128336   2.030   6.797   6.587 -0.0993 -0.2862  0.2878
 5670ntf    sn228337   1.976   6.632   6.641  0.2085 -0.5329 -0.1406
 5670ntf    nn328338   1.893   6.673   6.769  0.3650  0.0230 -0.2163
 5670ntf    sn228339   1.949   6.732   6.903  0.0745 -0.3779  0.0817
 5670ntf    cn128340   1.927   6.909   6.869 -0.1351 -0.2325  0.9326
 5670ntf    fn428341   2.047   6.808   6.456 -0.1356  0.3998  0.3376
 5670ntf    fn428342   1.936   6.886   6.611 -0.2593 -0.4052  0.1062
 5670ntf    fn428343   2.143   6.840   6.641 -0.0006  0.0893 -0.2099
 5670ntf    on528344   1.894   6.584   6.532 -0.3016 -0.4703  0.2092
 5670ntf    on528345   2.095   6.555   6.667  0.4446 -0.1850 -0.1885
 5670ntf    on528346   2.093   6.731   6.915  0.0242  0.1664  0.8063
 5670ntf    on528347   1.867   6.711   7.020 -0.1934  0.3701  0.0273
 5670ntf    fn428348   2.027   6.956   6.796 -0.5331  0.0626  0.5765
 5670ntf    fn428349   1.810   6.936   6.813  0.4455 -0.0307 -0.2168
 5670ntf    fn428350   1.940   6.990   6.972 -0.7525  0.5328  0.4200
 5671ntf    cn128351   0.688   0.757   2.159 -0.4112  0.0773 -0.2458
 5671ntf    sn228352   0.612   0.633   2.050 -0.3434 -0.3280  0.1635
 5671ntf    nn328353   0.521   0.553   2.149 -0.3285  0.1154  0.5386
 5671ntf    sn228354   0.535   0.405   2.201 -0.0967 -0.0615 -0.0209
 5671ntf    cn128355   0.496   0.438   2.376  0.0682 -0.3192  0.0655
 5671ntf    fn428356   0.597   0.811   2.239 -0.0560  0.7180 -0.2698
 5671ntf    fn428357   0.782   0.705   2.235 -0.4369 -0.1382 -0.3609
 5671ntf    fn428358   0.746   0.854   2.090  0.5965 -0.5675 -0.3139
 5671ntf    on528359   0.527   0.700   1.954  0.5603 -0.0631 -0.4623
 5671ntf    on528360   0.723   0.561   1.993 -0.5583 -0.2409 -0.3758
 5671ntf    on528361   0.671   0.359   2.214 -0.0006  0.0257 -0.6601
 5671ntf    on528362   0.432   0.316   2.155 -0.4688  0.3007  0.1093
 5671ntf    fn428363   0.468   0.324   2.436  0.4478 -0.5724 -0.2259
 5671ntf    fn428364   0.595   0.497   2.442 -0.2961 -0.4208  0.7079
 5671ntf    fn428365   0.395   0.520   2.399  0.5241  0.2456  0.0978
 5672ntf    cn128366   4.104   5.814   2.892  0.2977  0.2055  0.2904
 5672ntf    sn228367   4.037   5.689   3.005  0.0655  0.1196  0.0595
 5672ntf    nn328368   3.970   5.583   2.910  0.0299 -0.1018  0.3297
 5672ntf    sn228369   3.818   5.566   2.874  0.1719  0.1643 -0.4257
 5672ntf    cn128370   3.794   5.396   2.935 -0.0257  0.2948 -0.1393
 5672ntf    fn428371   4.007   5.888   2.840  0.6147  0.7068  0.4041
 5672ntf    fn428372   4.185   5.903   2.948  0.3863  0.2500  0.0937
 5672ntf    fn428373   4.167   5.756   2.791 -0.7032 -0.7436  0.1945
 5672ntf    on528374   4.155   5.630   3.063  0.4870  0.5032 -0.3964
 5672ntf    on528375   3.944   5.756   3.092  0.0389 -0.4385  0.4660
 5672ntf    on528376   3.792   5.560   2.733 -0.4797 -0.1518 -0.2941
 5672ntf    on528377   3.719   5.644   2.943  0.1298 -0.1764 -0.0944
 5672ntf    fn428378   3.820   5.379   3.064 -0.4364 -0.2925 -0.1305
 5672ntf    fn428379   3.675   5.346   2.910  0.0505 -0.0453  0.1628
 5672ntf    fn428380   3.887   5.318   2.883  0.2406  0.5796 -0.0976
 5673ntf    cn128381   4.712   1.941   2.542 -0.2593 -0.1942  0.0723
 5673ntf    sn228382   4.660   1.876   2.704 -0.4550 -0.1192  0.0385
 5673ntf    nn328383   4.520   1.945   2.721 -0.3001  0.2736 -0.2639
 5673ntf    sn228384   4.482   2.078   2.795 -0.1415  0.0939  0.1425
 5673ntf    cn128385   4.371   2.132   2.662  0.0577  0.2445  0.0363
 5673ntf    fn428386   4.818   1.877   2.495  0.1918  0.1722  0.5663
 5673ntf    fn428387   4.617   1.934   2.452 -0.1261  0.2653 -0.1045
 5673ntf    fn428388   4.747   2.068   2.544 -0.1086 -0.2355  0.1661
 5673ntf    on528389   4.644   1.734   2.686 -0.6243 -0.1076  0.0952
 5673ntf    on528390   4.766   1.925   2.790 -0.1938 -0.0022 -0.3484
 5673ntf    on528391   4.576   2.186   2.814  0.0837 -0.1960  0.7029
 5673ntf    on528392   4.380   2.067   2.896 -0.4378  0.4572 -0.1119
 5673ntf    fn428393   4.444   2.163   2.556 -0.0148 -0.1220 -0.1244
 5673ntf    fn428394   4.304   2.028   2.613 -0.2113  0.6930 -0.5618
 5673ntf    fn428395   4.289   2.233   2.686 -0.0995  0.1141  0.0486
 5674ntf    cn128396   1.352   6.374   1.480  0.5560  0.1511  0.2055
 5674ntf    sn228397   1.295   6.273   1.339  0.0308  0.2444  0.3488
 5674ntf    nn328398   1.138   6.279   1.339  0.0254  0.0846  0.1901
 5674ntf    sn228399   1.031   6.331   1.237 -0.0306  0.0677  0.2394
 5674ntf    cn128400   1.002   6.491   1.320 -0.3437  0.0977  0.0706
 5674ntf    fn428401   1.318   6.317   1.595  0.1186 -0.2881 -0.1326
 5674ntf    fn428402   1.482   6.394   1.491  0.6361 -0.3522  0.1944
 5674ntf    fn428403   1.297   6.494   1.490  0.1335 -0.0006 -0.2420
 5674ntf    on528404   1.360   6.331   1.224 -0.4905 -0.4441 -0.3019
 5674ntf    on528405   1.346   6.144   1.379 -0.1409  0.1019  0.1091
 5674ntf    on528406   0.910   6.254   1.249 -0.1276  0.1080 -0.4212
 5674ntf    on528407   1.074   6.367   1.104  0.2728 -0.2232  0.2587
 5674ntf    fn428408   1.028   6.477   1.449  0.2254  0.4293 -0.0057
 5674ntf    fn428409   1.085   6.586   1.283 -0.5344  0.2355 -0.0083
 5674ntf    fn428410   0.880   6.543   1.323 -0.4190 -0.0451 -0.3128
 5675ntf    cn128411   3.872   3.358   1.603  0.2289 -0.1182 -0.4659
 5675ntf    sn228412   3.971   3.229   1.683  0.2149  0.0222 -0.2186
 5675ntf    nn328413   3.880   3.158   1.789  0.4053  0.0274 -0.0513
 5675ntf    sn228414   3.874   3.187   1.943  0.1086  0.2825 -0.1098
 5675ntf    cn128415   3.702   3.245   1.938  0.0660  0.2025  0.3578
 5675ntf    fn428416   3.750   3.328   1.562  0.2346 -0.1200 -0.4808
 5675ntf    fn428417   3.847   3.445   1.699  0.5101 -0.4974 -0.0450
 5675ntf    fn428418   3.937   3.413   1.502 -0.1222  0.3702 -0.4322
 5675ntf    on528419   4.008   3.141   1.574 -0.3415 -0.4910 -0.0005
 5675ntf    on528420   4.084   3.306   1.727  0.3819 -0.0337 -0.5446
 5675ntf    on528421   3.947   3.298   2.000  0.0130  0.1525  0.2725
 5675ntf    on528422   3.882   3.067   2.024  0.1189  0.2942 -0.0936
 5675ntf    fn428423   3.684   3.334   1.842 -0.5477  0.1571  0.4250
 5675ntf    fn428424   3.617   3.145   1.923 -0.1993  0.4777  0.0104
 5675ntf    fn428425   3.665   3.306   2.049 -0.0714 -0.2936  0.5856
 5676ntf    cn128426   4.739   3.488   5.780  0.2495 -0.3266 -0.2327
 5676ntf    sn228427   4.876   3.381   5.727  0.3049 -0.5156  0.2896
 5676ntf    nn328428   4.974   3.494   5.679 -0.5070 -0.0339 -0.2421
 5676ntf    sn228429   5.021   3.518   5.531  0.2682 -0.4240 -0.0598
 5676ntf    cn128430   5.041   3.699   5.531  0.0149 -0.3966 -0.1375
 5676ntf    fn428431   4.630   3.420   5.811  0.2928 -0.5130 -0.4785
 5676ntf    fn428432   4.764   3.571   5.880 -0.1196 -0.1744 -0.2667
 5676ntf    fn428433   4.694   3.559   5.678  0.0183 -0.2324 -0.0656
 5676ntf    on528434   4.927   3.323   5.849  0.6120  0.1333  0.4755
 5676ntf    on528435   4.817   3.296   5.627 -0.4483 -0.2947  0.5447
 5676ntf    on528436   4.932   3.504   5.419  0.1868 -0.1563 -0.0287
 5676ntf    on528437   5.155   3.470   5.507  0.4548  0.2528 -0.4017
 5676ntf    fn428438   5.131   3.740   5.618 -0.6428 -0.5831  0.6496
 5676ntf    fn428439   5.067   3.766   5.420  0.2253 -1.0549 -0.4883
 5676ntf    fn428440   4.925   3.752   5.567  0.1175 -0.2079 -0.0818
 5677ntf    cn128441   0.619   1.615   2.285 -0.1738 -0.2230 -0.2494
 5677ntf    sn228442   0.750   1.560   2.398 -0.3803 -0.4270 -0.1085
 5677ntf    nn328443   0.843   1.478   2.302 -0.3589 -0.2141 -0.2708
 5677ntf    sn228444   0.902   1.333   2.315  0.0465  0.0096  0.4467
 5677ntf    cn128445   0.786   1.249   2.203  0.3085 -0.1880  0.3219
 5677ntf    fn428446   0.596   1.523   2.192  0.1709 -0.0085 -0.5477
 5677ntf    fn428447   0.501   1.616   2.346 -0.1809 -0.3621 -0.2594
 5677ntf    fn428448   0.634   1.730   2.221  0.5137 -0.2872 -0.2048
 5677ntf    on528449   0.808   1.686   2.438 -0.9157 -0.3197  0.3519
 5677ntf    on528450   0.681   1.488   2.502  0.0675 -0.0329  0.4660
 5677ntf    on528451   0.897   1.259   2.439 -0.2404 -0.6142  0.0694
 5677ntf    on528452   1.024   1.315   2.240 -0.4340 -0.2599 -0.2803
 5677ntf    fn428453   0.812   1.121   2.185 -0.3442 -0.2800 -0.0007
 5677ntf    fn428454   0.663   1.256   2.251  0.2964  0.0927  0.2525
 5677ntf    fn428455   0.779   1.313   2.088  0.1631 -0.0107  0.4285
 5678ntf    cn128456   6.563   2.034   2.765 -0.2060 -0.7042 -0.2374
 5678ntf    sn228457   6.461   2.022   2.915  0.0337 -0.1709 -0.0271
 5678ntf    nn328458   6.440   1.866   2.924 -0.5158 -0.1001 -0.0152
 5678ntf    sn228459   6.318   1.787   2.982 -0.2657 -0.4379  0.0543
 5678ntf    cn128460   6.386   1.619   2.997  0.1473 -0.2735  0.0457
 5678ntf    fn428461   6.499   1.988   2.659 -0.4794 -0.3239 -0.2417
 5678ntf    fn428462   6.581   2.163   2.740 -0.6647 -0.4436  0.7413
 5678ntf    fn428463   6.679   1.970   2.773 -0.1490 -0.5582  0.1593
 5678ntf    on528464   6.557   2.069   3.011  0.2334  0.0307 -0.3234
 5678ntf    on528465   6.347   2.103   2.879  0.5370  0.1931 -0.8124
 5678ntf    on528466   6.212   1.772   2.885 -0.4892 -0.3951  0.2900
 5678ntf    on528467   6.276   1.827   3.114 -0.0254  0.0722 -0.0202
 5678ntf    fn428468   6.496   1.608   3.069  0.3127 -0.0737 -0.1753
 5678ntf    fn428469   6.305   1.531   3.055  0.0616  0.0426  0.4095
 5678ntf    fn428470   6.417   1.573   2.877  0.2732  0.3845 -0.1772
 5679ntf    cn128471   4.903   4.204   4.367 -0.1686  0.2114  0.2694
 5679ntf    sn228472   4.957   4.291   4.518  0.1062  0.0549  0.2630
 5679ntf    nn328473   4.997   4.167   4.605  0.1029  0.1550  0.4064
 5679ntf    sn228474   5.139   4.115   4.647  0.2272 -0.1266 -0.3505
 5679ntf    cn128475   5.130   4.125   4.828  0.2783 -0.2493 -0.3407
 5679ntf    fn428476   5.004   4.134   4.317 -0.6522  0.0198 -0.4530
 5679ntf    fn428477   4.799   4.125   4.392 -0.0846  0.1410  0.3976
 5679ntf    fn428478   4.873   4.293   4.274 -0.1839  0.5361  0.5844
 5679ntf    on528479   5.064   4.374   4.469  0.2467  0.0703  0.5974
 5679ntf    on528480   4.829   4.347   4.555  0.3917  0.6630  0.3226
 5679ntf    on528481   5.256   4.195   4.619 -0.0716  0.3036 -0.3855
 5679ntf    on528482   5.156   3.974   4.626 -0.0591 -0.1831 -0.2113
 5679ntf    fn428483   5.094   4.247   4.867 -0.9011 -0.5814 -0.3459
 5679ntf    fn428484   5.043   4.042   4.884  0.2654 -0.2808 -0.4067
 5679ntf    fn428485   5.248   4.108   4.884  0.1820 -0.1175 -0.0955
 5680ntf    cn128486   1.670   5.394   1.538  0.1415  0.0586 -0.1819
 5680ntf    sn228487   1.569   5.254   1.480  0.3860 -0.2456  0.1217
 5680ntf    nn328488   1.519   5.312   1.343  0.4817 -0.4206  0.0127
 5680ntf    sn228489   1.560   5.262   1.200  0.2478 -0.1085 -0.1636
 5680ntf    cn128490   1.680   5.388   1.148  0.1120  0.0878 -0.0025
 5680ntf    fn428491   1.700   5.390   1.667 -0.0058  0.4590 -0.1336
 5680ntf    fn428492   1.787   5.394   1.475  0.0840  0.1732 -0.2873
 5680ntf    fn428493   1.605   5.508   1.528 -0.4917 -0.2691  0.0788
 5680ntf    on528494   1.667   5.148   1.492  0.4429 -0.2334 -0.2358
 5680ntf    on528495   1.458   5.270   1.571  0.2709  0.4018 -0.1295
 5680ntf    on528496   1.443   5.273   1.116 -0.4467  0.1927  0.8287
 5680ntf    on528497   1.632   5.137   1.189  0.1704 -0.2301  0.6196
 5680ntf    fn428498   1.790   5.378   1.221  0.5292  0.0201 -0.6366
 5680ntf    fn428499   1.709   5.397   1.019 -0.1504 -0.5478 -0.1086
 5680ntf    fn428500   1.634   5.510   1.173  0.3894  0.1427  0.2442
 5681ntf    cn128501   1.267   2.524   6.520 -0.0567 -0.3751 -0.1158
 5681ntf    sn228502   1.142   2.656   6.518  0.2324 -0.0980 -0.0930
 5681ntf    nn328503   1.027   2.586   6.599  0.3915 -0.2866 -0.0282
 5681ntf    sn228504   1.005   2.566   6.753  0.2672  0.0380 -0.0019
 5681ntf    cn128505   1.039   2.387   6.761 -0.1168 -0.0427 -0.1694
 5681ntf    fn428506   1.309   2.504   6.644  0.4831  0.2400 -0.1909
 5681ntf    fn428507   1.221   2.407   6.481  0.2619 -0.7064  0.4895
 5681ntf    fn428508   1.374   2.563   6.453 -0.1239  0.1242  0.0616
 5681ntf    on528509   1.210   2.769   6.577  0.0188 -0.0543  0.0704
 5681ntf    on528510   1.115   2.658   6.377  0.6287 -0.9294 -0.1869
 5681ntf    on528511   0.868   2.574   6.796  0.3581  0.7682  0.1658
 5681ntf    on528512   1.107   2.621   6.839  0.3262 -0.0384 -0.0221
 5681ntf    fn428513   1.055   2.339   6.883 -0.1694 -0.3133 -0.2675
 5681ntf    fn428514   0.936   2.317   6.717 -0.0057 -0.0796 -0.3721
 5681ntf    fn428515   1.141   2.342   6.690 -0.4428 -0.1514 -0.5780
 5682ntf    cn128516   7.238   3.441   2.489  0.4534 -0.1972  0.3073
 5682ntf    sn228517   7.118   3.548   2.572 -0.0097 -0.2867 -0.2410
 5682ntf    nn328518   7.007   3.522   2.464 -0.1240  0.5320 -0.3306
 5682ntf    sn228519   6.851   3.516   2.481 -0.0604  0.0592  0.1002
 5682ntf    cn128520   6.810   3.640   2.355  0.1485 -0.4836 -0.5096
 5682ntf    fn428521   7.305   3.503   2.394 -0.4188  0.2725 -0.0142
 5682ntf    fn428522   7.323   3.390   2.577  0.1521  0.0738  0.7616
 5682ntf    fn428523   7.166   3.341   2.440  0.1583 -0.1787  0.7029
 5682ntf    on528524   7.099   3.485   2.700  0.1176  0.2157  0.0306
 5682ntf    on528525   7.180   3.678   2.578  0.2367 -0.3971 -0.3907
 5682ntf    on528526   6.802   3.574   2.604 -0.0062 -0.3260  0.3064
 5682ntf    on528527   6.793   3.391   2.441  0.2144 -0.0040 -0.1021
 5682ntf    fn428528   6.682   3.672   2.344  0.2426  0.0536 -0.1053
 5682ntf    fn428529   6.873   3.755   2.376 -0.3308 -0.3567  0.3062
 5682ntf    fn428530   6.847   3.605   2.233  0.5310 -0.5503 -0.3763
 5683ntf    cn128531   0.619   5.867   3.380  0.4488  0.2941  0.0354
 5683ntf    sn228532   0.579   5.900   3.206 -0.3287 -0.3781  0.0804
 5683ntf    nn328533   0.533   6.049   3.228  0.0215 -0.1837 -0.4764
 5683ntf    sn228534   0.553   6.166   3.126 -0.0467  0.0093 -0.2686
 5683ntf    cn128535   0.696   6.248   3.203 -0.2215 -0.2032  0.2904
 5683ntf    fn428536   0.680   5.753   3.409 -0.5515 -0.1790  0.3458
 5683ntf    fn428537   0.695   5.961   3.434  0.2389  0.1408  0.6113
 5683ntf    fn428538   0.507   5.864   3.451  0.2760  0.5029 -0.2291
 5683ntf    on528539   0.706   5.880   3.142 -0.3485 -0.2781  0.0099
 5683ntf    on528540   0.470   5.813   3.170 -0.4053 -0.2181 -0.0756
 5683ntf    on528541   0.449   6.265   3.137 -0.1777 -0.2524  0.9577
 5683ntf    on528542   0.598   6.140   2.992  0.0017 -0.3112 -0.1902
 5683ntf    fn428543   0.690   6.255   3.335 -0.4403  0.1632  0.2624
 5683ntf    fn428544   0.802   6.176   3.172 -0.1346 -0.0937  0.3322
 5683ntf    fn428545   0.716   6.372   3.162 -0.5146 -0.1207  0.3926
 5684ntf    cn128546   3.316   0.375   4.077 -0.3343  0.2235  0.0780
 5684ntf    sn228547   3.394   0.540   4.080  0.2575 -0.0578  0.1679
 5684ntf    nn328548   3.362   0.589   3.935  0.4387 -0.0610  0.1263
 5684ntf    sn228549   3.235   0.665   3.883  0.3273 -0.0063  0.4750
 5684ntf    cn128550   3.312   0.829   3.859 -0.4258  0.2793 -0.0269
 5684ntf    fn428551   3.186   0.368   4.055 -0.4029 -0.3623  0.6468
 5684ntf    fn428552   3.374   0.307   3.980 -0.2954 -0.2519  0.4318
 5684ntf    fn428553   3.337   0.318   4.195  0.3604  0.0320 -0.1323
 5684ntf    on528554   3.338   0.599   4.199  0.1038  0.0235  0.0536
 5684ntf    on528555   3.534   0.504   4.091  0.2561  0.0331  0.5078
 5684ntf    on528556   3.132   0.688   3.980 -0.1664 -0.1224 -0.0167
 5684ntf    on528557   3.201   0.612   3.753  0.0446 -0.7687  0.8593
 5684ntf    fn428558   3.331   0.898   3.970  0.4984 -0.0493  0.0275
 5684ntf    fn428559   3.429   0.826   3.796 -0.3183 -0.4468  0.1896
 5684ntf    fn428560   3.235   0.913   3.792 -0.5176 -0.1405 -0.4621
 5685ntf    cn128561   7.095   6.243   6.476  0.0770 -0.0859 -0.2934
 5685ntf    sn228562   7.108   6.374   6.602  0.1184 -0.1593 -0.2210
 5685ntf    nn328563   7.137   6.295   6.734  0.2766  0.0616 -0.1233
 5685ntf    sn228564   7.042   6.218   6.832  0.1967  0.1243 -0.1521
 5685ntf    cn128565   7.013   6.367   6.932  0.0683  0.1541 -0.2321
 5685ntf    fn428566   7.018   6.145   6.519 -0.0187  0.0887 -0.0688
 5685ntf    fn428567   7.047   6.280   6.358  0.2379  0.0466 -0.3184
 5685ntf    fn428568   7.215   6.200   6.440 -0.0714 -0.1321 -0.7313
 5685ntf    on528569   7.221   6.451   6.556  0.2021 -0.5072 -0.6122
 5685ntf    on528570   6.977   6.435   6.595  0.5022  0.6503 -0.4954
 5685ntf    on528571   7.118   6.128   6.915 -0.2084 -0.5192 -0.4671
 5685ntf    on528572   6.916   6.168   6.781  0.0146  0.3168  0.1052
 5685ntf    fn428573   6.924   6.452   6.884 -0.0878  0.0859 -0.0647
 5685ntf    fn428574   6.965   6.342   7.053 -0.2961 -0.1614 -0.4414
 5685ntf    fn428575   7.126   6.433   6.951 -0.1739  0.5480 -0.1439
 5686ntf    cn128576   3.784   3.944   6.485 -0.9155 -0.1086  0.2374
 5686ntf    sn228577   3.694   3.795   6.538 -0.1762 -0.5006  0.4036
 5686ntf    nn328578   3.572   3.798   6.439  0.3397  0.0880 -0.2321
 5686ntf    sn228579   3.429   3.743   6.474  0.2410  0.4748 -0.0262
 5686ntf    cn128580   3.373   3.910   6.520  0.0975  0.3150  0.3833
 5686ntf    fn428581   3.787   3.943   6.353 -0.4998 -0.4514  0.2468
 5686ntf    fn428582   3.722   4.056   6.517 -0.2519  0.2711  0.2179
 5686ntf    fn428583   3.910   3.956   6.526 -1.0093 -0.5898  0.6816
 5686ntf    on528584   3.786   3.687   6.508  0.4463  0.3311 -0.8040
 5686ntf    on528585   3.670   3.828   6.676 -0.3135  0.3003  0.1921
 5686ntf    on528586   3.425   3.657   6.590 -0.2144 -0.0174 -0.4011
 5686ntf    on528587   3.365   3.697   6.354 -0.6233 -0.4008  0.7492
 5686ntf    fn428588   3.475   3.982   6.565  0.3214 -0.1154  0.5696
 5686ntf    fn428589   3.323   3.978   6.419  0.1424  0.2008  0.2842
 5686ntf    fn428590   3.277   3.899   6.611 -0.1819 -0.2108  0.0301
 5687ntf    cn128591   6.734   2.567   4.674 -0.1184  0.0734  0.2681
 5687ntf    sn228592   6.619   2.684   4.596 -0.3524 -0.3560 -0.0351
 5687ntf    nn328593   6.648   2.637   4.449  0.6244 -1.0875  0.3805
 5687ntf    sn228594   6.577   2.516   4.380  0.0718 -0.3963 -0.2787
 5687ntf    cn128595   6.434   2.597   4.302  0.2654  0.1571 -0.0555
 5687ntf    fn428596   6.693   2.537   4.796 -0.1194 -0.0899  0.2279
 5687ntf    fn428597   6.763   2.451   4.616 -0.3844 -0.0029  0.2903
 5687ntf    fn428598   6.854   2.614   4.705  0.1070 -0.2699 -0.0751
 5687ntf    on528599   6.488   2.655   4.649 -0.1333 -0.0123  0.7169
 5687ntf    on528600   6.676   2.814   4.626 -0.9180 -0.1300  0.0726
 5687ntf    on528601   6.528   2.411   4.466 -0.1095  0.0697  0.1915
 5687ntf    on528602   6.654   2.469   4.267 -0.2316 -0.1276 -0.5990
 5687ntf    fn428603   6.339   2.626   4.389 -0.2638 -0.4872 -0.4113
 5687ntf    fn428604   6.473   2.707   4.239  0.1238  0.0620 -0.3093
 5687ntf    fn428605   6.373   2.519   4.215  0.0178 -0.4068  0.6205
 5688ntf    cn128606   6.304   6.442   1.892  0.1688  0.0725  0.4070
 5688ntf    sn228607   6.125   6.469   1.908  0.1682  0.2080  0.1636
 5688ntf    nn328608   6.078   6.431   1.763 -0.1775  0.3264  0.2435
 5688ntf    sn228609   6.034   6.524   1.644 -0.1906  0.1478  0.1080
 5688ntf    cn128610   5.859   6.547   1.685 -0.1857 -0.1406  0.2999
 5688ntf    fn428611   6.325   6.317   1.853  0.0808  0.0740  0.3544
 5688ntf    fn428612   6.372   6.528   1.818  0.0505 -0.3529 -0.2021
 5688ntf    fn428613   6.359   6.449   2.013  0.0388 -0.1394  0.4804
 5688ntf    on528614   6.084   6.374   2.008 -0.4241  0.3223  0.0297
 5688ntf    on528615   6.115   6.608   1.943  0.2771  0.2399  0.0697
 5688ntf    on528616   6.031   6.449   1.521  0.4204 -0.2896  0.3524
 5688ntf    on528617   6.086   6.659   1.644  0.1759  0.0082 -0.3936
 5688ntf    fn428618   5.793   6.434   1.665 -0.0511 -0.1347 -0.1818
 5688ntf    fn428619   5.848   6.591   1.809 -0.8820 -0.1205  0.2354
 5688ntf    fn428620   5.807   6.642   1.609  0.0199 -0.2674  0.0007
 5689ntf    cn128621   7.304   1.334   2.603 -0.1683 -0.1747 -0.3987
 5689ntf    sn228622   7.189   1.236   2.705 -0.0094  0.1417  0.0838
 5689ntf    nn328623   7.221   1.086   2.672  0.3872  0.4110 -0.7662
 5689ntf    sn228624   7.349   1.007   2.717 -0.0416  0.0482 -0.1757
 5689ntf    cn128625   7.283   0.900   2.848  0.0386  0.1354 -0.0633
 5689ntf    fn428626   7.424   1.280   2.597 -0.0333  0.0424  0.3188
 5689ntf    fn428627   7.247   1.341   2.484 -0.3655 -0.1298 -0.3038
 5689ntf    fn428628   7.325   1.458   2.645 -0.0870 -0.1967 -0.3743
 5689ntf    on528629   7.223   1.275   2.840  0.6328  0.5284 -0.1829
 5689ntf    on528630   7.065   1.281   2.649 -0.2249  0.0122  0.4517
 5689ntf    on528631   7.456   1.083   2.776 -0.2370  0.4014 -0.2726
 5689ntf    on528632   7.391   0.920   2.610  0.4286 -0.0785  0.1123
 5689ntf    fn428633   7.212   0.968   2.936  0.5262  0.1620  0.3101
 5689ntf    fn428634   7.201   0.809   2.797  0.0207 -0.1189  0.4089
 5689ntf    fn428635   7.379   0.842   2.918  0.1238  0.4231  0.0558
 5690ntf    cn128636   6.521   0.386   7.462  0.4611 -0.3658  0.1689
 5690ntf    sn228637   6.384   0.454   7.562  0.0412 -0.1944 -0.5180
 5690ntf    nn328638   6.303   0.542   7.460  0.4742  0.1987 -0.5302
 5690ntf    sn228639   6.326   0.691   7.417 -0.2256  0.6131  0.4866
 5690ntf    cn128640   6.181   0.764   7.500 -0.6703  0.0470  0.2182
 5690ntf    fn428641   6.489   0.293   7.374  0.2185 -0.0554 -0.0741
 5690ntf    fn428642   6.572   0.481   7.386 -0.4567 -0.1175 -0.1470
 5690ntf    fn428643   6.620   0.341   7.537  0.6495 -0.1631  0.0420
 5690ntf    on528644   6.302   0.349   7.617  0.4272 -0.0327  0.3873
 5690ntf    on528645   6.460   0.523   7.663 -0.4195 -0.4543  0.0056
 5690ntf    on528646   6.302   0.707   7.276  0.1710 -0.2174  0.3189
 5690ntf    on528647   6.442   0.755   7.473  0.2291 -0.2029  0.5029
 5690ntf    fn428648   6.072   0.719   7.441 -0.2031 -0.6268 -0.1486
 5690ntf    fn428649   6.174   0.728   7.628 -0.2853 -0.4439  0.1071
 5690ntf    fn428650   6.187   0.896   7.495 -0.0538  0.0067 -0.2780
 5691ntf    cn128651   5.617   3.705   0.698  0.2972  0.0071  0.2172
 5691ntf    sn228652   5.635   3.688   0.878 -0.0638 -0.0762  0.2469
 5691ntf    nn328653   5.747   3.797   0.897 -0.0772 -0.0858  0.3768
 5691ntf    sn228654   5.897   3.776   0.937  0.0562 -0.0379 -0.0960
 5691ntf    cn128655   5.874   3.685   1.092  0.1145 -0.2465 -0.2077
 5691ntf    fn428656   5.525   3.626   0.643  0.3427  0.1262 -0.0337
 5691ntf    fn428657   5.579   3.828   0.668 -0.2881 -0.1831  0.1551
 5691ntf    fn428658   5.726   3.682   0.626  0.3772  0.6185  0.1376
 5691ntf    on528659   5.515   3.749   0.929 -0.0070  0.3296 -0.0967
 5691ntf    on528660   5.663   3.548   0.899 -0.3717 -0.2652 -0.5552
 5691ntf    on528661   5.961   3.902   0.966 -0.1112 -0.0190  0.1892
 5691ntf    on528662   5.960   3.686   0.844  0.4632  0.1211  0.0237
 5691ntf    fn428663   5.867   3.553   1.088  0.2006 -0.2619  0.1063
 5691ntf    fn428664   5.977   3.722   1.167 -0.5368  0.2735  0.4457
 5691ntf    fn428665   5.768   3.721   1.163  0.0777 -0.1716 -0.3006
 5692ntf    cn128666   4.166   0.361   6.003 -0.0109  0.1694  0.0021
 5692ntf    sn228667   4.133   0.525   6.075  0.0459  0.1226  0.1327
 5692ntf    nn328668   3.991   0.552   6.014  0.1833 -0.2052 -0.3377
 5692ntf    sn228669   3.949   0.693   5.961  0.2504 -0.0704 -0.0352
 5692ntf    cn128670   3.885   0.777   6.109  0.2035  0.0347 -0.1150
 5692ntf    fn428671   4.075   0.271   6.038  0.0069 -0.0349 -0.4687
 5692ntf    fn428672   4.164   0.363   5.870 -0.5807 -0.0665  0.0012
 5692ntf    fn428673   4.282   0.312   6.040 -0.1604  0.1549  0.4577
 5692ntf    on528674   4.128   0.496   6.217  0.2087 -0.0461  0.1048
 5692ntf    on528675   4.249   0.594   6.026  0.0106 -0.1559 -0.3455
 5692ntf    on528676   3.843   0.687   5.863  0.6323 -0.0505 -0.4521
 5692ntf    on528677   4.063   0.771   5.921  0.3050 -0.2162 -0.1633
 5692ntf    fn428678   3.780   0.733   6.176 -0.0404  0.2524 -0.3525
 5692ntf    fn428679   3.980   0.790   6.201  0.3782 -0.3356 -0.2425
 5692ntf    fn428680   3.855   0.901   6.073  0.1197  0.0121 -0.1223
 5693ntf    cn128681   5.291   4.122   6.229 -0.1566 -0.0989  0.1101
 5693ntf    sn228682   5.225   4.030   6.086  0.0781  0.1594 -0.1656
 5693ntf    nn328683   5.350   3.942   6.049  0.0705  0.0931 -0.0381
 5693ntf    sn228684   5.466   3.961   5.945  0.0014  0.1756 -0.0990
 5693ntf    cn128685   5.492   3.788   5.896 -0.3503 -0.0245  0.4125
 5693ntf    fn428686   5.217   4.219   6.280  0.6848  0.3325  0.5339
 5693ntf    fn428687   5.318   4.049   6.336 -0.2230  0.2639  0.3779
 5693ntf    fn428688   5.400   4.189   6.197  0.3323 -0.8218  0.2415
 5693ntf    on528689   5.111   3.958   6.138  0.0770 -0.0024 -0.3898
 5693ntf    on528690   5.183   4.131   5.993  0.2145  0.0327 -0.3673
 5693ntf    on528691   5.593   3.992   6.004 -0.1194  0.4840  0.0034
 5693ntf    on528692   5.430   4.022   5.819  0.1032 -0.2935 -0.3566
 5693ntf    fn428693   5.508   3.707   5.999 -0.0769 -0.5492 -0.0321
 5693ntf    fn428694   5.392   3.750   5.818 -0.5454  0.2634  0.5213
 5693ntf    fn428695   5.595   3.767   5.815 -0.2932  0.2606  0.4131
 5694ntf    cn128696   2.685   2.228   1.442 -0.0235 -0.0611  0.0479
 5694ntf    sn228697   2.827   2.146   1.363 -0.2068 -0.0411 -0.3084
 5694ntf    nn328698   2.930   2.176   1.478  0.1238 -0.1384 -0.5788
 5694ntf    sn228699   3.036   2.290   1.499 -0.2505  0.0310  0.4510
 5694ntf    cn128700   3.187   2.193   1.469 -0.2289  0.1368  0.2166
 5694ntf    fn428701   2.657   2.170   1.557  0.3440 -0.0543  0.1399
 5694ntf    fn428702   2.706   2.356   1.466  0.0813 -0.0595 -0.0511
 5694ntf    fn428703   2.584   2.225   1.356  0.0105 -0.3279  0.0172
 5694ntf    on528704   2.804   2.004   1.359 -0.5521  0.0042  0.0155
 5694ntf    on528705   2.850   2.213   1.237  0.7253  0.0884 -0.0780
 5694ntf    on528706   3.057   2.325   1.637  0.3423  0.0948  0.3489
 5694ntf    on528707   3.043   2.396   1.401 -0.2597 -0.2139  0.1832
 5694ntf    fn428708   3.293   2.272   1.467 -0.2970  0.2227 -0.4185
 5694ntf    fn428709   3.203   2.097   1.558 -0.7699 -0.1705 -0.0115
 5694ntf    fn428710   3.185   2.144   1.346  0.3035  0.8146 -0.0642
 5695ntf    cn128711   3.131   6.728   1.952  0.2136 -0.1655 -0.3054
 5695ntf    sn228712   3.031   6.655   1.819 -0.2839  0.0262 -0.0380
 5695ntf    nn328713   2.900   6.616   1.896 -0.3177 -0.5358 -0.3755
 5695ntf    sn228714   2.765   6.694   1.916  0.1963  0.3319 -0.2384
 5695ntf    cn128715   2.673   6.658   1.763 -0.2126  0.4457 -0.0196
 5695ntf    fn428716   3.259   6.746   1.922  0.2544 -0.2355 -0.1741
 5695ntf    fn428717   3.073   6.840   1.991 -0.1648 -0.3113 -0.4464
 5695ntf    fn428718   3.134   6.649   2.058  0.3105  0.1621 -0.0627
 5695ntf    on528719   3.025   6.755   1.715  0.2901 -0.2156 -0.3071
 5695ntf    on528720   3.107   6.535   1.793 -0.5035 -0.2693  0.6629
 5695ntf    on528721   2.779   6.838   1.917 -0.3210  0.3902 -0.7391
 5695ntf    on528722   2.681   6.643   2.021 -0.1093  0.0379 -0.6213
 5695ntf    fn428723   2.693   6.531   1.732 -0.1004  0.5023 -0.1739
 5695ntf    fn428724   2.542   6.680   1.770 -0.3620 -0.4685  0.2238
 5695ntf    fn428725   2.721   6.729   1.663 -0.1137  0.0267 -0.2710
 5696ntf    cn128726   3.179   3.832   3.523  0.3341  0.1865  0.2824
 5696ntf    sn228727   3.087   3.718   3.631  0.0801 -0.1821 -0.3144
 5696ntf    nn328728   3.164   3.584   3.607  0.2224 -0.0894 -0.3799
 5696ntf    sn228729   3.256   3.509   3.709 -0.0781  0.3092  0.1856
 5696ntf    cn128730   3.353   3.412   3.590 -0.1691  0.4418  0.0046
 5696ntf    fn428731   3.122   3.951   3.521  0.0950  0.0713 -0.6466
 5696ntf    fn428732   3.303   3.854   3.562  0.4079  0.0108  0.1515
 5696ntf    fn428733   3.189   3.784   3.399 -0.0023 -0.1731  0.3922
 5696ntf    on528734   3.104   3.775   3.763  0.4714 -1.3860  0.1633
 5696ntf    on528735   2.956   3.717   3.571  0.1996  0.2427 -0.5915
 5696ntf    on528736   3.183   3.408   3.782  0.3258 -0.0037  0.1604
 5696ntf    on528737   3.359   3.587   3.774  0.3303  0.1935 -0.3188
 5696ntf    fn428738   3.456   3.354   3.648 -0.2683  0.5862  0.3273
 5696ntf    fn428739   3.275   3.321   3.534  0.7252 -0.1201 -0.3379
 5696ntf    fn428740   3.404   3.492   3.497 -0.4267  0.0473 -0.4818
 5697ntf    cn128741   4.758   5.060   2.910  0.4314 -0.2501 -0.0046
 5697ntf    sn228742   4.746   4.880   2.932  0.1302 -0.2535 -0.1994
 5697ntf    nn328743   4.664   4.865   3.065 -0.2262 -0.0619 -0.3969
 5697ntf    sn228744   4.699   4.762   3.178  0.2679  0.0204 -0.4728
 5697ntf    cn128745   4.530   4.724   3.234  0.4195 -0.0430 -0.0550
 5697ntf    fn428746   4.818   5.127   3.008  0.2242  0.1597 -0.1556
 5697ntf    fn428747   4.805   5.088   2.790 -0.2995 -0.2130 -0.2865
 5697ntf    fn428748   4.637   5.113   2.912  0.4069 -0.3121  0.2689
 5697ntf    on528749   4.666   4.847   2.816  0.1462  0.4523 -0.4179
 5697ntf    on528750   4.884   4.841   2.944  0.1329 -0.1490  0.1186
 5697ntf    on528751   4.753   4.820   3.298 -0.5438  0.5080 -0.3374
 5697ntf    on528752   4.743   4.633   3.131 -0.1033 -0.1208 -0.4336
 5697ntf    fn428753   4.458   4.828   3.273 -0.1316 -0.5294  0.2409
 5697ntf    fn428754   4.453   4.677   3.137 -0.5842 -0.2004  0.7999
 5697ntf    fn428755   4.509   4.641   3.334 -0.4728  0.1033 -0.1138
 5698ntf    cn128756   2.764   3.955   3.656 -0.0958  0.1048 -0.0405
 5698ntf    sn228757   2.686   4.065   3.777  0.3270 -0.0492  0.3758
 5698ntf    nn328758   2.678   4.197   3.693 -0.0901 -0.3606 -0.0800
 5698ntf    sn228759   2.719   4.344   3.731  0.1790 -0.4932  0.1404
 5698ntf    cn128760   2.755   4.418   3.569 -0.1668  0.0060  0.2898
 5698ntf    fn428761   2.726   3.975   3.531 -0.2378 -0.3559 -0.0741
 5698ntf    fn428762   2.896   3.963   3.661 -0.1802  0.8549  1.2345
 5698ntf    fn428763   2.735   3.828   3.682  1.2198 -0.3287 -0.5682
 5698ntf    on528764   2.556   4.003   3.784  0.4124 -0.2758 -0.0169
 5698ntf    on528765   2.772   4.064   3.893  0.3808 -0.0220  0.3361
 5698ntf    on528766   2.848   4.352   3.795  0.6335  0.1350 -0.8226
 5698ntf    on528767   2.610   4.427   3.775  0.3899 -0.2386  0.1860
 5698ntf    fn428768   2.843   4.351   3.496 -0.0787  0.4965 -0.0617
 5698ntf    fn428769   2.646   4.423   3.493 -0.1078 -0.2732  0.1851
 5698ntf    fn428770   2.796   4.543   3.575  1.1149 -0.3976  0.1280
 5699ntf    cn128771   0.646   6.630   3.222  0.1112 -0.0340  0.2889
 5699ntf    sn228772   0.607   6.669   3.049  0.1363 -0.1764  0.2510
 5699ntf    nn328773   0.708   6.783   3.013  0.0329 -0.1664 -0.0072
 5699ntf    sn228774   0.693   6.929   2.957  0.2414 -0.0424  0.2601
 5699ntf    cn128775   0.830   7.011   3.044  0.1882  0.3188  0.0047
 5699ntf    fn428776   0.612   6.725   3.308 -0.1378  0.0845  0.0600
 5699ntf    fn428777   0.579   6.521   3.256 -0.2490  0.0633 -0.1126
 5699ntf    fn428778   0.774   6.602   3.241  0.2240  0.0393 -0.3642
 5699ntf    on528779   0.641   6.549   2.975  0.1608  0.1096 -0.2035
 5699ntf    on528780   0.469   6.712   3.046  0.1185 -0.2287  0.3091
 5699ntf    on528781   0.573   6.995   3.001 -0.0770 -0.6947  0.3843
 5699ntf    on528782   0.734   6.942   2.819 -0.1676 -0.5720  0.0878
 5699ntf    fn428783   0.839   7.141   3.018 -0.1910  0.2470 -0.5060
 5699ntf    fn428784   0.822   6.997   3.175  0.5583 -0.6673 -0.0724
 5699ntf    fn428785   0.951   6.962   3.023  0.1581  0.1125  0.3122
 5700ntf    cn128786   0.681   0.596   0.928  0.2953  0.1054 -0.2267
 5700ntf    sn228787   0.678   0.749   0.831  0.1251  0.2480  0.0034
 5700ntf    nn328788   0.543   0.816   0.877  0.1358 -0.0125  0.4181
 5700ntf    sn228789   0.408   0.827   0.799  0.5026 -0.2694 -0.2673
 5700ntf    cn128790   0.294   0.869   0.934  0.5554 -0.6005 -0.1209
 5700ntf    fn428791   0.579   0.517   0.895 -0.0478  0.3230  0.3028
 5700ntf    fn428792   0.792   0.525   0.916  0.2144 -0.1579  0.5102
 5700ntf    fn428793   0.680   0.621   1.058 -0.2206  0.0767 -0.2230
 5700ntf    on528794   0.797   0.815   0.879  0.6932 -0.4005 -0.5018
 5700ntf    on528795   0.687   0.711   0.692  0.8845  0.0725  0.1003
 5700ntf    on528796   0.347   0.705   0.751 -0.6285  0.3129 -0.3676
 5700ntf    on528797   0.401   0.946   0.717  0.0007 -0.5692 -0.6674
 5700ntf    fn428798   0.292   0.772   1.025 -0.0196 -0.6240 -0.1546
 5700ntf    fn428799   0.322   0.980   1.000 -0.4136  0.0305 -0.7435
 5700ntf    fn428800   0.165   0.875   0.902  0.5047 -0.2714  0.1337
 5701ntf    cn128801   7.206   5.368   5.554  0.1272  0.1687 -0.4208
 5701ntf    sn228802   7.292   5.263   5.433 -0.1564 -0.4004 -0.1328
 5701ntf    nn328803   7.296   5.372   5.321 -0.7755 -0.0505  0.1780
 5701ntf    sn228804   7.325   5.362   5.166 -0.2065 -0.5044  0.3100
 5701ntf    cn128805   7.435   5.503   5.134 -0.1198 -0.5408  0.4456
 5701ntf    fn428806   7.081   5.380   5.513 -0.0671 -0.0178  0.1078
 5701ntf    fn428807   7.211   5.310   5.673 -0.3940 -1.0658 -0.9772
 5701ntf    fn428808   7.248   5.491   5.577 -0.1758  0.2316 -0.1955
 5701ntf    on528809   7.423   5.240   5.488  0.1675  0.2681 -0.6113
 5701ntf    on528810   7.196   5.159   5.406  0.0094 -0.3392 -0.9746
 5701ntf    on528811   7.207   5.393   5.089  0.0904  0.0412  0.0697
 5701ntf    on528812   7.410   5.257   5.116 -0.2698 -0.2453 -0.3392
 5701ntf    fn428813   7.371   5.617   5.153  0.2989 -0.2702  0.2570
 5701ntf    fn428814   7.537   5.497   5.218  0.5335 -0.1731 -0.3064
 5701ntf    fn428815   7.480   5.494   5.010 -0.4343 -0.3685  0.3171
 5702ntf    cn128816   1.738   2.152   0.937 -0.1780  0.0149 -0.3965
 5702ntf    sn228817   1.787   2.322   0.895  0.0278  0.0508 -0.0124
 5702ntf    nn328818   1.940   2.288   0.910 -0.0188 -0.1488  0.0151
 5702ntf    sn228819   2.035   2.366   1.008  0.0732 -0.0647 -0.1399
 5702ntf    cn128820   2.176   2.253   1.021  0.0483 -0.0460  0.2964
 5702ntf    fn428821   1.783   2.103   1.051 -0.1791 -0.5320 -0.6259
 5702ntf    fn428822   1.606   2.156   0.944 -0.1427  0.8257 -0.1340
 5702ntf    fn428823   1.759   2.068   0.837 -0.1431 -0.4124 -0.0362
 5702ntf    on528824   1.752   2.335   0.756  0.9632  0.2189 -0.2376
 5702ntf    on528825   1.717   2.401   0.993  0.2862 -0.0110  0.2250
 5702ntf    on528826   1.988   2.377   1.144 -0.4941 -0.0928 -0.3310
 5702ntf    on528827   2.088   2.481   0.939  0.3136 -0.5655 -0.8007
 5702ntf    fn428828   2.151   2.151   1.102 -0.1735 -0.3974 -0.2120
 5702ntf    fn428829   2.220   2.193   0.911 -0.0414  0.5312 -0.0545
 5702ntf    fn428830   2.278   2.313   1.080 -0.4907  0.5689  0.6125
 5703ntf    cn128831   6.507   2.394   4.931 -0.0351  0.2561 -0.2795
 5703ntf    sn228832   6.553   2.316   5.088  0.1360  0.4261 -0.2454
 5703ntf    nn328833   6.704   2.358   5.096  0.2750 -0.0860 -0.1046
 5703ntf    sn228834   6.820   2.313   5.192  0.0843  0.0654  0.2017
 5703ntf    cn128835   6.909   2.223   5.061  0.1447  0.3317  0.0597
 5703ntf    fn428836   6.558   2.330   4.827 -0.3115  0.0894 -0.3157
 5703ntf    fn428837   6.376   2.395   4.912 -0.1188 -0.5008  0.1974
 5703ntf    fn428838   6.542   2.521   4.924 -0.1478  0.3325  0.4843
 5703ntf    on528839   6.471   2.393   5.179  0.5364  0.2659  0.2530
 5703ntf    on528840   6.524   2.175   5.074 -0.5613  0.4485  0.8208
 5703ntf    on528841   6.786   2.215   5.292 -0.0735 -0.3751 -0.2747
 5703ntf    on528842   6.903   2.426   5.224 -0.0839  0.2193  0.0972
 5703ntf    fn428843   7.004   2.141   5.102 -0.1603  0.1454  0.4049
 5703ntf    fn428844   6.828   2.145   4.990 -0.2631  0.3633  0.4822
 5703ntf    fn428845   6.959   2.312   4.976  0.2327 -0.2265 -0.4805
 5704ntf    cn128846   2.651   1.510   0.520  0.2346  0.0013  0.2401
 5704ntf    sn228847   2.558   1.630   0.621 -0.1505  0.1440 -0.2750
 5704ntf    nn328848   2.500   1.710   0.499  0.7364  0.0753 -0.7485
 5704ntf    sn228849   2.355   1.728   0.443  0.4571  0.1142 -0.0241
 5704ntf    cn128850   2.310   1.894   0.504  0.5307  0.1203  0.0138
 5704ntf    fn428851   2.719   1.419   0.586  0.0635 -0.4478 -0.1943
 5704ntf    fn428852   2.578   1.439   0.435  0.0464  0.3828  0.0798
 5704ntf    fn428853   2.743   1.577   0.451  0.2226  0.0807  0.3009
 5704ntf    on528854   2.473   1.549   0.705  0.5897 -0.2569  0.1027
 5704ntf    on528855   2.660   1.697   0.697 -0.3735 -0.0968  0.2408
 5704ntf    on528856   2.262   1.634   0.499  0.1240  0.2870 -0.2839
 5704ntf    on528857   2.356   1.734   0.299 -0.7837  1.0870 -0.0107
 5704ntf    fn428858   2.394   1.977   0.446  0.1425 -0.0737 -0.8614
 5704ntf    fn428859   2.193   1.934   0.456  0.3906  0.0826  0.3247
 5704ntf    fn428860   2.312   1.903   0.636 -0.1436 -0.4409  0.0704
 5705ntf    cn128861   1.558   2.120   7.374  0.0225  0.0550  0.2452
 5705ntf    sn228862   1.645   1.966   7.416  0.1923  0.1006  0.0648
 5705ntf    nn328863   1.676   1.911   7.273  0.3554 -0.1256  0.1862
 5705ntf    sn228864   1.599   1.805   7.186 -0.0478  0.0950  0.2711
 5705ntf    cn128865   1.650   1.854   7.018  0.4509 -0.3828  0.2788
 5705ntf    fn428866   1.451   2.087   7.304  0.0791 -0.5941  0.4591
 5705ntf    fn428867   1.521   2.182   7.485  0.0512 -0.0943  0.3376
 5705ntf    fn428868   1.624   2.206   7.299 -0.0760  0.0512  0.1532
 5705ntf    on528869   1.764   2.005   7.487 -0.0439  0.3023  0.3546
 5705ntf    on528870   1.544   1.895   7.491  0.3026 -0.1274 -0.0015
 5705ntf    on528871   1.457   1.831   7.180 -0.1396 -0.3101  0.7236
 5705ntf    on528872   1.647   1.670   7.200 -0.2492 -0.0412 -0.3160
 5705ntf    fn428873   1.604   1.780   6.918 -0.2887 -0.1158  0.4131
 5705ntf    fn428874   1.605   1.975   6.989  0.6922 -0.2719  0.3690
 5705ntf    fn428875   1.781   1.851   7.003  0.4715 -0.3225  0.4481
 5706ntf    cn128876   3.707   6.963   4.844 -0.1263  0.1429  0.1679
 5706ntf    sn228877   3.641   6.809   4.774 -0.1762  0.1583  0.1802
 5706ntf    nn328878   3.690   6.809   4.625  0.5319  0.6171  0.4100
 5706ntf    sn228879   3.615   6.840   4.491  0.2376 -0.0851  0.4050
 5706ntf    cn128880   3.517   6.688   4.484 -0.1793  0.2081 -0.2304
 5706ntf    fn428881   3.827   6.955   4.899  0.0451  0.2948 -0.1821
 5706ntf    fn428882   3.716   7.061   4.756 -0.6457  0.1399  0.1067
 5706ntf    fn428883   3.628   7.014   4.937  0.1082  0.2402  0.3150
 5706ntf    on528884   3.702   6.708   4.857 -0.1815 -0.6315 -0.7539
 5706ntf    on528885   3.498   6.822   4.790 -0.2721 -0.5843  0.0089
 5706ntf    on528886   3.699   6.834   4.373 -0.0588  0.6895  0.1480
 5706ntf    on528887   3.518   6.946   4.503  0.4586  0.1561  0.0830
 5706ntf    fn428888   3.451   6.669   4.370  0.2793  0.2161 -0.4987
 5706ntf    fn428889   3.590   6.580   4.507 -0.2237  0.2028 -0.1144
 5706ntf    fn428890   3.427   6.683   4.581  0.2259  0.6288  0.1653
 5707ntf    cn128891   1.475   4.129   2.544  0.0639  0.4518  0.1783
 5707ntf    sn228892   1.579   4.219   2.425  0.1956 -0.1545 -0.1738
 5707ntf    nn328893   1.473   4.315   2.360  0.5500  0.1606 -0.2937
 5707ntf    sn228894   1.368   4.290   2.246  0.0347 -0.1464  0.2412
 5707ntf    cn128895   1.211   4.322   2.331 -0.1926 -0.0629 -0.2023
 5707ntf    fn428896   1.384   4.044   2.498  0.1022  0.4238  0.1541
 5707ntf    fn428897   1.558   4.066   2.626  0.0239  0.0514 -0.0824
 5707ntf    fn428898   1.404   4.216   2.613 -0.0246  0.2943  0.2868
 5707ntf    on528899   1.673   4.290   2.508  0.2150  0.0318 -0.3546
 5707ntf    on528900   1.644   4.117   2.347  0.1140  0.0562 -0.5168
 5707ntf    on528901   1.346   4.156   2.197  1.1974 -0.3419  0.2344
 5707ntf    on528902   1.376   4.398   2.150  0.6493  0.1001  0.5635
 5707ntf    fn428903   1.232   4.442   2.383  0.1845 -0.3488  0.3109
 5707ntf    fn428904   1.103   4.337   2.256 -0.0937  0.4169 -0.2552
 5707ntf    fn428905   1.190   4.240   2.433 -0.4606 -0.1581 -0.3326
 5708ntf    cn128906   7.438   7.315   4.294  0.2550 -0.2259  0.3687
 5708ntf    sn228907   7.426   7.482   4.224  0.4442 -0.3544  0.0277
 5708ntf    nn328908   7.464   7.572   4.348 -0.0849 -0.0694 -0.0154
 5708ntf    sn228909   7.596   7.643   4.393 -0.0882  0.0563 -0.2014
 5708ntf    cn128910   7.563   7.810   4.329 -0.1859  0.1759  0.1627
 5708ntf    fn428911   7.356   7.296   4.396  0.2003 -0.1941  0.3305
 5708ntf    fn428912   7.409   7.219   4.207  0.3874 -0.3818  0.4958
 5708ntf    fn428913   7.558   7.291   4.344  0.3877  0.0191  0.1674
 5708ntf    on528914   7.511   7.494   4.107  0.0646  0.0462 -0.2118
 5708ntf    on528915   7.285   7.500   4.201  0.5676  0.8069  0.0780
 5708ntf    on528916   7.713   7.582   4.334 -0.0249 -0.4463  0.4293
 5708ntf    on528917   7.597   7.663   4.536  0.1905 -0.2001 -0.1652
 5708ntf    fn428918   7.479   7.867   4.414 -0.2829  0.1961  0.0519
 5708ntf    fn428919   7.671   7.884   4.313  0.0404 -0.3012 -0.5504
 5708ntf    fn428920   7.501   7.802   4.213  0.3300  0.2820 -0.1225
 5709ntf    cn128921   0.456   0.351   5.607 -0.3320  0.3989  0.2008
 5709ntf    sn228922   0.366   0.334   5.764 -0.1528 -0.4941  0.2116
 5709ntf    nn328923   0.226   0.277   5.721 -0.3975  0.4940 -0.3163
 5709ntf    sn228924   0.192   0.124   5.709 -0.0311  0.3980 -0.1326
 5709ntf    cn128925   0.100   0.108   5.864  0.2305 -0.2357 -0.0401
 5709ntf    fn428926   0.568   0.419   5.620 -0.1854  0.2295 -0.1788
 5709ntf    fn428927   0.469   0.237   5.541 -0.1862  0.2974  0.4030
 5709ntf    fn428928   0.379   0.421   5.525  0.2293  0.3517 -0.3727
 5709ntf    on528929   0.447   0.258   5.856  0.2846 -0.4487 -0.1365
 5709ntf    on528930   0.353   0.475   5.792  0.1051 -0.4139 -0.0663
 5709ntf    on528931   0.308   0.038   5.710 -0.1382  0.2405 -0.7848
 5709ntf    on528932   0.088   0.096   5.613  0.0437  0.0995 -0.1252
 5709ntf    fn428933   0.001   0.196   5.871  0.4778  0.0541 -0.1641
 5709ntf    fn428934   0.051  -0.011   5.895 -0.0721 -0.0289  0.2907
 5709ntf    fn428935   0.179   0.129   5.968  0.0933  0.1672 -0.0150
 5710ntf    cn128936   1.997   1.214   2.998  0.4076 -0.3389  0.3423
 5710ntf    sn228937   2.142   1.269   2.902  0.2962 -0.1252  0.2953
 5710ntf    nn328938   2.221   1.329   3.024 -0.1674  0.3135  0.3860
 5710ntf    sn228939   2.345   1.424   3.017  0.3086 -0.3416 -0.3023
 5710ntf    cn128940   2.256   1.583   3.028 -0.0392 -0.5222 -0.4980
 5710ntf    fn428941   1.930   1.315   3.053  0.0678 -0.3772 -0.0021
 5710ntf    fn428942   1.915   1.145   2.921 -0.3520  0.0933  0.7490
 5710ntf    fn428943   2.036   1.128   3.091  0.6506 -0.0896  0.4752
 5710ntf    on528944   2.193   1.145   2.850 -0.2668 -0.1923 -0.1065
 5710ntf    on528945   2.085   1.370   2.816  0.2622 -0.1567  0.2811
 5710ntf    on528946   2.408   1.435   2.887  0.3089  0.4398 -0.2456
 5710ntf    on528947   2.426   1.426   3.136  0.4829  0.1256 -0.4263
 5710ntf    fn428948   2.183   1.598   3.137  0.4138  0.4188 -0.3173
 5710ntf    fn428949   2.342   1.684   3.030 -0.6962  0.0373 -0.0956
 5710ntf    fn428950   2.169   1.597   2.930 -0.7370  0.7225  0.2689
 5711ntf    cn128951   0.625   5.522   1.475 -0.0032  0.2052  0.3820
 5711ntf    sn228952   0.607   5.645   1.608 -0.2193  0.2404  0.3209
 5711ntf    nn328953   0.758   5.666   1.646 -0.1306 -0.3698  0.3224
 5711ntf    sn228954   0.859   5.760   1.570 -0.3519 -0.3775  0.0174
 5711ntf    cn128955   0.871   5.899   1.687  0.6785 -0.4108 -0.0474
 5711ntf    fn428956   0.521   5.535   1.394  0.0482 -0.1985  0.2484
 5711ntf    fn428957   0.729   5.537   1.394  0.0260 -0.2962  0.3242
 5711ntf    fn428958   0.624   5.395   1.513 -0.3231 -0.0981 -0.6160
 5711ntf    on528959   0.544   5.763   1.556 -0.2484  0.1809  0.2185
 5711ntf    on528960   0.538   5.576   1.714 -0.0462 -0.3463  0.0613
 5711ntf    on528961   0.819   5.821   1.446  0.7503 -0.5079 -0.4082
 5711ntf    on528962   0.990   5.700   1.569 -0.1685  0.0261 -0.6193
 5711ntf    fn428963   0.788   5.997   1.659  0.4510 -0.5874  0.0062
 5711ntf    fn428964   0.838   5.862   1.810 -0.3240  0.0419 -0.1774
 5711ntf    fn428965   0.993   5.948   1.699  0.3628  0.3138  0.2169
 5712ntf    cn128966   4.213   5.562   1.507  0.2187  0.2527  0.4014
 5712ntf    sn228967   4.101   5.687   1.438  0.1041 -0.2292 -0.2978
 5712ntf    nn328968   3.980   5.697   1.537  0.6500  0.2186  0.3318
 5712ntf    sn228969   3.922   5.817   1.620  0.1647  0.2198  0.0006
 5712ntf    cn128970   3.989   5.761   1.780  0.0669  0.3726  0.0954
 5712ntf    fn428971   4.315   5.537   1.426 -0.1361 -0.0169  0.0308
 5712ntf    fn428972   4.262   5.588   1.627  0.3251  0.3273  0.3421
 5712ntf    fn428973   4.149   5.447   1.520 -0.1736  0.3621 -0.4494
 5712ntf    on528974   4.194   5.797   1.441  0.2182 -0.3067 -0.8913
 5712ntf    on528975   4.068   5.639   1.306  0.0570 -0.2986 -0.2610
 5712ntf    on528976   3.779   5.811   1.637  0.2235 -0.2377  0.3545
 5712ntf    on528977   3.980   5.948   1.604  0.3047  0.2069  0.3749
 5712ntf    fn428978   4.120   5.771   1.797  0.1110  0.3419 -0.2136
 5712ntf    fn428979   3.934   5.834   1.875  0.0561 -0.1927  0.5278
 5712ntf    fn428980   3.960   5.637   1.813  0.3663  0.3415  0.2494
 5713ntf    cn128981   2.171   4.586   3.380 -0.0411 -0.0765  0.1408
 5713ntf    sn228982   2.020   4.506   3.318 -0.1456  0.0848  0.1891
 5713ntf    nn328983   2.075   4.405   3.212  0.0004  0.0118  0.3352
 5713ntf    sn228984   2.168   4.279   3.224  0.0471  0.0242  0.1023
 5713ntf    cn128985   2.087   4.161   3.111  0.0815  0.2524 -0.1603
 5713ntf    fn428986   2.227   4.640   3.273 -0.3309 -0.2399 -0.0951
 5713ntf    fn428987   2.157   4.677   3.475  0.2916  0.5035 -0.3570
 5713ntf    fn428988   2.265   4.504   3.426  0.2883  0.3517  0.2386
 5713ntf    on528989   1.957   4.434   3.426 -0.1081 -0.5833 -0.2348
 5713ntf    on528990   1.940   4.612   3.262 -0.2790 -0.2674 -0.2874
 5713ntf    on528991   2.161   4.215   3.353  0.4561  0.3072  0.2675
 5713ntf    on528992   2.293   4.300   3.155 -0.1473 -0.4032 -0.3927
 5713ntf    fn428993   2.067   4.210   2.989  0.2086  0.6178 -0.0368
 5713ntf    fn428994   2.156   4.049   3.097 -0.4722 -0.1746  0.4940
 5713ntf    fn428995   1.972   4.123   3.164  0.3061 -0.4853 -0.1954
 5714ntf    cn128996   4.764   7.097   1.740  0.0661 -0.3996 -0.1449
 5714ntf    sn228997   4.926   7.180   1.736 -0.0123 -0.2362  0.0469
 5714ntf    nn328998   4.943   7.189   1.580  0.4334  0.5631  0.1332
 5714ntf    sn228999   5.056   7.128   1.489 -0.2082 -0.1218 -0.2202
 5714ntf    cn129000   5.044   7.246   1.351 -0.8290 -0.1264 -0.1725
 5714ntf    fn429001   4.665   7.171   1.695 -0.0518 -0.0744  0.6320
 5714ntf    fn429002   4.749   6.987   1.668  0.0002  0.1214 -0.9447
 5714ntf    fn429003   4.728   7.075   1.865  0.2361 -0.4272 -0.1008
 5714ntf    on529004   4.905   7.308   1.800  0.3333 -0.2608  0.2101
 5714ntf    on529005   5.000   7.081   1.810  0.2590  0.4879  0.7643
 5714ntf    on529006   5.024   7.001   1.429 -0.6041  0.1993 -0.7013
 5714ntf    on529007   5.188   7.151   1.541 -0.1302 -0.6327 -0.1886
 5714ntf    fn429008   5.071   7.369   1.391 -0.9140 -0.0463 -0.3600
 5714ntf    fn429009   5.145   7.221   1.270  0.2039  0.0855  1.0207
 5714ntf    fn429010   4.934   7.241   1.277 -0.3492 -0.0310 -0.8995
 5715ntf    cn129011   6.853   1.626   6.632 -0.3469  0.3427 -0.0228
 5715ntf    sn229012   6.891   1.777   6.727 -0.0187  0.1995  0.0708
 5715ntf    nn329013   7.044   1.752   6.757 -0.0177  0.0150 -0.0886
 5715ntf    sn229014   7.117   1.674   6.872  0.0121  0.3195  0.0993
 5715ntf    cn129015   7.248   1.797   6.897  0.0238  0.3869 -0.2858
 5715ntf    fn429016   6.934   1.603   6.530 -0.5325 -0.0799 -0.0751
 5715ntf    fn429017   6.859   1.522   6.714  0.1887  0.1040 -0.3594
 5715ntf    fn429018   6.726   1.631   6.593 -0.2329  0.3215 -0.3916
 5715ntf    on529019   6.854   1.887   6.642 -0.6358 -0.1067 -0.0596
 5715ntf    on529020   6.810   1.757   6.845 -0.0314  0.0630  0.0390
 5715ntf    on529021   7.180   1.558   6.814 -0.3642  0.0363  0.2512
 5715ntf    on529022   7.058   1.663   7.003 -0.8189  0.0540 -0.2918
 5715ntf    fn429023   7.196   1.915   6.928 -0.3439  0.0814  0.2934
 5715ntf    fn429024   7.328   1.763   6.997 -0.0894  0.2831 -0.2301
 5715ntf    fn429025   7.323   1.803   6.788  0.6760 -0.1503  0.1249
 5716ntf    cn129026   0.528   2.177   6.753  0.1711 -0.2184  0.1719
 5716ntf    sn229027   0.384   2.228   6.851  0.1917 -0.1222  0.1525
 5716ntf    nn329028   0.280   2.255   6.736  0.1540 -0.3281  0.1376
 5716ntf    sn229029   0.129   2.295   6.744  0.1957 -0.1368 -0.0214
 5716ntf    cn129030   0.058   2.128   6.749  0.2760 -0.1610  0.4085
 5716ntf    fn429031   0.629   2.128   6.824  0.4588 -0.1567 -0.1964
 5716ntf    fn429032   0.489   2.077   6.676 -0.8176 -0.2850  0.7422
 5716ntf    fn429033   0.571   2.276   6.676 -0.8211  0.0042 -0.1001
 5716ntf    on529034   0.350   2.117   6.936 -0.1126  0.1089  0.3348
 5716ntf    on529035   0.429   2.351   6.912  0.4369  0.0641 -0.4033
 5716ntf    on529036   0.082   2.349   6.619  0.3387 -0.2072 -0.1042
 5716ntf    on529037   0.073   2.353   6.865 -0.4814 -0.2866 -0.2560
 5716ntf    fn429038   0.041   2.068   6.632  0.0030 -0.3236  0.5307
 5716ntf    fn429039   0.118   2.045   6.832 -0.0671 -0.5514  0.2713
 5716ntf    fn429040  -0.067   2.142   6.791 -0.0251 -0.1857 -0.4493
 5717ntf    cn129041   4.808   4.842   6.697  0.0669  0.1826  0.0151
 5717ntf    sn229042   4.724   4.934   6.830  0.0945  0.1389  0.0618
 5717ntf    nn329043   4.846   4.960   6.925  0.2922 -0.6700  0.0423
 5717ntf    sn229044   4.851   5.016   7.072  0.0930 -0.0884 -0.1670
 5717ntf    cn129045   4.884   5.192   7.040  0.1486 -0.0411  0.1437
 5717ntf    fn429046   4.889   4.751   6.746 -0.2764 -0.0738  0.1084
 5717ntf    fn429047   4.726   4.777   6.616  0.1538  0.1476 -0.0444
 5717ntf    fn429048   4.891   4.916   6.625  0.4044  0.0551  0.2737
 5717ntf    on529049   4.691   5.052   6.755  0.0808  0.2197  0.1957
 5717ntf    on529050   4.619   4.849   6.880  0.3799 -0.4404 -0.3115
 5717ntf    on529051   4.976   4.973   7.132 -0.1747  0.2781  0.6733
 5717ntf    on529052   4.730   5.020   7.150  0.2133  0.2648  0.0047
 5717ntf    fn429053   4.882   5.270   7.147 -0.1666  0.8928 -0.5378
 5717ntf    fn429054   5.003   5.213   6.987  0.1493  0.2618  0.2665
 5717ntf    fn429055   4.799   5.248   6.956 -0.2677  0.0589  0.6280
 5718ntf    cn129056   4.290   0.613   2.196 -0.3600 -0.5464  0.1700
 5718ntf    sn229057   4.464   0.568   2.170 -0.2351  0.0613 -0.0578
 5718ntf    nn329058   4.540   0.705   2.176  0.1709 -0.1760  0.2790
 5718ntf    sn229059   4.692   0.731   2.205  0.2284  0.0509 -0.2114
 5718ntf    cn129060   4.729   0.848   2.071  0.1432  0.4840  0.1382
 5718ntf    fn429061   4.225   0.499   2.217  0.0647 -0.7912  0.1685
 5718ntf    fn429062   4.264   0.686   2.303  0.3097  0.2466 -0.1989
 5718ntf    fn429063   4.243   0.672   2.088  0.4401  0.2526  0.2456
 5718ntf    on529064   4.497   0.481   2.280 -0.3105  0.3637  0.2047
 5718ntf    on529065   4.460   0.502   2.042 -0.0899 -0.1059  0.0224
 5718ntf    on529066   4.781   0.623   2.171 -0.3451 -0.5739  0.2565
 5718ntf    on529067   4.701   0.810   2.326 -0.3885 -0.1910 -0.0008
 5718ntf    fn429068   4.693   0.805   1.951 -0.6151  0.7256  0.2719
 5718ntf    fn429069   4.660   0.960   2.088 -0.4708  0.2237 -0.5612
 5718ntf    fn429070   4.859   0.869   2.061  0.2398 -0.2229 -0.2129
 5719ntf    cn129071   2.160   3.517   2.466 -0.1614 -0.0633  0.1165
 5719ntf    sn229072   2.118   3.500   2.642 -0.0940  0.0433  0.1430
 5719ntf    nn329073   2.045   3.636   2.672  0.1670  0.2021  0.0558
 5719ntf    sn229074   2.088   3.756   2.763 -0.0348  0.2518  0.0863
 5719ntf    cn129075   1.942   3.774   2.870 -0.3296  0.1322 -0.2954
 5719ntf    fn429076   2.201   3.402   2.415 -0.4301  0.0664 -0.3899
 5719ntf    fn429077   2.062   3.558   2.388  0.2765  0.3689 -0.2119
 5719ntf    fn429078   2.261   3.599   2.443 -0.0609 -0.1571  0.2199
 5719ntf    on529079   2.031   3.384   2.638  0.2996 -0.2651  0.4717
 5719ntf    on529080   2.244   3.482   2.710  0.2981  0.7928 -0.3754
 5719ntf    on529081   2.094   3.878   2.687 -0.0886 -0.0305 -0.3709
 5719ntf    on529082   2.192   3.735   2.861 -0.3810  0.4432  0.4962
 5719ntf    fn429083   1.823   3.760   2.813 -0.4179 -0.3633  0.0021
 5719ntf    fn429084   1.952   3.677   2.959  0.6764 -0.0390 -0.5916
 5719ntf    fn429085   1.927   3.884   2.942  0.3425 -0.0841  0.1818
 5720ntf    cn129086   3.089   2.763   2.061  0.1977 -0.6347 -0.0855
 5720ntf    sn229087   2.989   2.869   2.169  0.1889 -0.4818 -0.2434
 5720ntf    nn329088   2.907   2.943   2.058 -0.4766  0.0912  0.6081
 5720ntf    sn229089   2.769   2.903   1.994 -0.2617 -0.0461  0.2208
 5720ntf    cn129090   2.811   2.909   1.818  0.0498  0.1811  0.3018
 5720ntf    fn429091   3.167   2.679   2.128 -0.2097 -0.1344  1.0401
 5720ntf    fn429092   3.013   2.690   1.981 -0.1236 -0.1849 -0.1949
 5720ntf    fn429093   3.169   2.842   1.990 -0.0371 -0.3319 -0.0135
 5720ntf    on529094   2.911   2.783   2.254 -0.2036  0.0171 -0.0930
 5720ntf    on529095   3.084   2.957   2.232 -0.3625  0.1801 -0.3223
 5720ntf    on529096   2.672   3.008   2.016  0.1975  0.4076  0.0868
 5720ntf    on529097   2.724   2.768   2.014 -0.4362  0.0365  0.3965
 5720ntf    fn429098   2.911   2.827   1.789 -0.3409 -0.0528 -0.4228
 5720ntf    fn429099   2.709   2.879   1.740  0.3850 -0.0130 -0.0711
 5720ntf    fn429100   2.844   3.033   1.786  0.7050 -0.1647 -0.4239
 5721ntf    cn129101   5.199   6.693   0.038  0.3008  0.0152 -0.4077
 5721ntf    sn229102   5.115   6.834  -0.040  0.2987  0.0185 -0.3986
 5721ntf    nn329103   5.027   6.751  -0.140 -0.1646  0.0092  0.0163
 5721ntf    sn229104   4.978   6.800  -0.281 -0.3583  0.0572  0.1001
 5721ntf    cn129105   5.122   6.772  -0.388 -0.1584  0.4050  0.2735
 5721ntf    fn429106   5.287   6.635  -0.042  0.7759  0.0622  0.0749
 5721ntf    fn429107   5.267   6.713   0.150 -0.4796  0.3870  0.0069
 5721ntf    fn429108   5.105   6.604   0.065  0.5491 -0.0397  0.2851
 5721ntf    on529109   5.030   6.887   0.063  0.2762 -0.3687 -0.2153
 5721ntf    on529110   5.224   6.913  -0.092  0.2318  0.3987  0.0268
 5721ntf    on529111   4.949   6.941  -0.293  0.1150  0.1942  0.5273
 5721ntf    on529112   4.881   6.708  -0.335 -0.4416  0.1687  0.0600
 5721ntf    fn429113   5.121   6.847  -0.497 -0.5757 -0.3026 -0.2197
 5721ntf    fn429114   5.237   6.796  -0.327  0.3182  0.1917 -0.5308
 5721ntf    fn429115   5.135   6.645  -0.423  0.1609  0.5021  0.0370
 5722ntf    cn129116   3.203   0.488   5.822  0.0889 -0.2968 -0.2299
 5722ntf    sn229117   3.153   0.634   5.726 -0.0105 -0.1936 -0.0203
 5722ntf    nn329118   3.297   0.695   5.715 -0.2410  0.3580 -0.0253
 5722ntf    sn229119   3.355   0.832   5.764 -0.0464  0.2898 -0.0656
 5722ntf    cn129120   3.476   0.761   5.881 -0.4681 -0.1610  0.0995
 5722ntf    fn429121   3.102   0.407   5.851  0.0536 -0.1979 -0.0745
 5722ntf    fn429122   3.305   0.416   5.778  0.0824 -0.6452  0.3080
 5722ntf    fn429123   3.240   0.529   5.942  0.5530 -0.2947 -0.3712
 5722ntf    on529124   3.105   0.573   5.605 -0.0113 -0.0427 -0.0956
 5722ntf    on529125   3.057   0.703   5.810  0.5098 -0.0521  0.4635
 5722ntf    on529126   3.271   0.922   5.839 -0.4697 -0.1284 -0.0372
 5722ntf    on529127   3.439   0.887   5.661  0.1143 -0.2363 -0.2157
 5722ntf    fn429128   3.432   0.706   5.993 -0.7063 -0.1821 -0.0043
 5722ntf    fn429129   3.552   0.666   5.830  0.1339 -0.0257  0.7342
 5722ntf    fn429130   3.558   0.849   5.935 -0.3636 -0.0624 -0.2171
 5723ntf    cn129131   3.467   4.156   5.080 -0.0684 -0.3501  0.2100
 5723ntf    sn229132   3.638   4.098   5.058 -0.0934 -0.2252 -0.3250
 5723ntf    nn329133   3.673   4.077   5.209 -0.1241 -0.2872 -0.3271
 5723ntf    sn229134   3.806   4.038   5.284 -0.2459 -0.2222 -0.0738
 5723ntf    cn129135   3.786   3.858   5.299 -0.2197 -0.2342 -0.1779
 5723ntf    fn429136   3.454   4.261   5.159  0.3866 -0.4459  0.4155
 5723ntf    fn429137   3.405   4.192   4.968  0.0695  0.0869  0.2751
 5723ntf    fn429138   3.390   4.055   5.117 -0.2598 -0.3963 -0.3042
 5723ntf    on529139   3.621   3.979   4.978 -0.3531 -0.8348  0.6250
 5723ntf    on529140   3.698   4.211   4.992 -0.1520 -0.3227 -0.5470
 5723ntf    on529141   3.806   4.085   5.420  0.0636  0.2438 -0.2324
 5723ntf    on529142   3.923   4.052   5.201 -0.0163 -0.7327  0.1634
 5723ntf    fn429143   3.783   3.789   5.186 -0.9472  0.1854 -0.4187
 5723ntf    fn429144   3.881   3.807   5.376 -0.1283 -0.3977 -0.3960
 5723ntf    fn429145   3.671   3.828   5.357 -0.1786  0.2140  0.1381
 5724ntf    cn129146   7.020   2.285   0.510  0.1272  0.5537 -0.1969
 5724ntf    sn229147   7.004   2.456   0.570  0.4025  0.4828  0.0825
 5724ntf    nn329148   7.103   2.533   0.476  0.5863  0.3333  0.1540
 5724ntf    sn229149   7.073   2.565   0.325  0.0706 -0.0696  0.1694
 5724ntf    cn129150   7.065   2.746   0.317 -0.2134 -0.0843  0.1110
 5724ntf    fn429151   6.967   2.201   0.597  0.0336  0.3245 -0.4717
 5724ntf    fn429152   6.961   2.264   0.393  0.0906  0.2030 -0.1182
 5724ntf    fn429153   7.147   2.250   0.496 -0.0818 -0.0451 -0.6760
 5724ntf    on529154   6.868   2.497   0.546  0.4210  0.3275 -0.3079
 5724ntf    on529155   7.040   2.439   0.708 -0.1224  0.2511  0.1934
 5724ntf    on529156   6.946   2.526   0.270  0.0146  0.0200  0.2352
 5724ntf    on529157   7.189   2.543   0.243  0.1956  0.2759  0.2521
 5724ntf    fn429158   7.148   2.801   0.405 -0.0836 -0.1756  0.0463
 5724ntf    fn429159   7.091   2.801   0.199  0.6242  0.2782  0.4527
 5724ntf    fn429160   6.943   2.781   0.352 -0.2833 -0.1273 -0.0851
 5725ntf    cn129161   7.491   3.566   6.895  0.2073  0.2561 -0.0021
 5725ntf    sn229162   7.400   3.507   7.040  0.1745  0.1435 -0.0688
 5725ntf    nn329163   7.299   3.625   7.059  0.1479  0.0649  0.2852
 5725ntf    sn229164   7.279   3.727   7.177 -0.5614 -0.1540  0.3624
 5725ntf    cn129165   7.389   3.865   7.137 -0.4710 -0.3450 -0.0579
 5725ntf    fn429166   7.526   3.693   6.912  0.0749  0.2569  0.2658
 5725ntf    fn429167   7.594   3.485   6.877  0.2565  0.3323 -0.0658
 5725ntf    fn429168   7.420   3.556   6.783  0.3324  0.0348 -0.0620
 5725ntf    on529169   7.342   3.387   6.984 -0.0634  0.2252  0.0012
 5725ntf    on529170   7.503   3.487   7.139 -0.2369 -0.0918  0.3191
 5725ntf    on529171   7.310   3.676   7.308  0.8432 -0.7878 -0.1962
 5725ntf    on529172   7.151   3.792   7.167 -0.3173  0.2305 -0.3368
 5725ntf    fn429173   7.381   3.960   7.229  0.4923  0.0052 -0.3127
 5725ntf    fn429174   7.517   3.832   7.148 -0.3407  0.0961 -0.1913
 5725ntf    fn429175   7.371   3.909   7.013 -0.3189 -0.4269 -0.1097
 5726ntf    cn129176   3.092   0.646   2.565  0.1519 -0.4647  0.0825
 5726ntf    sn229177   2.969   0.528   2.626 -0.2211 -0.1773 -0.1124
 5726ntf    nn329178   2.853   0.547   2.521 -0.3966  0.8583  0.2610
 5726ntf    sn229179   2.833   0.484   2.379  0.3636  0.4565  0.3299
 5726ntf    cn129180   2.653   0.504   2.371  0.3755  0.3799 -0.1435
 5726ntf    fn429181   3.046   0.759   2.514 -0.3458 -0.7204 -0.0436
 5726ntf    fn429182   3.182   0.684   2.655 -0.2355  0.2702  0.1688
 5726ntf    fn429183   3.162   0.598   2.463  0.0888 -0.3989  0.0083
 5726ntf    on529184   3.028   0.396   2.629  0.5318  0.1761  1.1561
 5726ntf    on529185   2.926   0.580   2.753 -0.1324  0.0104 -0.1605
 5726ntf    on529186   2.860   0.343   2.367 -0.2657  0.3107  0.6151
 5726ntf    on529187   2.888   0.570   2.277  0.4093  0.1068  0.0561
 5726ntf    fn429188   2.617   0.616   2.432  0.3571  0.0309  0.4914
 5726ntf    fn429189   2.598   0.507   2.250  0.0598  0.2165 -0.0025
 5726ntf    fn429190   2.593   0.404   2.432  0.5333  0.2009 -0.2791
 5727ntf    cn129191   7.385   4.288   0.506 -0.2364  0.3737  0.1768
 5727ntf    sn229192   7.493   4.285   0.360 -0.2447 -0.0940  0.1777
 5727ntf    nn329193   7.575   4.155   0.392  0.2087  0.0365 -0.4259
 5727ntf    sn229194   7.550   4.013   0.330 -0.0808 -0.1804  0.1819
 5727ntf    cn129195   7.646   3.901   0.436 -0.2536  0.1164  0.6555
 5727ntf    fn429196   7.309   4.397   0.504 -0.4551  0.2138 -0.3723
 5727ntf    fn429197   7.312   4.178   0.503  0.2344  0.0621  0.0466
 5727ntf    fn429198   7.460   4.285   0.615 -0.3129 -0.4495  0.2127
 5727ntf    on529199   7.401   4.282   0.250  0.0785 -0.1375 -0.0933
 5727ntf    on529200   7.572   4.404   0.385 -0.0369 -0.3099  0.5601
 5727ntf    on529201   7.604   3.984   0.200  0.1172 -0.3484  0.3005
 5727ntf    on529202   7.414   3.967   0.349 -0.4481  0.7053 -0.2422
 5727ntf    fn429203   7.615   3.779   0.395  1.0512 -0.0224  0.0384
 5727ntf    fn429204   7.775   3.921   0.417 -0.3818  0.1971 -0.1507
 5727ntf    fn429205   7.620   3.898   0.566 -0.2408 -0.0099  0.6550
 5728ntf    cn129206   3.336   6.137   3.766  0.0900 -0.0720  0.2758
 5728ntf    sn229207   3.258   6.298   3.736  0.0712 -0.1033  0.1549
 5728ntf    nn329208   3.354   6.353   3.624 -0.4580  0.0877 -0.2094
 5728ntf    sn229209   3.451   6.477   3.631 -0.0792 -0.2339  0.2901
 5728ntf    cn129210   3.602   6.401   3.696  0.3020  0.0188 -0.2950
 5728ntf    fn429211   3.322   6.058   3.660 -0.2260 -0.0256  0.2817
 5728ntf    fn429212   3.465   6.148   3.793  0.0326  0.4899  0.3350
 5728ntf    fn429213   3.268   6.079   3.864 -1.0650 -0.0064 -0.4619
 5728ntf    on529214   3.123   6.274   3.689 -0.0393 -0.2806  0.5625
 5728ntf    on529215   3.268   6.365   3.863 -0.2740 -0.1333  0.1978
 5728ntf    on529216   3.419   6.575   3.731  0.7274  0.0024  0.3174
 5728ntf    on529217   3.483   6.519   3.497 -0.3649 -0.0596  0.2746
 5728ntf    fn429218   3.716   6.465   3.674  0.4861 -0.2080 -0.0180
 5728ntf    fn429219   3.594   6.356   3.820 -0.4106  0.8945 -0.0147
 5728ntf    fn429220   3.622   6.286   3.633 -0.1377 -0.0426 -0.3239
 5729ntf    cn129221   1.285   1.840   3.895  0.0461 -0.1440  0.1528
 5729ntf    sn229222   1.362   1.852   3.731 -0.0713  0.1565  0.1190
 5729ntf    nn329223   1.238   1.915   3.658  0.1208 -0.0920 -0.4283
 5729ntf    sn229224   1.239   1.971   3.511 -0.0287 -0.2826 -0.5018
 5729ntf    cn129225   1.260   2.149   3.538  0.1891 -0.3588 -0.1655
 5729ntf    fn429226   1.246   1.954   3.949  0.3214 -0.0537  0.1581
 5729ntf    fn429227   1.173   1.770   3.892  0.3093 -0.5800  0.5314
 5729ntf    fn429228   1.370   1.784   3.978 -0.0112 -0.0615  0.2668
 5729ntf    on529229   1.469   1.948   3.746  0.2736 -0.1129 -0.5666
 5729ntf    on529230   1.394   1.715   3.702  0.4038  0.3368 -0.2374
 5729ntf    on529231   1.105   1.963   3.457 -0.4043 -0.3805  0.4108
 5729ntf    on529232   1.342   1.929   3.420  0.9353 -0.4401  0.6348
 5729ntf    fn429233   1.145   2.212   3.557  0.3284 -0.1493 -0.0115
 5729ntf    fn429234   1.334   2.181   3.643  0.2500  0.5637 -0.4747
 5729ntf    fn429235   1.309   2.212   3.432 -0.5199  0.5572  0.0373
 5730ntf    cn129236   1.142   6.659   5.239  0.1251 -0.0857 -0.1761
 5730ntf    sn229237   1.127   6.832   5.185  0.0218  0.1107  0.4744
 5730ntf    nn329238   1.224   6.908   5.282  0.5210  0.2102 -0.0971
 5730ntf    sn229239   1.198   6.993   5.411 -0.4600 -0.1545 -0.0464
 5730ntf    cn129240   1.269   7.148   5.346  0.1309 -0.2480  0.3733
 5730ntf    fn429241   1.100   6.578   5.144 -0.0624 -0.2719  0.0646
 5730ntf    fn429242   1.262   6.618   5.276  0.0447  0.0026  0.1898
 5730ntf    fn429243   1.061   6.622   5.337  0.1047 -0.4062 -0.3118
 5730ntf    on529244   1.184   6.821   5.053  0.1331  0.2329  0.5119
 5730ntf    on529245   0.987   6.866   5.195  0.1096  0.5618  0.1983
 5730ntf    on529246   1.290   6.975   5.520 -1.0334 -0.8044  0.3368
 5730ntf    on529247   1.061   7.026   5.443 -0.4291 -0.1661  0.1003
 5730ntf    fn429248   1.201   7.172   5.236  0.2581  0.4523  0.4481
 5730ntf    fn429249   1.262   7.249   5.431 -0.4055 -0.0919  0.1419
 5730ntf    fn429250   1.398   7.143   5.316  0.0471 -0.5317  0.0545
 5731ntf    cn129251   2.345   2.748   2.857  0.2063  0.2224 -0.1639
 5731ntf    sn229252   2.310   2.917   2.801  0.3633  0.2812 -0.0857
 5731ntf    nn329253   2.452   2.957   2.747  0.5855 -0.2275  0.1274
 5731ntf    sn229254   2.505   3.104   2.740  0.0387 -0.0538 -0.3524
 5731ntf    cn129255   2.436   3.143   2.576 -0.2258 -0.3930 -0.3232
 5731ntf    fn429256   2.238   2.697   2.917  0.0218  0.0908 -0.6013
 5731ntf    fn429257   2.374   2.661   2.762  0.1620  0.2206 -0.1757
 5731ntf    fn429258   2.442   2.746   2.947  0.1726  0.4678 -0.1209
 5731ntf    on529259   2.221   2.894   2.689 -0.0432 -1.1116  0.5089
 5731ntf    on529260   2.266   2.990   2.917  0.1753 -0.1662  0.1242
 5731ntf    on529261   2.645   3.096   2.706 -0.0073 -0.5220 -0.4346
 5731ntf    on529262   2.461   3.198   2.840  0.1955  0.0908 -0.4181
 5731ntf    fn429263   2.307   3.170   2.587 -0.0214  0.5157 -0.0609
 5731ntf    fn429264   2.494   3.249   2.522  0.2519 -0.1784  0.5879
 5731ntf    fn429265   2.461   3.051   2.484 -0.1020 -0.4429 -0.2389
 5732ntf    cn129266   2.785   0.338   7.160  0.0337  0.1198  0.3374
 5732ntf    sn229267   2.622   0.317   7.084  0.1427 -0.0600  0.1536
 5732ntf    nn329268   2.588   0.165   7.107  0.1431 -0.1620 -0.4878
 5732ntf    sn229269   2.504   0.071   7.013 -0.1080 -0.2381 -0.1914
 5732ntf    cn129270   2.422  -0.010   7.154  0.0543 -0.1709 -0.0580
 5732ntf    fn429271   2.791   0.279   7.278 -0.8309 -0.8576 -0.0938
 5732ntf    fn429272   2.880   0.272   7.096  0.1034  0.5046  0.0386
 5732ntf    fn429273   2.824   0.464   7.167 -0.2318  0.2086  0.2256
 5732ntf    on529274   2.533   0.402   7.159  0.1365 -0.3262  0.4519
 5732ntf    on529275   2.641   0.355   6.946  0.3400 -0.4229  0.0797
 5732ntf    on529276   2.576  -0.030   6.940  0.5068  0.1963 -0.1967
 5732ntf    on529277   2.404   0.142   6.938 -0.0688 -0.4319 -0.4260
 5732ntf    fn429278   2.305  -0.064   7.128 -0.3530  0.7378 -0.1667
 5732ntf    fn429279   2.495  -0.104   7.213 -0.1342 -0.1861  0.1489
 5732ntf    fn429280   2.385   0.075   7.248 -0.2278 -0.2415 -0.1036
 5733ntf    cn129281   3.470   7.292   6.877  0.1391 -0.1705  0.5288
 5733ntf    sn229282   3.434   7.216   7.038  0.0725 -0.0262  0.5832
 5733ntf    nn329283   3.497   7.074   7.016  0.4194  0.2851 -0.4991
 5733ntf    sn229284   3.615   7.008   7.096 -0.1648 -0.0412  0.1112
 5733ntf    cn129285   3.530   6.959   7.249  0.2886 -0.1380  0.3342
 5733ntf    fn429286   3.495   7.422   6.886 -0.1196 -0.1050  0.3076
 5733ntf    fn429287   3.574   7.230   6.825 -0.2697 -0.3476 -0.0857
 5733ntf    fn429288   3.373   7.271   6.790  0.5204  0.1084  0.0338
 5733ntf    on529289   3.494   7.306   7.134  0.2644  0.7282 -0.2374
 5733ntf    on529290   3.290   7.211   7.038  0.0722 -0.1794 -0.2774
 5733ntf    on529291   3.720   7.102   7.128 -0.2223  0.0357  0.0754
 5733ntf    on529292   3.670   6.893   7.028  0.3069  0.1593  0.1463
 5733ntf    fn429293   3.454   7.056   7.298  0.2035  0.0690 -0.2059
 5733ntf    fn429294   3.451   6.855   7.229  0.1609 -0.0438  0.3463
 5733ntf    fn429295   3.617   6.933   7.345  0.5681 -0.7590 -0.0803
 5734ntf    cn129296   0.391   5.252   5.021 -0.2203 -0.2866 -0.2295
 5734ntf    sn229297   0.424   5.323   5.185  0.1197 -0.8078 -0.0700
 5734ntf    nn329298   0.510   5.449   5.145 -0.3289 -0.4076  0.2223
 5734ntf    sn229299   0.499   5.600   5.188  0.1533 -0.2749 -0.1187
 5734ntf    cn129300   0.376   5.651   5.065  0.0312  0.1444  0.1767
 5734ntf    fn429301   0.333   5.332   4.933 -0.3848 -0.3694 -0.1950
 5734ntf    fn429302   0.502   5.196   4.973  0.2772 -0.0928  0.6812
 5734ntf    fn429303   0.310   5.149   5.038 -0.1881 -0.2332  0.2613
 5734ntf    on529304   0.296   5.352   5.243  0.2621 -0.1162 -0.0884
 5734ntf    on529305   0.511   5.224   5.243  0.6026 -0.3273  0.0353
 5734ntf    on529306   0.616   5.678   5.154 -0.0160 -0.0534 -0.1934
 5734ntf    on529307   0.437   5.618   5.317  0.3204  0.3438 -0.1218
 5734ntf    fn429308   0.282   5.561   5.039 -0.2671  0.5478 -0.1518
 5734ntf    fn429309   0.311   5.762   5.095  0.1977  0.4654 -0.6073
 5734ntf    fn429310   0.423   5.668   4.942 -0.6174  0.3037 -0.0561
 5735ntf    cn129311   2.194   4.664   1.889  0.4128  0.3756 -0.2959
 5735ntf    sn229312   2.325   4.744   1.986  0.2021 -0.0131  0.3106
 5735ntf    nn329313   2.245   4.766   2.119  0.1507  0.2240  0.2399
 5735ntf    sn229314   2.152   4.885   2.161 -0.1826  0.1788 -0.3474
 5735ntf    cn129315   2.136   4.861   2.341 -0.0860 -0.2081 -0.3909
 5735ntf    fn429316   2.079   4.721   1.920  0.4382  0.2832 -0.0338
 5735ntf    fn429317   2.208   4.671   1.757 -0.1106 -0.1651 -0.3840
 5735ntf    fn429318   2.183   4.537   1.920 -0.3501  0.6272  0.4947
 5735ntf    on529319   2.423   4.640   2.009 -0.0967 -0.3118  0.2404
 5735ntf    on529320   2.364   4.857   1.906 -0.4189  0.4693  0.6885
 5735ntf    on529321   2.018   4.877   2.107 -0.6531  0.2259  0.7735
 5735ntf    on529322   2.225   5.009   2.153 -0.3265  0.2785 -0.1552
 5735ntf    fn429323   2.071   4.954   2.407 -0.0417 -0.3362 -0.1668
 5735ntf    fn429324   2.074   4.746   2.359  0.1238 -0.2543  0.0506
 5735ntf    fn429325   2.254   4.843   2.399 -0.2856 -0.1586  0.0334
 5736ntf    cn129326   1.587   0.454   1.302  0.3090  0.1446  0.2516
 5736ntf    sn229327   1.412   0.484   1.340  0.2897  0.1835  0.1340
 5736ntf    nn329328   1.394   0.408   1.477 -0.0465  0.1649  0.0811
 5736ntf    sn229329   1.351   0.259   1.498  0.2218  0.1523  0.5540
 5736ntf    cn129330   1.445   0.201   1.643  0.2734 -0.6308  0.2140
 5736ntf    fn429331   1.612   0.324   1.299  0.0654  0.0996  0.1980
 5736ntf    fn429332   1.620   0.507   1.186  0.1245  0.0576  0.1587
 5736ntf    fn429333   1.679   0.498   1.386  0.0425  0.5022  0.3560
 5736ntf    on529334   1.399   0.627   1.346  0.1200  0.1506  0.6499
 5736ntf    on529335   1.340   0.427   1.229  0.4533 -0.3452  0.2972
 5736ntf    on529336   1.388   0.167   1.393 -0.4222  0.0335  0.4255
 5736ntf    on529337   1.217   0.243   1.548  0.1310  0.2326  0.3381
 5736ntf    fn429338   1.390   0.243   1.756  0.7634 -0.1683  0.2815
 5736ntf    fn429339   1.467   0.071   1.647 -0.2864 -0.7635 -0.6639
 5736ntf    fn429340   1.571   0.242   1.647  0.0779  0.0049  0.0244
 5737ntf    cn129341   4.802   2.438   7.122 -0.0545 -0.2589 -0.2900
 5737ntf    sn229342   4.822   2.612   7.071 -0.0551 -0.2030 -0.1005
 5737ntf    nn329343   4.888   2.665   7.203  0.0899 -0.2358 -0.1595
 5737ntf    sn229344   4.825   2.742   7.325  0.0186 -0.2740 -0.1713
 5737ntf    cn129345   4.869   2.638   7.467  0.5510  0.2395  0.0465
 5737ntf    fn429346   4.697   2.386   7.059  0.0266 -0.5945 -0.1447
 5737ntf    fn429347   4.911   2.375   7.082  0.2882 -0.0210  0.2537
 5737ntf    fn429348   4.790   2.424   7.253  0.1439 -0.2108 -0.2667
 5737ntf    on529349   4.916   2.619   6.961 -0.4185 -0.6238 -0.4422
 5737ntf    on529350   4.693   2.668   7.039 -0.0174  0.0546  0.1996
 5737ntf    on529351   4.682   2.736   7.336 -0.0069 -0.0979 -0.3880
 5737ntf    on529352   4.890   2.869   7.345 -0.0785 -0.1194 -0.8194
 5737ntf    fn429353   4.918   2.689   7.579  0.8737 -0.0162  0.0234
 5737ntf    fn429354   4.759   2.578   7.510  0.3946  0.0509 -0.6020
 5737ntf    fn429355   4.956   2.543   7.437  0.8559  0.5202  0.0402
 5738ntf    cn129356   6.753   7.083   4.158  0.2027  0.0128 -0.0076
 5738ntf    sn229357   6.857   7.201   4.250 -0.0811  0.1823  0.0972
 5738ntf    nn329358   6.851   7.136   4.392  0.5681  0.6628  0.3547
 5738ntf    sn229359   6.941   7.019   4.447 -0.2207 -0.1421 -0.0433
 5738ntf    cn129360   7.076   7.117   4.517 -0.0171 -0.0630 -0.5412
 5738ntf    fn429361   6.637   7.058   4.217  0.3681 -0.0643  0.2881
 5738ntf    fn429362   6.724   7.132   4.039  0.0955 -0.3505 -0.1307
 5738ntf    fn429363   6.804   6.961   4.152  0.6082  0.2023 -0.4428
 5738ntf    on529364   6.983   7.207   4.179 -0.0809  0.6760  0.1327
 5738ntf    on529365   6.777   7.321   4.242  0.2652  0.3721 -0.5935
 5738ntf    on529366   6.999   6.933   4.347  0.5542  0.4622 -0.1160
 5738ntf    on529367   6.881   6.957   4.562 -0.2966 -0.2027 -0.1144
 5738ntf    fn429368   7.025   7.222   4.580 -0.3579 -0.7068  0.2698
 5738ntf    fn429369   7.160   7.057   4.600 -0.5747  0.0615  0.1206
 5738ntf    fn429370   7.160   7.163   4.426  0.3600  0.1430 -0.0971
 5739ntf    cn129371   1.476   5.440   7.066  0.0578  0.0539  0.3251
 5739ntf    sn229372   1.380   5.594   7.067  0.3506  0.2354  0.3885
 5739ntf    nn329373   1.245   5.530   7.019  0.3668  0.1755  0.4233
 5739ntf    sn229374   1.104   5.597   7.031  0.1845 -0.0860 -0.1990
 5739ntf    cn129375   1.082   5.639   6.856 -0.0216 -0.0585 -0.1678
 5739ntf    fn429376   1.594   5.456   7.124  0.1100 -0.5268  0.3839
 5739ntf    fn429377   1.422   5.338   7.130 -0.2176 -0.1445 -0.2173
 5739ntf    fn429378   1.499   5.401   6.941  0.0009 -0.4911  0.4814
 5739ntf    on529379   1.374   5.628   7.207 -0.2328 -0.2048  0.4711
 5739ntf    on529380   1.452   5.682   6.978  0.0025 -0.0236 -0.1479
 5739ntf    on529381   1.102   5.724   7.099  0.6381 -0.5939  0.7885
 5739ntf    on529382   0.999   5.504   7.067  0.4402 -0.2738  0.0738
 5739ntf    fn429383   1.167   5.731   6.814 -0.0213 -0.1108 -0.2821
 5739ntf    fn429384   1.113   5.530   6.787 -0.1325 -0.2189  0.0340
 5739ntf    fn429385   0.958   5.672   6.823 -0.1726  0.0567  0.5103
 5740ntf    cn129386   1.983   0.891   6.368 -0.1408  0.0441  0.5747
 5740ntf    sn229387   2.081   0.839   6.512  0.2013  0.0106  0.3321
 5740ntf    nn329388   2.010   0.932   6.617 -0.6476  0.3102 -0.4978
 5740ntf    sn229389   1.905   0.901   6.729  0.0576 -0.1989  0.0301
 5740ntf    cn129390   1.911   1.054   6.827 -0.3075 -0.2540  0.1421
 5740ntf    fn429391   1.963   1.021   6.378 -0.3230  0.0061  0.6980
 5740ntf    fn429392   2.040   0.869   6.250 -0.7185 -0.1465  0.3263
 5740ntf    fn429393   1.862   0.839   6.356 -0.0131 -0.1401  0.0351
 5740ntf    on529394   2.056   0.698   6.521 -0.0504  0.0008 -0.4457
 5740ntf    on529395   2.214   0.878   6.472  0.2581 -0.4546  0.0611
 5740ntf    on529396   1.943   0.788   6.810  0.0761 -0.0549  0.2225
 5740ntf    on529397   1.767   0.904   6.685  0.0852  0.4563 -0.0221
 5740ntf    fn429398   1.858   1.154   6.758  0.0241 -0.2377 -0.0927
 5740ntf    fn429399   1.823   1.046   6.925 -0.2546 -0.6301  0.1602
 5740ntf    fn429400   2.028   1.105   6.863 -0.2081  0.0383 -0.5831
 5741ntf    cn129401   3.693   2.744   6.083 -0.0869  0.2214  0.3039
 5741ntf    sn229402   3.535   2.665   6.125 -0.0931  0.0195 -0.0994
 5741ntf    nn329403   3.488   2.761   6.239  0.0966 -0.0604  0.0446
 5741ntf    sn229404   3.426   2.739   6.382 -0.1794 -0.2744 -0.1078
 5741ntf    cn129405   3.307   2.874   6.355  0.0887 -0.0956 -0.4058
 5741ntf    fn429406   3.795   2.713   6.162  0.0277 -0.3264 -0.0513
 5741ntf    fn429407   3.730   2.713   5.960 -0.5559 -0.1894  0.2627
 5741ntf    fn429408   3.689   2.876   6.088  0.2102  0.2418  0.0541
 5741ntf    on529409   3.459   2.690   6.005  0.2026  0.2389 -0.2414
 5741ntf    on529410   3.563   2.533   6.176 -0.0520  0.0849  0.0464
 5741ntf    on529411   3.505   2.783   6.494 -0.0759  0.5889 -0.5101
 5741ntf    on529412   3.342   2.624   6.401 -0.1031 -0.2297  0.5247
 5741ntf    fn429413   3.242   2.872   6.240  0.3103  0.2621 -0.5424
 5741ntf    fn429414   3.211   2.876   6.445  0.4674 -0.4430  0.0125
 5741ntf    fn429415   3.367   2.992   6.359  0.5439 -0.3518  0.7435
 5742ntf    cn129416   0.486   1.872   4.969 -0.2240 -0.0998 -0.5287
 5742ntf    sn229417   0.583   1.977   4.857  0.1323  0.2829  0.1328
 5742ntf    nn329418   0.724   1.916   4.891  0.0093  0.0385  0.2060
 5742ntf    sn229419   0.818   1.944   5.013  0.0092  0.1304  0.1852
 5742ntf    cn129420   0.941   2.048   4.928  0.3570 -0.1124  0.3878
 5742ntf    fn429421   0.499   1.896   5.098  0.3862 -0.1411 -0.5769
 5742ntf    fn429422   0.359   1.873   4.933 -0.4020  0.0626  0.1014
 5742ntf    fn429423   0.517   1.743   4.959 -0.1118 -0.1585  0.4919
 5742ntf    on529424   0.531   1.946   4.726 -0.0777  0.1155  0.2540
 5742ntf    on529425   0.559   2.110   4.908 -0.6051  0.2150 -0.0227
 5742ntf    on529426   0.895   1.829   5.053  0.1292  0.0929 -0.1472
 5742ntf    on529427   0.773   2.030   5.120 -0.1847  0.0908  0.1358
 5742ntf    fn429428   1.023   1.975   4.855 -0.3752 -0.4956 -0.0634
 5742ntf    fn429429   0.884   2.124   4.836 -0.0001 -0.5675  0.2307
 5742ntf    fn429430   1.019   2.127   5.000 -0.0004  0.2632  0.3700
 5743ntf    cn129431   2.765   1.048   4.571  0.1366  0.1257 -0.1674
 5743ntf    sn229432   2.620   0.988   4.480 -0.0699  0.3019  0.0447
 5743ntf    nn329433   2.705   0.945   4.356 -0.1537 -0.4192  0.2315
 5743ntf    sn229434   2.657   0.887   4.218  0.3211  0.1095 -0.1645
 5743ntf    cn129435   2.659   1.036   4.114 -0.2456  0.1221 -0.1600
 5743ntf    fn429436   2.823   1.135   4.490 -0.4426  0.6394 -0.0413
 5743ntf    fn429437   2.735   1.108   4.686  0.1508 -0.3455  0.0822
 5743ntf    fn429438   2.860   0.960   4.598  0.0601  0.1351  0.1390
 5743ntf    on529439   2.573   0.886   4.571  0.2540  0.3165  0.2282
 5743ntf    on529440   2.540   1.107   4.464 -0.6536 -0.0605  0.2363
 5743ntf    on529441   2.522   0.837   4.214  0.2536  0.2801 -0.0077
 5743ntf    on529442   2.755   0.799   4.158  0.2877 -0.1713  0.1871
 5743ntf    fn429443   2.572   1.124   4.159  0.1951  0.2604  0.4443
 5743ntf    fn429444   2.778   1.094   4.122 -0.0154 -0.3841  0.1632
 5743ntf    fn429445   2.630   1.019   3.986 -0.4961  0.5992 -0.1690
 5744ntf    cn129446   6.419   6.519   2.654 -0.1509  0.0763  0.0911
 5744ntf    sn229447   6.527   6.477   2.514  0.0330  0.0758  0.2325
 5744ntf    nn329448   6.431   6.415   2.406 -0.2649  0.1445  0.4574
 5744ntf    sn229449   6.379   6.267   2.398  0.2262 -0.0012 -0.1720
 5744ntf    cn129450   6.512   6.195   2.299  0.3483 -0.1363  0.0885
 5744ntf    fn429451   6.419   6.430   2.752  0.2998  0.3544  0.3437
 5744ntf    fn429452   6.439   6.637   2.711  0.0807  0.3099 -0.4676
 5744ntf    fn429453   6.293   6.536   2.619  0.0105 -0.2489 -0.6684
 5744ntf    on529454   6.580   6.604   2.471 -0.3767  0.0702 -0.3003
 5744ntf    on529455   6.623   6.382   2.564  0.2187  0.3095  0.3242
 5744ntf    on529456   6.266   6.238   2.313  0.3558  0.1881 -0.4096
 5744ntf    on529457   6.390   6.192   2.521  0.3968  0.2351 -0.0427
 5744ntf    fn429458   6.472   6.076   2.256  0.0005 -0.0201  0.0954
 5744ntf    fn429459   6.544   6.276   2.198  0.0133  0.1199  0.1884
 5744ntf    fn429460   6.621   6.178   2.372  0.1834 -0.7478  0.1948
 5745ntf    cn129461   6.239   5.015   6.654 -0.0263  0.0733 -0.2316
 5745ntf    sn229462   6.421   5.019   6.652 -0.0256  0.0494 -0.2616
 5745ntf    nn329463   6.455   4.876   6.706 -0.0337  0.4603  0.8627
 5745ntf    sn229464   6.594   4.818   6.750  0.0801  0.0820  0.0292
 5745ntf    cn129465   6.661   4.804   6.581 -0.3127 -0.3287 -0.0949
 5745ntf    fn429466   6.199   4.933   6.559  0.1472 -0.4658  0.1559
 5745ntf    fn429467   6.189   4.978   6.771 -0.1673 -0.1866 -0.3743
 5745ntf    fn429468   6.193   5.135   6.623 -0.3056  0.0376  0.0405
 5745ntf    on529469   6.444   5.036   6.510  0.4374 -0.7478 -0.2868
 5745ntf    on529470   6.469   5.126   6.736  0.1828 -0.2352 -0.0196
 5745ntf    on529471   6.577   4.680   6.789 -0.1956 -0.1204 -0.7850
 5745ntf    on529472   6.675   4.911   6.825 -0.1059  0.0543  0.2658
 5745ntf    fn429473   6.760   4.718   6.566  0.1888  0.3207 -0.5867
 5745ntf    fn429474   6.579   4.768   6.484 -0.3223  0.3797 -0.3545
 5745ntf    fn429475   6.724   4.917   6.552 -0.1850 -0.1489  0.8298
 5746ntf    cn129476   7.308   1.986   4.661  0.2953 -0.3348 -0.3526
 5746ntf    sn229477   7.280   2.060   4.497  0.1224  0.2270 -0.0698
 5746ntf    nn329478   7.428   2.073   4.448  0.2182 -0.4094  0.0433
 5746ntf    sn229479   7.523   1.980   4.364  0.5032  0.0590 -0.1562
 5746ntf    cn129480   7.679   2.026   4.444  0.2842  0.1077  0.2451
 5746ntf    fn429481   7.197   1.980   4.732  0.3188 -0.0287 -0.2888
 5746ntf    fn429482   7.354   1.863   4.645  0.1304 -0.3833 -0.4600
 5746ntf    fn429483   7.390   2.057   4.736 -0.6028  0.0335  0.2941
 5746ntf    on529484   7.201   1.959   4.431 -0.2855  0.6417 -0.2260
 5746ntf    on529485   7.211   2.185   4.519  0.5580  0.5729 -0.6339
 5746ntf    on529486   7.540   2.025   4.228  0.1303 -0.0410 -0.2366
 5746ntf    on529487   7.519   1.837   4.379  0.2420  0.1397  0.5596
 5746ntf    fn429488   7.782   1.947   4.421 -0.0025 -0.4645  0.8924
 5746ntf    fn429489   7.713   2.145   4.397 -0.3169  0.1072 -0.1949
 5746ntf    fn429490   7.682   2.027   4.577 -0.6262  0.0044  0.2710
 5747ntf    cn129491   1.185   5.185   6.000  0.1657  0.2229 -0.0710
 5747ntf    sn229492   1.261   5.349   6.019  0.5099  0.0712 -0.1409
 5747ntf    nn329493   1.195   5.387   6.156  0.2733  0.3411 -0.3297
 5747ntf    sn229494   1.181   5.518   6.242  0.4860  0.2100 -0.0934
 5747ntf    cn129495   1.294   5.490   6.382  0.6634 -0.6081 -0.3920
 5747ntf    fn429496   1.055   5.199   6.024  0.0588 -0.0646 -0.4772
 5747ntf    fn429497   1.203   5.138   5.878 -0.6833 -0.2344 -0.0302
 5747ntf    fn429498   1.233   5.093   6.083 -0.5818 -0.1283 -0.0177
 5747ntf    on529499   1.402   5.317   6.032  0.4193 -0.6001 -0.7432
 5747ntf    on529500   1.217   5.418   5.901  0.1465 -0.3234 -0.2371
 5747ntf    on529501   1.055   5.538   6.308  0.3832  0.2558 -0.3026
 5747ntf    on529502   1.231   5.636   6.175 -0.1074  0.5004 -0.0313
 5747ntf    fn429503   1.422   5.473   6.354  0.7034 -0.4167 -0.3287
 5747ntf    fn429504   1.288   5.582   6.477  0.3154 -0.6216 -0.3989
 5747ntf    fn429505   1.251   5.389   6.454 -0.2357  0.2996  0.3746
 5748ntf    cn129506   1.131   1.068   4.203 -0.4263 -0.1726  0.3077
 5748ntf    sn229507   1.217   1.227   4.217 -0.1671 -0.2785 -0.0764
 5748ntf    nn329508   1.150   1.317   4.107 -0.1347 -0.4665 -0.2493
 5748ntf    sn229509   1.201   1.329   3.959  0.1425 -0.0258 -0.1222
 5748ntf    cn129510   1.040   1.355   3.878 -0.0589  0.4479  0.4247
 5748ntf    fn429511   1.085   1.029   4.321 -0.3487 -0.6581  0.1780
 5748ntf    fn429512   1.025   1.077   4.124 -0.0654 -0.0195 -0.1647
 5748ntf    fn429513   1.200   0.962   4.168 -0.3681  0.1301 -0.5071
 5748ntf    on529514   1.172   1.274   4.346  0.5796  0.2733 -0.0030
 5748ntf    on529515   1.354   1.182   4.203 -0.1314 -0.1982  0.0076
 5748ntf    on529516   1.249   1.206   3.901  0.0456 -0.1486  0.0576
 5748ntf    on529517   1.267   1.455   3.939  0.4593 -0.2095 -0.2393
 5748ntf    fn429518   1.047   1.389   3.751  0.1952 -0.3233  0.2227
 5748ntf    fn429519   0.963   1.248   3.887  0.2722  0.1782  0.0962
 5748ntf    fn429520   0.973   1.458   3.927 -0.0391  0.6869 -0.0414
 5749ntf    cn129521   6.307   0.446   0.903 -0.1069 -0.8014  0.4300
 5749ntf    sn229522   6.414   0.310   0.848  0.1809 -0.3516 -0.1459
 5749ntf    nn329523   6.330   0.188   0.901 -0.4003  0.0736 -0.0835
 5749ntf    sn229524   6.336   0.115   1.039 -0.0709  0.4060  0.0794
 5749ntf    cn129525   6.202   0.194   1.134 -0.4419 -0.2904  0.1401
 5749ntf    fn429526   6.318   0.561   0.837 -0.3322 -0.9953  0.0504
 5749ntf    fn429527   6.179   0.417   0.888 -0.1970 -0.0765 -0.3090
 5749ntf    fn429528   6.332   0.483   1.027 -0.3205  0.4829  0.1155
 5749ntf    on529529   6.424   0.327   0.705 -0.7244  0.8220 -0.0825
 5749ntf    on529530   6.533   0.337   0.925  0.0071  0.1815 -0.0573
 5749ntf    on529531   6.459   0.120   1.114 -0.0079 -0.3116  0.0295
 5749ntf    on529532   6.291  -0.021   1.027  0.4976  0.2025  0.2135
 5749ntf    fn429533   6.157   0.118   1.234  0.7279 -0.3807  0.6184
 5749ntf    fn429534   6.258   0.298   1.195 -0.6825 -0.2713  0.3295
 5749ntf    fn429535   6.109   0.241   1.053 -0.0105  0.3243 -0.0054
 5750ntf    cn129536   4.930   6.480   5.129  0.6160 -0.4133 -0.0751
 5750ntf    sn229537   4.824   6.427   5.267  0.2470  0.0327 -0.1898
 5750ntf    nn329538   4.898   6.297   5.313  0.0624  0.0082  0.0422
 5750ntf    sn229539   4.885   6.213   5.445  0.0678  0.0124  0.0448
 5750ntf    cn129540   5.046   6.243   5.525  0.0346 -0.0241  0.1245
 5750ntf    fn429541   5.054   6.508   5.165  0.3677  0.7611 -0.1198
 5750ntf    fn429542   4.930   6.394   5.028 -0.1846 -0.5663  0.0472
 5750ntf    fn429543   4.877   6.589   5.077  0.1975 -0.2998  0.5757
 5750ntf    on529544   4.825   6.544   5.351 -0.7285  0.1092 -0.2701
 5750ntf    on529545   4.696   6.405   5.203 -0.1288 -0.0547  0.5770
 5750ntf    on529546   4.885   6.072   5.416  0.0382 -0.0159  0.1827
 5750ntf    on529547   4.782   6.255   5.536  0.1476 -0.4782  0.3630
 5750ntf    fn429548   5.053   6.367   5.571  0.2387  0.0858 -0.2034
 5750ntf    fn429549   5.070   6.163   5.628 -0.3827 -0.4644 -0.1162
 5750ntf    fn429550   5.143   6.215   5.439  0.0518  0.2680  0.0474
 5751ntf    cn129551   6.883   5.125   0.851  0.2965 -0.7664 -0.0423
 5751ntf    sn229552   7.038   5.201   0.794 -0.0393  0.0631  0.1255
 5751ntf    nn329553   7.135   5.118   0.886 -0.8518 -0.9250  0.1140
 5751ntf    sn229554   7.243   5.012   0.845  0.0909  0.0869 -0.0785
 5751ntf    cn129555   7.393   5.113   0.857 -0.0454  0.2182  0.5545
 5751ntf    fn429556   6.899   4.995   0.838 -0.3516 -0.8257 -0.3055
 5751ntf    fn429557   6.862   5.158   0.978 -0.1816 -0.0933 -0.2875
 5751ntf    fn429558   6.769   5.156   0.791  0.1487 -0.2253  0.4981
 5751ntf    on529559   7.050   5.178   0.652 -0.1073  0.1198  0.1106
 5751ntf    on529560   7.029   5.339   0.833  0.1764  0.1216 -0.0263
 5751ntf    on529561   7.240   4.961   0.710 -0.1169 -0.5072  0.1478
 5751ntf    on529562   7.256   4.910   0.946 -0.4327  0.4804  0.3998
 5751ntf    fn429563   7.506   5.048   0.834 -0.3269  0.0109 -0.2500
 5751ntf    fn429564   7.391   5.216   0.775 -0.7300 -0.3123 -0.1074
 5751ntf    fn429565   7.401   5.158   0.981  0.6737  0.0556  0.5721
 5752ntf    cn129566   7.292   7.152   0.664 -0.1354  0.4086  0.2426
 5752ntf    sn229567   7.210   7.167   0.502  0.1308 -0.0669  0.0608
 5752ntf    nn329568   7.301   7.267   0.422  0.0090  0.1031  0.1340
 5752ntf    sn229569   7.440   7.231   0.359  0.1295  0.0155  0.4465
 5752ntf    cn129570   7.401   7.255   0.183  0.5774 -0.3320  0.2995
 5752ntf    fn429571   7.246   7.043   0.723 -0.4966  0.5259  0.1781
 5752ntf    fn429572   7.423   7.136   0.657 -0.1914  0.1020 -0.1612
 5752ntf    fn429573   7.281   7.253   0.749 -0.4458 -0.1517  0.8839
 5752ntf    on529574   7.195   7.032   0.455  0.1578 -0.2250  0.4968
 5752ntf    on529575   7.092   7.242   0.536  0.1812 -0.2334  0.6274
 5752ntf    on529576   7.484   7.094   0.368 -0.0185 -0.0698 -0.0869
 5752ntf    on529577   7.537   7.336   0.377  0.1866  0.0432 -0.0010
 5752ntf    fn429578   7.507   7.238   0.105  0.5467  0.2557  0.1284
 5752ntf    fn429579   7.300   7.176   0.150  0.5240 -0.1430  0.0109
 5752ntf    fn429580   7.356   7.376   0.159  0.3764 -0.3781  0.4444
 5753ntf    cn129581   2.289   1.044   7.312 -0.1626  0.0809  0.0234
 5753ntf    sn229582   2.367   1.203   7.355 -0.1030  0.1244 -0.2436
 5753ntf    nn329583   2.366   1.199   7.512  0.2825  0.2623 -0.2393
 5753ntf    sn229584   2.419   1.306   7.614  0.1032  0.0559  0.0719
 5753ntf    cn129585   2.562   1.219   7.685  0.1452  0.0544 -0.0147
 5753ntf    fn429586   2.158   1.051   7.329 -0.1669  0.2871 -0.0870
 5753ntf    fn429587   2.309   1.011   7.185 -0.1446  0.2128 -0.0083
 5753ntf    fn429588   2.346   0.947   7.382 -0.5095 -0.1218  0.0307
 5753ntf    on529589   2.499   1.178   7.305 -0.1518 -0.3016 -0.1652
 5753ntf    on529590   2.279   1.304   7.301 -0.2619 -0.0169 -0.2541
 5753ntf    on529591   2.332   1.327   7.727  0.2212  0.6286  0.0605
 5753ntf    on529592   2.471   1.424   7.548  0.2074  0.0033  0.0592
 5753ntf    fn429593   2.524   1.123   7.767  0.5778 -0.3359 -0.2613
 5753ntf    fn429594   2.641   1.167   7.592  0.1666  0.1806 -0.0681
 5753ntf    fn429595   2.637   1.301   7.757 -0.0253 -0.0427  0.2743
 5754ntf    cn129596   0.318   5.338   4.128  0.3130 -0.2273 -0.1920
 5754ntf    sn229597   0.227   5.495   4.108 -0.0549 -0.4361 -0.1596
 5754ntf    nn329598   0.210   5.525   4.261  0.3792  0.2926 -0.2507
 5754ntf    sn229599   0.277   5.634   4.352  0.1948 -0.0647  0.3162
 5754ntf    cn129600   0.181   5.776   4.293  0.2273 -0.1109  0.1504
 5754ntf    fn429601   0.445   5.358   4.160  0.0645  0.8242  0.1766
 5754ntf    fn429602   0.274   5.252   4.218  0.4107  0.0591  0.1308
 5754ntf    fn429603   0.321   5.273   4.013 -0.2180 -0.0555 -0.3029
 5754ntf    on529604   0.310   5.585   4.031 -0.2892  0.0475  0.1505
 5754ntf    on529605   0.111   5.441   4.041 -0.1319  0.5179 -0.8177
 5754ntf    on529606   0.413   5.665   4.314 -0.0274  0.1112 -0.3567
 5754ntf    on529607   0.242   5.630   4.492 -0.5560 -0.0746  0.1335
 5754ntf    fn429608   0.194   5.875   4.380 -0.1893 -0.1157  0.2219
 5754ntf    fn429609   0.207   5.826   4.173 -0.0626  0.4330  0.3069
 5754ntf    fn429610   0.052   5.745   4.301  0.0038  0.7321  0.0049
 5755ntf    cn129611   3.920   2.468   7.081  0.1875 -0.3662  0.0973
 5755ntf    sn229612   3.814   2.530   7.215  0.1289 -0.3342  0.0359
 5755ntf    nn329613   3.716   2.611   7.122 -0.0307 -0.0585  0.4431
 5755ntf    sn229614   3.561   2.614   7.141 -0.0844  0.4121 -0.0436
 5755ntf    cn129615   3.517   2.776   7.071 -0.4688  0.4374  0.2512
 5755ntf    fn429616   4.030   2.407   7.124  0.2012 -0.1252  0.4068
 5755ntf    fn429617   3.850   2.383   7.007  0.0168 -0.0466 -0.1069
 5755ntf    fn429618   3.966   2.559   6.996 -0.6058 -0.1728 -0.1290
 5755ntf    on529619   3.763   2.408   7.272  0.1445 -0.1831  0.3721
 5755ntf    on529620   3.902   2.621   7.284  0.2328 -0.4856  0.1036
 5755ntf    on529621   3.520   2.625   7.279  0.1907  0.6394  0.0198
 5755ntf    on529622   3.490   2.523   7.055 -0.2340  0.1361  0.3673
 5755ntf    fn429623   3.529   2.787   6.940  0.3268  0.7300  0.3490
 5755ntf    fn429624   3.390   2.808   7.090 -0.6437 -0.2979  0.3720
 5755ntf    fn429625   3.588   2.874   7.123 -0.0939 -0.0363  0.6413
 5756ntf    cn129626   3.402   7.164   0.169 -0.0480  0.0770 -0.2342
 5756ntf    sn229627   3.566   7.187   0.094 -0.1070  0.3295 -0.2885
 5756ntf    nn329628   3.652   7.221   0.221 -0.7288 -0.4930  0.3712
 5756ntf    sn229629   3.671   7.350   0.308  0.3256 -0.3928  0.0171
 5756ntf    cn129630   3.653   7.270   0.470  0.1854  0.0351  0.2154
 5756ntf    fn429631   3.309   7.154   0.075 -0.2520 -0.0653 -0.0157
 5756ntf    fn429632   3.391   7.054   0.241  0.0171  0.2345  0.0174
 5756ntf    fn429633   3.363   7.271   0.236 -0.0982 -0.5020  0.6654
 5756ntf    on529634   3.595   7.054   0.044  0.5290  0.1345  0.5592
 5756ntf    on529635   3.560   7.288  -0.008  0.3698 -0.0263 -0.6798
 5756ntf    on529636   3.559   7.441   0.299  0.1866 -0.5394  0.2493
 5756ntf    on529637   3.803   7.408   0.304  0.2222 -0.0833  0.8633
 5756ntf    fn429638   3.751   7.187   0.502  0.3232 -0.0666 -0.4618
 5756ntf    fn429639   3.655   7.360   0.568 -0.0345  0.2443  0.0277
 5756ntf    fn429640   3.539   7.205   0.488  0.1908 -0.0672 -0.1318
 5757ntf    cn129641   0.147   0.428   7.358  0.3743  0.4502 -0.0839
 5757ntf    sn229642   0.045   0.450   7.209  0.0462 -0.0025  0.0704
 5757ntf    nn329643  -0.087   0.378   7.251  0.1714 -0.1291  0.2431
 5757ntf    sn229644  -0.180   0.268   7.188  0.0899 -0.0273  0.1865
 5757ntf    cn129645  -0.122   0.137   7.299  0.2109 -0.0109  0.1430
 5757ntf    fn429646   0.098   0.494   7.462 -0.3140 -0.0467 -0.0816
 5757ntf    fn429647   0.151   0.303   7.400  0.6140  0.3298 -0.4619
 5757ntf    fn429648   0.270   0.472   7.338  0.5924 -0.0298  0.1860
 5757ntf    on529649   0.024   0.593   7.210 -0.2005 -0.0405  0.3353
 5757ntf    on529650   0.111   0.391   7.095  0.5574  0.3333  0.1840
 5757ntf    on529651  -0.164   0.229   7.050  0.3857  0.4202  0.0895
 5757ntf    on529652  -0.315   0.287   7.236  0.1537 -0.6345  0.6168
 5757ntf    fn429653  -0.201   0.031   7.294 -0.0513  0.2115 -0.5712
 5757ntf    fn429654   0.001   0.107   7.260 -0.0682 -0.7533 -0.1772
 5757ntf    fn429655  -0.111   0.168   7.427 -0.4579 -0.1880  0.2439
 5758ntf    cn129656   1.440   7.386   4.838 -0.1373  0.1176 -0.3120
 5758ntf    sn229657   1.502   7.306   4.687  0.2307  0.0831 -0.1444
 5758ntf    nn329658   1.390   7.359   4.590 -0.0977 -0.2539  0.0488
 5758ntf    sn229659   1.396   7.411   4.442  0.1584 -0.3997  0.0075
 5758ntf    cn129660   1.446   7.584   4.466 -0.0645 -0.3396  0.0337
 5758ntf    fn429661   1.327   7.327   4.875 -0.2318  0.2383 -0.4077
 5758ntf    fn429662   1.515   7.384   4.947 -0.1508 -0.8003 -0.3107
 5758ntf    fn429663   1.409   7.512   4.813 -0.4019  0.2068  0.4341
 5758ntf    on529664   1.635   7.358   4.668  0.2786  0.0696  0.1453
 5758ntf    on529665   1.490   7.169   4.729 -0.4534  0.2751  0.3086
 5758ntf    on529666   1.261   7.422   4.393  0.0438 -0.2199  0.3608
 5758ntf    on529667   1.491   7.341   4.359  0.1622 -0.6051  0.1821
 5758ntf    fn429668   1.430   7.664   4.362 -0.4195  0.2441  0.5285
 5758ntf    fn429669   1.373   7.633   4.565  0.2798 -0.1545  0.1944
 5758ntf    fn429670   1.573   7.588   4.502 -0.0984  0.1163  0.1090
 5759ntf    cn129671   2.373   5.769   7.549 -0.2820  0.1865 -0.2898
 5759ntf    sn229672   2.526   5.836   7.478 -0.0871 -0.0698 -0.1154
 5759ntf    nn329673   2.498   5.783   7.333 -0.2431 -0.3767  0.0260
 5759ntf    sn229674   2.517   5.857   7.196  0.3240 -0.0916  0.2589
 5759ntf    cn129675   2.344   5.861   7.143  0.4993 -0.1825 -0.3272
 5759ntf    fn429676   2.360   5.638   7.535  0.3113  0.1457 -0.4526
 5759ntf    fn429677   2.358   5.801   7.677 -0.3316 -0.0215 -0.2427
 5759ntf    fn429678   2.265   5.817   7.490 -0.5231 -0.0144 -0.0223
 5759ntf    on529679   2.518   5.979   7.494 -0.1986 -0.0597 -0.2503
 5759ntf    on529680   2.636   5.771   7.544  0.0680  0.0283 -0.2767
 5759ntf    on529681   2.585   5.779   7.095  0.2500 -0.1375  0.2449
 5759ntf    on529682   2.543   5.999   7.195 -0.3843  0.0370  0.2714
 5759ntf    fn429683   2.323   5.952   7.050  0.1220  0.1435  0.0729
 5759ntf    fn429684   2.305   5.745   7.091 -0.2273  0.1752 -0.6016
 5759ntf    fn429685   2.266   5.882   7.247  0.4359 -0.2540 -0.3596
 5760ntf    cn129686   4.267   5.094   6.084 -0.3921  0.0695 -0.1461
 5760ntf    sn229687   4.360   4.953   6.017 -0.1856  0.0526  0.1710
 5760ntf    nn329688   4.283   4.927   5.882  0.5273 -0.2291 -0.1846
 5760ntf    sn229689   4.343   4.929   5.737  0.4456 -0.1290 -0.2163
 5760ntf    cn129690   4.210   4.838   5.652 -0.1935  0.1851  0.4340
 5760ntf    fn429691   4.276   5.205   6.013  0.1666  0.3105  0.2928
 5760ntf    fn429692   4.137   5.072   6.076 -0.4407  0.5728 -0.8463
 5760ntf    fn429693   4.299   5.133   6.207 -0.2116 -0.2875 -0.0793
 5760ntf    on529694   4.495   5.002   6.020 -0.0610 -0.3201  0.6465
 5760ntf    on529695   4.330   4.851   6.114 -1.0036  0.2072  0.0925
 5760ntf    on529696   4.460   4.846   5.728 -0.2073 -1.0540 -0.3091
 5760ntf    on529697   4.339   5.062   5.680 -0.0350 -0.2215 -0.4056
 5760ntf    fn429698   4.197   4.713   5.691  0.3064  0.0162  0.0784
 5760ntf    fn429699   4.088   4.886   5.668 -0.2717  0.1300  0.0124
 5760ntf    fn429700   4.224   4.836   5.520  0.5750 -0.3215  0.5177
 5761ntf    cn129701   5.353   3.887   2.364  0.0193 -0.2601 -0.1866
 5761ntf    sn229702   5.189   3.874   2.287 -0.1209  0.2463  0.0240
 5761ntf    nn329703   5.166   4.024   2.246  0.6989  0.4076  0.1375
 5761ntf    sn229704   5.124   4.140   2.344  0.0793  0.3434 -0.0475
 5761ntf    cn129705   4.951   4.175   2.300 -0.0667 -0.1798  0.0945
 5761ntf    fn429706   5.431   3.952   2.280 -0.0885 -0.0080 -0.0922
 5761ntf    fn429707   5.356   3.952   2.479 -0.4293 -0.1976 -0.2074
 5761ntf    fn429708   5.407   3.771   2.398 -0.1366 -0.2791 -0.0014
 5761ntf    on529709   5.210   3.783   2.177 -0.0025  0.5598 -0.2152
 5761ntf    on529710   5.100   3.821   2.387  0.3025  0.0180  0.2814
 5761ntf    on529711   5.191   4.264   2.316  0.5353  0.1677  0.2653
 5761ntf    on529712   5.125   4.105   2.483 -0.0281  0.0544 -0.1178
 5761ntf    fn429713   4.898   4.278   2.365  0.2645 -0.1031  0.2495
 5761ntf    fn429714   4.942   4.190   2.169 -0.3556  0.0534  0.1395
 5761ntf    fn429715   4.875   4.072   2.331 -0.3058  0.1049  0.4605
 5762ntf    cn129716   1.193   5.342   3.948  0.4672  0.1363  0.0225
 5762ntf    sn229717   1.250   5.500   4.016 -0.0543  0.0850  0.5809
 5762ntf    nn329718   1.402   5.472   4.045  0.0128 -0.2858 -0.1317
 5762ntf    sn229719   1.535   5.553   4.026  0.0245 -0.1390  0.5758
 5762ntf    cn129720   1.593   5.474   3.873 -0.2081  0.4752  0.1661
 5762ntf    fn429721   1.206   5.244   4.036  0.1772  0.3256  0.2773
 5762ntf    fn429722   1.065   5.343   3.914  0.3276 -1.0107  0.4752
 5762ntf    fn429723   1.271   5.304   3.847  0.5812 -0.0389  0.1753
 5762ntf    on529724   1.238   5.589   3.904  0.4895 -0.2761  0.2360
 5762ntf    on529725   1.165   5.512   4.132  0.2415 -0.0890  0.8178
 5762ntf    on529726   1.636   5.526   4.126  0.5593 -0.0462  0.0635
 5762ntf    on529727   1.517   5.688   3.980  0.5900 -0.1057  0.4431
 5762ntf    fn429728   1.501   5.492   3.780 -0.1671  0.5157  0.1339
 5762ntf    fn429729   1.707   5.523   3.827 -0.1353 -0.1412 -0.3199
 5762ntf    fn429730   1.604   5.343   3.889 -0.4168  0.4465  0.0815
 5763ntf    cn129731   1.619   6.694   5.313 -0.1396 -0.1559 -0.1246
 5763ntf    sn229732   1.750   6.652   5.194  0.0533  0.1296 -0.0131
 5763ntf    nn329733   1.876   6.722   5.257  0.1160  0.0912 -0.0956
 5763ntf    sn229734   1.989   6.658   5.345  0.1673  0.0265 -0.2105
 5763ntf    cn129735   2.064   6.807   5.417  0.1800  0.0010 -0.1711
 5763ntf    fn429736   1.509   6.623   5.300 -0.2864  0.1150 -0.3499
 5763ntf    fn429737   1.666   6.672   5.435 -0.0614  0.0939 -0.1102
 5763ntf    fn429738   1.590   6.823   5.311  0.3923 -0.0323 -0.2103
 5763ntf    on529739   1.755   6.508   5.189 -1.0557  0.0655  0.4194
 5763ntf    on529740   1.704   6.720   5.075 -0.2508  0.1736  0.1276
 5763ntf    on529741   2.093   6.599   5.264  0.1505 -0.4562  0.1136
 5763ntf    on529742   1.942   6.591   5.463 -0.2712  0.1954 -0.2887
 5763ntf    fn429743   1.993   6.855   5.517  0.0064 -0.1532 -0.2202
 5763ntf    fn429744   2.188   6.792   5.461  0.0927  0.1895  0.1353
 5763ntf    fn429745   2.078   6.897   5.321  0.2779  0.1721  0.0031
 5764ntf    cn129746   6.054   1.411   4.989  0.1400 -0.2915  0.0719
 5764ntf    sn229747   5.993   1.316   4.846 -0.0164  0.0036 -0.0575
 5764ntf    nn329748   5.850   1.379   4.831 -0.1536 -0.4160 -0.5209
 5764ntf    sn229749   5.710   1.315   4.860 -0.0335 -0.3100  0.2998
 5764ntf    cn129750   5.606   1.404   4.741 -0.0395 -0.3727  0.2587
 5764ntf    fn429751   6.053   1.540   4.963 -0.3481 -0.3991 -0.4514
 5764ntf    fn429752   5.981   1.386   5.097 -0.0192 -0.3139 -0.0410
 5764ntf    fn429753   6.176   1.378   5.029  0.2650  0.2441  0.1392
 5764ntf    on529754   6.083   1.344   4.738  0.7650 -1.0381  0.3065
 5764ntf    on529755   5.995   1.182   4.900  0.2030  0.0263 -0.0073
 5764ntf    on529756   5.654   1.353   4.988  0.1508  1.0297 -0.0038
 5764ntf    on529757   5.686   1.179   4.818 -0.6297 -0.0565 -0.1922
 5764ntf    fn429758   5.611   1.536   4.750  0.3281 -0.3341 -0.5126
 5764ntf    fn429759   5.646   1.383   4.617 -0.0322  0.5573  0.0965
 5764ntf    fn429760   5.476   1.378   4.750 -0.2423  0.3772 -0.4032
 5765ntf    cn129761   1.491   0.926   5.161 -0.3150 -0.0928  0.3244
 5765ntf    sn229762   1.337   1.017   5.194 -0.2849  0.0966 -0.0584
 5765ntf    nn329763   1.311   1.099   5.062  0.1066 -0.1301 -0.2763
 5765ntf    sn229764   1.169   1.133   5.004  0.0476 -0.1284 -0.1301
 5765ntf    cn129765   1.212   1.296   4.937 -0.0811  0.0474  0.2100
 5765ntf    fn429766   1.509   0.828   5.248 -0.5375 -0.3856  0.0443
 5765ntf    fn429767   1.483   0.873   5.041 -0.1722  0.6069  0.0032
 5765ntf    fn429768   1.601   0.999   5.159 -0.2869 -0.1374  0.2545
 5765ntf    on529769   1.237   0.916   5.219  0.1165 -0.2891  0.0030
 5765ntf    on529770   1.371   1.100   5.307 -0.1629  0.1349 -0.1237
 5765ntf    on529771   1.070   1.168   5.103  0.3632 -0.0430  0.1616
 5765ntf    on529772   1.140   1.060   4.883 -0.0021 -0.6360  0.1826
 5765ntf    fn429773   1.278   1.360   5.032  0.1926 -0.1143  0.1295
 5765ntf    fn429774   1.300   1.292   4.838  0.0606 -0.2337  0.3453
 5765ntf    fn429775   1.113   1.377   4.905  0.0165  0.0995  0.0354
 5766ntf    cn129776   0.668   1.064   4.486 -0.1250 -0.4984 -0.1196
 5766ntf    sn229777   0.497   1.120   4.517  0.0580  0.1487 -0.2528
 5766ntf    nn329778   0.421   1.036   4.409 -0.0726  0.0005 -0.0476
 5766ntf    sn229779   0.336   0.904   4.416  0.1416 -0.1492 -0.2208
 5766ntf    cn129780   0.461   0.782   4.367 -0.1873 -0.4306 -0.3652
 5766ntf    fn429781   0.755   1.137   4.554 -0.1484 -0.3275 -0.2707
 5766ntf    fn429782   0.689   0.935   4.501  0.1644 -0.3989  0.3354
 5766ntf    fn429783   0.700   1.094   4.361  0.6492  0.1683  0.2290
 5766ntf    on529784   0.466   1.095   4.656 -0.5731  0.2344 -0.3793
 5766ntf    on529785   0.502   1.259   4.480 -0.5632  0.2725  0.1322
 5766ntf    on529786   0.232   0.888   4.317 -0.3276  0.5101  0.1535
 5766ntf    on529787   0.319   0.852   4.549  0.8127  0.8338  0.2654
 5766ntf    fn429788   0.557   0.754   4.453 -0.2778  0.3546 -0.0030
 5766ntf    fn429789   0.403   0.667   4.336 -0.4026 -0.3535 -0.2480
 5766ntf    fn429790   0.528   0.819   4.258 -0.0930  0.4740 -0.0084
 5767ntf    cn129791   5.154   0.857   1.274  0.1332  0.1699  0.3279
 5767ntf    sn229792   5.287   0.931   1.174  0.0809  0.0488  0.1706
 5767ntf    nn329793   5.344   0.804   1.100  0.3725  0.1673  0.1926
 5767ntf    sn229794   5.326   0.754   0.952  0.1685  0.5355  0.0894
 5767ntf    cn129795   5.475   0.651   0.936 -0.0142  0.3162 -0.2001
 5767ntf    fn429796   5.195   0.745   1.332 -0.4890 -0.0459  0.3562
 5767ntf    fn429797   5.116   0.941   1.369  1.2509  0.2694  0.7122
 5767ntf    fn429798   5.050   0.835   1.197  0.4899  0.1106 -0.1422
 5767ntf    on529799   5.205   1.026   1.102  0.5701  0.0544 -0.3845
 5767ntf    on529800   5.388   0.977   1.265 -0.0810  0.6774  0.0377
 5767ntf    on529801   5.346   0.852   0.848  0.4347 -0.4591 -0.8112
 5767ntf    on529802   5.219   0.658   0.938  0.1230  0.5765  0.1543
 5767ntf    fn429803   5.585   0.723   0.952 -0.3272  0.7097  0.2109
 5767ntf    fn429804   5.488   0.551   1.021  0.5607  0.1693 -0.4519
 5767ntf    fn429805   5.485   0.589   0.819  0.2290  0.2292 -0.1337
 5768ntf    cn129806   4.657   2.581   2.571  0.0666 -0.0642  0.3708
 5768ntf    sn229807   4.687   2.686   2.426 -0.5083 -0.3384  0.0479
 5768ntf    nn329808   4.802   2.602   2.358 -0.4139  0.3879 -0.6980
 5768ntf    sn229809   4.944   2.651   2.312 -0.1489  0.1918 -0.0933
 5768ntf    cn129810   4.913   2.709   2.143 -0.7391  0.1678  0.0059
 5768ntf    fn429811   4.753   2.577   2.662 -0.0102  0.0518  0.4572
 5768ntf    fn429812   4.549   2.610   2.641  0.4182  0.3002  0.7629
 5768ntf    fn429813   4.637   2.456   2.530 -0.0484  0.1372 -0.1889
 5768ntf    on529814   4.564   2.680   2.351 -0.3244 -0.1871 -0.2673
 5768ntf    on529815   4.715   2.817   2.480 -0.2611 -0.2676 -0.2456
 5768ntf    on529816   5.034   2.541   2.285 -0.1908 -0.1573  1.1037
 5768ntf    on529817   4.986   2.767   2.386 -0.0210  0.3307 -0.3830
 5768ntf    fn429818   5.022   2.742   2.076 -0.2318  0.2659  0.8656
 5768ntf    fn429819   4.855   2.611   2.074  0.3471 -0.3486 -0.1957
 5768ntf    fn429820   4.824   2.807   2.138 -0.5868  0.3038 -0.0252
 5769ntf    cn129821   2.377   6.346   1.196  0.3268  0.1242  0.0736
 5769ntf    sn229822   2.461   6.184   1.193  0.0914 -0.0053  0.4692
 5769ntf    nn329823   2.559   6.213   1.312  0.3082 -0.1897  0.3360
 5769ntf    sn229824   2.689   6.134   1.349  0.4679  0.0915  0.3751
 5769ntf    cn129825   2.670   6.148   1.530  0.0532 -0.0038  0.3395
 5769ntf    fn429826   2.449   6.448   1.239  0.5538 -0.3053  0.7168
 5769ntf    fn429827   2.335   6.384   1.076 -0.3226 -0.3761  0.1364
 5769ntf    fn429828   2.270   6.340   1.274  0.3999  0.0779  0.1712
 5769ntf    on529829   2.356   6.090   1.223  0.3675 -0.4295  0.1092
 5769ntf    on529830   2.525   6.185   1.064  0.1640  0.2854  0.5079
 5769ntf    on529831   2.817   6.198   1.330  0.1802  0.6174  0.1943
 5769ntf    on529832   2.674   5.996   1.310  0.1157  0.3466 -0.4014
 5769ntf    fn429833   2.596   6.048   1.573 -0.0264  0.0034  0.2220
 5769ntf    fn429834   2.788   6.153   1.591  0.2302 -0.1613  0.0155
 5769ntf    fn429835   2.603   6.256   1.565 -0.0255  0.0347  0.0752
 5770ntf    cn129836   6.492   4.164   3.114  0.0124 -0.1406  0.0805
 5770ntf    sn229837   6.563   4.066   3.249  0.1760  0.0088  0.1038
 5770ntf    nn329838   6.506   3.921   3.229  0.2606 -0.0510  0.2972
 5770ntf    sn229839   6.588   3.799   3.174  0.2635 -0.0514  0.3028
 5770ntf    cn129840   6.445   3.688   3.162  0.1337  0.1931 -0.4947
 5770ntf    fn429841   6.554   4.143   2.999  0.1725  0.7896 -0.0115
 5770ntf    fn429842   6.368   4.133   3.080 -0.0773  0.3160 -0.0151
 5770ntf    fn429843   6.495   4.296   3.129  0.6235 -0.1308 -0.1091
 5770ntf    on529844   6.703   4.084   3.218  0.2332  0.2330  0.4879
 5770ntf    on529845   6.506   4.126   3.367  0.0327 -0.6996  0.3987
 5770ntf    on529846   6.669   3.714   3.258 -0.0729 -0.2796  0.3954
 5770ntf    on529847   6.623   3.808   3.034  0.1476  0.5552  0.3093
 5770ntf    fn429848   6.375   3.676   3.274  0.6492 -0.2018 -0.2105
 5770ntf    fn429849   6.362   3.722   3.065 -0.5603 -0.1842 -0.0449
 5770ntf    fn429850   6.490   3.568   3.129  0.0173 -0.1270  0.4788
 5771ntf    cn129851   5.599   6.509   5.489 -0.1876 -0.1559  0.1886
 5771ntf    sn229852   5.516   6.651   5.566 -0.3785 -0.1209 -0.0800
 5771ntf    nn329853   5.592   6.657   5.703 -0.0289 -0.0840 -0.2756
 5771ntf    sn229854   5.551   6.580   5.834  0.1381  0.1018 -0.1117
 5771ntf    cn129855   5.681   6.650   5.940  0.0975  0.1008 -0.0609
 5771ntf    fn429856   5.626   6.408   5.570 -0.4922 -0.2635  0.1545
 5771ntf    fn429857   5.531   6.460   5.387  0.3230  0.0254 -0.2454
 5771ntf    fn429858   5.717   6.546   5.442 -0.1261  0.0524  0.4984
 5771ntf    on529859   5.541   6.760   5.475  0.1402 -0.0807  0.1072
 5771ntf    on529860   5.380   6.604   5.571 -0.3368 -0.2610 -0.2470
 5771ntf    on529861   5.585   6.440   5.830 -0.1226  0.0405 -0.2331
 5771ntf    on529862   5.440   6.633   5.909  0.0694 -0.0086 -0.1345
 5771ntf    fn429863   5.800   6.612   5.897  0.3651  0.5160  0.3128
 5771ntf    fn429864   5.694   6.781   5.939 -0.2974  0.1423  0.0518
 5771ntf    fn429865   5.670   6.606   6.064 -0.0066 -0.0666 -0.1286
 5772ntf    cn129866   5.220   7.111   4.649 -0.5415  0.1298 -0.3982
 5772ntf    sn229867   5.068   7.136   4.745 -0.2521  0.0672  0.0814
 5772ntf    nn329868   4.974   7.065   4.640 -0.0609  0.0682 -0.0917
 5772ntf    sn229869   4.868   7.124   4.540 -0.0279  0.4006  0.0676
 5772ntf    cn129870   4.730   7.171   4.649 -0.2411 -0.1734  0.0502
 5772ntf    fn429871   5.259   6.985   4.640 -0.2575  0.2093 -0.2864
 5772ntf    fn429872   5.209   7.154   4.524 -0.0843  0.2768 -0.3895
 5772ntf    fn429873   5.328   7.174   4.692 -0.3292 -0.3905 -0.1629
 5772ntf    on529874   5.081   7.051   4.860 -0.2557 -0.8020 -0.5464
 5772ntf    on529875   5.051   7.278   4.758 -0.6840 -0.0239  0.5326
 5772ntf    on529876   4.814   7.024   4.452 -0.6372 -0.1263  1.0291
 5772ntf    on529877   4.905   7.246   4.473 -0.1496  0.6722  0.4881
 5772ntf    fn429878   4.780   7.234   4.755  0.2429 -0.3119 -0.0939
 5772ntf    fn429879   4.642   7.260   4.607  0.1445  0.1927  0.0111
 5772ntf    fn429880   4.663   7.063   4.684 -0.3925 -0.0241  0.2269
 5773ntf    cn129881   1.291   0.281   3.197 -0.3944  0.1680  0.1235
 5773ntf    sn229882   1.470   0.251   3.191 -0.3623  0.3692  0.0637
 5773ntf    nn329883   1.501   0.273   3.343 -0.4845 -0.0756  0.1536
 5773ntf    sn229884   1.590   0.194   3.446  0.2911  0.4850 -0.0722
 5773ntf    cn129885   1.729   0.310   3.460  0.3193  0.4657 -0.1914
 5773ntf    fn429886   1.245   0.220   3.305  0.5249  0.5026  0.7183
 5773ntf    fn429887   1.260   0.409   3.214 -0.3461  0.2929 -0.7229
 5773ntf    fn429888   1.226   0.245   3.088  0.0394 -0.0242 -0.0713
 5773ntf    on529889   1.476   0.115   3.143  0.1743  0.1988  0.6028
 5773ntf    on529890   1.525   0.356   3.109  0.4443  0.0916  0.2437
 5773ntf    on529891   1.653   0.073   3.399 -0.4288  0.1075 -0.0779
 5773ntf    on529892   1.529   0.193   3.576  0.0696 -0.6012 -0.1765
 5773ntf    fn429893   1.690   0.436   3.459  0.5881  0.5505 -0.1601
 5773ntf    fn429894   1.812   0.288   3.561 -0.7200 -0.2860  0.5281
 5773ntf    fn429895   1.798   0.307   3.347 -0.0392  0.2857 -0.4054
 5774ntf    cn129896   5.562   6.408   1.127 -0.3400 -0.3083  0.0995
 5774ntf    sn229897   5.599   6.452   1.299 -0.5038 -0.0050  0.0584
 5774ntf    nn329898   5.460   6.407   1.355 -0.7642 -0.1052 -0.6559
 5774ntf    sn229899   5.424   6.263   1.406 -0.2590 -0.2334 -0.6611
 5774ntf    cn129900   5.499   6.271   1.571 -0.2661 -0.1934 -0.6599
 5774ntf    fn429901   5.453   6.474   1.091 -0.1756  0.0637  0.2853
 5774ntf    fn429902   5.645   6.453   1.035 -0.6496 -0.3637 -0.2127
 5774ntf    fn429903   5.539   6.280   1.101 -0.2043 -0.3662  0.2666
 5774ntf    on529904   5.715   6.370   1.326 -0.2311  0.2439 -0.3373
 5774ntf    on529905   5.622   6.594   1.288 -0.5320 -0.0311 -0.3671
 5774ntf    on529906   5.492   6.153   1.341  0.4924 -0.1302 -0.0632
 5774ntf    on529907   5.284   6.241   1.433 -0.2635  0.5098 -0.0636
 5774ntf    fn429908   5.434   6.358   1.647  0.1525 -0.4984  0.0554
 5774ntf    fn429909   5.482   6.162   1.645  0.0310  0.2254  0.0410
 5774ntf    fn429910   5.628   6.300   1.576 -0.1931 -0.5418 -0.4630
 5775ntf    cn129911   2.612   1.237   5.354 -0.1216  0.1204 -0.1315
 5775ntf    sn229912   2.617   1.394   5.447 -0.2450  0.1913 -0.2445
 5775ntf    nn329913   2.635   1.487   5.322  0.0476 -0.1503 -0.4596
 5775ntf    sn229914   2.757   1.579   5.284  0.0757  0.0131  0.0236
 5775ntf    cn129915   2.747   1.558   5.104 -0.0059 -0.6200  0.1005
 5775ntf    fn429916   2.722   1.198   5.293 -0.0709  0.3232 -0.1685
 5775ntf    fn429917   2.588   1.145   5.446  0.3468  0.3401  0.2153
 5775ntf    fn429918   2.509   1.244   5.271 -0.0443  0.3580 -0.2081
 5775ntf    on529919   2.493   1.416   5.517  0.0839  0.8610  0.1380
 5775ntf    on529920   2.730   1.362   5.530 -0.2937 -0.2078 -0.3268
 5775ntf    on529921   2.885   1.524   5.320 -0.1940 -0.1347  0.7879
 5775ntf    on529922   2.739   1.720   5.306 -0.9198 -0.0177 -0.5502
 5775ntf    fn429923   2.778   1.432   5.075  0.0289 -0.6207  0.1403
 5775ntf    fn429924   2.627   1.589   5.059  0.3106 -0.1312 -0.4244
 5775ntf    fn429925   2.844   1.625   5.044 -0.5143 -0.2205 -0.2799
 5776ntf    cn129926   7.075   4.638   3.133 -0.0488 -0.1443 -0.2114
 5776ntf    sn229927   6.942   4.555   3.040 -0.2520 -0.0690  0.0107
 5776ntf    nn329928   6.843   4.675   3.024  0.0543  0.1957  0.0891
 5776ntf    sn229929   6.717   4.705   3.113 -0.1519 -0.2342 -0.0596
 5776ntf    cn129930   6.593   4.611   3.018  0.1266 -0.2865 -0.3733
 5776ntf    fn429931   7.104   4.756   3.082 -0.1394  0.0869  0.2701
 5776ntf    fn429932   7.036   4.650   3.259  0.1867 -0.0853 -0.1443
 5776ntf    fn429933   7.182   4.560   3.142  0.0122 -0.0391 -0.0128
 5776ntf    on529934   7.004   4.526   2.913  0.0649  0.8069 -0.0408
 5776ntf    on529935   6.900   4.444   3.122 -0.4996  0.4082  0.5390
 5776ntf    on529936   6.674   4.842   3.099  0.2008 -0.1449 -0.2617
 5776ntf    on529937   6.712   4.650   3.247 -0.2505 -0.3453 -0.1086
 5776ntf    fn429938   6.472   4.655   3.052  0.1934 -0.0166 -0.4774
 5776ntf    fn429939   6.600   4.613   2.886  0.6408  0.5096 -0.3448
 5776ntf    fn429940   6.598   4.484   3.053  0.1433 -0.2247 -0.1477
 5777ntf    cn129941   2.374   7.022   1.720 -0.3124 -0.3603  0.3781
 5777ntf    sn229942   2.203   6.995   1.776 -0.4204  0.2705  0.3599
 5777ntf    nn329943   2.232   6.908   1.903  0.0874  0.2963  0.2656
 5777ntf    sn229944   2.131   6.811   1.974  0.1442  0.2657  0.3045
 5777ntf    cn129945   2.233   6.661   1.967 -0.2617 -0.0013  0.0267
 5777ntf    fn429946   2.391   7.102   1.616 -0.0901 -0.0484  0.6514
 5777ntf    fn429947   2.442   7.070   1.823  0.0987  0.3154 -0.2005
 5777ntf    fn429948   2.432   6.910   1.683 -0.8746 -0.5883  0.1780
 5777ntf    on529949   2.154   7.128   1.804  0.1825  0.6388 -0.3040
 5777ntf    on529950   2.142   6.927   1.665 -0.2626 -0.1215  0.5137
 5777ntf    on529951   2.009   6.776   1.905  0.4610 -0.6183  0.1740
 5777ntf    on529952   2.121   6.846   2.114 -0.4979 -0.0937  0.3542
 5777ntf    fn429953   2.337   6.662   2.050 -0.0715 -0.5515 -0.1954
 5777ntf    fn429954   2.167   6.552   2.005  0.1672 -0.2250  0.1443
 5777ntf    fn429955   2.288   6.631   1.851 -0.4713 -0.4184  0.0312
 5778ntf    cn129956   7.508   4.436   2.454 -0.1417 -0.4146 -0.2309
 5778ntf    sn229957   7.639   4.551   2.508 -0.5477 -0.0603  0.0057
 5778ntf    nn329958   7.713   4.547   2.369 -0.2341 -0.1814  0.1751
 5778ntf    sn229959   7.707   4.650   2.251 -0.1945 -0.2436  0.1184
 5778ntf    cn129960   7.842   4.767   2.290 -0.2103 -0.0115 -0.5201
 5778ntf    fn429961   7.558   4.318   2.420  0.4509 -0.3836  0.4908
 5778ntf    fn429962   7.415   4.410   2.544  0.1805  0.2102  0.2953
 5778ntf    fn429963   7.444   4.497   2.356  0.3270  0.1198 -0.2088
 5778ntf    on529964   7.571   4.674   2.538 -0.3855 -0.1510  0.7500
 5778ntf    on529965   7.704   4.484   2.618 -0.1133  0.0249 -0.1966
 5778ntf    on529966   7.594   4.739   2.257 -0.0411 -0.0424  0.0629
 5778ntf    on529967   7.747   4.591   2.126  0.6115  0.2152  0.1519
 5778ntf    fn429968   7.871   4.847   2.188  0.3317  0.4146 -0.0329
 5778ntf    fn429969   7.822   4.853   2.388  0.1092 -0.0379 -0.4305
 5778ntf    fn429970   7.960   4.719   2.327 -0.4148  0.0136  0.1653
 5779ntf    cn129971   3.080   0.386   4.477 -0.2770 -0.3604 -0.0933
 5779ntf    sn229972   3.097   0.321   4.646 -0.0832 -0.1862 -0.0448
 5779ntf    nn329973   3.137   0.175   4.606  0.1994  0.1476 -0.9927
 5779ntf    sn229974   3.280   0.118   4.576  0.3012  0.0586 -0.3456
 5779ntf    cn129975   3.360   0.103   4.739 -0.1367  0.2721 -0.1106
 5779ntf    fn429976   3.187   0.383   4.400 -0.0189  0.3874  0.2246
 5779ntf    fn429977   2.989   0.318   4.410 -0.4448 -0.1115 -0.1182
 5779ntf    fn429978   3.052   0.515   4.467  0.3166 -0.1961  0.3158
 5779ntf    on529979   3.200   0.400   4.710 -0.1578 -0.1749  0.0625
 5779ntf    on529980   2.963   0.335   4.697  0.0753 -0.2395  0.3915
 5779ntf    on529981   3.372   0.210   4.515  0.0793  0.7074  0.2883
 5779ntf    on529982   3.274  -0.020   4.532  0.2931 -0.1372  0.2617
 5779ntf    fn429983   3.362   0.221   4.800  0.5033  0.2300 -0.0431
 5779ntf    fn429984   3.301   0.021   4.824 -0.1800  0.3563 -0.0587
 5779ntf    fn429985   3.482   0.054   4.726 -0.0379  0.3760  0.4304
 5780ntf    cn129986   0.450   2.214   2.252 -0.0812  0.1667 -0.2856
 5780ntf    sn229987   0.297   2.297   2.199 -0.3935 -0.0167  0.3263
 5780ntf    nn329988   0.358   2.428   2.138 -0.1281 -0.1170  0.3770
 5780ntf    sn229989   0.400   2.558   2.215  0.2388  0.0606 -0.1148
 5780ntf    cn129990   0.242   2.646   2.197  0.3198  0.2408  0.0406
 5780ntf    fn429991   0.513   2.163   2.147 -0.3810 -0.4194 -0.1837
 5780ntf    fn429992   0.542   2.282   2.319  0.2318 -0.3804 -0.1608
 5780ntf    fn429993   0.429   2.108   2.328  0.2412  0.1696 -0.1918
 5780ntf    on529994   0.248   2.215   2.092  0.5624 -0.2338  0.0443
 5780ntf    on529995   0.221   2.302   2.322 -0.8182 -0.8917  0.1048
 5780ntf    on529996   0.497   2.635   2.141  0.3770 -0.5231 -0.5447
 5780ntf    on529997   0.419   2.546   2.358  0.5318 -0.1532 -0.1706
 5780ntf    fn429998   0.133   2.587   2.244  0.2767  0.3029  0.0179
 5780ntf    fn429999   0.249   2.771   2.240 -0.1355  0.4111 -0.3655
 5780ntf    fn430000   0.204   2.665   2.072  0.3237 -0.1481 -0.0209
 5781ntf    cn130001   4.486   2.905   6.290 -0.1004  0.0213  0.2796
 5781ntf    sn230002   4.539   3.078   6.309 -0.0995  0.0555 -0.0285
 5781ntf    nn330003   4.415   3.164   6.267 -0.2085  0.1098  0.3985
 5781ntf    sn230004   4.272   3.177   6.331 -0.5109 -0.0535 -0.2294
 5781ntf    cn130005   4.172   3.210   6.183 -0.3369  0.2379 -0.2842
 5781ntf    fn430006   4.423   2.878   6.177  0.0274 -0.2643  0.2754
 5781ntf    fn430007   4.587   2.821   6.301 -0.1013 -0.0032  0.1060
 5781ntf    fn430008   4.406   2.871   6.390 -0.3239 -0.2390  0.0149
 5781ntf    on530009   4.577   3.090   6.448  0.1093  0.4816 -0.1213
 5781ntf    on530010   4.642   3.083   6.208  0.0308 -0.1730  0.0924
 5781ntf    on530011   4.272   3.291   6.420 -0.0167 -0.3793  0.1983
 5781ntf    on530012   4.234   3.049   6.385 -0.0148  0.0360  0.3512
 5781ntf    fn430013   4.042   3.202   6.202 -0.3521  1.3591  0.1429
 5781ntf    fn430014   4.184   3.334   6.139 -0.2508  0.1548 -0.5006
 5781ntf    fn430015   4.194   3.134   6.077 -0.6549 -0.2298 -0.0218
 5782ntf    cn130016   4.368   7.527   7.469 -0.0132 -0.2593 -0.1732
 5782ntf    sn230017   4.319   7.486   7.639 -0.6123 -0.0009 -0.2824
 5782ntf    nn330018   4.314   7.624   7.712  0.1281  0.0114 -0.2430
 5782ntf    sn230019   4.434   7.720   7.747  0.2302 -0.2231  0.0533
 5782ntf    cn130020   4.457   7.680   7.923  0.0563  0.0149  0.1303
 5782ntf    fn430021   4.484   7.590   7.458 -0.1632  0.0409 -0.0458
 5782ntf    fn430022   4.379   7.415   7.399 -0.5053 -0.4800  0.0979
 5782ntf    fn430023   4.277   7.605   7.413  0.2989 -0.3883 -0.8793
 5782ntf    on530024   4.181   7.448   7.618 -0.5963 -0.2154 -0.0036
 5782ntf    on530025   4.416   7.388   7.682  0.1125  0.5386 -0.6643
 5782ntf    on530026   4.396   7.859   7.745 -0.7502 -0.4804 -0.5138
 5782ntf    on530027   4.558   7.693   7.680 -0.1049 -0.7528 -0.3696
 5782ntf    fn430028   4.375   7.751   7.999  0.1786 -0.4928  0.7336
 5782ntf    fn430029   4.430   7.554   7.949  0.1217 -0.1438 -0.5365
 5782ntf    fn430030   4.578   7.702   7.973 -0.0407  0.4490  0.1796
 5783ntf    cn130031   4.542   7.536   1.765 -0.0716 -0.5036 -0.0669
 5783ntf    sn230032   4.398   7.642   1.734  0.3535  0.1316  0.0929
 5783ntf    nn330033   4.302   7.594   1.848 -0.1533  0.3095 -0.2506
 5783ntf    sn230034   4.146   7.611   1.860 -0.2209 -0.1922 -0.3716
 5783ntf    cn130035   4.142   7.686   2.026 -0.1332  0.2929 -0.5852
 5783ntf    fn430036   4.573   7.540   1.893 -0.0255 -0.5819 -0.0756
 5783ntf    fn430037   4.521   7.410   1.732 -0.4156 -0.3837 -0.3148
 5783ntf    fn430038   4.646   7.578   1.695  0.1346 -0.0936  0.4784
 5783ntf    on530039   4.436   7.778   1.763 -0.4284  0.3571  0.1049
 5783ntf    on530040   4.344   7.602   1.606 -0.0507  0.0521  0.2851
 5783ntf    on530041   4.071   7.488   1.863 -0.2608 -0.1602 -0.0240
 5783ntf    on530042   4.092   7.719   1.781 -0.2968 -0.2028 -0.3336
 5783ntf    fn430043   4.229   7.784   2.044  0.3566 -0.1402 -0.5697
 5783ntf    fn430044   4.021   7.720   2.066  0.0359  0.1185  0.0953
 5783ntf    fn430045   4.169   7.588   2.111  0.2399  0.5789 -0.3690
 5784ntf    cn130046   3.988   2.335   5.005 -0.1439  0.2990 -0.3141
 5784ntf    sn230047   3.815   2.286   5.031 -0.0253  0.1630  0.2255
 5784ntf    nn330048   3.732   2.409   4.978  0.0209  0.0793 -0.0430
 5784ntf    sn230049   3.624   2.413   4.864  0.0474 -0.3384 -0.0852
 5784ntf    cn130050   3.481   2.331   4.941 -0.2050 -0.3200 -0.5336
 5784ntf    fn430051   3.994   2.384   4.882  0.4542 -0.1491 -0.4672
 5784ntf    fn430052   4.021   2.428   5.093  0.0819  0.0184 -0.0975
 5784ntf    fn430053   4.070   2.234   5.031 -0.3999  0.0565 -0.4467
 5784ntf    on530054   3.798   2.165   4.956  0.5113  0.2569 -0.0554
 5784ntf    on530055   3.798   2.260   5.172  0.0299 -0.0073  0.1999
 5784ntf    on530056   3.652   2.351   4.737 -0.0746 -0.8840  0.1510
 5784ntf    on530057   3.572   2.547   4.851  0.2899 -0.2556 -0.2010
 5784ntf    fn430058   3.371   2.355   4.871 -0.2204  0.4864 -0.2351
 5784ntf    fn430059   3.496   2.199   4.943  0.1361 -0.2750 -0.1587
 5784ntf    fn430060   3.466   2.363   5.068  0.0125 -0.3746 -0.4931
 5785ntf    cn130061   1.875   1.947   2.088 -0.0877  0.1759  0.1351
 5785ntf    sn230062   1.780   1.906   1.939  0.1845  0.0543 -0.0031
 5785ntf    nn330063   1.697   1.781   1.985 -0.0826  0.1835 -0.1318
 5785ntf    sn230064   1.542   1.767   2.003 -0.0593 -0.2756 -0.2882
 5785ntf    cn130065   1.514   1.753   1.824  0.2108 -0.3032 -0.3283
 5785ntf    fn430066   1.955   1.852   2.132 -0.0771  0.2441  0.2641
 5785ntf    fn430067   1.947   2.055   2.065 -0.0856  0.1600  0.0687
 5785ntf    fn430068   1.796   1.977   2.191 -0.2047  0.1379  0.0564
 5785ntf    on530069   1.699   2.022   1.910  0.4659  0.1355 -0.4828
 5785ntf    on530070   1.891   1.886   1.848 -0.0471 -0.7332 -0.1185
 5785ntf    on530071   1.482   1.888   2.052  0.4949  0.0956 -0.5142
 5785ntf    on530072   1.506   1.636   2.052 -0.3689  0.1046  0.5191
 5785ntf    fn430073   1.386   1.753   1.790 -0.0090  0.1249  0.4732
 5785ntf    fn430074   1.577   1.850   1.759 -0.4594  0.1800 -0.2665
 5785ntf    fn430075   1.571   1.641   1.783  0.0081 -0.5406  0.0341
 5786ntf    cn130076   0.615   2.970   3.376 -0.2637 -0.1270  0.2852
 5786ntf    sn230077   0.691   2.829   3.291 -0.3623 -0.0104  0.0010
 5786ntf    nn330078   0.568   2.731   3.294 -0.0196 -0.4539 -0.2533
 5786ntf    sn230079   0.475   2.687   3.176  0.3230 -0.5285 -0.4972
 5786ntf    cn130080   0.309   2.702   3.247  0.3930 -0.1921 -0.4028
 5786ntf    fn430081   0.689   3.079   3.362 -0.2234 -0.2308 -0.3232
 5786ntf    fn430082   0.499   3.003   3.321 -0.0102  0.1985 -0.0575
 5786ntf    fn430083   0.593   2.944   3.504  0.0038 -0.2065  0.3161
 5786ntf    on530084   0.744   2.883   3.169 -0.3448  0.7893  0.3597
 5786ntf    on530085   0.798   2.785   3.378  0.2203  0.0626 -0.6715
 5786ntf    on530086   0.484   2.550   3.132 -0.8894 -0.5616 -0.6863
 5786ntf    on530087   0.475   2.791   3.075 -0.0141  0.1357  0.1818
 5786ntf    fn430088   0.212   2.690   3.158 -0.0301 -0.1117  0.0382
 5786ntf    fn430089   0.288   2.603   3.332 -0.8146  0.4499  0.0749
 5786ntf    fn430090   0.293   2.812   3.319 -0.4762 -0.1474 -0.6532
 5787ntf    cn130091   5.714   6.497   3.918  0.0144  0.0514  0.2797
 5787ntf    sn230092   5.685   6.449   4.091  0.0666 -0.1579  0.2303
 5787ntf    nn330093   5.547   6.519   4.116  0.3190  0.4176  0.0439
 5787ntf    sn230094   5.400   6.489   4.071  0.3504  0.2683  0.0405
 5787ntf    cn130095   5.326   6.404   4.214  0.0225  0.5555  0.0437
 5787ntf    fn430096   5.622   6.455   3.833  0.2893  0.0714 -0.0293
 5787ntf    fn430097   5.709   6.629   3.914  0.8529  0.0820 -0.0540
 5787ntf    fn430098   5.832   6.467   3.865 -0.0729  0.1869  0.0036
 5787ntf    on530099   5.681   6.305   4.093  0.5513 -0.1769  0.0883
 5787ntf    on530100   5.793   6.511   4.164  0.1379  0.2619 -0.2249
 5787ntf    on530101   5.388   6.398   3.959  0.3344 -0.2644  0.4691
 5787ntf    on530102   5.317   6.607   4.070 -0.4626 -0.2893 -0.5165
 5787ntf    fn430103   5.327   6.476   4.325  0.0288 -0.2173  0.5496
 5787ntf    fn430104   5.198   6.382   4.192  0.0700  0.5534 -0.2292
 5787ntf    fn430105   5.383   6.286   4.234 -0.0641  0.3620 -0.8084
 5788ntf    cn130106   4.608   4.717   1.441 -0.1814 -0.4409 -0.1163
 5788ntf    sn230107   4.567   4.611   1.299  0.1572 -0.2272 -0.3767
 5788ntf    nn330108   4.417   4.573   1.328 -0.0607  0.7407 -0.2179
 5788ntf    sn230109   4.286   4.628   1.260 -0.2612 -0.0851 -0.5155
 5788ntf    cn130110   4.159   4.516   1.326  0.2324 -0.3182  0.0522
 5788ntf    fn430111   4.588   4.651   1.554  0.2800  0.0711  0.2653
 5788ntf    fn430112   4.737   4.743   1.429 -0.2583 -0.1684 -0.3640
 5788ntf    fn430113   4.544   4.832   1.449 -0.1845 -0.4388 -0.1727
 5788ntf    on530114   4.576   4.710   1.195  0.6065  0.1464  0.0152
 5788ntf    on530115   4.658   4.499   1.301 -0.0415 -0.3838  0.3009
 5788ntf    on530116   4.277   4.596   1.120 -0.1200  0.1383 -0.5757
 5788ntf    on530117   4.241   4.759   1.301  0.1148 -0.1082 -0.0115
 5788ntf    fn430118   4.042   4.566   1.291  0.1423 -0.2036  0.5193
 5788ntf    fn430119   4.162   4.397   1.267  0.1581 -0.1853 -0.2238
 5788ntf    fn430120   4.156   4.500   1.457  0.1502  0.1370  0.1090
 5789ntf    cn130121   2.592   3.143   1.502  0.4839 -0.2040  0.0655
 5789ntf    sn230122   2.429   3.106   1.575  0.3516 -0.0331 -0.1404
 5789ntf    nn330123   2.449   2.956   1.618  0.6325 -0.0291 -0.2525
 5789ntf    sn230124   2.409   2.820   1.550 -0.4950  0.1127  0.0980
 5789ntf    cn130125   2.564   2.728   1.574 -0.4855  0.1202  0.0660
 5789ntf    fn430126   2.624   3.079   1.391  0.1889 -0.1247 -0.0671
 5789ntf    fn430127   2.602   3.273   1.478 -0.5630 -0.0906  0.1926
 5789ntf    fn430128   2.688   3.120   1.590  0.3489 -0.2799  0.1944
 5789ntf    on530129   2.429   3.193   1.690  0.1152 -0.0723 -0.1105
 5789ntf    on530130   2.328   3.127   1.475 -0.0945 -0.3227  0.2459
 5789ntf    on530131   2.397   2.820   1.407 -0.5511  0.1772  0.1027
 5789ntf    on530132   2.309   2.750   1.627 -0.4317 -0.1161 -0.0304
 5789ntf    fn430133   2.555   2.603   1.532 -0.2570  0.0274  0.2903
 5789ntf    fn430134   2.665   2.784   1.509 -0.5081 -0.0504 -0.1133
 5789ntf    fn430135   2.600   2.717   1.701 -0.0134 -0.4645 -0.1143
 5790ntf    cn130136   1.391   4.162   5.307  0.1720  0.0841  0.3166
 5790ntf    sn230137   1.489   4.102   5.166 -0.0762  0.0664  0.1508
 5790ntf    nn330138   1.533   4.246   5.121 -0.0169  0.0921  0.2891
 5790ntf    sn230139   1.635   4.351   5.175 -0.2266  0.2582  0.3617
 5790ntf    cn130140   1.715   4.411   5.023  0.0473 -0.1295  0.3505
 5790ntf    fn430141   1.458   4.239   5.391  0.7506 -0.1305  0.0545
 5790ntf    fn430142   1.286   4.229   5.262 -0.0231 -0.3145  0.1701
 5790ntf    fn430143   1.336   4.063   5.376 -0.1768 -0.2978 -0.4864
 5790ntf    on530144   1.595   4.017   5.214  0.4000  0.5422 -0.0517
 5790ntf    on530145   1.398   4.042   5.072  0.2334 -0.5087  0.2137
 5790ntf    on530146   1.738   4.308   5.267  0.4428  0.6604 -0.1889
 5790ntf    on530147   1.570   4.474   5.213 -0.0761  0.4457  0.0149
 5790ntf    fn430148   1.778   4.527   5.035 -0.6934  0.2979  0.1525
 5790ntf    fn430149   1.800   4.323   4.972  0.0679  0.1327 -0.0698
 5790ntf    fn430150   1.615   4.437   4.940  0.0773 -0.2076  0.2905
 5791ntf    cn130151   2.636   1.477   6.607 -0.1331 -0.2772  0.2313
 5791ntf    sn230152   2.765   1.445   6.731 -0.0367  0.0507  0.2186
 5791ntf    nn330153   2.885   1.537   6.691  0.2076 -0.2749  0.2008
 5791ntf    sn230154   3.013   1.583   6.769  0.1540  0.3110 -0.0529
 5791ntf    cn130155   3.141   1.502   6.669 -0.2229 -0.4273  0.0548
 5791ntf    fn430156   2.539   1.387   6.613 -0.1496 -0.2694  0.0826
 5791ntf    fn430157   2.578   1.595   6.626  0.1593 -0.1239  0.1819
 5791ntf    fn430158   2.692   1.482   6.488  0.3440 -0.1949  0.4586
 5791ntf    on530159   2.689   1.483   6.848 -0.3959 -0.1797  0.0643
 5791ntf    on530160   2.790   1.304   6.714  0.2615  0.1278  0.0122
 5791ntf    on530161   3.029   1.536   6.904 -0.3980  0.2716  0.0008
 5791ntf    on530162   3.042   1.723   6.748  0.6560  0.1684 -0.3165
 5791ntf    fn430163   3.149   1.553   6.547  0.2428  0.3267  0.3946
 5791ntf    fn430164   3.261   1.514   6.723 -0.5914  0.3842  0.7192
 5791ntf    fn430165   3.120   1.373   6.647  0.0920 -0.3774 -0.5708
 5792ntf    cn130166   4.891   5.263   1.299 -0.1454  0.0273  0.2521
 5792ntf    sn230167   4.713   5.290   1.269 -0.0968  0.3984  0.2939
 5792ntf    nn330168   4.649   5.330   1.407  0.1025  0.4917  0.3610
 5792ntf    sn230169   4.597   5.223   1.510 -0.4376  0.0323 -0.3803
 5792ntf    cn130170   4.550   5.325   1.653  0.0052 -0.1040 -0.1396
 5792ntf    fn430171   4.928   5.331   1.407 -0.5257 -0.1042  0.4678
 5792ntf    fn430172   4.918   5.137   1.326  0.1502 -0.0462 -0.3745
 5792ntf    fn430173   4.973   5.302   1.203 -0.3307 -0.1423  0.0240
 5792ntf    on530174   4.705   5.399   1.175  0.3954  0.0665 -0.1407
 5792ntf    on530175   4.684   5.162   1.210  0.9488  0.2900 -0.0043
 5792ntf    on530176   4.708   5.151   1.566 -0.1030  0.5505 -0.3720
 5792ntf    on530177   4.470   5.159   1.483 -0.3288 -0.2586 -0.2024
 5792ntf    fn430178   4.454   5.277   1.730 -0.0169  0.3752  0.1343
 5792ntf    fn430179   4.657   5.339   1.730  0.4920 -0.0640 -0.8150
 5792ntf    fn430180   4.516   5.448   1.621 -0.1802 -0.2575 -0.5317
 5793ntf    cn130181   3.771   5.036   7.353  0.3679  0.0266 -0.1089
 5793ntf    sn230182   3.644   5.011   7.226  0.0939  0.2727  0.1158
 5793ntf    nn330183   3.720   4.892   7.159  0.0970  0.4207 -0.1437
 5793ntf    sn230184   3.666   4.788   7.054 -0.0565  0.3127  0.0411
 5793ntf    cn130185   3.778   4.647   7.081 -0.7094 -0.2748 -0.3023
 5793ntf    fn430186   3.883   5.075   7.295  0.1611 -0.1170 -0.6091
 5793ntf    fn430187   3.724   5.129   7.435  0.2519 -0.0800 -0.0519
 5793ntf    fn430188   3.811   4.934   7.428  0.6476  0.0891 -0.1715
 5793ntf    on530189   3.523   4.972   7.295 -0.1522 -0.0958 -0.5140
 5793ntf    on530190   3.642   5.136   7.154 -0.0552  0.3047  0.1739
 5793ntf    on530191   3.690   4.823   6.916 -0.4955 -0.7105 -0.3041
 5793ntf    on530192   3.535   4.730   7.074  0.0905 -0.4364 -1.0898
 5793ntf    fn430193   3.744   4.549   6.998 -0.2150 -0.4389 -0.3146
 5793ntf    fn430194   3.904   4.672   7.051 -0.6524 -0.0134  0.1440
 5793ntf    fn430195   3.766   4.605   7.206  0.0140 -0.3708 -0.2637
 5794ntf    cn130196   6.221   7.360   4.715  0.6160  0.1049  0.5041
 5794ntf    sn230197   6.307   7.513   4.668  0.1208  0.1340 -0.3225
 5794ntf    nn330198   6.255   7.604   4.785 -0.0709 -0.4251  0.0299
 5794ntf    sn230199   6.321   7.685   4.902 -0.1463  0.2245 -0.3747
 5794ntf    cn130200   6.343   7.551   5.022  0.0175  0.3997 -0.2082
 5794ntf    fn430201   6.252   7.318   4.836  0.4368 -0.5556  0.3233
 5794ntf    fn430202   6.090   7.381   4.719  0.6291  0.2029  0.4304
 5794ntf    fn430203   6.247   7.262   4.630 -0.6703  0.0621  0.1303
 5794ntf    on530204   6.448   7.486   4.678  0.0898 -0.2420 -0.8691
 5794ntf    on530205   6.246   7.540   4.539 -0.4766  0.0072 -0.0723
 5794ntf    on530206   6.225   7.776   4.960 -0.1653  0.2206 -0.4005
 5794ntf    on530207   6.451   7.742   4.874  0.0404  0.0281  0.0861
 5794ntf    fn430208   6.219   7.523   5.059  0.0851 -0.0954 -0.3402
 5794ntf    fn430209   6.399   7.444   4.967  0.1434  0.6657 -0.6017
 5794ntf    fn430210   6.411   7.583   5.130 -0.1200  0.1169 -0.0375
 5795ntf    cn130211   7.509   6.728   7.478 -0.2620 -0.3567 -0.2701
 5795ntf    sn230212   7.500   6.797   7.310  0.1562  0.1839 -0.0706
 5795ntf    nn330213   7.429   6.935   7.335 -0.1761 -0.0026  0.0114
 5795ntf    sn230214   7.417   7.057   7.237  0.1739 -0.0678 -0.1130
 5795ntf    cn130215   7.557   7.157   7.293 -0.2504  0.2144  0.4505
 5795ntf    fn430216   7.580   6.801   7.562 -0.5774 -0.1582 -0.1728
 5795ntf    fn430217   7.387   6.710   7.527 -0.2296 -0.6560 -0.2990
 5795ntf    fn430218   7.572   6.613   7.465  0.6886  0.1337 -0.0939
 5795ntf    on530219   7.637   6.812   7.267  0.0016  0.1016 -0.6057
 5795ntf    on530220   7.413   6.699   7.251  0.0647  0.3212 -0.1662
 5795ntf    on530221   7.297   7.135   7.255  0.1243 -0.1706  0.0010
 5795ntf    on530222   7.450   7.031   7.099  0.0849  0.0531 -0.1566
 5795ntf    fn430223   7.561   7.181   7.423 -0.4147  0.1860  0.4600
 5795ntf    fn430224   7.670   7.091   7.270 -0.5090 -0.0656 -0.0123
 5795ntf    fn430225   7.567   7.275   7.233 -0.3608 -0.2102 -0.4182
 5796ntf    cn130226   4.073   3.441   4.242 -0.1687 -0.0665 -0.1709
 5796ntf    sn230227   3.980   3.592   4.204 -0.1336  0.0398  0.1694
 5796ntf    nn330228   3.955   3.566   4.051 -0.4347  0.3130  0.1720
 5796ntf    sn230229   3.824   3.567   3.965 -0.3325 -0.1444  0.0076
 5796ntf    cn130230   3.830   3.741   3.911 -0.1004 -0.1075  0.1500
 5796ntf    fn430231   4.127   3.427   4.362  0.1025 -0.3531 -0.3233
 5796ntf    fn430232   4.010   3.328   4.215 -0.0106 -0.1410 -0.2345
 5796ntf    fn430233   4.172   3.446   4.153  0.1820  0.4210  0.2427
 5796ntf    on530234   3.863   3.562   4.283 -0.1956  0.0495  0.0819
 5796ntf    on530235   4.066   3.704   4.232  0.2562 -0.3585  0.5886
 5796ntf    on530236   3.702   3.564   4.043 -0.1656  0.3531  0.2911
 5796ntf    on530237   3.836   3.491   3.843  0.0172 -0.3408  0.1642
 5796ntf    fn430238   3.740   3.772   3.818  0.0002  0.6500  0.2999
 5796ntf    fn430239   3.822   3.829   4.009  0.2537  0.1591 -0.0590
 5796ntf    fn430240   3.950   3.754   3.858  0.1513  0.0725  0.7564
 5797ntf    cn130241   0.153   0.849   6.484 -0.1768  0.1380  0.7046
 5797ntf    sn230242   0.088   1.014   6.441 -0.2002 -0.0767 -0.1004
 5797ntf    nn330243  -0.063   0.975   6.425 -0.1727 -0.0460 -0.4336
 5797ntf    sn230244  -0.165   0.950   6.541 -0.0216 -0.1047 -0.3147
 5797ntf    cn130245  -0.243   1.114   6.529  0.0117 -0.0533  0.1332
 5797ntf    fn430246   0.281   0.832   6.457 -0.2438  0.1770  0.3529
 5797ntf    fn430247   0.136   0.816   6.611 -0.1575 -0.4478  0.5560
 5797ntf    fn430248   0.092   0.751   6.418  0.2630  0.2352  0.1465
 5797ntf    on530249   0.123   1.092   6.557  0.7176  0.1970 -0.5576
 5797ntf    on530250   0.164   1.040   6.321  0.2360 -0.0752  0.1712
 5797ntf    on530251  -0.116   0.934   6.676  0.2121 -0.5007 -0.4453
 5797ntf    on530252  -0.282   0.876   6.500 -0.3227 -0.1311  0.5566
 5797ntf    fn430253  -0.277   1.142   6.404 -0.4570  0.1821  0.3125
 5797ntf    fn430254  -0.355   1.132   6.596 -0.5083  0.4510 -0.8494
 5797ntf    fn430255  -0.163   1.213   6.565  0.0300 -0.1308  0.3024
 5798ntf    cn130256   5.129   5.375   6.053 -0.0699  0.1536  0.2998
 5798ntf    sn230257   5.012   5.264   6.136 -0.2731  0.2049  0.0834
 5798ntf    nn330258   5.101   5.220   6.258 -0.5761 -0.8094 -0.0509
 5798ntf    sn230259   5.108   5.270   6.407  0.3322  0.0439 -0.3651
 5798ntf    cn130260   5.062   5.121   6.502  0.4049  0.2132 -0.0607
 5798ntf    fn430261   5.256   5.338   6.057 -0.1486 -0.1504  0.0373
 5798ntf    fn430262   5.106   5.387   5.923 -0.0979  0.2890  0.3171
 5798ntf    fn430263   5.118   5.501   6.092  0.2093  0.2544  0.0559
 5798ntf    on530264   4.901   5.354   6.149 -0.6425 -0.2446  0.0650
 5798ntf    on530265   5.001   5.154   6.043 -0.2001 -0.0766  0.4054
 5798ntf    on530266   5.004   5.364   6.443 -0.1943 -0.3911 -0.7192
 5798ntf    on530267   5.243   5.290   6.453  0.2092  0.5608 -0.2207
 5798ntf    fn430268   5.136   5.012   6.485  0.5921  0.2436  0.5286
 5798ntf    fn430269   5.055   5.147   6.631 -0.1089  0.1954 -0.0866
 5798ntf    fn430270   4.940   5.085   6.468  0.4561  0.1005 -0.1276
 5799ntf    cn130271   6.838   6.226   3.495  0.0924 -0.1473  0.1129
 5799ntf    sn230272   6.873   6.305   3.335  0.0357 -0.0493  0.1489
 5799ntf    nn330273   6.730   6.330   3.278  0.0728  0.4356  0.2639
 5799ntf    sn230274   6.693   6.386   3.135 -0.2796 -0.1482  0.1230
 5799ntf    cn130275   6.538   6.297   3.105 -0.0931 -0.2601 -0.5145
 5799ntf    fn430276   6.740   6.143   3.463 -0.3327  0.2414  0.3860
 5799ntf    fn430277   6.938   6.160   3.551 -0.5059 -0.4286  0.8715
 5799ntf    fn430278   6.787   6.310   3.583 -0.5131 -0.2211 -0.1610
 5799ntf    on530279   6.946   6.427   3.364  0.0742 -0.1305  0.3995
 5799ntf    on530280   6.945   6.200   3.268 -0.2829 -0.1203 -0.0815
 5799ntf    on530281   6.768   6.324   3.028 -0.1829  0.3648 -0.1093
 5799ntf    on530282   6.661   6.526   3.121 -0.4227 -0.2142 -0.2154
 5799ntf    fn430283   6.552   6.169   3.135 -0.0090 -0.1268  0.0327
 5799ntf    fn430284   6.438   6.347   3.175  0.3819  0.1487 -0.1203
 5799ntf    fn430285   6.505   6.303   2.977 -0.0067  0.0338 -0.5229
 5800ntf    cn130286   7.043   0.699   0.537  0.1206  0.1653 -0.3827
 5800ntf    sn230287   7.126   0.549   0.597 -0.1744  0.0778 -0.1913
 5800ntf    nn330288   7.081   0.446   0.488  0.5780 -0.1174 -0.3201
 5800ntf    sn230289   6.955   0.355   0.469  0.2652  0.2426  0.0098
 5800ntf    cn130290   7.023   0.190   0.505 -0.2728 -0.0795 -0.4274
 5800ntf    fn430291   6.920   0.676   0.493 -0.1551  0.1453  0.3749
 5800ntf    fn430292   7.021   0.790   0.632  0.4794  0.1896 -0.3216
 5800ntf    fn430293   7.097   0.762   0.435  0.0623 -0.1505 -0.6083
 5800ntf    on530294   7.265   0.584   0.590 -0.0697 -0.2617  0.1498
 5800ntf    on530295   7.065   0.532   0.727 -0.4446  0.3964 -0.2755
 5800ntf    on530296   6.909   0.339   0.333  0.1134  0.1667  0.0684
 5800ntf    on530297   6.855   0.364   0.573  0.2300 -0.4753  0.0436
 5800ntf    fn430298   7.134   0.153   0.444  0.1327 -0.5506  0.5679
 5800ntf    fn430299   7.073   0.189   0.628 -0.4842 -0.0434 -0.3398
 5800ntf    fn430300   6.929   0.097   0.491  0.3454 -0.7067 -0.4503
 5801ntf    cn130301   2.584   5.310   4.943 -0.0590 -0.0347 -0.2531
 5801ntf    sn230302   2.586   5.148   4.861  0.1160 -0.2316  0.1407
 5801ntf    nn330303   2.737   5.152   4.819  0.0259  0.1617 -0.1493
 5801ntf    sn230304   2.800   5.087   4.690  0.2665  0.0990 -0.0012
 5801ntf    cn130305   2.671   5.090   4.562 -0.0260 -0.1675  0.2821
 5801ntf    fn430306   2.468   5.332   5.002  0.0149 -0.2461 -0.0256
 5801ntf    fn430307   2.677   5.326   5.036 -0.0154 -0.2863 -0.2538
 5801ntf    fn430308   2.611   5.421   4.875 -0.1047  0.0419 -0.1454
 5801ntf    on530309   2.566   5.049   4.965  0.3240 -0.0948  0.3136
 5801ntf    on530310   2.490   5.158   4.754  0.4976 -0.2228 -0.2026
 5801ntf    on530311   2.831   4.946   4.697 -0.7126 -0.1127  0.3108
 5801ntf    on530312   2.908   5.171   4.645 -0.2021  0.6944 -0.0209
 5801ntf    fn430313   2.578   5.005   4.601 -0.1747 -0.1389 -0.0034
 5801ntf    fn430314   2.616   5.210   4.550 -0.3461 -0.3946 -0.6775
 5801ntf    fn430315   2.703   5.060   4.437 -0.1720  0.7678  0.0084
 5802ntf    cn130316   4.527   1.771   4.769 -0.1101  0.1625 -0.0214
 5802ntf    sn230317   4.451   1.898   4.664 -0.3246  0.3431  0.3521
 5802ntf    nn330318   4.378   1.977   4.779 -0.3735  0.4413  0.2527
 5802ntf    sn230319   4.414   2.101   4.868 -0.2391  0.5134  0.0976
 5802ntf    cn130320   4.259   2.194   4.845 -0.4571  0.1189 -0.0370
 5802ntf    fn430321   4.441   1.690   4.829 -0.2907  0.2081 -0.2175
 5802ntf    fn430322   4.599   1.696   4.687  0.1901  0.2481  0.1609
 5802ntf    fn430323   4.607   1.817   4.864 -0.3727  0.6921 -0.0543
 5802ntf    on530324   4.567   1.955   4.601  0.0751 -0.3166  0.4885
 5802ntf    on530325   4.362   1.820   4.582  0.5579 -0.0415 -0.2535
 5802ntf    on530326   4.497   2.202   4.807  0.0989  0.0928 -0.1490
 5802ntf    on530327   4.423   2.088   5.011 -0.4535 -0.0113  0.0652
 5802ntf    fn430328   4.251   2.304   4.918  1.0533  0.3550 -0.1974
 5802ntf    fn430329   4.253   2.230   4.718 -0.3932 -0.0162 -0.0785
 5802ntf    fn430330   4.158   2.114   4.874  0.1102 -0.5570  0.1114
 5803ntf    cn130331   6.126   6.897   4.588 -0.2906  0.3030 -0.0027
 5803ntf    sn230332   5.967   6.809   4.593  0.0235 -0.2757 -0.1364
 5803ntf    nn330333   5.987   6.708   4.712  0.7591  0.0467  0.0160
 5803ntf    sn230334   6.034   6.752   4.855  0.0637  0.4467  0.1234
 5803ntf    cn130335   5.990   6.609   4.958  0.4271  0.1781 -0.0928
 5803ntf    fn430336   6.224   6.811   4.569  0.1508  0.6917  0.5014
 5803ntf    fn430337   6.127   6.985   4.488 -0.2765  0.1035 -0.1788
 5803ntf    fn430338   6.145   6.969   4.697  0.3017 -0.4698  0.4064
 5803ntf    on530339   5.866   6.911   4.606 -0.2230 -0.4527 -0.6259
 5803ntf    on530340   5.957   6.738   4.468 -0.0107  0.3919 -0.5194
 5803ntf    on530341   5.953   6.859   4.908 -0.5892  0.2013 -0.3707
 5803ntf    on530342   6.177   6.766   4.860  0.1368 -0.3442  0.2935
 5803ntf    fn430343   6.017   6.495   4.896  0.3833  0.0267  0.1671
 5803ntf    fn430344   6.058   6.612   5.071  0.2566  0.0223  0.0140
 5803ntf    fn430345   5.862   6.608   4.992  0.4378 -0.0954 -0.0616
 5804ntf    cn130346   6.059   2.653   7.490 -0.5266  0.2549  0.1719
 5804ntf    sn230347   5.910   2.619   7.588 -0.3212 -0.1480  0.3451
 5804ntf    nn330348   5.923   2.469   7.631  0.3922 -0.3803 -0.6480
 5804ntf    sn230349   5.810   2.366   7.668 -0.0552  0.2822 -0.1352
 5804ntf    cn130350   5.768   2.286   7.510  0.0014 -0.1964  0.0914
 5804ntf    fn430351   6.068   2.772   7.432 -0.3739  0.1836  0.0477
 5804ntf    fn430352   6.166   2.634   7.565 -0.0549  0.2863 -0.4812
 5804ntf    fn430353   6.074   2.569   7.389  0.6357 -0.0732  0.5986
 5804ntf    on530354   5.913   2.710   7.700 -0.2370  0.1934  0.0674
 5804ntf    on530355   5.802   2.644   7.496  0.2907  0.0976 -0.3174
 5804ntf    on530356   5.680   2.416   7.705  0.0606 -0.0075  0.6654
 5804ntf    on530357   5.863   2.259   7.748 -0.4048  0.1069 -0.1355
 5804ntf    fn430358   5.880   2.243   7.454  0.1976  0.2003  0.1795
 5804ntf    fn430359   5.695   2.178   7.533 -0.4647  0.0849 -0.0575
 5804ntf    fn430360   5.705   2.356   7.416  0.0108 -0.5593 -0.1878
 5805ntf    cn130361   3.636   2.763   3.240  0.0520 -0.0857 -0.0843
 5805ntf    sn230362   3.769   2.736   3.361  0.2150  0.1244 -0.2179
 5805ntf    nn330363   3.886   2.748   3.256 -0.0720 -0.2107 -0.5816
 5805ntf    sn230364   3.968   2.633   3.188  0.2978 -0.2362 -0.0967
 5805ntf    cn130365   3.970   2.692   3.016  0.1002 -0.3455 -0.1369
 5805ntf    fn430366   3.673   2.857   3.155  0.7589 -0.3066 -0.0287
 5805ntf    fn430367   3.627   2.650   3.171  0.0771 -0.3117  0.2805
 5805ntf    fn430368   3.516   2.783   3.293  0.2491  0.1726  0.2661
 5805ntf    on530369   3.752   2.853   3.443  0.2727  0.1578 -0.2531
 5805ntf    on530370   3.738   2.609   3.421 -0.1314  0.4285  0.2521
 5805ntf    on530371   3.893   2.510   3.176  0.4203 -0.3685  0.4489
 5805ntf    on530372   4.110   2.636   3.215  0.2053 -0.3880  0.4244
 5805ntf    fn430373   3.858   2.753   2.982  0.0472 -0.3383  0.0454
 5805ntf    fn430374   4.062   2.786   3.003  0.0392 -0.2568  0.0610
 5805ntf    fn430375   3.993   2.592   2.932  0.0576  0.1064 -0.6838
 5806ntf    cn130376   4.460   3.641   0.759 -0.0036  0.3015 -0.3677
 5806ntf    sn230377   4.406   3.778   0.653  0.0015  0.3667 -0.2867
 5806ntf    nn330378   4.317   3.846   0.763  0.1254  0.2185 -0.0957
 5806ntf    sn230379   4.163   3.877   0.759  0.1764  0.4639 -0.1477
 5806ntf    cn130380   4.165   4.037   0.847 -0.0198  0.3399  0.0824
 5806ntf    fn430381   4.533   3.676   0.864 -0.3123 -0.1124 -0.0112
 5806ntf    fn430382   4.358   3.571   0.805  0.0144  0.3874 -0.1926
 5806ntf    fn430383   4.535   3.552   0.697 -0.4748 -0.3890  0.0381
 5806ntf    on530384   4.527   3.847   0.614 -0.0915  0.9716  0.4720
 5806ntf    on530385   4.332   3.715   0.547 -0.1124  0.2933 -0.1629
 5806ntf    on530386   4.077   3.790   0.836  0.3430  0.6140  0.2152
 5806ntf    on530387   4.117   3.924   0.631  0.6002 -0.0782 -0.5048
 5806ntf    fn430388   4.181   4.032   0.978  0.3990  0.2511  0.0285
 5806ntf    fn430389   4.266   4.109   0.802  0.3216 -0.1985 -0.0312
 5806ntf    fn430390   4.054   4.105   0.822 -0.3874 -0.2062  0.2018
 5807ntf    cn130391   4.307   0.260   2.713 -0.0852 -0.2429  0.1602
 5807ntf    sn230392   4.469   0.261   2.794 -0.0667 -0.2783  0.1228
 5807ntf    nn330393   4.454   0.396   2.873  0.2833 -0.2671  0.1732
 5807ntf    sn230394   4.413   0.422   3.022  0.0282 -0.0514  0.0666
 5807ntf    cn130395   4.566   0.444   3.118  0.3140 -0.2473 -0.3392
 5807ntf    fn430396   4.209   0.245   2.801 -0.0182  0.3034  0.3295
 5807ntf    fn430397   4.275   0.372   2.650 -0.6381 -0.2597  0.4093
 5807ntf    fn430398   4.292   0.163   2.623 -0.0302  0.2918 -0.4304
 5807ntf    on530399   4.479   0.138   2.869 -0.5736 -0.1224  0.4532
 5807ntf    on530400   4.555   0.285   2.681 -0.1495 -0.7459 -0.0421
 5807ntf    on530401   4.331   0.317   3.077  0.4622 -0.3577  0.1329
 5807ntf    on530402   4.352   0.552   3.028 -0.0194 -0.0756  0.1099
 5807ntf    fn430403   4.629   0.332   3.149  0.4251  0.0807  0.6482
 5807ntf    fn430404   4.643   0.538   3.066 -0.1550  0.3168 -0.0357
 5807ntf    fn430405   4.543   0.487   3.242 -0.0695 -0.1939 -0.4266
 5808ntf    cn130406   0.337   0.701   6.103 -0.3131 -0.0071 -0.1854
 5808ntf    sn230407   0.513   0.678   6.138 -0.3145  0.1460 -0.0761
 5808ntf    nn330408   0.582   0.690   5.998  0.1343  0.2282  0.1505
 5808ntf    sn230409   0.708   0.612   5.946  0.0199 -0.1515  0.4376
 5808ntf    cn130410   0.847   0.715   6.002  0.1941 -0.0560 -0.1603
 5808ntf    fn430411   0.259   0.700   6.210 -0.0064  0.1136  0.0384
 5808ntf    fn430412   0.315   0.817   6.042 -0.1610  0.6455  0.9741
 5808ntf    fn430413   0.292   0.607   6.021  0.0322 -0.2064 -0.1484
 5808ntf    on530414   0.549   0.785   6.227  0.3069  0.1688 -0.3485
 5808ntf    on530415   0.526   0.546   6.196 -0.2532  0.0675 -0.2670
 5808ntf    on530416   0.724   0.617   5.802 -0.1897  0.0360  0.4201
 5808ntf    on530417   0.743   0.482   5.998  0.1610 -0.2649  0.0650
 5808ntf    fn430418   0.846   0.723   6.134 -0.5119  0.1466 -0.1720
 5808ntf    fn430419   0.968   0.668   5.976  0.2329 -0.0915  0.0793
 5808ntf    fn430420   0.841   0.836   5.947  0.0681  0.1468  0.2944
 5809ntf    cn130421   0.406   3.644   0.769  0.0914 -0.1936  0.1707
 5809ntf    sn230422   0.494   3.755   0.655 -0.0815 -0.1296  0.0991
 5809ntf    nn330423   0.485   3.660   0.531 -0.0289 -0.1642  0.1220
 5809ntf    sn230424   0.607   3.590   0.461  0.1696  0.2061  0.0967
 5809ntf    cn130425   0.520   3.457   0.373 -0.3475  0.7772 -0.2586
 5809ntf    fn430426   0.381   3.690   0.890 -0.2004 -0.0130  0.0442
 5809ntf    fn430427   0.286   3.609   0.724  0.1790  0.0547 -0.2598
 5809ntf    fn430428   0.467   3.529   0.796 -0.2208 -0.3451  0.2357
 5809ntf    on530429   0.414   3.875   0.651  0.0051 -0.0367  0.8910
 5809ntf    on530430   0.625   3.766   0.715 -0.2640 -0.4277  0.5601
 5809ntf    on530431   0.696   3.516   0.546  0.1197  0.5672  0.4678
 5809ntf    on530432   0.668   3.669   0.357 -0.3264  0.3123 -0.1149
 5809ntf    fn430433   0.604   3.381   0.305 -0.5776  0.3055 -0.0215
 5809ntf    fn430434   0.458   3.371   0.452  0.2634  0.1234 -0.4819
 5809ntf    fn430435   0.425   3.501   0.291 -0.4984  0.5033 -0.2323
 5810ntf    cn130436   0.153   4.329   3.637 -0.1883  0.3877 -0.4050
 5810ntf    sn230437   0.320   4.397   3.663 -0.0256 -0.0771 -0.2324
 5810ntf    nn330438   0.420   4.297   3.596 -0.0526  0.1210 -0.5691
 5810ntf    sn230439   0.414   4.140   3.598 -0.3717  0.1392  0.0070
 5810ntf    cn130440   0.548   4.097   3.712 -0.2005 -0.0263 -0.2541
 5810ntf    fn430441   0.059   4.422   3.635 -0.1230  0.4550 -0.3385
 5810ntf    fn430442   0.148   4.269   3.519 -0.5324 -0.2072 -0.0941
 5810ntf    fn430443   0.118   4.240   3.728  0.6504 -0.3659 -0.8064
 5810ntf    on530444   0.320   4.523   3.592 -0.3296  0.1596  0.1820
 5810ntf    on530445   0.327   4.404   3.807 -0.1730  1.1501 -0.2732
 5810ntf    on530446   0.452   4.080   3.472  0.4440 -0.1192  0.3703
 5810ntf    on530447   0.298   4.081   3.660  0.0415  0.1989  0.8390
 5810ntf    fn430448   0.539   3.973   3.756  0.2482 -0.0927 -0.3373
 5810ntf    fn430449   0.659   4.096   3.640 -0.2843 -0.5878 -0.3750
 5810ntf    fn430450   0.558   4.179   3.816 -0.4977 -0.0994 -0.1686
 5811ntf    cn130451   1.278   3.958   5.914  0.0987 -0.1477 -0.0101
 5811ntf    sn230452   1.172   3.813   5.939  0.2604 -0.2664 -0.0052
 5811ntf    nn330453   1.242   3.708   5.846  0.7547  0.4154 -0.4001
 5811ntf    sn230454   1.356   3.603   5.869  0.1922 -0.1369 -0.1297
 5811ntf    cn130455   1.250   3.456   5.882  0.4462 -0.3100 -0.0127
 5811ntf    fn430456   1.400   3.909   5.933 -0.0333 -0.6028 -0.3070
 5811ntf    fn430457   1.283   4.016   5.795 -0.1698  0.3100  0.2006
 5811ntf    fn430458   1.257   4.044   6.011  0.2050  0.1138 -0.2175
 5811ntf    on530459   1.171   3.791   6.082 -0.2138 -0.3255 -0.0159
 5811ntf    on530460   1.048   3.860   5.883 -0.0088  0.0212  0.8078
 5811ntf    on530461   1.422   3.618   5.997  0.4218  0.3751 -0.3068
 5811ntf    on530462   1.439   3.576   5.754  0.2808  0.3536 -0.1803
 5811ntf    fn430463   1.167   3.463   5.985  0.4113  0.4550 -0.0912
 5811ntf    fn430464   1.174   3.439   5.775  0.3977 -0.7831  0.0936
 5811ntf    fn430465   1.318   3.343   5.902  0.7087 -0.0628  0.5110
 5812ntf    cn130466   6.171   2.526   1.573 -0.3617 -0.1205  0.2468
 5812ntf    sn230467   6.068   2.647   1.486  0.0359 -0.0249 -0.0953
 5812ntf    nn330468   6.160   2.774   1.497  0.6534 -0.4833  0.1171
 5812ntf    sn230469   6.265   2.841   1.401  0.1044  0.0201 -0.1411
 5812ntf    cn130470   6.174   2.984   1.334 -0.3551 -0.1405  0.1349
 5812ntf    fn430471   6.301   2.552   1.575 -0.3927  0.0066  0.7889
 5812ntf    fn430472   6.136   2.515   1.700  0.3072  0.1799  0.4664
 5812ntf    fn430473   6.162   2.406   1.519  0.2473 -0.3025  0.5313
 5812ntf    on530474   6.048   2.599   1.352 -0.4448 -0.0053 -0.0345
 5812ntf    on530475   5.950   2.661   1.568  0.1726 -0.2251  0.1368
 5812ntf    on530476   6.304   2.769   1.283 -0.7590  0.2903 -0.5977
 5812ntf    on530477   6.372   2.883   1.489 -0.0443  0.2968 -0.0877
 5812ntf    fn430478   6.086   2.941   1.244 -0.5261 -0.3530  0.4012
 5812ntf    fn430479   6.119   3.057   1.429 -0.4352  0.3998 -0.3223
 5812ntf    fn430480   6.257   3.065   1.272 -0.3717  0.1932  0.5453
 5813ntf    cn130481   2.934   2.901   6.224 -0.0484  0.0227 -0.3121
 5813ntf    sn230482   2.846   2.825   6.364 -0.5218  0.5717 -0.3097
 5813ntf    nn330483   2.771   2.945   6.433 -0.1013  0.4933  0.3013
 5813ntf    sn230484   2.833   3.078   6.489 -0.1929  0.5355  0.3030
 5813ntf    cn130485   2.749   3.206   6.390 -0.0216  0.2782 -0.1796
 5813ntf    fn430486   3.053   2.942   6.264 -0.2340 -0.1093  0.4026
 5813ntf    fn430487   2.951   2.819   6.122 -0.1428 -0.0063 -0.3056
 5813ntf    fn430488   2.865   3.007   6.183 -0.0213  0.1089 -0.1383
 5813ntf    on530489   2.752   2.743   6.292 -0.3716  0.1550 -0.0354
 5813ntf    on530490   2.941   2.761   6.452 -0.6614  1.1409  0.2725
 5813ntf    on530491   2.975   3.098   6.475 -0.0678 -0.2659  0.3958
 5813ntf    on530492   2.784   3.106   6.621  0.7863  0.1356  0.7567
 5813ntf    fn430493   2.779   3.204   6.261  0.8293 -0.1375  0.0164
 5813ntf    fn430494   2.618   3.196   6.382 -0.0212  0.2843 -0.1946
 5813ntf    fn430495   2.784   3.328   6.430 -0.1031 -0.0194  0.8376
 5814ntf    cn130496   5.179   1.312   2.064 -0.6530 -0.0574  0.0600
 5814ntf    sn230497   5.158   1.143   2.128 -0.0585 -0.1093  0.1212
 5814ntf    nn330498   5.172   1.066   1.992  0.4776 -0.0941  0.1669
 5814ntf    sn230499   5.302   0.993   1.941  0.1967 -0.1453 -0.4777
 5814ntf    cn130500   5.278   1.017   1.762 -0.6250 -0.0498 -0.3577
 5814ntf    fn430501   5.286   1.330   1.989 -0.6831  0.6100  0.1740
 5814ntf    fn430502   5.080   1.349   1.984 -0.6277  0.2915  0.1904
 5814ntf    fn430503   5.175   1.406   2.157 -0.0261  0.0212  0.0116
 5814ntf    on530504   5.265   1.118   2.221  0.3948 -0.5037 -0.4997
 5814ntf    on530505   5.026   1.149   2.185  0.1236  0.9263  0.4625
 5814ntf    on530506   5.297   0.850   1.957  0.3765 -0.1075 -0.0710
 5814ntf    on530507   5.427   1.059   1.969 -0.1481  0.2770  0.1131
 5814ntf    fn430508   5.353   0.938   1.688 -0.2045 -0.5493  0.5785
 5814ntf    fn430509   5.155   0.981   1.730 -0.5108 -0.3085 -0.5056
 5814ntf    fn430510   5.293   1.142   1.724 -0.5374  0.1525  0.3287
 5815ntf    cn130511   0.650   0.675   2.623  0.1034  0.1838  0.0058
 5815ntf    sn230512   0.672   0.814   2.738 -0.0430  0.1714  0.0503
 5815ntf    nn330513   0.667   0.725   2.867  0.0722 -0.4893 -0.3993
 5815ntf    sn230514   0.548   0.703   2.968  0.2592  0.0413 -0.0648
 5815ntf    cn130515   0.614   0.545   3.027 -0.2683 -0.2880 -0.3514
 5815ntf    fn430516   0.703   0.566   2.675 -0.0693  0.1033  0.0131
 5815ntf    fn430517   0.522   0.656   2.593  0.0731 -0.3481  0.4526
 5815ntf    fn430518   0.720   0.697   2.513  0.1927  0.2849  0.0826
 5815ntf    on530519   0.804   0.872   2.724  0.3105 -0.4932  0.5718
 5815ntf    on530520   0.557   0.895   2.709  0.1090  0.4382  0.1793
 5815ntf    on530521   0.423   0.675   2.903 -0.0027  0.2458  0.3424
 5815ntf    on530522   0.553   0.794   3.081 -0.7372 -0.6466  0.5400
 5815ntf    fn430523   0.601   0.449   2.937 -0.0283 -0.2016 -0.4780
 5815ntf    fn430524   0.744   0.556   3.049 -0.2048 -0.1218 -0.8192
 5815ntf    fn430525   0.560   0.507   3.142  0.1767 -0.2353 -0.1209
 5816ntf    cn130526   6.454   7.419   3.160 -0.4699  0.1750  0.0464
 5816ntf    sn230527   6.614   7.487   3.108 -0.2488 -0.2960  0.1043
 5816ntf    nn330528   6.682   7.349   3.073  0.9884  0.3278 -0.0239
 5816ntf    sn230529   6.720   7.284   2.935 -0.2099 -0.4483 -0.0078
 5816ntf    cn130530   6.602   7.148   2.913 -0.4891 -0.2011 -0.0418
 5816ntf    fn430531   6.473   7.322   3.249 -0.0809 -0.0084 -0.2310
 5816ntf    fn430532   6.367   7.501   3.216 -0.2341 -0.0068  0.6989
 5816ntf    fn430533   6.386   7.357   3.065 -0.0644  0.2094 -0.2702
 5816ntf    on530534   6.583   7.574   2.997  0.3858 -0.5044 -0.2451
 5816ntf    on530535   6.665   7.541   3.231 -0.2046  0.1105 -0.0916
 5816ntf    on530536   6.843   7.210   2.950  0.2446  0.3641  0.3381
 5816ntf    on530537   6.706   7.371   2.820  1.0067  0.2731  0.3638
 5816ntf    fn430538   6.605   7.044   2.994 -0.5225 -0.4346 -0.3396
 5816ntf    fn430539   6.476   7.189   2.909 -0.5306 -0.2531  0.6117
 5816ntf    fn430540   6.614   7.087   2.796 -0.2638  0.3146 -0.2901
 5817ntf    cn130541   3.001   2.466   5.546  0.2206  0.0361 -0.1510
 5817ntf    sn230542   2.908   2.484   5.701  0.1466  0.3539 -0.2311
 5817ntf    nn330543   2.786   2.559   5.638  0.1045  0.3869 -0.1107
 5817ntf    sn230544   2.761   2.713   5.623  0.1760  0.4090  0.0005
 5817ntf    cn130545   2.591   2.723   5.686  0.1981 -0.2732  0.1699
 5817ntf    fn430546   3.018   2.578   5.478  0.4294  0.1303  0.0544
 5817ntf    fn430547   3.120   2.414   5.571  0.0737 -0.4183 -0.3782
 5817ntf    fn430548   2.957   2.376   5.460  0.1083 -0.1829  0.1346
 5817ntf    on530549   2.895   2.346   5.742  0.2732  0.2170 -0.6487
 5817ntf    on530550   2.991   2.569   5.783 -0.1120  0.5798 -0.2028
 5817ntf    on530551   2.747   2.756   5.486 -0.2649 -0.2210 -0.1547
 5817ntf    on530552   2.829   2.808   5.708  0.6250 -0.1489  0.2701
 5817ntf    fn430553   2.502   2.626   5.669 -0.5115  0.4227 -0.1705
 5817ntf    fn430554   2.601   2.742   5.816  0.0994  0.1846  0.1120
 5817ntf    fn430555   2.534   2.832   5.638  0.5760 -0.2331 -0.1983
 5818ntf    cn130556   5.241   5.437   1.299 -0.4296  0.1645 -0.2054
 5818ntf    sn230557   5.328   5.493   1.150 -0.0643  0.1781  0.0137
 5818ntf    nn330558   5.277   5.636   1.112 -0.1403  0.2305  0.3160
 5818ntf    sn230559   5.222   5.689   0.974  0.2830 -0.1234  0.0113
 5818ntf    cn130560   5.363   5.795   0.929  0.1501  0.2325  0.4247
 5818ntf    fn430561   5.109   5.453   1.292 -0.4505 -0.0359 -0.2826
 5818ntf    fn430562   5.266   5.309   1.321  0.0117  0.3045  0.1175
 5818ntf    fn430563   5.274   5.499   1.410 -0.0280 -0.2455 -0.0954
 5818ntf    on530564   5.464   5.512   1.195 -0.1233  0.4606  0.0707
 5818ntf    on530565   5.299   5.384   1.060  0.3553  0.1277 -0.0645
 5818ntf    on530566   5.112   5.778   0.998  0.0478 -0.4540  0.1656
 5818ntf    on530567   5.205   5.593   0.867 -0.0216  0.2812 -0.3053
 5818ntf    fn430568   5.466   5.717   0.897  0.1361  0.1891  0.4883
 5818ntf    fn430569   5.330   5.852   0.814  0.8160  0.2129  0.2178
 5818ntf    fn430570   5.399   5.888   1.016  0.8873  0.4004 -0.0525
 5819ntf    cn130571   6.196   2.994   3.817 -0.4226 -0.1224 -0.0017
 5819ntf    sn230572   6.049   2.985   3.711 -0.1865 -0.0592 -0.3379
 5819ntf    nn330573   6.086   3.072   3.586 -0.5746  0.2603 -0.2310
 5819ntf    sn230574   6.116   3.031   3.438 -0.2682  0.0587 -0.1145
 5819ntf    cn130575   5.985   3.117   3.344 -0.0161  0.4948 -0.0709
 5819ntf    fn430576   6.195   2.911   3.921 -0.4833  0.1974  0.2548
 5819ntf    fn430577   6.307   2.987   3.745 -0.3212 -0.3900  0.1779
 5819ntf    fn430578   6.195   3.114   3.872 -0.0173  0.1566 -0.5874
 5819ntf    on530579   6.036   2.844   3.685  0.3436 -0.2321  0.3104
 5819ntf    on530580   5.947   3.046   3.792  0.2097  0.1777 -0.0143
 5819ntf    on530581   6.093   2.892   3.408 -0.1801  0.2092 -0.9128
 5819ntf    on530582   6.237   3.083   3.381 -0.1900 -0.8251 -0.7790
 5819ntf    fn430583   5.864   3.105   3.397  0.0923  0.0233  0.0755
 5819ntf    fn430584   6.005   3.247   3.329  0.7234  0.4049  0.0709
 5819ntf    fn430585   5.964   3.068   3.223 -0.0991  0.1810  0.0673
 5820ntf    cn130586   5.426   5.741   1.651 -0.0916 -0.0929  0.1594
 5820ntf    sn230587   5.529   5.820   1.778 -0.0794  0.2434 -0.0559
 5820ntf    nn330588   5.549   5.692   1.868 -0.1176  0.3014  0.0361
 5820ntf    sn230589   5.614   5.675   2.009 -0.2998  0.1521  0.1019
 5820ntf    cn130590   5.777   5.609   1.963 -0.2157  0.2024  0.3218
 5820ntf    fn430591   5.307   5.711   1.701  0.0733 -0.1521  0.5146
 5820ntf    fn430592   5.410   5.830   1.553  0.0749  0.0587  0.2697
 5820ntf    fn430593   5.474   5.633   1.592 -0.0632 -0.1055  0.2058
 5820ntf    on530594   5.652   5.856   1.713 -0.0485 -0.1986 -0.2458
 5820ntf    on530595   5.439   5.915   1.838 -0.3950  0.3647 -0.7117
 5820ntf    on530596   5.548   5.573   2.087 -0.5134  0.1540 -0.0786
 5820ntf    on530597   5.655   5.801   2.066 -0.5673  0.4165 -0.2860
 5820ntf    fn430598   5.862   5.689   1.901  0.0395  0.0011  0.4094
 5820ntf    fn430599   5.853   5.563   2.061 -0.3159 -0.3855  0.1299
 5820ntf    fn430600   5.762   5.509   1.877 -0.2152  0.5568 -0.0941
 5821ntf    cn130601   2.214   7.164   5.185 -0.5960  0.4077 -0.1933
 5821ntf    sn230602   2.223   7.222   5.013 -0.0164  0.0448 -0.2882
 5821ntf    nn330603   2.091   7.164   4.952 -0.1660 -0.0793  0.1529
 5821ntf    sn230604   2.056   7.086   4.820  0.1344 -0.1998  0.1455
 5821ntf    cn130605   1.898   7.165   4.778  0.3767  0.0913 -0.2328
 5821ntf    fn430606   2.215   7.032   5.192  0.3318  0.4341  0.3208
 5821ntf    fn430607   2.321   7.210   5.248 -0.2441 -0.2043 -0.3309
 5821ntf    fn430608   2.111   7.213   5.251 -0.2008  0.3952  0.4421
 5821ntf    on530609   2.220   7.366   5.015  0.1430  0.0605 -0.9458
 5821ntf    on530610   2.336   7.159   4.949 -0.3703 -0.5365 -0.3494
 5821ntf    on530611   2.018   6.948   4.833 -0.7241  0.0780  0.6910
 5821ntf    on530612   2.144   7.116   4.710  0.3914 -0.8117  0.1819
 5821ntf    fn430613   1.803   7.154   4.870  0.4208 -0.2367 -0.2263
 5821ntf    fn430614   1.917   7.296   4.774 -0.2271  0.1912 -0.0597
 5821ntf    fn430615   1.847   7.134   4.660  0.2680 -0.3478 -0.0734
 5822ntf    cn130616   3.056   2.856   4.998 -0.1044 -0.0347  0.2878
 5822ntf    sn230617   3.009   2.722   4.885 -0.2925  0.0456  0.2711
 5822ntf    nn330618   2.852   2.733   4.885 -0.3086 -0.1561  0.0657
 5822ntf    sn230619   2.742   2.720   4.775 -0.1013  0.0279 -0.1658
 5822ntf    cn130620   2.717   2.897   4.739 -0.0112  0.1542  0.3877
 5822ntf    fn430621   2.999   2.967   4.955 -0.2446 -0.1307  0.2265
 5822ntf    fn430622   3.009   2.841   5.120 -0.0672 -0.7936  0.2131
 5822ntf    fn430623   3.184   2.889   5.007  0.1753 -0.9287 -0.2500
 5822ntf    on530624   3.074   2.755   4.760  0.3953 -0.6865  0.4286
 5822ntf    on530625   3.065   2.611   4.958  0.1462 -0.1601 -0.3602
 5822ntf    on530626   2.615   2.677   4.829  0.1272 -0.4698 -0.0223
 5822ntf    on530627   2.774   2.678   4.641 -0.2518  0.8728 -0.4749
 5822ntf    fn430628   2.644   2.961   4.829 -0.3602  0.1449  0.1149
 5822ntf    fn430629   2.833   2.958   4.728  0.2294 -0.2639  0.5973
 5822ntf    fn430630   2.649   2.911   4.626  0.2665 -0.1964  0.1734
 5823ntf    cn130631   1.319   6.547   4.470 -0.1828 -0.3759  0.2644
 5823ntf    sn230632   1.334   6.459   4.629  0.1444 -0.3823  0.2299
 5823ntf    nn330633   1.236   6.339   4.607  0.4547 -0.6405  0.2569
 5823ntf    sn230634   1.088   6.313   4.653  0.1096  0.1809 -0.3689
 5823ntf    cn130635   1.116   6.231   4.813 -0.3271 -0.1163 -0.4472
 5823ntf    fn430636   1.203   6.593   4.428  0.2280  0.2648 -0.1828
 5823ntf    fn430637   1.386   6.660   4.462 -0.3465 -0.3252 -0.4326
 5823ntf    fn430638   1.355   6.463   4.374  0.1272 -0.3746  0.3776
 5823ntf    on530639   1.472   6.416   4.626  0.2303 -0.0678 -1.0161
 5823ntf    on530640   1.297   6.565   4.719  0.6745  0.3930 -0.4504
 5823ntf    on530641   1.026   6.219   4.564  0.4475 -0.0734 -0.3364
 5823ntf    on530642   1.010   6.428   4.692 -0.1171 -0.0393 -0.1692
 5823ntf    fn430643   0.999   6.214   4.873 -0.3094  0.5433 -0.2223
 5823ntf    fn430644   1.188   6.120   4.817  0.1172  0.1957  0.5104
 5823ntf    fn430645   1.180   6.313   4.893 -0.0256 -0.4760 -0.3147
 5824ntf    cn130646   3.682   1.117   1.611  0.2380 -0.1065  0.0195
 5824ntf    sn230647   3.659   0.959   1.698 -0.0779  0.0633  0.2464
 5824ntf    nn330648   3.645   1.001   1.848  0.2841 -0.4172  0.4165
 5824ntf    sn230649   3.746   0.991   1.968  0.2621  0.0858  0.4796
 5824ntf    cn130650   3.671   1.112   2.081 -0.5778  0.2671 -0.2625
 5824ntf    fn430651   3.795   1.126   1.544  0.1424 -0.5618 -0.2098
 5824ntf    fn430652   3.584   1.135   1.523 -0.1486  0.3363  0.5357
 5824ntf    fn430653   3.679   1.223   1.690 -0.9482  0.0902 -0.2546
 5824ntf    on530654   3.533   0.913   1.645  0.0666  0.3352 -0.3450
 5824ntf    on530655   3.775   0.882   1.661  0.2472  0.8733 -0.4474
 5824ntf    on530656   3.876   1.048   1.940  0.0583  0.3464  0.0696
 5824ntf    on530657   3.741   0.865   2.038  0.8917 -0.2322 -0.0401
 5824ntf    fn430658   3.539   1.109   2.070 -0.6322  0.9668  0.1177
 5824ntf    fn430659   3.698   1.082   2.207 -1.0714  0.9241  0.0024
 5824ntf    fn430660   3.720   1.234   2.069  0.2916 -0.0291  0.1769
 5825ntf    cn130661   2.255   1.673   6.591 -0.1316 -0.3958  0.3908
 5825ntf    sn230662   2.075   1.671   6.564 -0.1395  0.0396  0.3958
 5825ntf    nn330663   2.055   1.570   6.446 -0.1399  0.5595 -0.0524
 5825ntf    sn230664   1.991   1.426   6.451 -0.0524  0.5365  0.4811
 5825ntf    cn130665   2.103   1.322   6.548 -0.2133  0.2024  0.3106
 5825ntf    fn430666   2.315   1.566   6.640  0.7776  0.1397  0.4753
 5825ntf    fn430667   2.323   1.694   6.479 -0.5592  0.7783  0.3380
 5825ntf    fn430668   2.284   1.778   6.666 -0.1511 -0.0972 -0.0126
 5825ntf    on530669   2.020   1.634   6.692 -0.2924 -0.8186  0.0879
 5825ntf    on530670   2.056   1.809   6.529  0.0144 -0.1091 -0.2917
 5825ntf    on530671   2.005   1.379   6.315 -0.4322  0.5734  0.4283
 5825ntf    on530672   1.856   1.410   6.500  0.0021  0.2606  0.5433
 5825ntf    fn430673   2.084   1.347   6.677  0.5344  0.1586  0.4327
 5825ntf    fn430674   2.070   1.194   6.533  0.0755  0.1207  0.3700
 5825ntf    fn430675   2.231   1.338   6.520 -0.3553  0.4524 -0.1940
 5826ntf    cn130676   2.403   0.003   4.179  0.0581  0.0399 -0.0235
 5826ntf    sn230677   2.404  -0.075   4.343 -0.2068  0.0750 -0.0054
 5826ntf    nn330678   2.557  -0.110   4.353 -0.2549 -0.1138  0.0850
 5826ntf    sn230679   2.636  -0.210   4.444  0.0017  0.0223  0.0137
 5826ntf    cn130680   2.647  -0.346   4.323  0.2360  0.2395 -0.2076
 5826ntf    fn430681   2.406  -0.088   4.083  0.2824  0.0158  0.0046
 5826ntf    fn430682   2.289   0.069   4.173  0.0693  0.0044 -0.7330
 5826ntf    fn430683   2.499   0.090   4.153 -0.0742  0.0630 -0.4421
 5826ntf    on530684   2.361   0.023   4.439 -0.4923 -0.2742  0.2286
 5826ntf    on530685   2.321  -0.191   4.321 -0.0505  0.0052 -0.2232
 5826ntf    on530686   2.562  -0.263   4.557 -0.1404  0.5258  0.1585
 5826ntf    on530687   2.773  -0.170   4.457 -0.2266  0.7111  0.3279
 5826ntf    fn430688   2.711  -0.448   4.377  0.3994  0.3171 -0.2508
 5826ntf    fn430689   2.530  -0.399   4.292  0.1093  0.4439 -0.0800
 5826ntf    fn430690   2.709  -0.310   4.211  0.3732  0.3004 -0.1130
 5827ntf    cn130691   4.931   7.433   0.988 -0.2679  0.0013 -0.1161
 5827ntf    sn230692   4.753   7.468   0.984 -0.2255  0.2082 -0.2922
 5827ntf    nn330693   4.731   7.519   0.837 -0.3662  0.2203 -0.2675
 5827ntf    sn230694   4.724   7.430   0.708 -0.3869 -0.2812  0.0795
 5827ntf    cn130695   4.547   7.414   0.670 -0.3169 -0.5903 -0.1206
 5827ntf    fn430696   5.004   7.534   0.942  0.0299 -0.3278 -0.3661
 5827ntf    fn430697   4.978   7.421   1.111 -0.2733 -0.4851 -0.1619
 5827ntf    fn430698   4.968   7.329   0.915  0.4893  0.3218 -0.2007
 5827ntf    on530699   4.697   7.338   1.015 -0.6708  0.4186 -0.2104
 5827ntf    on530700   4.735   7.567   1.087  0.3149 -0.0388  0.0462
 5827ntf    on530701   4.770   7.293   0.711  0.1329 -0.1067  0.1758
 5827ntf    on530702   4.767   7.506   0.593  0.4661 -0.8320  0.0186
 5827ntf    fn430703   4.518   7.344   0.561 -0.0117 -0.1631 -0.4836
 5827ntf    fn430704   4.497   7.350   0.774  0.4331  0.3420  0.8280
 5827ntf    fn430705   4.486   7.531   0.676  0.5994 -0.0933 -0.3294
 5828ntf    cn130706   5.229   2.111   4.403 -0.0216  0.1176  0.0657
 5828ntf    sn230707   5.239   2.249   4.521 -0.2589  0.1649  0.0284
 5828ntf    nn330708   5.391   2.282   4.500 -0.1425 -0.4003 -0.0365
 5828ntf    sn230709   5.515   2.254   4.591 -0.0695  0.0653  0.0100
 5828ntf    cn130710   5.645   2.194   4.478  0.2201 -0.1565  0.4558
 5828ntf    fn430711   5.188   2.151   4.284 -0.0201  0.1208  0.0659
 5828ntf    fn430712   5.345   2.051   4.380  0.0111  0.0552  0.3930
 5828ntf    fn430713   5.152   2.013   4.447 -0.1673  0.3889  0.4132
 5828ntf    on530714   5.155   2.346   4.455 -0.2305  0.2197  0.0731
 5828ntf    on530715   5.205   2.195   4.650  1.2577 -0.5224  0.1513
 5828ntf    on530716   5.512   2.137   4.676  0.2163  0.2805  0.3216
 5828ntf    on530717   5.572   2.373   4.649 -0.3670  0.1350  0.1628
 5828ntf    fn430718   5.609   2.077   4.427  0.1305  0.1138 -0.1149
 5828ntf    fn430719   5.660   2.282   4.380 -0.3410 -0.0485  0.4630
 5828ntf    fn430720   5.765   2.181   4.530  0.4563  0.5008  0.0847
 5829ntf    cn130721   3.659   2.266   1.150 -0.1423  0.3516 -0.1194
 5829ntf    sn230722   3.780   2.148   1.083 -0.2416  0.2583 -0.1362
 5829ntf    nn330723   3.903   2.163   1.180 -0.0433  0.0050 -0.3461
 5829ntf    sn230724   4.022   2.264   1.167 -0.1497  0.1726 -0.0301
 5829ntf    cn130725   3.977   2.393   1.288  0.0726 -0.1221  0.3706
 5829ntf    fn430726   3.539   2.269   1.095 -0.1835 -0.2864 -0.0708
 5829ntf    fn430727   3.645   2.245   1.280  0.2042  0.6870 -0.0290
 5829ntf    fn430728   3.705   2.390   1.142  0.2820  0.2268  0.3663
 5829ntf    on530729   3.725   2.017   1.106  0.3001  0.1006  0.2677
 5829ntf    on530730   3.795   2.186   0.944 -0.1869  0.2774 -0.1250
 5829ntf    on530731   4.031   2.334   1.041  0.3269 -0.0730 -0.1346
 5829ntf    on530732   4.147   2.218   1.224 -0.0458  0.1592 -0.2702
 5829ntf    fn430733   3.988   2.346   1.411 -0.1794 -0.2286  0.3512
 5829ntf    fn430734   4.050   2.502   1.274  0.2874 -0.2591  0.4068
 5829ntf    fn430735   3.849   2.423   1.283  0.0360 -0.3381 -0.1255
 5830ntf    cn130736   6.136   3.813   6.937  0.2659  0.0598 -0.0198
 5830ntf    sn230737   6.284   3.732   6.870  0.2992  0.0844  0.0237
 5830ntf    nn330738   6.215   3.602   6.815  0.0920  0.1949  0.0236
 5830ntf    sn230739   6.281   3.466   6.771 -0.0054  0.2012 -0.1433
 5830ntf    cn130740   6.262   3.474   6.591 -0.0141 -0.4151 -0.1693
 5830ntf    fn430741   6.077   3.737   7.029 -0.6314  1.0985  0.2790
 5830ntf    fn430742   6.165   3.933   6.983 -0.5825  0.1634  0.2583
 5830ntf    fn430743   6.047   3.833   6.842  0.1299  0.3624  0.1710
 5830ntf    on530744   6.334   3.820   6.768  0.0370  0.7001  0.4179
 5830ntf    on530745   6.366   3.697   6.984  0.2031  0.6187  0.2599
 5830ntf    on530746   6.201   3.357   6.821 -0.5838  0.6059 -0.1751
 5830ntf    on530747   6.422   3.456   6.799 -0.0470  0.0167  0.0039
 5830ntf    fn430748   6.297   3.364   6.525  0.4814 -0.3921  0.0523
 5830ntf    fn430749   6.140   3.516   6.560  0.0967 -0.1050 -0.1809
 5830ntf    fn430750   6.344   3.569   6.551  0.0383 -0.1500  0.5671
 5831ntf    cn130751   1.386   3.558   7.438 -0.2519  0.1959 -0.3326
 5831ntf    sn230752   1.292   3.680   7.341 -0.3193  0.2847 -0.1555
 5831ntf    nn330753   1.381   3.806   7.369  0.1148  0.0270 -0.3580
 5831ntf    sn230754   1.389   3.892   7.500 -0.0547 -0.0449 -0.3001
 5831ntf    cn130755   1.560   3.871   7.560 -0.0872  0.0209 -0.1846
 5831ntf    fn430756   1.380   3.595   7.564  0.1409  0.4939 -0.4017
 5831ntf    fn430757   1.338   3.434   7.430  0.0957  0.0439 -0.0698
 5831ntf    fn430758   1.513   3.561   7.401 -0.2013  0.1169 -0.1665
 5831ntf    on530759   1.305   3.635   7.205 -0.3412  0.4573 -0.2148
 5831ntf    on530760   1.156   3.673   7.388 -0.3923 -0.3218 -0.4420
 5831ntf    on530761   1.298   3.861   7.608  0.3689  0.5048  0.2165
 5831ntf    on530762   1.385   4.029   7.456 -0.0772 -0.1036 -0.4808
 5831ntf    fn430763   1.608   3.748   7.563  0.1090  0.1012 -0.0329
 5831ntf    fn430764   1.651   3.928   7.484 -0.0110  0.0842 -0.0445
 5831ntf    fn430765   1.574   3.931   7.677  0.2251  0.1152 -0.2693
 5832ntf    cn130766   2.294   3.764   0.617 -0.4669  0.0211  0.5298
 5832ntf    sn230767   2.375   3.674   0.752 -0.2608 -0.1989  0.2623
 5832ntf    nn330768   2.510   3.752   0.773 -0.3807 -0.0013  0.3071
 5832ntf    sn230769   2.597   3.746   0.904 -0.1439 -0.4819  0.1330
 5832ntf    cn130770   2.596   3.922   0.951  0.2670 -0.5761  0.4927
 5832ntf    fn430771   2.372   3.765   0.510 -0.3309  0.0444  0.6282
 5832ntf    fn430772   2.187   3.691   0.593 -0.2582 -0.2942  0.5477
 5832ntf    fn430773   2.262   3.891   0.637  0.4153  0.4240 -0.5175
 5832ntf    on530774   2.278   3.676   0.859 -0.3778 -0.4300  0.1619
 5832ntf    on530775   2.405   3.542   0.704  0.2839 -0.2540  0.7367
 5832ntf    on530776   2.734   3.727   0.863 -0.0814  1.0297 -0.4420
 5832ntf    on530777   2.547   3.683   1.023 -0.1500 -0.1372  0.3160
 5832ntf    fn430778   2.473   3.968   0.968  0.2183 -0.4530 -0.1522
 5832ntf    fn430779   2.675   3.956   1.052  0.5480 -0.5946  0.2808
 5832ntf    fn430780   2.643   3.988   0.846 -0.1585 -0.4624  0.3745
 5833ntf    cn130781   5.585   6.011   5.516  0.1519 -0.3073 -0.0072
 5833ntf    sn230782   5.603   5.839   5.571  0.1070 -0.2966  0.0423
 5833ntf    nn330783   5.492   5.832   5.682 -0.1014 -0.5557 -0.1820
 5833ntf    sn230784   5.489   5.777   5.829  0.0205 -0.1336 -0.0191
 5833ntf    cn130785   5.333   5.683   5.838 -0.0860  0.0812  0.3477
 5833ntf    fn430786   5.462   6.057   5.502  0.3237  0.0685 -0.3054
 5833ntf    fn430787   5.638   6.092   5.606 -0.1879 -0.2383  0.1308
 5833ntf    fn430788   5.655   6.038   5.407 -0.7431  0.2582 -0.4500
 5833ntf    on530789   5.566   5.752   5.462 -0.0219 -0.3417  0.1221
 5833ntf    on530790   5.741   5.830   5.614  0.1711  0.5197  0.0148
 5833ntf    on530791   5.457   5.885   5.918  0.9326  0.0768  0.0603
 5833ntf    on530792   5.593   5.682   5.860 -0.2218 -0.5096 -0.3315
 5833ntf    fn430793   5.304   5.638   5.959 -0.3157 -0.5139  0.0725
 5833ntf    fn430794   5.232   5.755   5.794  0.2210  0.2267 -0.1216
 5833ntf    fn430795   5.342   5.573   5.766  0.4065 -0.1951  0.8212
 5834ntf    cn130796   4.806   6.647   2.257 -0.2019  0.2047  0.1244
 5834ntf    sn230797   4.950   6.727   2.181 -0.1224 -0.0438  0.0098
 5834ntf    nn330798   4.941   6.702   2.027  0.1876  0.4657 -0.0937
 5834ntf    sn230799   5.012   6.588   1.947  0.5031  0.4315  0.2374
 5834ntf    cn130800   4.998   6.655   1.779  0.0168  0.4296  0.2758
 5834ntf    fn430801   4.824   6.516   2.268  0.2023  0.2321 -0.2212
 5834ntf    fn430802   4.763   6.699   2.371 -0.4304 -0.2271  0.2368
 5834ntf    fn430803   4.697   6.662   2.184 -0.0746 -0.2474 -0.1626
 5834ntf    on530804   4.935   6.868   2.209 -0.2861  0.0625 -0.5968
 5834ntf    on530805   5.062   6.667   2.249 -0.5291 -0.5178  0.2705
 5834ntf    on530806   4.931   6.469   1.942  0.3912  0.5079  0.2333
 5834ntf    on530807   5.154   6.571   1.970  0.2871 -0.1454  1.1935
 5834ntf    fn430808   5.010   6.787   1.777  0.1586  0.4180  0.3714
 5834ntf    fn430809   5.095   6.608   1.702 -0.4379 -0.0807  0.0091
 5834ntf    fn430810   4.882   6.629   1.721  0.3864 -0.0133 -0.2675
 5835ntf    cn130811   0.821   7.270   6.973 -0.0720 -0.1662 -0.0628
 5835ntf    sn230812   0.728   7.217   6.826  0.2616  0.1699 -0.3950
 5835ntf    nn330813   0.811   7.089   6.789  0.2020 -0.1304  0.4992
 5835ntf    sn230814   0.926   7.083   6.683 -0.0418 -0.0958  0.2327
 5835ntf    cn130815   1.051   6.998   6.784 -0.1223 -0.5042 -0.0063
 5835ntf    fn430816   0.951   7.249   6.956 -0.0875 -0.1306 -0.2210
 5835ntf    fn430817   0.810   7.401   6.985 -0.6993 -0.1636 -0.6050
 5835ntf    fn430818   0.795   7.201   7.083  0.1285 -0.1991 -0.0354
 5835ntf    on530819   0.599   7.190   6.884  0.2680  0.2396 -0.3482
 5835ntf    on530820   0.740   7.321   6.727  0.3566  0.0106 -0.5521
 5835ntf    on530821   0.993   7.204   6.643 -0.2964  0.1863  0.6601
 5835ntf    on530822   0.899   6.980   6.585 -0.2057  0.1511  0.0178
 5835ntf    fn430823   1.052   7.035   6.911 -0.2470 -0.2298 -0.0848
 5835ntf    fn430824   1.034   6.867   6.780  0.5272 -0.6011  0.1929
 5835ntf    fn430825   1.171   7.027   6.735 -0.4082  0.6447 -0.0776
 5836ntf    cn130826   7.359   3.503   4.921  0.2144  0.1804  0.3812
 5836ntf    sn230827   7.427   3.338   4.951  0.1468  0.0892  0.0405
 5836ntf    nn330828   7.568   3.371   5.013  0.0446  0.3746  0.1220
 5836ntf    sn230829   7.712   3.327   4.970 -0.1040  0.0316 -0.0293
 5836ntf    cn130830   7.719   3.168   5.057  0.4153  0.2165  0.2684
 5836ntf    fn430831   7.229   3.497   4.897  0.2427  0.0447  0.2630
 5836ntf    fn430832   7.375   3.588   5.021 -0.0146  0.6722  0.0106
 5836ntf    fn430833   7.416   3.568   4.820  0.0056 -0.3977 -0.1119
 5836ntf    on530834   7.337   3.271   5.041 -0.7447  0.1959 -0.7606
 5836ntf    on530835   7.433   3.287   4.816 -0.4033  0.4477 -0.1231
 5836ntf    on530836   7.821   3.399   5.032 -0.1287  0.2138 -0.1948
 5836ntf    on530837   7.732   3.291   4.832  0.0668 -0.8992  0.2325
 5836ntf    fn430838   7.683   3.184   5.183 -0.4828 -0.3986  0.0946
 5836ntf    fn430839   7.644   3.069   5.011 -0.0181  0.5092  0.3389
 5836ntf    fn430840   7.843   3.121   5.066  0.1283 -0.5766  0.1785
 5837ntf    cn130841   3.840   7.270   5.292 -0.2021 -0.0393 -0.2721
 5837ntf    sn230842   3.793   7.113   5.370  0.0037  0.0855  0.1046
 5837ntf    nn330843   3.653   7.155   5.427 -0.2199 -0.2989 -0.1549
 5837ntf    sn230844   3.612   7.204   5.571  0.1746 -0.0741 -0.1164
 5837ntf    cn130845   3.506   7.345   5.527  0.1382 -0.0639  0.0053
 5837ntf    fn430846   3.957   7.252   5.232  0.1665  0.4255  0.3006
 5837ntf    fn430847   3.756   7.304   5.196 -0.3873  0.0331 -0.0835
 5837ntf    fn430848   3.848   7.370   5.379  0.8208 -0.4810  0.1610
 5837ntf    on530849   3.766   7.024   5.260  0.5110  0.8974 -0.6884
 5837ntf    on530850   3.901   7.086   5.463  0.1205 -0.4137 -0.1704
 5837ntf    on530851   3.715   7.268   5.649  0.1825  0.1636 -0.3205
 5837ntf    on530852   3.525   7.110   5.636  0.4388 -0.4739 -0.3355
 5837ntf    fn430853   3.469   7.417   5.631 -0.2022  0.1774 -0.2770
 5837ntf    fn430854   3.580   7.415   5.442 -0.0062 -0.3917 -0.3974
 5837ntf    fn430855   3.398   7.306   5.459  0.0938  0.3034 -0.1383
 5838ntf    cn130856   6.836   5.414   4.522  0.0354 -0.3276 -0.0124
 5838ntf    sn230857   6.999   5.361   4.464  0.0393 -0.1496 -0.1647
 5838ntf    nn330858   7.019   5.464   4.347  0.0931 -0.3683 -0.3501
 5838ntf    sn230859   6.975   5.447   4.198  0.4646 -0.0901 -0.4926
 5838ntf    cn130860   7.119   5.382   4.109  0.5140 -0.4486 -0.1523
 5838ntf    fn430861   6.836   5.540   4.563 -0.1790  0.0118 -1.0242
 5838ntf    fn430862   6.746   5.403   4.425  0.3257  0.6016 -0.3915
 5838ntf    fn430863   6.800   5.336   4.623  0.2199 -0.1110  0.2192
 5838ntf    on530864   7.096   5.371   4.570  0.6944 -0.4737 -0.7184
 5838ntf    on530865   6.974   5.225   4.422 -0.5929 -0.0278 -0.1851
 5838ntf    on530866   6.957   5.579   4.140  0.1651  0.1355  0.1074
 5838ntf    on530867   6.875   5.346   4.176 -0.0152  0.1425  0.5826
 5838ntf    fn430868   7.149   5.257   4.139 -0.2186 -0.5112  0.3327
 5838ntf    fn430869   7.098   5.384   3.978  0.5421 -0.2932 -0.1544
 5838ntf    fn430870   7.224   5.460   4.130  0.1619 -0.1544  0.5238
 5839ntf    cn130871   0.894   4.433   6.671  0.4656  0.0685 -0.3474
 5839ntf    sn230872   0.927   4.566   6.790  0.3792 -0.1079 -0.1270
 5839ntf    nn330873   0.989   4.675   6.697  0.4372  0.1006  0.1537
 5839ntf    sn230874   0.915   4.791   6.621 -0.0191 -0.2869  0.0053
 5839ntf    cn130875   0.924   4.929   6.739  0.2383 -0.3487  0.0579
 5839ntf    fn430876   0.989   4.411   6.581  0.0137  0.3913 -0.9098
 5839ntf    fn430877   0.875   4.317   6.732  0.5355  0.3166  0.1486
 5839ntf    fn430878   0.783   4.443   6.600 -0.0512 -0.6088  0.3564
 5839ntf    on530879   0.796   4.596   6.842  0.4246  0.0003 -0.0739
 5839ntf    on530880   1.019   4.507   6.886 -0.2440 -0.1906  0.4259
 5839ntf    on530881   0.772   4.785   6.604 -0.1370  0.1255  0.7595
 5839ntf    on530882   1.005   4.834   6.517  0.3374 -0.4042  0.2625
 5839ntf    fn430883   0.892   5.050   6.696  0.1482 -0.3076  0.2349
 5839ntf    fn430884   0.836   4.909   6.836  0.0409 -0.0393 -0.0546
 5839ntf    fn430885   1.036   4.945   6.808 -0.0393 -0.2093  0.4875
 5840ntf    cn130886   1.065   3.894   3.775  0.3203 -0.2946 -0.1408
 5840ntf    sn230887   1.174   4.014   3.858 -0.1595  0.1281 -0.1166
 5840ntf    nn330888   1.309   3.935   3.867  0.0680  0.5311 -0.0129
 5840ntf    sn230889   1.410   3.922   3.987  0.1909 -0.0138 -0.1743
 5840ntf    cn130890   1.387   3.750   4.043 -0.3931  0.1198 -0.0000
 5840ntf    fn430891   1.085   3.776   3.833 -0.1855 -0.0728  0.5068
 5840ntf    fn430892   0.937   3.924   3.794  0.3718 -0.1928  0.0533
 5840ntf    fn430893   1.086   3.869   3.647 -0.3850 -0.3375 -0.2555
 5840ntf    on530894   1.191   4.120   3.762  0.3341  0.2392  0.0906
 5840ntf    on530895   1.112   4.043   3.985  0.8497  0.9964  0.1876
 5840ntf    on530896   1.397   4.001   4.107  0.2052  0.1103 -0.2551
 5840ntf    on530897   1.547   3.905   3.945  0.1539 -0.3224 -0.1719
 5840ntf    fn430898   1.450   3.660   3.970 -0.0536  0.2108  0.1800
 5840ntf    fn430899   1.435   3.741   4.166 -0.0215 -0.1810 -0.1675
 5840ntf    fn430900   1.259   3.715   4.038 -0.2891 -0.3344  0.4501
 5841ntf    cn130901   6.552   1.035   1.475  0.5590 -0.3118  0.2289
 5841ntf    sn230902   6.591   1.201   1.537  0.1156 -0.0238 -0.2543
 5841ntf    nn330903   6.733   1.233   1.478  0.3246  0.1518  0.3352
 5841ntf    sn230904   6.867   1.192   1.547  0.4792  0.1155  0.0174
 5841ntf    cn130905   6.895   1.330   1.663  0.4441  0.1909 -0.0647
 5841ntf    fn430906   6.629   0.946   1.536  0.2466 -0.4893  0.3692
 5841ntf    fn430907   6.426   1.005   1.502  0.2512  0.0356 -0.7659
 5841ntf    fn430908   6.562   1.018   1.344 -0.2973 -0.6327  0.1969
 5841ntf    on530909   6.494   1.276   1.461 -0.4669 -0.3006  0.2108
 5841ntf    on530910   6.586   1.192   1.681 -0.0477  0.6748 -0.2143
 5841ntf    on530911   6.971   1.217   1.451  0.3196  0.4224 -0.0739
 5841ntf    on530912   6.879   1.072   1.626 -0.1977  0.1319  0.1537
 5841ntf    fn430913   6.805   1.333   1.760  0.8762 -0.0583  0.3459
 5841ntf    fn430914   7.011   1.323   1.725  0.2231 -0.2233  0.3102
 5841ntf    fn430915   6.892   1.451   1.609 -0.3386  0.0316 -0.4027
 5842ntf    cn130916   6.115   4.290   2.599  0.1062  0.2513  0.3385
 5842ntf    sn230917   6.092   4.382   2.443  0.0658 -0.1884  0.0842
 5842ntf    nn330918   6.128   4.529   2.485 -0.5991  0.2764 -0.9431
 5842ntf    sn230919   6.251   4.614   2.438 -0.2357  0.1185 -0.3007
 5842ntf    cn130920   6.184   4.684   2.283 -0.4028  0.1587 -0.2114
 5842ntf    fn430921   6.243   4.275   2.627  0.1637  0.0621 -0.0174
 5842ntf    fn430922   6.065   4.354   2.703 -0.4268  0.1495  0.1518
 5842ntf    fn430923   6.057   4.171   2.595  0.4378  0.0945  0.0928
 5842ntf    on530924   6.185   4.319   2.351  0.0450 -0.1732  0.0535
 5842ntf    on530925   5.954   4.354   2.415  0.1875 -0.1627 -0.5507
 5842ntf    on530926   6.367   4.534   2.410  0.0434  0.5239 -0.3120
 5842ntf    on530927   6.273   4.731   2.519 -0.7065 -0.1163  0.1717
 5842ntf    fn430928   6.088   4.769   2.317 -0.2736  0.2246 -0.0062
 5842ntf    fn430929   6.275   4.754   2.217  0.3909 -0.4445  0.2213
 5842ntf    fn430930   6.131   4.594   2.203 -0.3211 -0.1321  0.0586
 5843ntf    cn130931   1.111   1.477   6.086 -0.0868 -0.0574 -0.0830
 5843ntf    sn230932   1.135   1.334   6.196 -0.0235  0.1580  0.1846
 5843ntf    nn330933   0.985   1.288   6.193  0.0162  0.0499 -0.2678
 5843ntf    sn230934   0.919   1.181   6.099  0.2615 -0.2145 -0.1372
 5843ntf    cn130935   0.906   1.029   6.199  0.2799 -0.1154  0.0165
 5843ntf    fn430936   1.222   1.504   6.020 -0.1054 -0.0953 -0.1300
 5843ntf    fn430937   1.019   1.462   5.992 -0.4965  0.4211  0.2336
 5843ntf    fn430938   1.079   1.578   6.165  0.1418  0.0024 -0.0690
 5843ntf    on530939   1.234   1.249   6.135  0.2911  0.6568 -0.0019
 5843ntf    on530940   1.170   1.407   6.315  0.3068 -0.0511  0.2160
 5843ntf    on530941   0.996   1.138   5.985  0.3207 -0.1265 -0.1303
 5843ntf    on530942   0.781   1.211   6.073  0.0944 -0.4510  0.4598
 5843ntf    fn430943   1.012   0.949   6.190  0.2521 -0.1669  0.1573
 5843ntf    fn430944   0.886   1.062   6.325 -0.7040 -0.4370 -0.0494
 5843ntf    fn430945   0.798   0.962   6.163  0.5556 -0.5839  0.0515
 5844ntf    cn130946   6.667   3.400   4.476 -0.1658 -0.3551 -0.1363
 5844ntf    sn230947   6.491   3.424   4.438 -0.1804  0.3653  0.3679
 5844ntf    nn330948   6.466   3.287   4.366 -0.0491  0.5940 -0.1201
 5844ntf    sn230949   6.461   3.246   4.214 -0.3579  0.1956 -0.0030
 5844ntf    cn130950   6.573   3.103   4.229 -0.2661  0.2710  0.0306
 5844ntf    fn430951   6.735   3.352   4.373 -0.1556  0.2968 -0.4357
 5844ntf    fn430952   6.730   3.509   4.518 -0.1416  0.0108 -1.0893
 5844ntf    fn430953   6.684   3.313   4.574 -0.2004 -0.3320 -0.1109
 5844ntf    on530954   6.431   3.426   4.568 -0.1170 -0.3815  0.4118
 5844ntf    on530955   6.492   3.538   4.350 -0.1118  0.0408 -0.0565
 5844ntf    on530956   6.525   3.341   4.128  0.1929 -0.1278  0.0429
 5844ntf    on530957   6.342   3.173   4.178 -0.3996  0.6106 -0.7172
 5844ntf    fn430958   6.603   3.054   4.110  0.4914  0.3483  0.1871
 5844ntf    fn430959   6.687   3.127   4.292 -0.3372 -0.2535  0.3712
 5844ntf    fn430960   6.521   2.996   4.286  0.1263 -0.1459 -0.3893
 5845ntf    cn130961   6.109   6.428   0.096 -0.0255  0.4770 -0.2368
 5845ntf    sn230962   6.157   6.260   0.045 -0.1634  0.4603 -0.3170
 5845ntf    nn330963   6.312   6.284   0.053 -0.2590  0.8504  0.4915
 5845ntf    sn230964   6.414   6.184   0.118 -0.1309  0.5622 -0.1441
 5845ntf    cn130965   6.347   6.017   0.094 -0.0740  0.5140  0.0250
 5845ntf    fn430966   6.175   6.515   0.022  0.6942  0.1648  0.0300
 5845ntf    fn430967   5.977   6.437   0.087 -0.0932 -0.3105 -0.1319
 5845ntf    fn430968   6.148   6.454   0.219 -0.6021  0.5509 -0.0639
 5845ntf    on530969   6.100   6.181   0.151  0.6790 -0.1739 -0.3198
 5845ntf    on530970   6.105   6.252  -0.089  0.2491 -0.2402 -0.4417
 5845ntf    on530971   6.418   6.195   0.262 -0.1781 -0.6684 -0.0324
 5845ntf    on530972   6.539   6.186   0.046 -0.0529  0.7476 -0.0040
 5845ntf    fn430973   6.259   6.012  -0.006  0.1309 -0.3394 -0.1205
 5845ntf    fn430974   6.440   5.928   0.062 -0.5232  0.0557 -0.0283
 5845ntf    fn430975   6.287   5.958   0.196 -0.5793 -0.1035 -0.6129
 5846ntf    cn130976   2.848   2.476   3.263  0.2854  0.2513 -0.0627
 5846ntf    sn230977   2.978   2.439   3.385  0.3603 -0.4726 -0.3586
 5846ntf    nn330978   2.923   2.300   3.432 -0.7574 -0.0503 -0.3755
 5846ntf    sn230979   2.863   2.258   3.572 -0.2041 -0.0183 -0.1235
 5846ntf    cn130980   2.686   2.290   3.548 -0.2569  0.1104  0.4313
 5846ntf    fn430981   2.860   2.594   3.206  0.3344  0.0411 -0.4945
 5846ntf    fn430982   2.845   2.384   3.168 -0.0511 -0.2163  0.3930
 5846ntf    fn430983   2.723   2.477   3.307  0.4077  0.3778  0.2845
 5846ntf    on530984   3.100   2.431   3.309  0.2501  0.8519 -0.7012
 5846ntf    on530985   2.960   2.550   3.475 -0.3143 -0.3260 -0.6669
 5846ntf    on530986   2.902   2.344   3.681 -0.1897 -0.2083  0.0201
 5846ntf    on530987   2.864   2.116   3.595 -0.5814 -0.0375 -0.2112
 5846ntf    fn430988   2.655   2.413   3.513 -0.2530  0.0825  0.3279
 5846ntf    fn430989   2.634   2.212   3.454  0.0238 -0.4446  0.7318
 5846ntf    fn430990   2.614   2.270   3.658  0.1605 -0.0218  0.6810
 5847ntf    cn130991   1.739   1.676   2.915  0.2418 -0.0552  0.0954
 5847ntf    sn230992   1.646   1.735   3.060 -0.2043  0.3372 -0.3467
 5847ntf    nn330993   1.752   1.785   3.164 -0.1402 -0.5221  0.0179
 5847ntf    sn230994   1.832   1.921   3.164 -0.4704 -0.3260 -0.1531
 5847ntf    cn130995   1.725   2.029   3.263 -0.1978 -0.1025 -0.1028
 5847ntf    fn430996   1.819   1.767   2.862 -0.1247  0.0714 -0.2473
 5847ntf    fn430997   1.816   1.571   2.940  0.2300 -0.0720  0.0615
 5847ntf    fn430998   1.662   1.650   2.810 -0.1068 -0.3356  0.4156
 5847ntf    on530999   1.562   1.843   3.015 -0.5509  0.2062 -0.0225
 5847ntf    on531000   1.577   1.614   3.100  0.3016  0.1769  0.0448
 5847ntf    on531001   1.848   1.990   3.038  0.4964 -0.3532 -0.0482
 5847ntf    on531002   1.946   1.914   3.251 -0.5012  0.6561 -0.0252
 5847ntf    fn431003   1.702   1.982   3.385  0.4118 -0.1541 -0.0059
 5847ntf    fn431004   1.777   2.150   3.276  0.1342 -0.2113 -0.4076
 5847ntf    fn431005   1.608   2.050   3.205 -0.3486 -0.1217  0.1956
 5848ntf    cn131006   7.330   5.097   3.992  0.1582  0.3695  0.1552
 5848ntf    sn231007   7.350   4.997   4.142 -0.1260 -0.3144 -0.2573
 5848ntf    nn331008   7.422   4.869   4.086  0.3812 -0.0823 -0.1442
 5848ntf    sn231009   7.551   4.799   4.141  0.4157  0.2075  0.1543
 5848ntf    cn131010   7.683   4.903   4.072  0.2813  0.3294  0.0814
 5848ntf    fn431011   7.389   5.214   4.007  0.2368  0.3559 -0.0446
 5848ntf    fn431012   7.388   5.031   3.893 -0.3943  0.0019  0.0703
 5848ntf    fn431013   7.204   5.113   3.954  0.0611  0.0250  0.3349
 5848ntf    on531014   7.437   5.076   4.227  0.0359 -0.4253 -0.3195
 5848ntf    on531015   7.214   4.985   4.187 -0.0846  0.8849  0.2227
 5848ntf    on531016   7.574   4.675   4.070 -0.0417  0.0447  0.2879
 5848ntf    on531017   7.566   4.793   4.284  0.0157  0.0613  0.1926
 5848ntf    fn431018   7.704   4.864   3.948 -0.1134  0.2136  0.0503
 5848ntf    fn431019   7.647   5.030   4.073  0.3271  0.3429  0.5212
 5848ntf    fn431020   7.798   4.889   4.137  0.6252  0.1207 -0.5678
 5849ntf    cn131021   1.014   2.020   5.495  0.4429  0.0313 -0.2736
 5849ntf    sn231022   1.022   2.199   5.464  0.2781  0.1195  0.1891
 5849ntf    nn331023   1.157   2.239   5.532  0.6058  0.1663 -0.4802
 5849ntf    sn231024   1.207   2.377   5.587 -0.1663  0.1363  0.3118
 5849ntf    cn131025   1.209   2.337   5.765  0.0764 -0.7520  0.1121
 5849ntf    fn431026   0.894   1.977   5.459  0.3437 -0.0773  0.1907
 5849ntf    fn431027   1.111   1.959   5.429  0.8638  0.2669  0.1229
 5849ntf    fn431028   1.028   1.984   5.621  0.0058  0.1838 -0.1810
 5849ntf    on531029   1.023   2.201   5.320  0.6208 -1.0024  0.1691
 5849ntf    on531030   0.900   2.245   5.525 -0.0846 -0.6888  0.0897
 5849ntf    on531031   1.107   2.481   5.585 -0.0091  0.2859  0.0908
 5849ntf    on531032   1.343   2.416   5.558 -0.1538 -0.1407  0.0010
 5849ntf    fn431033   1.088   2.314   5.813 -0.1040  0.0687  0.0540
 5849ntf    fn431034   1.282   2.231   5.795  0.0489 -0.9609 -0.5383
 5849ntf    fn431035   1.255   2.438   5.837 -0.1922 -0.0845 -0.6371
 5850ntf    cn131036   0.146   5.155   7.161 -0.2431 -0.2345 -0.0079
 5850ntf    sn231037   0.249   5.264   7.265  0.1643 -0.1982 -0.4401
 5850ntf    nn331038   0.382   5.183   7.286  0.0274 -0.3255 -0.0450
 5850ntf    sn231039   0.532   5.227   7.281  0.0043 -0.2492 -0.0707
 5850ntf    cn131040   0.571   5.197   7.106  0.1323 -0.0618 -0.0749
 5850ntf    fn431041   0.090   5.068   7.243  0.1471 -0.6368 -0.1657
 5850ntf    fn431042   0.044   5.209   7.097 -0.3066 -0.3285  0.0138
 5850ntf    fn431043   0.214   5.075   7.080 -0.4164 -0.0967 -0.2906
 5850ntf    on531044   0.258   5.371   7.169  0.8851  0.0608 -0.0889
 5850ntf    on531045   0.172   5.292   7.384  0.0792  0.4476 -0.6445
 5850ntf    on531046   0.611   5.144   7.369  0.6456  0.3704 -0.0475
 5850ntf    on531047   0.557   5.368   7.298  0.0414 -0.4117  1.3527
 5850ntf    fn431048   0.551   5.069   7.080 -0.6978  0.0963 -0.2308
 5850ntf    fn431049   0.487   5.267   7.032  0.0611 -0.1202 -0.0501
 5850ntf    fn431050   0.694   5.237   7.077  0.0142  0.0779 -0.3744
 5851ntf    cn131051   0.456   0.972   3.383 -0.2749 -0.1795 -0.2489
 5851ntf    sn231052   0.387   1.121   3.460 -0.1175 -0.2076 -0.0545
 5851ntf    nn331053   0.499   1.173   3.557 -0.1459 -0.1734 -0.0401
 5851ntf    sn231054   0.616   1.274   3.532 -0.0392 -0.1906  0.3851
 5851ntf    cn131055   0.537   1.415   3.615 -0.3461 -0.0336 -0.1664
 5851ntf    fn431056   0.366   0.915   3.304 -0.1249 -0.2680 -0.3550
 5851ntf    fn431057   0.565   0.992   3.311 -0.1074 -0.0586  0.0409
 5851ntf    fn431058   0.490   0.885   3.477 -0.1352  0.1987  0.0518
 5851ntf    on531059   0.335   1.203   3.354  0.0256 -0.7680 -0.5607
 5851ntf    on531060   0.286   1.056   3.540 -0.1515 -0.7945 -0.5654
 5851ntf    on531061   0.627   1.314   3.394  0.1927 -0.2199  0.3932
 5851ntf    on531062   0.732   1.239   3.611  0.9266  0.1344 -0.8515
 5851ntf    fn431063   0.435   1.458   3.544 -0.0695  0.1662 -0.4459
 5851ntf    fn431064   0.484   1.402   3.736  0.1509  0.2899  0.0915
 5851ntf    fn431065   0.619   1.519   3.617 -0.1159 -0.2084 -0.4207
 5852ntf    cn131066   4.997   0.438   6.083 -0.0075  0.2039  0.0498
 5852ntf    sn231067   4.946   0.546   5.946  0.3410 -0.0306 -0.2654
 5852ntf    nn331068   5.048   0.664   5.968 -0.0599  0.2070  0.3367
 5852ntf    sn231069   5.064   0.802   5.896  0.0625  0.0064 -0.0217
 5852ntf    cn131070   5.188   0.770   5.767  0.1718  0.1577  0.0457
 5852ntf    fn431071   4.985   0.490   6.205 -0.3667  0.2870 -0.0209
 5852ntf    fn431072   4.932   0.323   6.086  0.1200  0.1354  0.2977
 5852ntf    fn431073   5.125   0.407   6.076 -0.1151 -0.5222  1.0587
 5852ntf    on531074   4.967   0.466   5.828 -0.3413 -0.1377 -0.3147
 5852ntf    on531075   4.807   0.570   5.974  0.4186 -0.0604  0.1572
 5852ntf    on531076   5.116   0.906   5.981  0.1969 -0.4894  0.5088
 5852ntf    on531077   4.956   0.845   5.809  0.3623 -0.4670 -0.6386
 5852ntf    fn431078   5.258   0.879   5.738  0.3777 -0.0787 -0.3602
 5852ntf    fn431079   5.273   0.673   5.796  0.0036 -0.1153 -0.3661
 5852ntf    fn431080   5.134   0.742   5.650 -0.6895  0.7393  0.3001
 5853ntf    cn131081   0.607   3.081   4.176  0.0398 -0.2568 -0.1341
 5853ntf    sn231082   0.485   3.215   4.187  0.0668 -0.2475  0.0563
 5853ntf    nn331083   0.442   3.232   4.037 -0.2395 -0.1847  0.1508
 5853ntf    sn231084   0.306   3.196   3.968 -0.3182  0.3481  0.0170
 5853ntf    cn131085   0.368   3.223   3.799 -0.5298  0.2158 -0.0826
 5853ntf    fn431086   0.716   3.119   4.110  0.5014 -0.7650  0.3235
 5853ntf    fn431087   0.647   3.052   4.299 -0.3684  0.5664  0.2073
 5853ntf    fn431088   0.564   2.973   4.114  0.1550 -0.9708  0.9973
 5853ntf    on531089   0.387   3.164   4.280 -0.2063  0.3344  0.0915
 5853ntf    on531090   0.557   3.326   4.245 -0.6320  0.0365  0.3983
 5853ntf    on531091   0.202   3.293   3.991 -0.8605 -0.2166 -0.0217
 5853ntf    on531092   0.276   3.055   3.968 -0.5244  0.3915 -0.2136
 5853ntf    fn431093   0.287   3.181   3.704 -0.9419  0.4243  0.1729
 5853ntf    fn431094   0.403   3.350   3.786 -0.5765  0.2515  0.1335
 5853ntf    fn431095   0.483   3.159   3.781 -0.8747 -0.4233 -0.0291
 5854ntf    cn131096   7.361   7.000   1.048 -0.4750 -0.2313 -0.4454
 5854ntf    sn231097   7.397   6.837   1.120  0.0799  0.0576 -0.0596
 5854ntf    nn331098   7.543   6.868   1.167 -0.0184  0.7673 -0.2197
 5854ntf    sn231099   7.615   6.853   1.306 -0.1727  0.2256 -0.1966
 5854ntf    cn131100   7.724   6.999   1.303  0.0881  0.0428  0.2769
 5854ntf    fn431101   7.241   7.001   0.991 -0.7029  0.2964  0.0345
 5854ntf    fn431102   7.353   7.097   1.137 -0.0017  0.1186 -0.7790
 5854ntf    fn431103   7.444   7.048   0.956  0.1747 -0.2841  0.1050
 5854ntf    on531104   7.298   6.822   1.224  0.1559 -0.0910 -0.0078
 5854ntf    on531105   7.394   6.755   1.001  1.0875 -0.1226  0.0302
 5854ntf    on531106   7.714   6.749   1.303 -0.4348 -0.0353  0.1735
 5854ntf    on531107   7.541   6.877   1.428 -0.4078 -1.0934 -0.0694
 5854ntf    fn431108   7.810   6.996   1.403  0.5203  0.0677 -0.0886
 5854ntf    fn431109   7.793   7.010   1.190 -0.6128  0.1940 -0.1443
 5854ntf    fn431110   7.654   7.111   1.312 -0.0953 -0.0763  0.3515
 5855ntf    cn131111   5.147   7.471   2.617  0.1134 -0.2684 -0.2251
 5855ntf    sn231112   5.292   7.372   2.664  0.2426  0.0908  0.1418
 5855ntf    nn331113   5.247   7.319   2.805  0.4256 -0.7984 -0.1266
 5855ntf    sn231114   5.292   7.358   2.951 -0.2726  0.0857 -0.1389
 5855ntf    cn131115   5.267   7.207   3.048 -0.2957  0.1910  0.0213
 5855ntf    fn431116   5.032   7.409   2.597 -0.2652  0.3068  0.1268
 5855ntf    fn431117   5.119   7.572   2.698 -0.0153 -0.6005  0.1495
 5855ntf    fn431118   5.177   7.529   2.502 -0.6022  0.3757 -0.0950
 5855ntf    on531119   5.284   7.266   2.566 -0.3486 -0.0724  0.3569
 5855ntf    on531120   5.397   7.470   2.654  0.3234 -0.0832 -0.7783
 5855ntf    on531121   5.202   7.450   3.016 -0.5249 -0.2613  0.0021
 5855ntf    on531122   5.433   7.390   2.957 -0.2431 -0.1474  0.4089
 5855ntf    fn431123   5.326   7.103   2.991 -0.2146  0.1876  0.1129
 5855ntf    fn431124   5.313   7.218   3.171  0.6130  0.1160 -0.3028
 5855ntf    fn431125   5.140   7.173   3.060 -0.2806 -0.0453 -0.4329
 5856ntf    cn131126   5.251   2.849   4.338 -0.4856  0.3765  0.1240
 5856ntf    sn231127   5.199   3.008   4.408 -0.1361  0.5045  0.0975
 5856ntf    nn331128   5.200   3.092   4.276  0.4294  0.3977  0.0349
 5856ntf    sn231129   5.092   3.086   4.163  0.2487  0.1163  0.2226
 5856ntf    cn131130   5.018   3.252   4.169 -0.3289 -0.1294  0.0094
 5856ntf    fn431131   5.186   2.805   4.231  0.0843  0.3879 -0.2303
 5856ntf    fn431132   5.377   2.862   4.300 -0.5162  0.1122 -0.0656
 5856ntf    fn431133   5.237   2.747   4.421 -0.6105  0.2265 -0.0823
 5856ntf    on531134   5.069   2.991   4.469  0.0133 -0.0601  0.2617
 5856ntf    on531135   5.303   3.042   4.502 -0.3288  0.1774  0.4325
 5856ntf    on531136   4.975   3.005   4.188 -0.0994  0.4443 -0.3025
 5856ntf    on531137   5.151   3.082   4.031 -0.7934 -0.4908 -0.2395
 5856ntf    fn431138   5.036   3.303   4.290 -0.4400 -0.1553  0.0372
 5856ntf    fn431139   5.069   3.336   4.081  0.0615 -0.2410  0.1281
 5856ntf    fn431140   4.887   3.255   4.148 -0.3229  0.1343  0.0008
 5857ntf    cn131141   0.720   6.369   5.196 -0.0906  0.4275  0.1324
 5857ntf    sn231142   0.571   6.449   5.129 -0.3748 -0.1849  0.0307
 5857ntf    nn331143   0.587   6.412   4.977  0.0993 -0.0226  0.0396
 5857ntf    sn231144   0.514   6.297   4.898  0.1969 -0.2134  0.2260
 5857ntf    cn131145   0.366   6.378   4.830  0.4274  0.1189  0.1166
 5857ntf    fn431146   0.836   6.429   5.180 -0.1810  0.5932  0.0959
 5857ntf    fn431147   0.702   6.345   5.325 -0.5595 -0.2368 -0.0478
 5857ntf    fn431148   0.737   6.249   5.144 -0.5563  0.4055  0.0253
 5857ntf    on531149   0.465   6.383   5.201 -0.3079 -0.8128 -0.4327
 5857ntf    on531150   0.591   6.589   5.154  0.1677 -0.2852  0.1760
 5857ntf    on531151   0.456   6.184   4.966 -0.2650 -0.4876 -0.6173
 5857ntf    on531152   0.592   6.271   4.780  0.4500  0.0055  0.3427
 5857ntf    fn431153   0.403   6.465   4.737 -0.2615  0.0336 -0.2430
 5857ntf    fn431154   0.281   6.293   4.774  0.2242  0.5098 -0.1787
 5857ntf    fn431155   0.299   6.437   4.927  0.0411 -0.2766  0.0973
 5858ntf    cn131156   3.779   0.184   2.269  0.0581 -0.0572  0.0421
 5858ntf    sn231157   3.712   0.329   2.183 -0.1165  0.0331  0.3286
 5858ntf    nn331158   3.577   0.270   2.130 -0.0442  0.3938 -0.2607
 5858ntf    sn231159   3.489   0.305   2.004 -0.2269 -0.6170 -0.4190
 5858ntf    cn131160   3.525   0.161   1.899  0.3917 -0.5244 -0.3370
 5858ntf    fn431161   3.881   0.220   2.345  0.1071  0.0483 -0.0737
 5858ntf    fn431162   3.704   0.128   2.363  0.2217  0.2394  0.3495
 5858ntf    fn431163   3.821   0.081   2.196 -0.2288 -0.5513  0.5619
 5858ntf    on531164   3.684   0.428   2.284 -0.1148 -0.1953  0.5528
 5858ntf    on531165   3.816   0.355   2.086  0.2127 -0.6612  0.4900
 5858ntf    on531166   3.534   0.418   1.926  0.3820 -0.6702 -0.1487
 5858ntf    on531167   3.352   0.290   2.048  0.0708 -0.3199  0.6445
 5858ntf    fn431168   3.449   0.160   1.791 -0.4492  0.4818  0.2162
 5858ntf    fn431169   3.654   0.156   1.872  0.5443  0.1399  0.2470
 5858ntf    fn431170   3.483   0.054   1.965 -0.0899 -0.0896  0.0781
 5859ntf    cn131171   5.921   0.804   5.407  0.1836  0.5882 -0.0521
 5859ntf    sn231172   6.070   0.880   5.477  0.2657  0.1100  0.2966
 5859ntf    nn331173   6.130   0.944   5.347  0.1077 -0.3157  0.0112
 5859ntf    sn231174   6.216   1.074   5.327 -0.0401 -0.2216 -0.0116
 5859ntf    cn131175   6.086   1.197   5.291  0.4840  0.2886 -0.1863
 5859ntf    fn431176   5.861   0.733   5.501  0.0071  0.2225 -0.4408
 5859ntf    fn431177   5.841   0.901   5.366  0.0620  0.4227 -0.2092
 5859ntf    fn431178   5.938   0.727   5.301  0.2062  0.4819  0.0285
 5859ntf    on531179   6.019   0.978   5.569 -0.3441  0.4208 -0.3665
 5859ntf    on531180   6.144   0.768   5.529  0.0467 -0.1370  0.0778
 5859ntf    on531181   6.283   1.059   5.200 -0.0904  0.1799 -0.0879
 5859ntf    on531182   6.281   1.129   5.443  0.9467  0.1949 -0.7455
 5859ntf    fn431183   5.987   1.189   5.378  0.6302  0.6990  0.0205
 5859ntf    fn431184   6.127   1.322   5.300  0.1700  0.3831 -0.0576
 5859ntf    fn431185   6.030   1.173   5.174  0.3042  0.2986 -0.1020
 5860ntf    cn131186   6.897   4.261   6.321 -0.1981  0.0983 -0.5126
 5860ntf    sn231187   7.012   4.123   6.351 -0.2741  0.1770  0.1621
 5860ntf    nn331188   7.106   4.182   6.461 -0.0427 -0.0400  0.0819
 5860ntf    sn231189   7.106   4.140   6.613  0.0093  0.0302  0.1019
 5860ntf    cn131190   7.214   3.994   6.625 -0.0631 -0.0286  0.0428
 5860ntf    fn431191   6.819   4.236   6.216 -0.6546  0.2282 -0.2070
 5860ntf    fn431192   6.814   4.272   6.424  0.0072 -0.5113 -0.2790
 5860ntf    fn431193   6.955   4.379   6.321 -0.5985  0.3023  0.2306
 5860ntf    on531194   6.922   4.013   6.373 -0.0574 -0.0805 -0.2300
 5860ntf    on531195   7.087   4.109   6.228  0.0025  0.1609  0.3325
 5860ntf    on531196   6.973   4.102   6.656  0.0224  0.4185  0.4920
 5860ntf    on531197   7.175   4.236   6.695 -0.2026  0.2106  0.0717
 5860ntf    fn431198   7.208   3.922   6.735  0.4094 -0.0040  0.0873
 5860ntf    fn431199   7.192   3.910   6.525 -0.3273 -0.0327  0.1038
 5860ntf    fn431200   7.341   4.026   6.607 -0.1529  0.3992  0.1573
 5861ntf    cn131201   4.297   3.637   7.405 -0.1523  0.2305  0.1593
 5861ntf    sn231202   4.116   3.624   7.393 -0.0974 -0.4238 -0.0117
 5861ntf    nn331203   4.094   3.609   7.238 -0.2002 -0.3062 -0.0100
 5861ntf    sn231204   3.961   3.627   7.157 -0.2038 -0.3031 -0.0031
 5861ntf    cn131205   3.963   3.808   7.136  0.8144 -0.2948  0.0884
 5861ntf    fn431206   4.357   3.521   7.386 -0.6063  0.0654 -0.3188
 5861ntf    fn431207   4.350   3.709   7.308 -0.3309  0.2855  0.1002
 5861ntf    fn431208   4.346   3.687   7.516 -0.0471  0.3533  0.0570
 5861ntf    on531209   4.088   3.502   7.465 -0.3405 -0.3402  0.0368
 5861ntf    on531210   4.074   3.749   7.452 -0.5641 -0.6023  0.0409
 5861ntf    on531211   3.842   3.587   7.229 -0.3068 -0.3511 -0.2000
 5861ntf    on531212   3.983   3.572   7.026  0.1140  0.0656 -0.1076
 5861ntf    fn431213   3.964   3.883   7.245  0.1484 -0.0957 -0.0393
 5861ntf    fn431214   4.071   3.833   7.065  0.1658  0.0317 -0.8088
 5861ntf    fn431215   3.858   3.845   7.064  1.0497 -0.3541 -0.2828
 5862ntf    cn131216   0.263   6.423   2.533  0.1507 -0.3140  0.3792
 5862ntf    sn231217   0.162   6.567   2.488  0.1163 -0.3603  0.3061
 5862ntf    nn331218   0.077   6.596   2.617 -0.3374 -0.0088 -0.0680
 5862ntf    sn231219   0.110   6.700   2.730  0.2060  0.0470 -0.2753
 5862ntf    cn131220   0.032   6.850   2.666 -0.2279 -0.0567  0.0037
 5862ntf    fn431221   0.339   6.461   2.635  0.3027 -0.2203  0.2305
 5862ntf    fn431222   0.198   6.314   2.573  0.3254 -0.6088 -0.1344
 5862ntf    fn431223   0.346   6.383   2.438 -0.1432 -0.3673  0.1401
 5862ntf    on531224   0.268   6.657   2.449 -0.4924  0.1151 -0.2778
 5862ntf    on531225   0.074   6.511   2.388  0.0805  0.0216  0.1213
 5862ntf    on531226   0.246   6.743   2.756  0.1883  0.0645 -0.2103
 5862ntf    on531227   0.036   6.672   2.851 -0.1849 -0.2140 -0.5749
 5862ntf    fn431228   0.016   6.855   2.534 -0.0005  0.1486 -0.0161
 5862ntf    fn431229  -0.083   6.878   2.724  0.0024  0.2783  0.3023
 5862ntf    fn431230   0.107   6.957   2.685 -0.0233 -0.2485  0.2803
 5863ntf    cn131231   1.358   0.357   3.887 -0.0461 -0.1998  0.2677
 5863ntf    sn231232   1.315   0.284   4.048  0.2560 -0.3279  0.2922
 5863ntf    nn331233   1.159   0.304   4.058  0.2320 -0.3383 -0.0502
 5863ntf    sn231234   1.045   0.203   4.097 -0.1465  0.1528  0.1182
 5863ntf    cn131235   1.046   0.244   4.274  0.2979  0.6833 -0.0033
 5863ntf    fn431236   1.344   0.489   3.893  0.4404 -0.1086 -0.4771
 5863ntf    fn431237   1.485   0.336   3.857 -0.0246 -0.3773  0.4746
 5863ntf    fn431238   1.280   0.325   3.786  0.6279 -0.8053 -0.0706
 5863ntf    on531239   1.361   0.151   4.021  0.2290 -0.2523 -0.1324
 5863ntf    on531240   1.393   0.361   4.141 -0.1372  0.2190  0.1770
 5863ntf    on531241   1.065   0.061   4.090 -0.0430  0.1689  0.0864
 5863ntf    on531242   0.917   0.247   4.047  0.0183 -0.0150 -0.4529
 5863ntf    fn431243   1.015   0.371   4.293  0.4078  0.6578  0.3646
 5863ntf    fn431244   0.958   0.170   4.339  0.5188  0.1966 -0.2452
 5863ntf    fn431245   1.159   0.211   4.335 -0.3938 -0.3605  0.7492
 5864ntf    cn131246   4.575   1.122   0.332  0.0936 -0.4052  0.1743
 5864ntf    sn231247   4.543   1.282   0.250  0.3810 -0.4362 -0.0008
 5864ntf    nn331248   4.675   1.352   0.297  0.2280 -0.1394 -0.0122
 5864ntf    sn231249   4.771   1.432   0.202 -0.1332  0.0486 -0.2220
 5864ntf    cn131250   4.858   1.536   0.323  0.1674 -0.1376 -0.2770
 5864ntf    fn431251   4.592   1.130   0.463  0.5769 -0.8970  0.1438
 5864ntf    fn431252   4.473   1.042   0.309 -0.3292  0.2235 -0.1783
 5864ntf    fn431253   4.675   1.064   0.268  0.3468  0.2802 -0.0656
 5864ntf    on531254   4.531   1.254   0.109  0.1228 -0.0781 -0.0520
 5864ntf    on531255   4.424   1.334   0.313  0.3843 -0.0638 -0.3040
 5864ntf    on531256   4.713   1.528   0.111 -0.0063  0.1078 -0.2410
 5864ntf    on531257   4.879   1.356   0.144  0.4343  0.9170 -0.3207
 5864ntf    fn431258   4.936   1.630   0.274 -0.3581 -0.0032 -0.8598
 5864ntf    fn431259   4.772   1.595   0.404  0.4696 -0.1114  0.0302
 5864ntf    fn431260   4.934   1.465   0.406  0.2466 -0.1143 -0.3302
 5865ntf    cn131261   5.553   5.023   1.179  0.3597 -0.1325  0.0347
 5865ntf    sn231262   5.529   4.868   1.086  0.1727 -0.1237  0.0687
 5865ntf    nn331263   5.679   4.825   1.071  0.2723 -0.0500  0.8290
 5865ntf    sn231264   5.766   4.849   0.942 -0.5766 -0.2436  0.2147
 5865ntf    cn131265   5.917   4.872   1.040 -0.2783  0.1346 -0.3302
 5865ntf    fn431266   5.637   5.109   1.124  0.8342 -0.5524  0.0962
 5865ntf    fn431267   5.436   5.079   1.202  0.0557 -0.6015 -0.3253
 5865ntf    fn431268   5.601   5.003   1.300 -0.0296 -0.3473  0.1544
 5865ntf    on531269   5.463   4.781   1.180 -0.2653 -0.2565 -0.3589
 5865ntf    on531270   5.449   4.898   0.969 -0.2533  0.2414  0.4495
 5865ntf    on531271   5.757   4.974   0.872 -0.4923 -0.2943  0.1133
 5865ntf    on531272   5.790   4.731   0.864 -0.4280 -0.1056  0.0522
 5865ntf    fn431273   6.014   4.928   0.969  0.0330 -0.1517 -0.1342
 5865ntf    fn431274   5.900   4.946   1.148  0.5459  0.0480 -0.1343
 5865ntf    fn431275   5.971   4.759   1.082 -0.5035  0.3273  0.5032
 5866ntf    cn131276   6.053   5.048   4.451 -0.0980  0.2498  0.2094
 5866ntf    sn231277   5.926   5.012   4.325  0.0369 -0.0144  0.1500
 5866ntf    nn331278   5.959   5.123   4.219  0.0718 -0.1478  0.0206
 5866ntf    sn231279   6.082   5.136   4.122  0.1171  0.4316  0.1497
 5866ntf    cn131280   6.007   5.172   3.960  0.6925 -0.0094 -0.2169
 5866ntf    fn431281   6.016   4.996   4.567 -0.1340  0.1061  0.1336
 5866ntf    fn431282   6.174   5.002   4.424 -0.1980  0.2276 -0.2093
 5866ntf    fn431283   6.061   5.180   4.459  0.2308  0.3038 -0.8245
 5866ntf    on531284   5.946   4.873   4.292  0.0121 -0.0434  0.2517
 5866ntf    on531285   5.806   5.041   4.399 -0.2864  0.0241 -0.3849
 5866ntf    on531286   6.154   5.016   4.087 -0.8073 -0.1224  0.0966
 5866ntf    on531287   6.158   5.257   4.139  0.5568  0.2412 -0.4402
 5866ntf    fn431288   5.914   5.083   3.928  0.3826  0.3550 -0.3330
 5866ntf    fn431289   5.955   5.293   3.963  0.1030 -0.2697  0.9171
 5866ntf    fn431290   6.089   5.175   3.856  0.1977 -0.6938 -0.6349
 5867ntf    cn131291   1.349   2.762   0.801  0.0565  0.2686  0.1625
 5867ntf    sn231292   1.241   2.682   0.679  0.5629 -0.3546  0.1184
 5867ntf    nn331293   1.216   2.810   0.592 -0.6655 -0.4296  0.3525
 5867ntf    sn231294   1.091   2.905   0.585 -0.2046  0.1571  0.0945
 5867ntf    cn131295   1.023   2.869   0.420 -0.4471  0.1496  0.1962
 5867ntf    fn431296   1.427   2.670   0.856 -0.2474 -0.0141  0.1237
 5867ntf    fn431297   1.424   2.854   0.742 -0.1996  0.3623 -0.0144
 5867ntf    fn431298   1.271   2.817   0.893 -0.0121  0.0734  0.2211
 5867ntf    on531299   1.326   2.583   0.616  0.6179 -0.5262  0.4598
 5867ntf    on531300   1.127   2.625   0.747  0.4053 -0.0150  0.1380
 5867ntf    on531301   1.143   3.039   0.574 -0.0756  0.0941 -0.0719
 5867ntf    on531302   0.981   2.881   0.675 -0.3563 -0.2597 -0.2029
 5867ntf    fn431303   1.116   2.870   0.326 -0.3280 -0.0909  0.3121
 5867ntf    fn431304   0.947   2.761   0.417  0.1557 -0.2696 -0.1956
 5867ntf    fn431305   0.939   2.962   0.377 -0.3413  0.2050  0.1088
 5868ntf    cn131306   5.149   0.507   2.885  0.2480 -0.0100 -0.0241
 5868ntf    sn231307   5.206   0.475   2.715  0.0281 -0.0323 -0.0929
 5868ntf    nn331308   5.108   0.357   2.681 -0.1778  0.1105 -0.0019
 5868ntf    sn231309   4.961   0.371   2.629 -0.1423 -0.0551 -0.1460
 5868ntf    cn131310   4.913   0.199   2.594 -0.6335  0.0689 -0.0884
 5868ntf    fn431311   5.224   0.590   2.956  0.2801  0.1990 -0.3008
 5868ntf    fn431312   5.025   0.551   2.890  0.3028  0.1311  0.1184
 5868ntf    fn431313   5.139   0.394   2.953 -0.8035  0.2505  0.2710
 5868ntf    on531314   5.179   0.597   2.642  0.0991  0.5703  0.8747
 5868ntf    on531315   5.345   0.440   2.731  0.1613  0.2653 -0.5430
 5868ntf    on531316   4.955   0.436   2.500 -0.8834 -0.4157 -0.2994
 5868ntf    on531317   4.870   0.421   2.729 -0.0225  0.4998 -0.3114
 5868ntf    fn431318   4.818   0.192   2.503 -0.0462  0.0007 -0.7074
 5868ntf    fn431319   5.014   0.135   2.538 -0.5380  0.1983 -0.0626
 5868ntf    fn431320   4.882   0.129   2.702  0.0166  0.0915  0.1178
 5869ntf    cn131321   6.953   7.241   2.134  0.0924  0.1197  0.3048
 5869ntf    sn231322   7.126   7.277   2.177  0.2316  0.0509 -0.1860
 5869ntf    nn331323   7.172   7.318   2.033  0.0381 -0.7291 -0.4720
 5869ntf    sn231324   7.193   7.463   1.975  0.3635 -0.4602  0.3065
 5869ntf    cn131325   7.178   7.410   1.802 -0.0353 -0.1374  0.2417
 5869ntf    fn431326   6.957   7.161   2.029 -0.1814  0.7588 -0.2006
 5869ntf    fn431327   6.876   7.181   2.223  0.1506 -0.1229  0.1926
 5869ntf    fn431328   6.889   7.345   2.084 -0.4577 -0.5585 -0.4243
 5869ntf    on531329   7.120   7.381   2.277  0.1384 -0.0329 -0.1043
 5869ntf    on531330   7.174   7.147   2.215  0.4174  0.1859  0.0469
 5869ntf    on531331   7.329   7.508   1.992  0.2202 -0.0098  0.2730
 5869ntf    on531332   7.089   7.560   1.995  0.0319 -0.7190 -0.1481
 5869ntf    fn431333   7.229   7.496   1.715 -0.1965 -0.2068  0.0769
 5869ntf    fn431334   7.256   7.305   1.781 -0.1023 -0.1771  0.1923
 5869ntf    fn431335   7.053   7.381   1.771 -0.0740  0.2479  0.0273
 5870ntf    cn131336   4.687   2.230   1.666  0.2274  0.6648 -0.3069
 5870ntf    sn231337   4.826   2.132   1.730 -0.2987 -0.0336 -0.2151
 5870ntf    nn331338   4.835   2.202   1.871 -0.3284 -0.6854  0.1149
 5870ntf    sn231339   4.879   2.145   2.011  0.2492 -0.1910  0.1416
 5870ntf    cn131340   4.756   2.231   2.114  0.0723  0.1904 -0.3805
 5870ntf    fn431341   4.596   2.241   1.762  0.3413  0.1467 -0.1353
 5870ntf    fn431342   4.728   2.351   1.633  0.6706  0.7223  0.4224
 5870ntf    fn431343   4.635   2.171   1.560  0.4183  0.0502 -0.0632
 5870ntf    on531344   4.780   1.996   1.728 -0.9726  0.1839  0.1118
 5870ntf    on531345   4.937   2.172   1.648  0.1014  0.2092  0.4344
 5870ntf    on531346   5.007   2.193   2.056  0.4345 -0.2827 -0.2842
 5870ntf    on531347   4.843   2.006   2.025 -0.2389 -0.0931 -0.1102
 5870ntf    fn431348   4.766   2.201   2.242  0.5900  0.3756 -0.3756
 5870ntf    fn431349   4.764   2.363   2.110 -0.1087  0.2354  0.5570
 5870ntf    fn431350   4.634   2.215   2.065  0.0373 -0.4637 -0.0923
 5871ntf    cn131351   6.036   3.857   4.775  0.2757 -0.0150 -0.1331
 5871ntf    sn231352   6.051   3.860   4.594  0.3504  0.3061 -0.1223
 5871ntf    nn331353   6.189   3.928   4.563  0.3649  0.5167  0.3912
 5871ntf    sn231354   6.219   4.063   4.487 -0.0682  0.4236  0.0509
 5871ntf    cn131355   6.169   4.179   4.617  0.3953  0.4300  0.2259
 5871ntf    fn431356   5.926   3.792   4.808  0.1768  0.1115 -0.2138
 5871ntf    fn431357   6.138   3.792   4.829  0.1109 -0.1376  0.0355
 5871ntf    fn431358   6.040   3.974   4.837 -0.0474  0.0006 -0.1433
 5871ntf    on531359   6.055   3.720   4.560 -0.3726  0.2269  0.1129
 5871ntf    on531360   5.930   3.928   4.555 -0.1135 -0.3410  0.1636
 5871ntf    on531361   6.135   4.096   4.375 -0.5766 -0.2159  0.2375
 5871ntf    on531362   6.360   4.093   4.476 -0.0889  0.4255 -0.2038
 5871ntf    fn431363   6.039   4.161   4.632  0.5090 -0.7364 -0.1575
 5871ntf    fn431364   6.220   4.156   4.737 -0.0330 -0.1592  0.2996
 5871ntf    fn431365   6.190   4.307   4.589  1.0533  0.3272  0.2421
 5872ntf    cn131366   6.194   5.196   3.203 -0.2774  0.0557 -0.1775
 5872ntf    sn231367   6.157   5.185   3.025  0.0504  0.2794 -0.2618
 5872ntf    nn331368   6.112   5.034   3.023  0.6489  0.0978 -0.2047
 5872ntf    sn231369   6.101   4.947   2.893 -0.1692 -0.1611  0.0320
 5872ntf    cn131370   6.259   4.858   2.911  0.0806  0.4148  0.7472
 5872ntf    fn431371   6.114   5.113   3.268 -0.1253  0.2192  0.2186
 5872ntf    fn431372   6.316   5.160   3.237 -0.4266 -0.1029  0.1977
 5872ntf    fn431373   6.176   5.319   3.248  0.3071  0.0437  0.0867
 5872ntf    on531374   6.045   5.273   3.002 -0.4616 -0.1260  0.6107
 5872ntf    on531375   6.285   5.219   2.970  0.0511  0.4048 -0.1838
 5872ntf    on531376   6.117   5.004   2.762  0.1318 -0.1035  0.0922
 5872ntf    on531377   6.007   4.839   2.911 -0.1430 -0.2245 -0.1990
 5872ntf    fn431378   6.244   4.745   2.842 -0.0928  0.7507  0.2304
 5872ntf    fn431379   6.372   4.913   2.870  0.2755 -0.2793  0.3308
 5872ntf    fn431380   6.278   4.824   3.037  0.5961  0.6079  0.7226
 5873ntf    cn131381   6.973   2.432   4.103  0.0396  0.3705 -0.1466
 5873ntf    sn231382   7.051   2.280   4.042 -0.1172  0.3437 -0.2803
 5873ntf    nn331383   7.013   2.295   3.890  0.3769  0.3071 -0.4095
 5873ntf    sn231384   7.074   2.393   3.783  0.5385  0.3551 -0.2745
 5873ntf    cn131385   7.113   2.269   3.656 -0.5287  0.3628 -0.6167
 5873ntf    fn431386   7.037   2.540   4.064  0.3983  0.1323 -0.2256
 5873ntf    fn431387   6.849   2.446   4.060 -0.0832  0.3438  0.1932
 5873ntf    fn431388   6.964   2.435   4.235  0.2888 -0.1192 -0.1143
 5873ntf    on531389   7.190   2.302   4.076  0.1535 -0.1856 -1.0078
 5873ntf    on531390   6.981   2.176   4.113 -0.4135  0.8846  0.2187
 5873ntf    on531391   7.194   2.464   3.819  0.1496  0.5121  0.7666
 5873ntf    on531392   6.961   2.467   3.731 -0.1921 -0.0922  0.6441
 5873ntf    fn431393   7.180   2.332   3.561  0.4881  0.2162 -0.0112
 5873ntf    fn431394   7.185   2.169   3.704 -0.7075  0.5121 -0.0251
 5873ntf    fn431395   7.004   2.220   3.599 -0.4384 -0.1731 -0.3392
 5874ntf    cn131396   6.534   6.125   5.979  0.0687  0.2809  0.3104
 5874ntf    sn231397   6.642   5.986   5.937 -0.3476  0.0630 -0.0457
 5874ntf    nn331398   6.664   5.941   6.086  0.4367  0.2379 -0.1070
 5874ntf    sn231399   6.805   5.942   6.155  0.2294 -0.4106  0.3359
 5874ntf    cn131400   6.811   6.114   6.215  0.2763 -0.3016  0.0186
 5874ntf    fn431401   6.593   6.224   6.045 -0.0801  0.4887  0.1337
 5874ntf    fn431402   6.484   6.175   5.867  0.7262 -0.4064 -0.2970
 5874ntf    fn431403   6.425   6.085   6.044 -0.0984  0.2030 -0.0150
 5874ntf    on531404   6.551   5.898   5.868 -0.6074 -0.1301  0.5397
 5874ntf    on531405   6.752   6.052   5.872 -0.0617  0.1823  0.5529
 5874ntf    on531406   6.919   5.925   6.069  0.0264  0.6981 -0.1668
 5874ntf    on531407   6.800   5.880   6.285 -0.7437  0.1772  0.5882
 5874ntf    fn431408   6.700   6.147   6.279 -0.1055 -0.4284 -0.5661
 5874ntf    fn431409   6.913   6.133   6.296  0.1667  0.3055  0.0181
 5874ntf    fn431410   6.835   6.194   6.113 -0.1473 -0.1463  0.0364
 5875ntf    cn131411   5.646   3.656   2.918  0.1272 -0.4053  0.0345
 5875ntf    sn231412   5.619   3.603   3.090 -0.3133  0.0695  0.1152
 5875ntf    nn331413   5.721   3.484   3.100 -0.1978  0.1383 -0.2325
 5875ntf    sn231414   5.700   3.335   3.053  0.2851 -0.0805  0.2355
 5875ntf    cn131415   5.673   3.252   3.213 -0.4139 -0.4327 -0.0594
 5875ntf    fn431416   5.655   3.544   2.848  0.6343 -0.5439  0.3154
 5875ntf    fn431417   5.544   3.725   2.870  0.2633 -0.3532 -0.1821
 5875ntf    fn431418   5.758   3.723   2.893 -0.2851  0.3234  0.1201
 5875ntf    on531419   5.658   3.711   3.176 -0.3947  0.3412 -0.1896
 5875ntf    on531420   5.478   3.572   3.095 -0.3000  0.0521  0.3625
 5875ntf    on531421   5.817   3.267   3.004  0.3166  0.1574 -0.0206
 5875ntf    on531422   5.580   3.305   2.978  0.2015  0.2263  0.2417
 5875ntf    fn431423   5.563   3.298   3.270  0.0793  0.0335  0.5379
 5875ntf    fn431424   5.669   3.121   3.192  0.0924 -0.4058 -0.3378
 5875ntf    fn431425   5.769   3.271   3.302 -0.5391  0.2608 -0.0647
 5876ntf    cn131426   7.182   0.225   5.705  0.0563  0.5969 -0.2822
 5876ntf    sn231427   7.069   0.203   5.565  0.0301 -0.0614 -0.1593
 5876ntf    nn331428   7.002   0.344   5.555  0.2639  0.0743  0.2144
 5876ntf    sn231429   6.884   0.387   5.461  0.1417  0.0027  0.3343
 5876ntf    cn131430   6.760   0.437   5.584 -0.0068  0.6867 -0.0914
 5876ntf    fn431431   7.251   0.115   5.733 -0.0487  0.4814 -0.4753
 5876ntf    fn431432   7.269   0.314   5.660  0.2686  0.1465 -0.7815
 5876ntf    fn431433   7.116   0.259   5.814  0.0431 -0.2188 -0.0285
 5876ntf    on531434   7.149   0.169   5.449 -0.2377  0.1278 -0.4027
 5876ntf    on531435   6.974   0.106   5.615 -0.6583  0.4451 -0.4629
 5876ntf    on531436   6.818   0.275   5.398  0.2443  0.1374 -0.0180
 5876ntf    on531437   6.910   0.511   5.393 -0.1168 -0.0394  0.1560
 5876ntf    fn431438   6.719   0.327   5.644  0.3189  0.7421  0.2342
 5876ntf    fn431439   6.811   0.518   5.675 -0.0749  0.5039  0.1093
 5876ntf    fn431440   6.649   0.493   5.538 -0.1956  0.1072 -0.3488
 5877ntf    cn131441   2.299   3.055   5.705 -0.2165  0.1898 -0.4237
 5877ntf    sn231442   2.174   2.931   5.657  0.2445 -0.3604 -0.2200
 5877ntf    nn331443   2.117   2.998   5.526  0.5942  0.0400 -0.1713
 5877ntf    sn231444   2.165   2.991   5.377 -0.0048 -0.1753 -0.3556
 5877ntf    cn131445   2.011   2.978   5.280 -0.2907  0.0006  0.0745
 5877ntf    fn431446   2.374   3.020   5.808 -0.8654 -0.1170 -0.0455
 5877ntf    fn431447   2.385   3.080   5.608  0.1304  0.6980  0.0132
 5877ntf    fn431448   2.245   3.173   5.732  0.0597  0.1416  0.3579
 5877ntf    on531449   2.255   2.813   5.638  1.0290  0.0720  0.3590
 5877ntf    on531450   2.078   2.929   5.764  0.1324  0.6923 -0.2826
 5877ntf    on531451   2.237   2.871   5.340  0.6271  0.0192  0.2352
 5877ntf    on531452   2.215   3.120   5.339 -0.1761  0.1877  0.6320
 5877ntf    fn431453   2.028   2.991   5.150 -0.4902 -1.1698 -0.0851
 5877ntf    fn431454   1.957   2.857   5.288 -0.2414 -0.0422 -0.2405
 5877ntf    fn431455   1.918   3.066   5.313 -0.2497  0.0768 -0.0158
 5878ntf    cn131456   4.884   1.142   5.000  0.0196 -0.1591 -0.2236
 5878ntf    sn231457   4.705   1.163   4.977  0.0261 -0.0098 -0.1389
 5878ntf    nn331458   4.654   1.248   5.099  0.1628 -0.2539  0.0887
 5878ntf    sn231459   4.535   1.230   5.199  0.0128 -0.2119 -0.0826
 5878ntf    cn131460   4.455   1.393   5.195  0.3788 -0.0354 -0.1897
 5878ntf    fn431461   4.937   1.056   4.916 -0.1769 -0.0134 -0.4976
 5878ntf    fn431462   4.938   1.261   4.978 -0.0031 -0.0011  0.5301
 5878ntf    fn431463   4.925   1.102   5.120 -0.3920  0.1321  0.0184
 5878ntf    on531464   4.692   1.246   4.861  0.0451  0.7315  0.3832
 5878ntf    on531465   4.644   1.032   4.968  0.1800 -0.0732 -0.2433
 5878ntf    on531466   4.573   1.202   5.336  0.2950 -0.2956 -0.1777
 5878ntf    on531467   4.431   1.142   5.151  0.2923 -0.6502  0.1065
 5878ntf    fn431468   4.334   1.378   5.246  0.5456  0.3462  0.3325
 5878ntf    fn431469   4.524   1.478   5.270 -0.4725 -0.0155  0.5987
 5878ntf    fn431470   4.438   1.441   5.073  0.1922 -0.3533 -0.2904
 5879ntf    cn131471   5.362   0.249   6.595  0.4610 -0.0104  0.0990
 5879ntf    sn231472   5.414   0.185   6.434  0.0516  0.0687 -0.0663
 5879ntf    nn331473   5.298   0.086   6.398 -0.4120  0.5253  0.1522
 5879ntf    sn231474   5.241  -0.031   6.486 -0.4446  0.4905  0.0853
 5879ntf    cn131475   5.213  -0.154   6.356  0.3750  0.1521  0.2253
 5879ntf    fn431476   5.370   0.157   6.690  0.1375 -0.3331 -0.1846
 5879ntf    fn431477   5.434   0.348   6.646  0.2833  0.0760  0.1854
 5879ntf    fn431478   5.241   0.303   6.591  0.2158 -0.5551  0.0762
 5879ntf    on531479   5.412   0.305   6.353  0.2456  0.3081  0.2784
 5879ntf    on531480   5.548   0.137   6.457 -0.0268 -0.5032 -0.7514
 5879ntf    on531481   5.110   0.000   6.539 -0.7298  0.1128 -0.3955
 5879ntf    on531482   5.337  -0.104   6.565 -1.0518 -0.4870 -0.0544
 5879ntf    fn431483   5.291  -0.145   6.249  0.2699 -0.3965  0.0980
 5879ntf    fn431484   5.206  -0.279   6.398  0.1613 -0.1027 -0.5409
 5879ntf    fn431485   5.099  -0.120   6.298  0.3054  0.0510  0.3015
 5880ntf    cn131486   6.574   2.156   2.134 -0.1170  0.0878  0.5137
 5880ntf    sn231487   6.444   2.072   2.037 -0.1003  0.1588  0.4299
 5880ntf    nn331488   6.494   2.097   1.891  0.0503 -0.0293  0.4485
 5880ntf    sn231489   6.415   2.142   1.763  0.3153 -0.0161  0.2872
 5880ntf    cn131490   6.486   2.308   1.745  0.2001 -0.0256 -0.2881
 5880ntf    fn431491   6.604   2.276   2.088 -0.2306 -0.1307 -0.1409
 5880ntf    fn431492   6.539   2.165   2.261  0.2463 -0.4014  0.6542
 5880ntf    fn431493   6.690   2.093   2.127 -0.5253 -0.6467  0.1329
 5880ntf    on531494   6.445   1.935   2.081  0.3462  0.1485  0.3912
 5880ntf    on531495   6.325   2.151   2.057 -0.0406  0.4143 -0.1992
 5880ntf    on531496   6.272   2.159   1.773  0.2428  0.0153 -0.7177
 5880ntf    on531497   6.446   2.071   1.641  0.0513  0.2511  0.0626
 5880ntf    fn431498   6.433   2.364   1.637 -0.5750 -0.3825 -0.0976
 5880ntf    fn431499   6.465   2.381   1.854  0.2757 -0.3900 -0.0277
 5880ntf    fn431500   6.617   2.310   1.726  0.1106  0.4116 -0.8633
 5881ntf    cn131501   1.519   3.691   2.618 -0.0054  0.1527  0.0099
 5881ntf    sn231502   1.348   3.647   2.573  0.0696  0.0630 -0.1911
 5881ntf    nn331503   1.355   3.496   2.530  0.3325  0.0653 -0.1571
 5881ntf    sn231504   1.350   3.432   2.387  0.1117 -0.0349 -0.1041
 5881ntf    cn131505   1.197   3.333   2.393 -0.0397  0.1947 -0.1935
 5881ntf    fn431506   1.535   3.820   2.642 -0.3776  0.1835  0.0994
 5881ntf    fn431507   1.558   3.631   2.729  0.9327  0.4988 -0.1284
 5881ntf    fn431508   1.609   3.664   2.525 -0.3334 -0.1919 -0.2090
 5881ntf    on531509   1.281   3.657   2.700 -0.6264  0.3607 -0.5768
 5881ntf    on531510   1.316   3.741   2.468 -0.0251 -0.5780 -0.7395
 5881ntf    on531511   1.455   3.339   2.352 -0.1330 -0.1448 -0.5457
 5881ntf    on531512   1.329   3.521   2.276 -0.9706  0.0251  0.1368
 5881ntf    fn431513   1.201   3.268   2.508 -0.0821 -0.1428 -0.3817
 5881ntf    fn431514   1.085   3.403   2.399 -0.2459 -0.1637  0.1549
 5881ntf    fn431515   1.175   3.249   2.293  0.3509 -0.4284  0.2389
 5882ntf    cn131516   1.233   2.953   5.592  0.1607  0.1933 -0.2933
 5882ntf    sn231517   1.312   2.958   5.429  0.0508  0.3234 -0.3421
 5882ntf    nn331518   1.189   3.009   5.346 -0.1947  0.4113  0.0718
 5882ntf    sn231519   1.103   2.925   5.245  0.1899  0.2771 -0.1449
 5882ntf    cn131520   1.185   2.921   5.083 -0.1034  0.2152 -0.2931
 5882ntf    fn431521   1.320   2.926   5.688 -0.3608 -0.3950  0.0263
 5882ntf    fn431522   1.159   3.059   5.622 -0.0195 -0.0629  0.1973
 5882ntf    fn431523   1.157   2.846   5.610  0.7103 -0.2349 -0.4914
 5882ntf    on531524   1.416   3.058   5.436 -0.3032  0.6734 -0.0495
 5882ntf    on531525   1.363   2.825   5.407  0.1094  0.3014 -0.0838
 5882ntf    on531526   0.986   2.998   5.204  0.2267  0.2141 -0.3664
 5882ntf    on531527   1.073   2.788   5.278  0.6125  0.1540 -0.2581
 5882ntf    fn431528   1.217   3.044   5.044  0.0231  0.3170  0.1251
 5882ntf    fn431529   1.300   2.855   5.076 -0.3692 -0.2512 -0.2757
 5882ntf    fn431530   1.103   2.878   4.989  0.0797  0.0393 -0.3728
 5883ntf    cn131531   2.076   6.622   0.340  0.0310 -0.2394  0.6689
 5883ntf    sn231532   2.218   6.723   0.391  0.1179 -0.0061 -0.0189
 5883ntf    nn331533   2.189   6.700   0.544 -0.5597 -0.0207 -0.1457
 5883ntf    sn231534   2.107   6.784   0.648 -0.1027 -0.1500  0.3239
 5883ntf    cn131535   2.239   6.891   0.712  0.1236 -0.0624 -0.2811
 5883ntf    fn431536   2.070   6.615   0.208  0.0186  0.5012  0.6253
 5883ntf    fn431537   2.099   6.499   0.382  0.4954 -0.2436  0.4163
 5883ntf    fn431538   1.954   6.652   0.380 -0.0334 -0.2202  0.4585
 5883ntf    on531539   2.338   6.655   0.349 -0.2913 -0.8899  0.2371
 5883ntf    on531540   2.204   6.853   0.331  0.0025  0.0078  0.0371
 5883ntf    on531541   2.072   6.705   0.764  0.5134 -0.0238  0.6005
 5883ntf    on531542   2.015   6.880   0.593 -0.4361 -0.6804 -0.0587
 5883ntf    fn431543   2.305   6.955   0.617  0.6696 -0.2527 -0.0352
 5883ntf    fn431544   2.191   6.988   0.789  0.1911 -0.1876 -0.0826
 5883ntf    fn431545   2.328   6.823   0.783  0.2136  0.4726  0.1299
 5884ntf    cn131546   2.506   3.220   3.803  0.0519 -0.4027 -0.3676
 5884ntf    sn231547   2.588   3.338   3.913 -0.2113 -0.2286 -0.3569
 5884ntf    nn331548   2.706   3.244   3.956  0.1642  0.4773  0.1877
 5884ntf    sn231549   2.794   3.236   4.086  0.1797 -0.1109  0.1442
 5884ntf    cn131550   2.952   3.318   4.045  0.1168 -0.0917 -0.0634
 5884ntf    fn431551   2.472   3.102   3.853  0.2046 -0.2009  0.2134
 5884ntf    fn431552   2.390   3.274   3.767  0.2615  0.1022 -0.2871
 5884ntf    fn431553   2.574   3.201   3.691  0.6627  0.2824 -0.1186
 5884ntf    on531554   2.621   3.446   3.823 -0.2172 -0.3678 -0.5264
 5884ntf    on531555   2.494   3.363   4.020  0.0690 -0.1528 -0.1275
 5884ntf    on531556   2.825   3.104   4.134 -0.0527  0.0508  0.7404
 5884ntf    on531557   2.746   3.326   4.188  0.2038  0.4552 -0.3384
 5884ntf    fn431558   3.031   3.255   3.960  0.6275  0.4455  0.0120
 5884ntf    fn431559   2.921   3.434   3.990  0.2166 -0.2458 -0.4423
 5884ntf    fn431560   3.022   3.341   4.155 -0.0178 -0.3128  0.0702
 5885ntf    cn131561   1.110   4.875   3.887  0.0352  0.0776 -0.3013
 5885ntf    sn231562   0.938   4.875   3.829 -0.1842 -0.0843  0.3473
 5885ntf    nn331563   0.952   4.823   3.682 -0.6567  0.2664  0.1754
 5885ntf    sn231564   0.941   4.681   3.616 -0.0594  0.0564  0.5271
 5885ntf    cn131565   1.099   4.682   3.527 -0.1665 -0.1115  0.3353
 5885ntf    fn431566   1.184   4.957   3.814  0.6974 -0.3637 -0.1389
 5885ntf    fn431567   1.125   4.906   4.015 -0.5385 -0.4976 -0.0884
 5885ntf    fn431568   1.162   4.754   3.870  0.3751  0.1792  0.0002
 5885ntf    on531569   0.876   4.778   3.916  0.3718 -0.7467  0.0142
 5885ntf    on531570   0.910   5.016   3.835 -0.4664 -0.1073 -0.3173
 5885ntf    on531571   0.839   4.662   3.516  0.8611 -0.3397 -0.3572
 5885ntf    on531572   0.962   4.569   3.705 -0.3545 -0.1184  0.3752
 5885ntf    fn431573   1.103   4.750   3.414  0.1902 -0.5709  0.0624
 5885ntf    fn431574   1.193   4.739   3.601 -0.0224  0.0612  0.0216
 5885ntf    fn431575   1.148   4.560   3.509  0.0611  0.0250 -0.0006
 5886ntf    cn131576   1.259   7.419   7.470  0.2104  0.3991  0.0098
 5886ntf    sn231577   1.368   7.341   7.593 -0.2285 -0.0817  0.0996
 5886ntf    nn331578   1.360   7.189   7.552 -0.3529  0.0389 -0.3322
 5886ntf    sn231579   1.279   7.076   7.623 -0.1870  0.1832  0.0895
 5886ntf    cn131580   1.340   6.921   7.551  0.1021  0.0048  0.7076
 5886ntf    fn431581   1.280   7.549   7.459  0.3388  0.3544 -0.2664
 5886ntf    fn431582   1.287   7.369   7.351  0.0717  0.0308  0.1300
 5886ntf    fn431583   1.131   7.397   7.499  0.3545 -0.1640  0.2326
 5886ntf    on531584   1.499   7.400   7.582 -0.2449 -0.0330  0.1687
 5886ntf    on531585   1.298   7.372   7.715  0.2100 -0.0275  0.3365
 5886ntf    on531586   1.140   7.078   7.584 -0.2533 -0.6134  0.2517
 5886ntf    on531587   1.313   7.041   7.759  0.0067 -0.2370 -0.0648
 5886ntf    fn431588   1.260   6.884   7.452  0.2754  0.7962  0.2687
 5886ntf    fn431589   1.466   6.935   7.513 -0.0124 -0.2148  0.2336
 5886ntf    fn431590   1.334   6.821   7.638 -0.4471 -0.3523  0.2698
 5887ntf    cn131591   3.670   6.044   1.272  0.1428 -0.1993  0.0281
 5887ntf    sn231592   3.711   5.998   1.100 -0.0238  0.1060 -0.0935
 5887ntf    nn331593   3.636   6.103   1.010 -0.2208 -0.0811 -0.1482
 5887ntf    sn231594   3.699   6.231   0.944  0.1645 -0.1574  0.0707
 5887ntf    cn131595   3.742   6.176   0.776 -0.2264 -0.0006 -0.0796
 5887ntf    fn431596   3.539   6.034   1.287  0.0873  0.1148 -0.2158
 5887ntf    fn431597   3.738   5.977   1.364  0.2174 -0.6829 -0.3713
 5887ntf    fn431598   3.689   6.173   1.295 -0.0100 -0.2285  0.3197
 5887ntf    on531599   3.855   5.990   1.089  0.0112  0.0069  0.3879
 5887ntf    on531600   3.648   5.869   1.095  0.3084 -0.0579 -0.0688
 5887ntf    on531601   3.825   6.274   1.002  0.2151 -0.5104  0.2281
 5887ntf    on531602   3.600   6.333   0.927 -0.0311 -0.3809 -0.1414
 5887ntf    fn431603   3.640   6.127   0.708 -0.2808 -0.0154  0.0131
 5887ntf    fn431604   3.774   6.284   0.705 -0.5895 -0.0703 -0.3508
 5887ntf    fn431605   3.845   6.093   0.773 -0.3655 -0.1782  0.0491
 5888ntf    cn131606   7.255   0.735   4.702 -0.1610  0.1379 -0.1038
 5888ntf    sn231607   7.356   0.645   4.580 -0.1888  0.1526 -0.1371
 5888ntf    nn331608   7.308   0.725   4.454  0.1189 -0.1305 -0.4355
 5888ntf    sn231609   7.241   0.663   4.327 -0.3461 -0.0692 -0.2201
 5888ntf    cn131610   7.074   0.627   4.389 -0.1456 -0.2258  0.2286
 5888ntf    fn431611   7.280   0.865   4.706  0.2992  0.0548 -0.1648
 5888ntf    fn431612   7.125   0.722   4.685 -0.1147  0.1407 -0.4858
 5888ntf    fn431613   7.271   0.686   4.824 -0.2647  0.0923 -0.1091
 5888ntf    on531614   7.489   0.670   4.629 -0.0897 -0.2142 -0.2166
 5888ntf    on531615   7.319   0.506   4.587  0.0757  0.0981  0.1485
 5888ntf    on531616   7.282   0.535   4.274 -0.4263  0.0162 -0.4919
 5888ntf    on531617   7.223   0.763   4.225  0.5862 -0.1710 -0.4947
 5888ntf    fn431618   6.992   0.583   4.295 -0.1076  0.0945  0.0448
 5888ntf    fn431619   7.074   0.536   4.486  0.3683 -0.1409  0.3083
 5888ntf    fn431620   7.016   0.739   4.429  0.7368  0.2689  0.1476
 5889ntf    cn131621   4.381   3.056   2.993 -0.4023  0.0678 -0.0403
 5889ntf    sn231622   4.428   3.134   2.836 -0.0258  0.0308  0.0516
 5889ntf    nn331623   4.439   3.281   2.889  0.4805  0.1508 -0.3769
 5889ntf    sn231624   4.567   3.366   2.922  0.2739  0.3493 -0.0750
 5889ntf    cn131625   4.498   3.477   3.048 -0.3427 -0.2442  0.1154
 5889ntf    fn431626   4.268   3.110   3.034  0.0709  1.1434 -0.1296
 5889ntf    fn431627   4.356   2.927   2.974 -0.1106  0.0774 -0.5060
 5889ntf    fn431628   4.471   3.079   3.087 -0.2286  0.9517 -0.4128
 5889ntf    on531629   4.548   3.065   2.797  0.4529  0.9212 -0.0767
 5889ntf    on531630   4.314   3.111   2.751 -0.2634  0.1878  0.3261
 5889ntf    on531631   4.609   3.461   2.822  0.3988  0.8748  0.4728
 5889ntf    on531632   4.678   3.300   2.987  0.1222  0.2249  0.0588
 5889ntf    fn431633   4.567   3.589   3.063 -0.3015 -0.2143 -0.2759
 5889ntf    fn431634   4.377   3.510   3.006 -0.2813 -0.1962 -0.0221
 5889ntf    fn431635   4.484   3.420   3.167 -0.3870 -0.1946  0.1336
 5890ntf    cn131636   4.045   6.449   3.725  0.1254  0.0456 -0.4408
 5890ntf    sn231637   4.215   6.483   3.669  0.2192  0.5565  0.1426
 5890ntf    nn331638   4.193   6.625   3.604 -0.6716  0.4478  0.2008
 5890ntf    sn231639   4.238   6.679   3.464  0.1151 -0.3291  0.1490
 5890ntf    cn131640   4.101   6.612   3.366  0.3651  0.0867 -0.4931
 5890ntf    fn431641   4.028   6.325   3.767 -0.3478  0.1789 -0.2414
 5890ntf    fn431642   3.990   6.535   3.809 -0.9867 -0.3943 -0.7066
 5890ntf    fn431643   3.958   6.454   3.626 -0.4209 -0.3771  0.0168
 5890ntf    on531644   4.298   6.485   3.787  0.0978 -0.3724  0.2465
 5890ntf    on531645   4.240   6.372   3.581  0.7000  0.4019  0.4710
 5890ntf    on531646   4.350   6.617   3.397  0.3646  0.1589  0.1069
 5890ntf    on531647   4.226   6.822   3.445 -0.2046 -0.4247 -0.3511
 5890ntf    fn431648   3.986   6.664   3.404  0.1756 -0.5051 -0.2444
 5890ntf    fn431649   4.124   6.628   3.237 -0.1011  0.0388 -0.5835
 5890ntf    fn431650   4.084   6.481   3.372  0.2175  0.1132 -0.3258
 5891ntf    cn131651   6.130   5.800   7.302 -0.2715 -0.1158 -0.2489
 5891ntf    sn231652   6.131   5.695   7.154 -0.1349 -0.1612 -0.2162
 5891ntf    nn331653   6.018   5.770   7.075 -0.1781  0.0127  0.0095
 5891ntf    sn231654   6.041   5.877   6.962 -0.3966 -0.0172 -0.0640
 5891ntf    cn131655   6.069   5.770   6.817  0.4370 -0.1207  0.1645
 5891ntf    fn431656   6.162   5.726   7.407 -0.5056 -0.2949 -0.3046
 5891ntf    fn431657   6.218   5.899   7.302 -0.4409  0.0435  0.5379
 5891ntf    fn431658   6.017   5.864   7.323 -0.0599  0.2145 -0.1082
 5891ntf    on531659   6.264   5.694   7.098  0.1427  0.1164  0.4382
 5891ntf    on531660   6.077   5.568   7.196  0.0051 -0.2220 -0.2200
 5891ntf    on531661   6.164   5.950   6.979 -0.3265 -0.2106  0.2745
 5891ntf    on531662   5.921   5.944   6.918  0.1367  0.7044 -0.4427
 5891ntf    fn431663   6.100   5.850   6.716  0.0908 -0.0354  0.1234
 5891ntf    fn431664   6.173   5.691   6.833  0.3402 -0.2765  0.0173
 5891ntf    fn431665   5.960   5.703   6.782  0.1405  0.4008  0.0704
 5892ntf    cn131666   2.951   0.286   1.496  0.2737  0.0692 -0.1476
 5892ntf    sn231667   2.806   0.180   1.522  0.2130  0.1026 -0.3524
 5892ntf    nn331668   2.751   0.233   1.659  0.0029 -0.1966 -0.3194
 5892ntf    sn231669   2.783   0.194   1.807 -0.3138  0.0756 -0.1775
 5892ntf    cn131670   2.622   0.128   1.862 -0.3467  0.1547 -0.1798
 5892ntf    fn431671   3.048   0.271   1.586  0.0263 -0.1358  0.0867
 5892ntf    fn431672   3.011   0.257   1.382  0.4068 -0.1561 -0.0230
 5892ntf    fn431673   2.914   0.413   1.494 -0.1530 -0.0521 -0.0717
 5892ntf    on531674   2.720   0.219   1.413 -0.5837 -0.2698  0.1351
 5892ntf    on531675   2.856   0.044   1.523  0.5916  0.2404 -0.4182
 5892ntf    on531676   2.815   0.307   1.891  0.9359 -0.4689  0.1132
 5892ntf    on531677   2.869   0.081   1.834 -0.6054 -0.0957  0.0423
 5892ntf    fn431678   2.593   0.011   1.807 -0.9616  0.2607 -0.0889
 5892ntf    fn431679   2.623   0.102   1.991  0.3862 -0.3128 -0.2746
 5892ntf    fn431680   2.531   0.218   1.828 -0.4068  0.1001 -0.1624
 5893ntf    cn131681   6.284   5.394   5.145  0.3476 -0.1164 -0.0792
 5893ntf    sn231682   6.220   5.347   5.309  0.1290 -0.1539 -0.1745
 5893ntf    nn331683   6.068   5.351   5.272  0.0143 -0.3052  0.2867
 5893ntf    sn231684   5.960   5.238   5.255 -0.1664 -0.0715 -0.1286
 5893ntf    cn131685   5.880   5.262   5.416  0.1433 -0.0981  0.0299
 5893ntf    fn431686   6.203   5.343   5.054  0.2982 -0.6566  0.2618
 5893ntf    fn431687   6.278   5.525   5.127  0.1552 -0.1756 -0.4736
 5893ntf    fn431688   6.403   5.346   5.113  0.0852 -0.5653 -0.4080
 5893ntf    on531689   6.285   5.219   5.326  0.6462  0.0731 -0.3983
 5893ntf    on531690   6.254   5.459   5.394 -0.4029 -0.1819  0.0751
 5893ntf    on531691   6.011   5.103   5.260  0.1648  0.0786  0.7556
 5893ntf    on531692   5.859   5.273   5.158 -0.6231 -0.2341  0.2804
 5893ntf    fn431693   5.818   5.377   5.437  0.0043 -0.3043  0.7777
 5893ntf    fn431694   5.790   5.168   5.439 -0.1689  0.2186  0.1165
 5893ntf    fn431695   5.970   5.262   5.513  0.0458  0.1811  0.1224
 5894ntf    cn131696   7.227   0.423   6.517 -0.4499  0.0264 -0.1936
 5894ntf    sn231697   7.174   0.251   6.538  0.0428 -0.1020  0.0196
 5894ntf    nn331698   7.183   0.196   6.392  0.1240 -0.1919  0.0579
 5894ntf    sn231699   7.287   0.107   6.314  0.3818  0.0897  0.0803
 5894ntf    cn131700   7.226  -0.063   6.339  0.6153  0.0207  0.1807
 5894ntf    fn431701   7.142   0.501   6.452  0.2237  0.9752  0.0477
 5894ntf    fn431702   7.228   0.465   6.643  0.1174  0.6989 -0.4171
 5894ntf    fn431703   7.348   0.446   6.469 -0.3077 -0.4450 -0.0603
 5894ntf    on531704   7.268   0.191   6.630  0.0743  0.1469  0.1505
 5894ntf    on531705   7.037   0.263   6.582 -0.0677 -0.1583 -0.3055
 5894ntf    on531706   7.418   0.122   6.372  0.2510 -0.4783  0.5331
 5894ntf    on531707   7.263   0.122   6.173  1.0375 -0.3119 -0.0759
 5894ntf    fn431708   7.105  -0.074   6.287  0.4079  0.0551  0.6449
 5894ntf    fn431709   7.301  -0.152   6.276  0.4608  0.0894 -0.1023
 5894ntf    fn431710   7.225  -0.093   6.468  0.6664 -0.2375  0.1217
 5895ntf    cn131711   0.663   6.111   0.341 -0.0472  0.2822  0.0414
 5895ntf    sn231712   0.831   6.122   0.411 -0.0233  0.3467 -0.0257
 5895ntf    nn331713   0.901   6.234   0.327 -0.1944  0.2590 -0.2872
 5895ntf    sn231714   1.008   6.246   0.213  0.0797  0.0736 -0.0477
 5895ntf    cn131715   1.152   6.300   0.310  0.2754 -0.5013 -0.0158
 5895ntf    fn431716   0.602   6.229   0.339 -0.4646  0.0910  0.9967
 5895ntf    fn431717   0.661   6.058   0.220 -0.4040 -0.0271  0.1824
 5895ntf    fn431718   0.581   6.034   0.410  0.1741  0.1559  0.1649
 5895ntf    on531719   0.817   6.167   0.547 -0.2499  0.8394 -0.2091
 5895ntf    on531720   0.881   5.987   0.400  0.0002  0.4212 -0.9029
 5895ntf    on531721   0.985   6.357   0.124 -0.2051 -0.1455 -0.2483
 5895ntf    on531722   1.059   6.123   0.158  0.2872  0.0223  0.2539
 5895ntf    fn431723   1.238   6.374   0.241 -0.7074  0.4250 -0.2626
 5895ntf    fn431724   1.105   6.378   0.405  0.0332 -0.5590 -0.0873
 5895ntf    fn431725   1.216   6.198   0.367  0.4224 -0.3371  0.1151
 5896ntf    cn131726   5.264   1.589   0.684  0.0501  0.0617 -0.2131
 5896ntf    sn231727   5.385   1.542   0.556  0.2504 -0.1524  0.0545
 5896ntf    nn331728   5.306   1.569   0.423  0.6950  0.5474 -0.0708
 5896ntf    sn231729   5.347   1.525   0.278 -0.1261 -0.0608 -0.1240
 5896ntf    cn131730   5.279   1.358   0.256 -0.0032 -0.1062 -0.1576
 5896ntf    fn431731   5.140   1.547   0.664  0.0537  0.1213 -0.3634
 5896ntf    fn431732   5.304   1.554   0.804  0.4457  0.1572 -0.3160
 5896ntf    fn431733   5.255   1.721   0.684 -0.2880  0.0408  0.0570
 5896ntf    on531734   5.492   1.637   0.574 -0.1842  0.3007  0.2964
 5896ntf    on531735   5.406   1.402   0.583  0.9489 -0.1271 -0.3459
 5896ntf    on531736   5.489   1.510   0.258 -0.0784 -0.3622  0.4441
 5896ntf    on531737   5.267   1.595   0.180 -0.4666  0.3136  0.4155
 5896ntf    fn431738   5.324   1.310   0.141  0.0827  0.3462 -0.3136
 5896ntf    fn431739   5.328   1.287   0.355 -0.0805 -0.4979 -0.3978
 5896ntf    fn431740   5.147   1.360   0.254 -0.0164 -0.6140  0.1101
 5897ntf    cn131741   4.233   7.084   3.128  0.0350  0.0050 -0.0779
 5897ntf    sn231742   4.150   7.180   2.998 -0.1293  0.1097  0.1045
 5897ntf    nn331743   4.003   7.189   3.052 -0.1516  0.1574  0.0374
 5897ntf    sn231744   3.888   7.083   3.038  0.0355 -0.0126 -0.2049
 5897ntf    cn131745   3.879   7.016   3.207 -0.0727 -0.0506 -0.2257
 5897ntf    fn431746   4.155   6.993   3.183 -0.1046  0.2557  0.1423
 5897ntf    fn431747   4.336   7.021   3.075 -0.3333 -0.5907 -0.0940
 5897ntf    fn431748   4.272   7.152   3.234 -0.2953  0.2475 -0.1120
 5897ntf    on531749   4.224   7.304   2.996  0.1895 -0.0823 -0.0184
 5897ntf    on531750   4.173   7.091   2.887 -0.4355 -0.2046  0.2910
 5897ntf    on531751   3.920   6.971   2.953  0.1506  0.2387 -0.4935
 5897ntf    on531752   3.760   7.146   3.016 -0.2820 -0.6397 -0.1732
 5897ntf    fn431753   3.940   6.900   3.221 -0.1614 -0.1064 -0.3023
 5897ntf    fn431754   3.912   7.093   3.310  0.2186 -0.2374 -0.1773
 5897ntf    fn431755   3.755   6.990   3.245  0.0046 -0.0331  0.0363
 5898ntf    cn131756   3.188   0.096   5.108  0.0778  0.3016 -0.3497
 5898ntf    sn231757   3.328   0.150   5.211  0.0023  0.3441 -0.2694
 5898ntf    nn331758   3.441   0.139   5.102  0.3697 -0.5843  0.1962
 5898ntf    sn231759   3.530   0.252   5.039  0.0184 -0.3874  0.0468
 5898ntf    cn131760   3.669   0.266   5.156 -0.0697  0.3813  0.0653
 5898ntf    fn431761   3.220  -0.011   5.037  0.3383  0.1517 -0.0098
 5898ntf    fn431762   3.083   0.065   5.182 -0.1243  0.3546 -0.6113
 5898ntf    fn431763   3.142   0.194   5.031  0.0241 -0.0340 -0.7497
 5898ntf    on531764   3.290   0.283   5.253 -0.2061  0.0570  0.4606
 5898ntf    on531765   3.335   0.043   5.307 -0.6529  0.2751 -0.2966
 5898ntf    on531766   3.479   0.387   5.034 -0.3252 -0.5095  0.2346
 5898ntf    on531767   3.605   0.206   4.925  0.3731 -0.4790  0.3134
 5898ntf    fn431768   3.765   0.350   5.124 -0.0048  0.1936 -0.2283
 5898ntf    fn431769   3.622   0.299   5.276  0.4103 -0.1157  0.3956
 5898ntf    fn431770   3.727   0.149   5.175 -0.2291  0.3690  0.4869
 5899ntf    cn131771   4.251   1.818   5.629 -0.0758 -0.0567  0.1292
 5899ntf    sn231772   4.151   1.870   5.772  0.1368 -0.0699  0.2814
 5899ntf    nn331773   4.090   2.003   5.717  0.3830  0.0078  0.1929
 5899ntf    sn231774   4.128   2.154   5.732  0.2952  0.0520 -0.0130
 5899ntf    cn131775   4.045   2.181   5.892  0.0996  0.1322 -0.1290
 5899ntf    fn431776   4.299   1.695   5.633 -0.0513 -0.0508  0.0153
 5899ntf    fn431777   4.181   1.837   5.518 -0.3408  0.3830  0.3671
 5899ntf    fn431778   4.359   1.892   5.611 -0.0182 -0.1719 -0.0035
 5899ntf    on531779   4.061   1.757   5.773  0.1957 -0.1271 -0.4942
 5899ntf    on531780   4.251   1.878   5.876  0.7032 -0.5138 -0.2154
 5899ntf    on531781   4.049   2.235   5.642  0.5530  0.5030  0.1628
 5899ntf    on531782   4.268   2.178   5.754  0.2402  0.5211 -0.1481
 5899ntf    fn431783   4.076   2.293   5.955  0.7624 -0.2012  0.1460
 5899ntf    fn431784   3.914   2.195   5.879  0.0544  0.1395  0.3373
 5899ntf    fn431785   4.069   2.081   5.975  0.3091  0.0584 -0.2800
 5900ntf    cn131786   0.147   6.682   4.429 -0.3000  0.0016  0.1586
 5900ntf    sn231787   0.020   6.557   4.468 -0.2013 -0.1820 -0.1059
 5900ntf    nn331788   0.105   6.429   4.438 -0.3841 -0.3752  0.1964
 5900ntf    sn231789   0.096   6.336   4.312  0.1640 -0.3220  0.1142
 5900ntf    cn131790   0.002   6.195   4.379  0.0968 -0.4272 -0.1999
 5900ntf    fn431791   0.224   6.707   4.533  0.3663 -0.2272 -0.2793
 5900ntf    fn431792   0.229   6.639   4.335  0.2573  0.5401  0.3937
 5900ntf    fn431793   0.093   6.796   4.391 -0.2068 -0.0070 -0.0022
 5900ntf    on531794   0.006   6.581   4.610  0.5945  0.1071 -0.0710
 5900ntf    on531795  -0.083   6.606   4.379  0.2277  0.7253 -0.1204
 5900ntf    on531796   0.215   6.266   4.273  0.1264 -0.1798 -0.2591
 5900ntf    on531797   0.012   6.378   4.203  0.3217  0.7610  0.4034
 5900ntf    fn431798  -0.123   6.221   4.416  0.0853 -0.5586 -0.1444
 5900ntf    fn431799  -0.011   6.092   4.297  0.0682 -0.5466 -0.0455
 5900ntf    fn431800   0.059   6.145   4.487  0.6074  0.8482  0.1391
 5901ntf    cn131801   3.250   7.138   2.586  0.1359  0.1563  0.4632
 5901ntf    sn231802   3.356   7.282   2.617 -0.0642  0.3383  0.2986
 5901ntf    nn331803   3.476   7.225   2.533 -0.4881 -0.1174 -0.0028
 5901ntf    sn231804   3.526   7.299   2.404 -0.2616 -0.2286  0.0212
 5901ntf    cn131805   3.622   7.163   2.330 -0.0438 -0.1086  0.0835
 5901ntf    fn431806   3.186   7.147   2.471  0.5591  0.5424  0.2543
 5901ntf    fn431807   3.307   7.019   2.581 -0.0933  0.0699 -0.1875
 5901ntf    fn431808   3.155   7.125   2.677 -0.2437 -0.0923  0.0376
 5901ntf    on531809   3.283   7.396   2.565 -0.6656 -0.3860 -0.4725
 5901ntf    on531810   3.395   7.283   2.755 -0.3179 -0.3309  0.3774
 5901ntf    on531811   3.628   7.397   2.430 -0.0822 -0.3690 -0.1488
 5901ntf    on531812   3.426   7.317   2.302 -0.0424  0.3582 -0.0896
 5901ntf    fn431813   3.549   7.054   2.309 -0.1344  0.0111 -0.2246
 5901ntf    fn431814   3.678   7.197   2.215  0.2709  0.0560  0.2853
 5901ntf    fn431815   3.723   7.125   2.407  0.3699  0.1879 -0.3054
 5902ntf    cn131816   4.274   2.789   4.063  0.0281 -0.2640 -0.1491
 5902ntf    sn231817   4.229   2.777   4.238  0.1116  0.1359 -0.0983
 5902ntf    nn331818   4.316   2.898   4.288  0.0845  0.1727 -0.1419
 5902ntf    sn231819   4.271   3.045   4.319 -0.1991  0.0499  0.0357
 5902ntf    cn131820   4.237   3.024   4.496  0.0616  0.3629  0.1255
 5902ntf    fn431821   4.232   2.685   3.991 -0.0643 -0.2945 -0.0507
 5902ntf    fn431822   4.222   2.897   4.007  0.1815 -0.0200  0.1832
 5902ntf    fn431823   4.405   2.793   4.051  0.0099 -0.6837 -0.5261
 5902ntf    on531824   4.086   2.784   4.254  0.0845 -0.8569  0.2055
 5902ntf    on531825   4.275   2.646   4.278 -0.8020 -0.2115 -0.1620
 5902ntf    on531826   4.139   3.075   4.272 -0.0590 -0.1989 -0.5288
 5902ntf    on531827   4.377   3.141   4.299  0.5407 -0.7808 -0.0967
 5902ntf    fn431828   4.342   2.985   4.567 -0.0715 -0.4189 -0.0925
 5902ntf    fn431829   4.193   3.133   4.557 -0.2516  0.3706 -0.1150
 5902ntf    fn431830   4.150   2.925   4.508 -0.4080  0.7278 -0.2448
 5903ntf    cn131831   1.893   6.577   7.413  0.1474  0.0712 -0.0432
 5903ntf    sn231832   1.951   6.414   7.470 -0.1435  0.0137  0.0868
 5903ntf    nn331833   1.907   6.327   7.347 -0.0694  0.6044 -0.3620
 5903ntf    sn231834   1.990   6.243   7.244  0.2263  0.3137  0.1106
 5903ntf    cn131835   2.010   6.094   7.346 -0.3337  0.0116 -0.2176
 5903ntf    fn431836   1.762   6.585   7.398  0.1366  0.3481  0.2030
 5903ntf    fn431837   1.921   6.670   7.503  0.0679 -0.0288  0.0833
 5903ntf    fn431838   1.945   6.621   7.299 -0.1537 -0.1945 -0.2873
 5903ntf    on531839   2.092   6.439   7.488  0.0103 -0.6823 -0.1471
 5903ntf    on531840   1.863   6.404   7.584  0.1974  0.4070  0.3927
 5903ntf    on531841   2.125   6.290   7.226  0.4428 -0.4075 -0.1683
 5903ntf    on531842   1.905   6.190   7.140 -0.0717  0.3205  0.3485
 5903ntf    fn431843   2.040   6.114   7.473  0.2119 -0.0248 -0.3366
 5903ntf    fn431844   1.901   6.019   7.346 -0.4903  0.2396  0.0179
 5903ntf    fn431845   2.108   6.024   7.291 -0.3223 -0.2277  0.1053
 5904ntf    cn131846   2.769   4.596   6.594  0.1935  0.2578  0.4510
 5904ntf    sn231847   2.722   4.764   6.542  0.0374 -0.0969 -0.5677
 5904ntf    nn331848   2.566   4.749   6.533  0.0434 -0.2748 -0.3861
 5904ntf    sn231849   2.469   4.783   6.415 -0.0620  0.1176 -0.1879
 5904ntf    cn131850   2.319   4.825   6.509 -0.0582 -0.0428 -0.1106
 5904ntf    fn431851   2.899   4.575   6.596  0.1488 -0.1462 -0.4310
 5904ntf    fn431852   2.717   4.583   6.715 -0.7790 -0.1008  0.0056
 5904ntf    fn431853   2.706   4.507   6.520 -0.2074  0.8523  0.0696
 5904ntf    on531854   2.768   4.836   6.658  0.2189 -0.2027 -0.5723
 5904ntf    on531855   2.789   4.782   6.415  0.0723  0.7024 -0.4348
 5904ntf    on531856   2.428   4.667   6.340 -0.2975  0.0884 -0.0139
 5904ntf    on531857   2.504   4.900   6.338  0.6379 -0.0579 -0.1431
 5904ntf    fn431858   2.333   4.914   6.605  0.2184 -0.4899  0.2637
 5904ntf    fn431859   2.224   4.878   6.433  0.0142  0.0117 -0.1628
 5904ntf    fn431860   2.257   4.719   6.560 -0.3678  0.0786 -0.2317
 5905ntf    cn131861   6.104   1.189   7.125  0.4249 -0.2445  0.2344
 5905ntf    sn231862   6.201   1.277   7.000 -0.0050  0.0742  0.1221
 5905ntf    nn331863   6.139   1.208   6.873  0.4199 -0.1154  0.0145
 5905ntf    sn231864   6.165   1.232   6.720 -0.0522  0.1913 -0.0176
 5905ntf    cn131865   6.025   1.339   6.671 -0.1106  0.1254  0.0060
 5905ntf    fn431866   6.133   1.060   7.136 -0.3595 -0.4268  0.2639
 5905ntf    fn431867   6.122   1.245   7.244 -0.1983  0.2150  0.1150
 5905ntf    fn431868   5.974   1.185   7.102  0.4458 -0.5039  0.1541
 5905ntf    on531869   6.161   1.414   7.014 -0.1388  0.0618 -0.1332
 5905ntf    on531870   6.336   1.236   7.031 -0.0909 -0.5303 -0.2768
 5905ntf    on531871   6.143   1.118   6.634  0.4189 -0.2508  0.4469
 5905ntf    on531872   6.280   1.315   6.693 -0.0840  0.1740 -0.2106
 5905ntf    fn431873   6.031   1.358   6.540  0.5297 -0.1835 -0.0141
 5905ntf    fn431874   5.912   1.275   6.697  0.0031 -0.0584  0.0505
 5905ntf    fn431875   6.013   1.457   6.729 -0.5249 -0.0584  0.3018
 5906ntf    cn131876   4.999   4.318   1.874  0.2177  0.0678 -0.3352
 5906ntf    sn231877   5.077   4.362   1.715  0.1111 -0.1266 -0.4419
 5906ntf    nn331878   5.064   4.223   1.642 -0.4244 -0.1027 -0.4009
 5906ntf    sn231879   5.104   4.191   1.494  0.0697 -0.0811 -0.2743
 5906ntf    cn131880   4.945   4.154   1.414 -0.2140  0.1682  0.1696
 5906ntf    fn431881   5.045   4.203   1.919  0.4926  0.5677  0.6861
 5906ntf    fn431882   5.020   4.408   1.969  0.5418  0.2331 -0.5613
 5906ntf    fn431883   4.867   4.301   1.869  0.1281  0.7241 -0.3292
 5906ntf    on531884   4.990   4.465   1.665  0.2678  0.1489 -0.1491
 5906ntf    on531885   5.210   4.403   1.753  0.1540 -0.5108 -0.1659
 5906ntf    on531886   5.174   4.065   1.483  0.4547  0.1243 -0.2108
 5906ntf    on531887   5.159   4.291   1.406  0.0013  0.2289  0.0346
 5906ntf    fn431888   4.885   4.043   1.451  0.2175  0.0002  0.3779
 5906ntf    fn431889   4.859   4.255   1.414 -0.3185  0.0940 -0.8629
 5906ntf    fn431890   4.974   4.126   1.288  0.0354 -0.3828  0.3487
 5907ntf    cn131891   2.555   3.589   2.525 -0.1388 -0.3033 -0.1746
 5907ntf    sn231892   2.563   3.768   2.493  0.2453 -0.3008 -0.0656
 5907ntf    nn331893   2.605   3.773   2.342  0.1414 -0.2253 -0.0921
 5907ntf    sn231894   2.746   3.771   2.271  0.1724  0.3414 -0.0487
 5907ntf    cn131895   2.783   3.947   2.243 -0.0528  0.3673 -0.1844
 5907ntf    fn431896   2.518   3.564   2.650 -0.1716  0.1954 -0.0799
 5907ntf    fn431897   2.478   3.525   2.439 -0.3409 -0.3325  0.0277
 5907ntf    fn431898   2.673   3.531   2.519  0.1294  0.2253 -0.1249
 5907ntf    on531899   2.430   3.819   2.511  0.0688 -0.6455 -0.3942
 5907ntf    on531900   2.660   3.802   2.595  0.0354  0.0129  0.0298
 5907ntf    on531901   2.732   3.717   2.138  0.0092 -0.6590  0.3651
 5907ntf    on531902   2.853   3.728   2.358 -0.2013 -1.3021 -0.3841
 5907ntf    fn431903   2.894   3.967   2.174 -0.1980  0.4249 -0.4061
 5907ntf    fn431904   2.692   4.002   2.163 -0.1046  0.3062 -0.1674
 5907ntf    fn431905   2.777   4.018   2.355  0.4447  0.2699 -0.0943
 5908ntf    cn131906   5.099   3.150   3.571 -0.2934  0.3811 -0.2166
 5908ntf    sn231907   4.969   3.031   3.616 -0.2138  0.4722  0.2582
 5908ntf    nn331908   4.951   2.942   3.488 -0.6621  0.3398  0.4101
 5908ntf    sn231909   4.866   2.988   3.365 -0.0723  0.1717 -0.0669
 5908ntf    cn131910   4.748   2.850   3.357 -0.3023  0.3730 -0.1601
 5908ntf    fn431911   5.053   3.242   3.488  0.7502  0.3692 -0.8173
 5908ntf    fn431912   5.147   3.205   3.681  0.1384 -0.2512 -0.0786
 5908ntf    fn431913   5.191   3.087   3.500 -0.2889 -0.2632  0.3491
 5908ntf    on531914   5.026   2.948   3.719  0.0887  0.2463 -0.0886
 5908ntf    on531915   4.850   3.102   3.657 -0.5264 -0.2255  0.5800
 5908ntf    on531916   4.933   2.973   3.239 -0.3162 -0.5937 -0.1062
 5908ntf    on531917   4.783   3.106   3.378  0.0442  0.1530  0.9153
 5908ntf    fn431918   4.635   2.896   3.304 -0.5844 -0.1924 -0.0542
 5908ntf    fn431919   4.785   2.758   3.270 -0.0107  0.5645 -0.2392
 5908ntf    fn431920   4.724   2.794   3.475  0.2856  0.4110 -0.0217
 5909ntf    cn131921   4.913   0.682   5.395 -0.2015  0.2187 -0.1886
 5909ntf    sn231922   4.809   0.572   5.294  0.2184  0.0716 -0.4646
 5909ntf    nn331923   4.905   0.568   5.169 -0.0994  0.4201 -0.7191
 5909ntf    sn231924   5.005   0.453   5.134  0.1461  0.5534 -0.4586
 5909ntf    cn131925   5.120   0.540   5.023  0.2838  0.5226 -0.3408
 5909ntf    fn431926   4.864   0.700   5.516  0.2347  0.3222 -0.0255
 5909ntf    fn431927   5.031   0.626   5.419 -0.3650 -0.2900 -0.5567
 5909ntf    fn431928   4.927   0.804   5.346 -0.0298  0.2359 -0.0973
 5909ntf    on531929   4.798   0.455   5.377  0.8659 -0.0385 -0.5224
 5909ntf    on531930   4.695   0.656   5.270 -0.1288 -0.3190 -0.1835
 5909ntf    on531931   4.949   0.349   5.051 -0.1526  0.3806 -0.0440
 5909ntf    on531932   5.101   0.407   5.231 -0.1385  0.0165 -0.4261
 5909ntf    fn431933   5.207   0.615   5.089  1.1241  0.1539 -1.0025
 5909ntf    fn431934   5.191   0.450   4.957  0.5616 -0.0526  0.7256
 5909ntf    fn431935   5.056   0.614   4.933 -0.4681  0.1259 -0.1425
 5910ntf    cn131936   1.871   3.695   7.363  0.4590 -0.3798  0.2784
 5910ntf    sn231937   1.984   3.573   7.289 -0.0850 -0.4982 -0.3666
 5910ntf    nn331938   2.096   3.568   7.398  0.2354 -0.3172 -0.6847
 5910ntf    sn231939   2.245   3.614   7.387  0.1914 -0.0440 -0.1891
 5910ntf    cn131940   2.331   3.458   7.422 -0.1849 -0.1216  0.3958
 5910ntf    fn431941   1.805   3.635   7.461 -0.2579 -0.0869 -0.0181
 5910ntf    fn431942   1.922   3.810   7.401 -0.1905  0.1718 -0.4642
 5910ntf    fn431943   1.769   3.717   7.281  0.3973 -0.3272  0.3694
 5910ntf    on531944   1.895   3.459   7.289 -0.1250 -0.4696  0.2440
 5910ntf    on531945   2.011   3.639   7.163  0.1935  0.3246  0.1213
 5910ntf    on531946   2.282   3.700   7.497 -0.4207 -0.1575  0.1066
 5910ntf    on531947   2.295   3.650   7.256 -0.0496  0.1357 -0.2311
 5910ntf    fn431948   2.462   3.473   7.436 -0.1111 -0.1875 -0.1865
 5910ntf    fn431949   2.297   3.400   7.536 -0.0908 -0.5461  0.2104
 5910ntf    fn431950   2.312   3.379   7.318  0.3136  0.8993 -0.4922
 5911ntf    cn131951   0.148   6.172   2.012 -0.0792 -0.0864  0.0499
 5911ntf    sn231952   0.127   6.211   1.836  0.0642  0.1004  0.0734
 5911ntf    nn331953   0.182   6.357   1.852 -0.0539  0.0698  0.7896
 5911ntf    sn231954   0.128   6.496   1.803  0.3448 -0.0490 -0.0013
 5911ntf    cn131955   0.177   6.483   1.628  0.0999 -0.2692 -0.0555
 5911ntf    fn431956   0.066   6.072   2.041 -0.5443  0.2430 -0.1197
 5911ntf    fn431957   0.273   6.133   2.028  0.0669  0.3172 -0.0945
 5911ntf    fn431958   0.126   6.276   2.091 -0.3205  0.0403 -0.1814
 5911ntf    on531959   0.216   6.126   1.760 -0.3742 -0.1482 -0.1669
 5911ntf    on531960  -0.015   6.207   1.808  0.1152  0.1523 -0.1946
 5911ntf    on531961   0.211   6.600   1.858  0.0290 -0.1080  0.5952
 5911ntf    on531962  -0.015   6.511   1.789  0.3401 -0.0791  0.0103
 5911ntf    fn431963   0.150   6.366   1.573 -0.6386 -0.4080  0.5822
 5911ntf    fn431964   0.117   6.576   1.555  0.5363 -0.2424 -0.3886
 5911ntf    fn431965   0.305   6.511   1.609 -0.1341  0.9803  0.1187
 5912ntf    cn131966   2.228   1.503   1.856  0.5890 -0.1187  0.0143
 5912ntf    sn231967   2.115   1.461   1.993  0.5700 -0.0887  0.0081
 5912ntf    nn331968   2.201   1.344   2.053  0.0838 -0.1013  0.6878
 5912ntf    sn231969   2.196   1.191   2.019  0.1904  0.0125  0.1528
 5912ntf    cn131970   2.340   1.122   2.106  0.1968 -0.0320  0.1070
 5912ntf    fn431971   2.352   1.498   1.902  0.4715  0.2602  0.3755
 5912ntf    fn431972   2.225   1.417   1.756  0.1046 -0.0437 -0.0406
 5912ntf    fn431973   2.208   1.623   1.805  0.0199 -0.0840  0.3046
 5912ntf    on531974   2.116   1.581   2.073  0.1706 -0.1217  0.0618
 5912ntf    on531975   1.990   1.416   1.937  0.3384  0.0663  0.4003
 5912ntf    on531976   2.221   1.175   1.878 -0.4251 -0.0449  0.0474
 5912ntf    on531977   2.079   1.124   2.069  0.0997  0.1462  0.1191
 5912ntf    fn431978   2.329   0.993   2.134 -0.0391  0.0942  0.6217
 5912ntf    fn431979   2.449   1.139   2.034  0.1433  0.5100  0.1538
 5912ntf    fn431980   2.344   1.187   2.222  0.3034  0.1898 -0.0202
 5913ntf    cn131981   4.965   2.933   6.776 -0.2167 -0.3604  0.0408
 5913ntf    sn231982   4.971   3.114   6.777  0.0110 -0.3662 -0.1467
 5913ntf    nn331983   4.919   3.152   6.921  0.0889  0.1280 -0.2474
 5913ntf    sn231984   5.011   3.176   7.046 -0.2934  0.1493  0.0287
 5913ntf    cn131985   5.077   3.345   7.042  0.3888 -0.0989  0.5470
 5913ntf    fn431986   4.988   2.878   6.895 -0.3705  0.1496  0.3101
 5913ntf    fn431987   4.851   2.881   6.732 -0.1660 -0.2147 -0.2618
 5913ntf    fn431988   5.049   2.871   6.695  0.1994 -0.2680  0.3956
 5913ntf    on531989   5.110   3.136   6.748 -0.0574 -0.0004 -0.1983
 5913ntf    on531990   4.877   3.151   6.674 -0.2759  0.1803  0.3034
 5913ntf    on531991   5.128   3.092   7.049 -0.3782 -0.0140 -0.8831
 5913ntf    on531992   4.926   3.174   7.162 -0.0984 -0.2066  0.1667
 5913ntf    fn431993   5.148   3.363   6.932 -0.4319  0.3038  0.0693
 5913ntf    fn431994   4.977   3.430   7.030  0.2830 -0.2236  0.5380
 5913ntf    fn431995   5.154   3.386   7.141  0.0178  0.4005  0.6308
 5914ntf    cn131996   1.021   2.534   1.697  0.1217 -0.2239 -0.0333
 5914ntf    sn231997   0.969   2.609   1.540  0.1745  0.1526  0.1285
 5914ntf    nn331998   0.817   2.638   1.564  0.1648  0.3246 -0.1344
 5914ntf    sn231999   0.750   2.771   1.615  0.0142  0.1513  0.1198
 5914ntf    cn132000   0.649   2.809   1.468  0.2334  0.0310 -0.0639
 5914ntf    fn432001   1.144   2.487   1.687  0.2596  0.1507 -0.1304
 5914ntf    fn432002   1.026   2.616   1.800 -0.4549  0.1111 -0.2675
 5914ntf    fn432003   0.943   2.439   1.745  0.2120 -0.5199 -0.4619
 5914ntf    on532004   1.064   2.715   1.512  0.4372 -0.1298 -0.0592
 5914ntf    on532005   0.986   2.500   1.447  0.0384  0.8082 -0.6826
 5914ntf    on532006   0.828   2.891   1.628  0.2898  0.1271 -1.1376
 5914ntf    on532007   0.656   2.745   1.721 -0.2359  0.0208 -0.1309
 5914ntf    fn432008   0.582   2.920   1.494  0.7068  0.1791  0.5473
 5914ntf    fn432009   0.714   2.841   1.358 -0.1968  0.1768 -0.2764
 5914ntf    fn432010   0.559   2.715   1.445  0.4647 -0.0219 -0.7778
 5915ntf    cn132011   6.006   0.431   1.726 -0.0674 -0.0843  0.2760
 5915ntf    sn232012   5.838   0.492   1.757 -0.2084 -0.4439  0.2283
 5915ntf    nn332013   5.816   0.440   1.903 -0.2444 -0.5457  0.1862
 5915ntf    sn232014   5.787   0.525   2.032 -0.1816 -0.0069 -0.1576
 5915ntf    cn132015   5.736   0.399   2.152  0.0667  0.3921  0.3698
 5915ntf    fn432016   6.103   0.456   1.813 -0.2147  0.0135  0.4137
 5915ntf    fn432017   6.018   0.300   1.712 -0.4897 -0.0344 -0.5928
 5915ntf    fn432018   6.058   0.485   1.617 -0.7120 -0.6744 -0.3277
 5915ntf    on532019   5.847   0.636   1.744  0.1609 -0.4573  0.3255
 5915ntf    on532020   5.758   0.418   1.663  0.4259 -0.3323 -0.4094
 5915ntf    on532021   5.674   0.615   2.020 -0.2704 -0.1415 -0.3377
 5915ntf    on532022   5.902   0.585   2.096 -0.4689  0.1680  0.1976
 5915ntf    fn432023   5.663   0.311   2.087  0.1903  0.4680  0.1281
 5915ntf    fn432024   5.834   0.330   2.208  0.2943  0.3755 -0.0511
 5915ntf    fn432025   5.647   0.440   2.241 -0.2070 -0.3733  0.4536
 5916ntf    cn132026   4.911   5.729   4.591 -0.2380 -0.2939  0.3968
 5916ntf    sn232027   4.790   5.711   4.726 -0.1198 -0.1358  0.5242
 5916ntf    nn332028   4.656   5.721   4.645 -0.0282  0.6138  0.4542
 5916ntf    sn232029   4.511   5.721   4.706 -0.2463  0.1213 -0.0582
 5916ntf    cn132030   4.483   5.542   4.688 -0.6405  0.1828 -0.0519
 5916ntf    fn432031   4.924   5.851   4.542 -0.0019 -0.4938 -0.0431
 5916ntf    fn432032   5.033   5.691   4.627  0.0389 -0.2289 -0.4526
 5916ntf    fn432033   4.891   5.651   4.486  0.2766  0.1935 -0.0660
 5916ntf    on532034   4.812   5.579   4.779  0.6519 -0.1738  0.1307
 5916ntf    on532035   4.818   5.826   4.809  0.5197 -0.1656  0.3578
 5916ntf    on532036   4.418   5.783   4.615 -0.4697  0.7252  0.5777
 5916ntf    on532037   4.489   5.740   4.847  0.3064  0.1409  0.0301
 5916ntf    fn432038   4.521   5.509   4.566  0.3124 -0.1120  0.3186
 5916ntf    fn432039   4.557   5.476   4.775 -0.5337  0.5121  0.1091
 5916ntf    fn432040   4.355   5.508   4.694 -0.7142  0.3183 -0.7286
 5917ntf    cn132041   7.253   4.293   4.897  0.2988 -0.1484 -0.0713
 5917ntf    sn232042   7.199   4.377   5.049  0.2468  0.0134 -0.1786
 5917ntf    nn332043   7.094   4.478   4.990 -0.1430 -0.3571 -0.1255
 5917ntf    sn232044   7.099   4.606   4.900  0.1975 -0.2003  0.1160
 5917ntf    cn132045   6.957   4.565   4.795 -0.0651  0.4263  0.2150
 5917ntf    fn432046   7.315   4.375   4.814  0.2599  0.2360  0.2749
 5917ntf    fn432047   7.336   4.193   4.921 -0.0972 -0.2757  0.7882
 5917ntf    fn432048   7.148   4.237   4.838  0.2319 -0.1272  0.0261
 5917ntf    on532049   7.140   4.273   5.131  0.2722 -0.2126 -0.4441
 5917ntf    on532050   7.318   4.439   5.100  0.2126 -0.0376 -0.0352
 5917ntf    on532051   7.207   4.616   4.806 -0.0076 -0.1480 -0.1157
 5917ntf    on532052   7.073   4.732   4.966 -0.4972 -0.1935 -0.1628
 5917ntf    fn432053   6.837   4.555   4.849 -0.4329 -0.2461 -0.6798
 5917ntf    fn432054   6.942   4.665   4.709 -0.0688 -0.1275 -0.4424
 5917ntf    fn432055   6.975   4.455   4.723  0.7951  0.4528  0.3758
 5918ntf    cn132056   6.398   4.964   7.521  0.2305  0.1271  0.0778
 5918ntf    sn232057   6.414   5.112   7.626 -0.0190  0.2939 -0.1190
 5918ntf    nn332058   6.476   5.209   7.520  0.1747 -0.4281 -0.6711
 5918ntf    sn232059   6.402   5.308   7.423  0.0169 -0.0236 -0.1380
 5918ntf    cn132060   6.422   5.459   7.524 -0.2057  0.0718 -0.2355
 5918ntf    fn432061   6.342   4.990   7.405 -0.1186  0.1172  0.2420
 5918ntf    fn432062   6.522   4.922   7.498  0.2012  0.1628 -0.1458
 5918ntf    fn432063   6.332   4.863   7.575  0.2851  0.2286  0.3367
 5918ntf    on532064   6.279   5.137   7.671  0.2047  0.3071  0.5539
 5918ntf    on532065   6.505   5.077   7.733 -0.6003  0.2291  0.3593
 5918ntf    on532066   6.259   5.291   7.418  0.0184 -0.2105  0.3551
 5918ntf    on532067   6.469   5.345   7.301  0.2940  0.4609  0.1556
 5918ntf    fn432068   6.377   5.570   7.468  0.2838  0.2145 -0.3515
 5918ntf    fn432069   6.359   5.449   7.639  0.0780 -0.4378 -0.1169
 5918ntf    fn432070   6.549   5.478   7.555 -0.1852 -0.2234 -0.1361
 5919ntf    cn132071   1.101   2.484   0.271  0.0414  0.7242 -0.6612
 5919ntf    sn232072   0.966   2.384   0.203 -0.0581  0.3390  0.0895
 5919ntf    nn332073   1.026   2.304   0.081  0.1968  0.3418  0.2126
 5919ntf    sn232074   1.020   2.345  -0.070 -0.0398  0.0943  0.1536
 5919ntf    cn132075   1.188   2.298  -0.123  0.0104  0.2327  0.1893
 5919ntf    fn432076   1.131   2.592   0.201  0.1839  1.0067 -0.1742
 5919ntf    fn432077   1.078   2.528   0.394 -0.3151  0.4759 -0.6369
 5919ntf    fn432078   1.210   2.409   0.280 -0.8569 -0.5913 -0.3343
 5919ntf    on532079   0.933   2.295   0.312 -1.1646  0.4688 -0.1281
 5919ntf    on532080   0.860   2.477   0.173 -0.1653 -0.0383 -0.7331
 5919ntf    on532081   1.029   2.485  -0.102  0.0963  0.1626  0.4867
 5919ntf    on532082   0.937   2.259  -0.151 -0.0253  0.3062 -0.0861
 5919ntf    fn432083   1.203   2.297  -0.254  0.0180  0.0814  0.1910
 5919ntf    fn432084   1.274   2.387  -0.077 -0.2179  0.3959  0.3045
 5919ntf    fn432085   1.225   2.177  -0.084  0.4123  0.1358 -0.4883
 5920ntf    cn132086   5.870   7.269   3.614 -0.1003 -0.1996 -0.2929
 5920ntf    sn232087   5.724   7.161   3.605 -0.0983 -0.2280 -0.0019
 5920ntf    nn332088   5.800   7.025   3.619 -0.0759 -0.1772  0.4135
 5920ntf    sn232089   5.752   6.885   3.673 -0.5586 -0.1849 -0.0279
 5920ntf    cn132090   5.892   6.861   3.786 -0.4054  0.0670 -0.1642
 5920ntf    fn432091   5.973   7.209   3.558 -0.1862 -0.3058 -0.3367
 5920ntf    fn432092   5.857   7.387   3.556 -0.7230 -0.0676  0.0976
 5920ntf    fn432093   5.912   7.300   3.736 -0.4086 -0.2763 -0.1665
 5920ntf    on532094   5.655   7.208   3.724  0.0246  0.2278 -0.1075
 5920ntf    on532095   5.657   7.176   3.478  0.1674  0.3429 -0.0774
 5920ntf    on532096   5.765   6.775   3.580  0.3770  0.3362 -0.5357
 5920ntf    on532097   5.631   6.895   3.751 -0.3158 -0.5590  0.3992
 5920ntf    fn432098   5.885   6.743   3.844  0.3260 -0.0077 -0.2205
 5920ntf    fn432099   6.007   6.870   3.722 -0.3149 -0.0273 -0.0159
 5920ntf    fn432100   5.889   6.956   3.878  0.7915  0.0265 -0.0731
 5921ntf    cn132101   0.215   5.403   1.983 -0.3964  0.0078 -0.1460
 5921ntf    sn232102   0.271   5.246   2.057 -0.1422  0.0719 -0.2011
 5921ntf    nn332103   0.398   5.215   1.971  0.2746 -0.1645  0.4937
 5921ntf    sn232104   0.550   5.227   2.008  0.4966 -0.2855 -0.3438
 5921ntf    cn132105   0.566   5.064   2.087  0.1478 -0.1513  0.0069
 5921ntf    fn432106   0.089   5.422   2.017 -0.2149  0.6542  0.1763
 5921ntf    fn432107   0.290   5.505   2.021  0.3624 -0.5245 -0.1736
 5921ntf    fn432108   0.220   5.402   1.851  0.2017  1.0887 -0.1451
 5921ntf    on532109   0.291   5.283   2.195  0.0023 -0.3036 -0.1217
 5921ntf    on532110   0.163   5.156   2.026 -0.0720 -0.0768 -0.0159
 5921ntf    on532111   0.583   5.325   2.109 -0.2737 -0.3768 -0.0014
 5921ntf    on532112   0.639   5.208   1.896 -0.0216 -0.2610 -0.7627
 5921ntf    fn432113   0.528   4.962   2.011 -0.2537  0.2651 -0.3584
 5921ntf    fn432114   0.694   5.044   2.117  0.2232 -0.2698 -0.3903
 5921ntf    fn432115   0.499   5.045   2.200  0.0428  0.3461  0.0307
 5922ntf    cn132116   0.713   4.921   0.952  0.3361 -0.0212  0.1443
 5922ntf    sn232117   0.547   4.869   1.003  0.1576  0.4427  0.0403
 5922ntf    nn332118   0.484   5.010   1.030 -0.3186  0.2130  0.1446
 5922ntf    sn232119   0.383   5.052   1.143 -0.3512  0.2537  0.1006
 5922ntf    cn132120   0.225   4.991   1.077 -0.2046  0.0924 -0.1033
 5922ntf    fn432121   0.712   4.994   0.842 -0.4182 -0.4167 -0.1160
 5922ntf    fn432122   0.769   4.992   1.049 -0.1533 -0.1882  0.5517
 5922ntf    fn432123   0.804   4.828   0.924  0.5199  0.1808  0.0653
 5922ntf    on532124   0.486   4.804   0.889  0.0147 -0.1266  0.4367
 5922ntf    on532125   0.557   4.780   1.116 -0.3222  0.4187  0.0655
 5922ntf    on532126   0.356   5.194   1.144  0.0848  0.3388  0.2146
 5922ntf    on532127   0.403   4.984   1.268  0.3980  0.0082 -0.1458
 5922ntf    fn432128   0.126   5.039   1.150  0.2246  0.3130  0.3458
 5922ntf    fn432129   0.205   5.037   0.955  0.4999  0.3457 -0.1293
 5922ntf    fn432130   0.223   4.859   1.089  0.2625  0.1587  0.8087
 5923ntf    cn132131   3.172   0.357   6.628  0.1920 -0.0199  0.1115
 5923ntf    sn232132   3.158   0.184   6.573  0.0309  0.0938 -0.2124
 5923ntf    nn332133   3.070   0.208   6.446 -0.2150  0.6612  0.0642
 5923ntf    sn232134   3.079   0.145   6.302  0.4428  0.0528  0.3680
 5923ntf    cn132135   3.195   0.252   6.212 -0.3703  0.2077 -0.5166
 5923ntf    fn432136   3.243   0.354   6.739  0.0340 -0.3129  0.2074
 5923ntf    fn432137   3.229   0.449   6.552  0.2249 -0.1470 -0.0187
 5923ntf    fn432138   3.056   0.408   6.666  0.1750 -0.0240  0.0657
 5923ntf    on532139   3.293   0.148   6.537 -0.1107 -0.6335 -0.0306
 5923ntf    on532140   3.095   0.117   6.685  0.1945 -0.6513 -0.5550
 5923ntf    on532141   2.959   0.157   6.223  0.5914 -0.0554  0.1253
 5923ntf    on532142   3.148   0.019   6.292 -0.0320 -0.1409 -0.5131
 5923ntf    fn432143   3.213   0.204   6.091 -0.4028  0.2915 -0.5548
 5923ntf    fn432144   3.155   0.378   6.199  0.2499  0.4977  0.2765
 5923ntf    fn432145   3.308   0.267   6.280 -0.5775  0.1195 -0.1521
 5924ntf    cn132146   2.940   3.598   5.408 -0.3829  0.3113  0.3755
 5924ntf    sn232147   3.053   3.520   5.527 -0.0156 -0.2327 -0.3241
 5924ntf    nn332148   2.973   3.523   5.662  0.5583 -0.0459  0.0148
 5924ntf    sn232149   3.026   3.559   5.806 -0.1070  0.0892  0.2319
 5924ntf    cn132150   2.975   3.733   5.815 -0.2571  0.0135  0.8350
 5924ntf    fn432151   2.816   3.553   5.410 -0.2205 -0.1925 -0.5755
 5924ntf    fn432152   2.946   3.730   5.422 -0.3299  0.3136  0.3321
 5924ntf    fn432153   2.984   3.575   5.285  0.1522  0.1941  0.5859
 5924ntf    on532154   3.055   3.382   5.485  0.2949 -0.2528 -0.2422
 5924ntf    on532155   3.177   3.592   5.526 -0.0539 -0.1568  0.1539
 5924ntf    on532156   3.167   3.562   5.837 -0.1761  1.1370  0.4743
 5924ntf    on532157   2.947   3.500   5.911 -0.1594 -0.2192  0.0226
 5924ntf    fn432158   3.048   3.795   5.906 -0.2811  0.1579  0.7549
 5924ntf    fn432159   2.998   3.788   5.697  0.2092 -0.5679  0.6507
 5924ntf    fn432160   2.848   3.754   5.847 -0.4204  0.0151  0.2010
 5925ntf    cn132161   2.794   4.962   2.586 -0.0652  0.1987  0.1011
 5925ntf    sn232162   2.837   5.133   2.630 -0.1877  0.2819 -0.0995
 5925ntf    nn332163   2.987   5.105   2.668 -0.2067 -0.0702 -0.2767
 5925ntf    sn232164   3.126   5.139   2.605  0.0248 -0.3201  0.0960
 5925ntf    cn132165   3.226   5.045   2.725  0.5340 -0.0410 -0.1045
 5925ntf    fn432166   2.883   4.902   2.509  0.6916  1.2561  0.1330
 5925ntf    fn432167   2.777   4.884   2.691  0.0559 -0.3233 -0.2649
 5925ntf    fn432168   2.683   4.970   2.515 -0.2215  0.2771  0.3538
 5925ntf    on532169   2.810   5.216   2.515  0.3146  0.1820 -0.2932
 5925ntf    on532170   2.763   5.157   2.751  0.1241  0.3840  0.0710
 5925ntf    on532171   3.166   5.276   2.626 -0.2662 -0.2746  0.3518
 5925ntf    on532172   3.168   5.074   2.482 -0.1505 -0.3110  0.0316
 5925ntf    fn432173   3.201   5.074   2.851 -0.1614  0.1013 -0.2661
 5925ntf    fn432174   3.197   4.916   2.717 -0.3795  0.1731 -0.4113
 5925ntf    fn432175   3.356   5.054   2.704  0.5612 -0.0538  0.0580
 5926ntf    cn132176   1.819   2.580   2.312  0.0640 -0.2381 -0.4075
 5926ntf    sn232177   1.752   2.713   2.208 -0.1687 -0.0847 -0.0650
 5926ntf    nn332178   1.853   2.693   2.089 -0.1067  0.1239 -0.0485
 5926ntf    sn232179   1.838   2.633   1.945 -0.0713  0.2024 -0.0846
 5926ntf    cn132180   1.780   2.463   1.972  0.2951  0.1082  0.1174
 5926ntf    fn432181   1.827   2.462   2.254 -0.0875 -0.4290 -0.0392
 5926ntf    fn432182   1.941   2.600   2.359 -0.0391 -0.3147 -0.1035
 5926ntf    fn432183   1.751   2.547   2.421  0.3935 -0.7268 -0.3491
 5926ntf    on532184   1.612   2.684   2.189 -0.2838 -0.0411  0.6910
 5926ntf    on532185   1.793   2.826   2.288 -0.5724 -0.1407  0.2249
 5926ntf    on532186   1.969   2.615   1.887 -0.1466  0.1929 -0.2514
 5926ntf    on532187   1.737   2.684   1.856 -0.5689 -0.3648  0.1536
 5926ntf    fn432188   1.878   2.381   2.005  0.0287 -0.0302  0.5656
 5926ntf    fn432189   1.687   2.457   2.066  0.0871  0.0606 -0.0900
 5926ntf    fn432190   1.731   2.411   1.861 -0.1288  0.2410  0.2423
 5927ntf    cn132191   5.238   5.821   7.111 -0.0747  0.3167 -0.2771
 5927ntf    sn232192   5.153   5.973   7.162 -0.0754  0.2632 -0.1154
 5927ntf    nn332193   5.262   6.078   7.121  0.0916  0.1478  0.0309
 5927ntf    sn232194   5.242   6.201   7.025 -0.4467 -0.0452 -0.1092
 5927ntf    cn132195   5.333   6.332   7.113 -0.4263 -0.0654 -0.0996
 5927ntf    fn432196   5.244   5.806   6.980  0.0059 -0.3158 -0.2060
 5927ntf    fn432197   5.364   5.825   7.153 -0.2147  0.4227  0.1433
 5927ntf    fn432198   5.185   5.710   7.161  0.1709  0.2863 -0.0802
 5927ntf    on532199   5.029   5.979   7.089 -0.1722 -0.1871  0.0066
 5927ntf    on532200   5.142   5.951   7.304  0.6097  0.4189 -0.0339
 5927ntf    on532201   5.106   6.249   7.017 -0.4222 -0.0384 -0.5005
 5927ntf    on532202   5.315   6.174   6.903 -0.3812  0.3539 -0.1589
 5927ntf    fn432203   5.449   6.283   7.154 -0.1126  0.2105 -0.6552
 5927ntf    fn432204   5.361   6.436   7.036  0.7138  0.0034  0.3821
 5927ntf    fn432205   5.273   6.387   7.217  0.4345  0.4793  0.1242
 5928ntf    cn132206   5.805   0.316   6.119 -0.4308  0.3458  0.1191
 5928ntf    sn232207   5.896   0.159   6.102  0.0672  0.6312  0.1170
 5928ntf    nn332208   6.046   0.195   6.131  0.1787  0.3914 -0.1584
 5928ntf    sn232209   6.138   0.154   6.251 -0.0887  0.0759 -0.0585
 5928ntf    cn132210   6.120   0.302   6.355  0.1435  0.2311 -0.2364
 5928ntf    fn432211   5.835   0.396   6.018  0.1106 -0.0248 -0.0191
 5928ntf    fn432212   5.676   0.295   6.141 -0.3266 -0.2131  0.2332
 5928ntf    fn432213   5.843   0.376   6.230 -0.1359 -0.1467  0.2921
 5928ntf    on532214   5.841   0.073   6.204  0.2925  0.5680  0.1853
 5928ntf    on532215   5.868   0.128   5.964  0.1427  0.2159  0.1932
 5928ntf    on532216   6.277   0.172   6.216 -0.0289  0.0798  0.1791
 5928ntf    on532217   6.110   0.043   6.339 -0.0394 -0.1355 -0.3080
 5928ntf    fn432218   6.169   0.414   6.303 -0.1059  0.3013 -0.3201
 5928ntf    fn432219   5.994   0.326   6.386  0.1617 -0.2939  0.2647
 5928ntf    fn432220   6.185   0.285   6.469 -0.0570  0.0297 -0.1507
 5929ntf    cn132221   5.425   7.417   0.344 -0.1588  0.0869  0.2107
 5929ntf    sn232222   5.338   7.476   0.492 -0.4096 -0.0684  0.1254
 5929ntf    nn332223   5.367   7.361   0.594 -0.0962 -0.3632 -0.2928
 5929ntf    sn232224   5.472   7.338   0.709 -0.0612  0.0887 -0.2324
 5929ntf    cn132225   5.366   7.310   0.853 -0.0463  0.0642 -0.2262
 5929ntf    fn432226   5.554   7.404   0.370 -0.1236  0.2432  0.1201
 5929ntf    fn432227   5.382   7.299   0.301 -0.3031  0.1105  0.2897
 5929ntf    fn432228   5.411   7.503   0.245  0.1000 -0.0187  0.0783
 5929ntf    on532229   5.387   7.607   0.529 -0.1361 -0.1904  0.2001
 5929ntf    on532230   5.202   7.459   0.448 -0.0895 -0.0955 -0.8969
 5929ntf    on532231   5.544   7.453   0.756 -0.2316  0.3248 -0.5434
 5929ntf    on532232   5.545   7.214   0.701 -0.0855  0.0306  0.4705
 5929ntf    fn432233   5.272   7.221   0.823 -0.3556  0.2925  0.0465
 5929ntf    fn432234   5.433   7.261   0.956 -0.1322 -0.1657 -0.2781
 5929ntf    fn432235   5.301   7.418   0.894 -0.1584 -0.1522  0.1765
 5930ntf    cn132236   3.856   2.985   4.970 -0.5843 -0.0206  0.3252
 5930ntf    sn232237   3.811   3.030   4.799  0.0741 -0.2825  0.0793
 5930ntf    nn332238   3.798   3.186   4.815  0.2573 -0.2244 -0.3261
 5930ntf    sn232239   3.823   3.296   4.706 -0.2066  0.2086 -0.0003
 5930ntf    cn132240   3.989   3.345   4.761 -0.1599 -0.2388  0.2616
 5930ntf    fn432241   3.936   3.070   5.032 -0.1876 -0.2915  0.1903
 5930ntf    fn432242   3.748   2.976   5.046 -0.6388  0.2002  0.2750
 5930ntf    fn432243   3.922   2.870   4.969  0.1344  0.3855  0.3829
 5930ntf    on532244   3.921   2.981   4.719  0.4859 -0.0572  0.4988
 5930ntf    on532245   3.681   2.971   4.779 -0.4450  0.7903  0.2201
 5930ntf    on532246   3.748   3.418   4.725  0.5205  0.6835 -0.1552
 5930ntf    on532247   3.839   3.249   4.571 -0.2148  0.3661 -0.0568
 5930ntf    fn432248   4.068   3.239   4.754  0.2724  0.0768  0.3645
 5930ntf    fn432249   4.035   3.445   4.688 -0.2870 -0.4084 -0.0580
 5930ntf    fn432250   3.997   3.386   4.886 -0.1722  0.2495  0.1020
 5931ntf    cn132251   1.443   2.536   3.387 -0.2480  0.0722 -0.0847
 5931ntf    sn232252   1.589   2.613   3.463 -0.2052 -0.0264 -0.0664
 5931ntf    nn332253   1.531   2.755   3.499  0.4655  0.2460 -0.0410
 5931ntf    sn232254   1.515   2.824   3.639 -0.2428 -0.3260  0.1686
 5931ntf    cn132255   1.613   2.975   3.611 -0.5324 -0.1646  0.0265
 5931ntf    fn432256   1.470   2.408   3.370  0.1332  0.2063 -0.5089
 5931ntf    fn432257   1.328   2.538   3.452  0.0608 -0.0792  0.4760
 5931ntf    fn432258   1.417   2.585   3.267 -0.5175  0.3738  0.0943
 5931ntf    on532259   1.612   2.534   3.581 -0.4097 -0.0333 -0.0302
 5931ntf    on532260   1.691   2.623   3.362 -0.2410  0.1757 -0.0840
 5931ntf    on532261   1.582   2.771   3.755 -0.4422 -0.4449  0.2294
 5931ntf    on532262   1.385   2.886   3.650 -0.3600 -0.4609 -0.4407
 5931ntf    fn432263   1.623   3.050   3.719  0.0112  0.1284 -0.2223
 5931ntf    fn432264   1.736   2.959   3.565 -0.3502  0.0783  0.4269
 5931ntf    fn432265   1.554   3.056   3.524  0.2192  0.4470  0.0810
 5932ntf    cn132266   0.939   5.363   3.093 -0.2191 -0.1986 -0.2184
 5932ntf    sn232267   1.060   5.343   2.959  0.0301 -0.0752 -0.0143
 5932ntf    nn332268   1.140   5.215   3.002  0.0365 -0.0685 -0.0082
 5932ntf    sn232269   1.134   5.075   2.932  0.3182 -0.0776 -0.0160
 5932ntf    cn132270   1.023   4.991   3.049 -0.0359 -0.1107 -0.3767
 5932ntf    fn432271   0.992   5.368   3.215  0.5202 -0.7200 -0.5122
 5932ntf    fn432272   0.870   5.476   3.081  0.1420 -0.0034 -0.4850
 5932ntf    fn432273   0.844   5.272   3.090 -0.4510  0.0191  0.3501
 5932ntf    on532274   0.975   5.328   2.843  0.1846 -0.0171 -0.1357
 5932ntf    on532275   1.131   5.469   2.959 -0.5901  0.2786  0.5371
 5932ntf    on532276   1.255   4.999   2.950  0.4687  0.1761  0.0469
 5932ntf    on532277   1.073   5.053   2.803 -0.0910 -0.8178  0.2961
 5932ntf    fn432278   1.034   5.039   3.171  0.0493  0.7300 -0.7108
 5932ntf    fn432279   0.895   5.011   3.022 -0.2131 -0.2160  0.3681
 5932ntf    fn432280   1.049   4.861   3.054  0.3556 -0.0259 -0.2053
 5933ntf    cn132281   2.543   2.102   4.379 -0.0976 -0.1345 -0.0367
 5933ntf    sn232282   2.504   1.931   4.330 -0.0587 -0.1374 -0.0565
 5933ntf    nn332283   2.475   1.847   4.460  0.1876 -0.1835 -0.0322
 5933ntf    sn232284   2.347   1.849   4.550  0.2501  0.1663  0.0479
 5933ntf    cn132285   2.428   1.793   4.704 -0.3970 -0.3390  0.2073
 5933ntf    fn432286   2.625   2.097   4.482  0.3328  0.2733 -0.3576
 5933ntf    fn432287   2.594   2.168   4.276  0.1232  0.2568  0.3210
 5933ntf    fn432288   2.437   2.172   4.416  0.0691  0.1414 -0.0803
 5933ntf    on532289   2.398   1.931   4.232 -0.2614 -0.3235  0.1571
 5933ntf    on532290   2.634   1.890   4.284 -0.3711 -0.6283 -0.5200
 5933ntf    on532291   2.255   1.745   4.514  0.1705  0.2006  0.1515
 5933ntf    on532292   2.286   1.973   4.591  0.0756 -0.0413  0.4206
 5933ntf    fn432293   2.346   1.802   4.808  0.0965 -0.1106  0.5776
 5933ntf    fn432294   2.469   1.669   4.685  0.3357  0.0379 -0.7825
 5933ntf    fn432295   2.539   1.859   4.730 -0.5790 -0.1050  0.4069
 5934ntf    cn132296   0.198   2.692   5.435  0.7191  0.3383  0.0890
 5934ntf    sn232297   0.325   2.568   5.395  0.0585 -0.3351  0.0730
 5934ntf    nn332298   0.384   2.629   5.263 -0.1799 -0.0941  0.0760
 5934ntf    sn232299   0.325   2.613   5.118  0.0274  0.0780 -0.0270
 5934ntf    cn132300   0.309   2.790   5.077  0.1261  0.1139  0.0881
 5934ntf    fn432301   0.152   2.691   5.559 -0.7789 -0.5506 -0.4578
 5934ntf    fn432302   0.241   2.817   5.420  0.1559  0.5300  0.0456
 5934ntf    fn432303   0.091   2.667   5.362  0.7376 -0.1979  0.2411
 5934ntf    on532304   0.422   2.580   5.500  0.1542  0.3721 -0.0899
 5934ntf    on532305   0.254   2.442   5.389 -0.3563 -0.1111  0.1789
 5934ntf    on532306   0.192   2.559   5.110  0.1243 -0.2730  0.7297
 5934ntf    on532307   0.423   2.563   5.025  0.1234  0.1181  0.0515
 5934ntf    fn432308   0.224   2.813   4.978  0.2232 -0.2737 -0.0892
 5934ntf    fn432309   0.269   2.860   5.182 -0.3695 -0.0845  0.0328
 5934ntf    fn432310   0.428   2.842   5.054  0.2822 -0.0651  0.4881
 5935ntf    cn132311   4.359   4.951   1.944  0.2400 -0.0752  0.1300
 5935ntf    sn232312   4.413   4.853   1.800  0.4092  0.1170  0.0628
 5935ntf    nn332313   4.395   4.706   1.850  0.2405 -0.1364 -0.7270
 5935ntf    sn232314   4.275   4.606   1.835  0.1138 -0.0905 -0.0425
 5935ntf    cn132315   4.349   4.489   1.717 -0.1962  0.1606 -0.4872
 5935ntf    fn432316   4.456   4.964   2.033  0.4194 -0.4331 -0.0081
 5935ntf    fn432317   4.334   5.075   1.908  0.2649 -0.1137 -0.0213
 5935ntf    fn432318   4.252   4.904   2.006  0.1313  0.0593  0.0443
 5935ntf    on532319   4.321   4.899   1.698  0.1031  0.4663  0.4893
 5935ntf    on532320   4.551   4.887   1.778  0.3804  0.3386  0.2181
 5935ntf    on532321   4.165   4.670   1.768  0.4490  0.4011 -0.1237
 5935ntf    on532322   4.248   4.534   1.957 -0.5148  0.1307 -0.0471
 5935ntf    fn432323   4.477   4.460   1.737 -0.5398 -0.7880  0.4053
 5935ntf    fn432324   4.290   4.371   1.713 -0.8347  0.4638 -0.1131
 5935ntf    fn432325   4.348   4.541   1.595 -0.0203  0.1677 -0.4866
 5936ntf    cn132326   4.869   5.671   2.004 -0.3129 -0.1128 -0.1080
 5936ntf    sn232327   5.032   5.618   2.065 -0.2884 -0.1683 -0.2206
 5936ntf    nn332328   4.991   5.576   2.210 -0.4195  0.3349 -0.1123
 5936ntf    sn232329   4.983   5.428   2.261 -0.1091  0.3946  0.1162
 5936ntf    cn132330   4.894   5.448   2.418  0.0601 -0.5589  0.3380
 5936ntf    fn432331   4.823   5.783   2.055 -0.5646 -0.4084  0.3180
 5936ntf    fn432332   4.870   5.684   1.872 -0.3908 -0.1078 -0.1085
 5936ntf    fn432333   4.774   5.582   2.029 -0.4685 -0.0071 -0.3178
 5936ntf    on532334   5.067   5.515   1.971  0.6373 -0.2372  0.1881
 5936ntf    on532335   5.111   5.739   2.070 -0.4600 -0.0675  0.1096
 5936ntf    on532336   5.110   5.373   2.301 -0.0944  0.3830  0.0563
 5936ntf    on532337   4.895   5.345   2.183  0.5440  0.0085 -0.2206
 5936ntf    fn432338   4.769   5.485   2.393  0.2869  0.2133  0.3492
 5936ntf    fn432339   4.890   5.350   2.507 -0.1290 -0.6214  0.2615
 5936ntf    fn432340   4.944   5.554   2.478 -0.3118 -0.1459 -0.0729
 5937ntf    cn132341   0.115   6.288   0.070  0.1815  0.4644  0.3903
 5937ntf    sn232342  -0.062   6.284   0.112  0.1277  0.0069  0.1261
 5937ntf    nn332343  -0.153   6.297  -0.014  0.0905  0.3056  0.1827
 5937ntf    sn232344  -0.115   6.251  -0.160 -0.3445 -0.3788  0.2806
 5937ntf    cn132345  -0.253   6.317  -0.258  0.1018  0.1022 -0.0289
 5937ntf    fn432346   0.147   6.403   0.013 -0.0385  0.4257  0.1882
 5937ntf    fn432347   0.189   6.273   0.179  0.0274  0.1333  0.4524
 5937ntf    fn432348   0.167   6.199  -0.013 -0.2643  0.0368  0.5675
 5937ntf    on532349  -0.075   6.152   0.170  0.4327 -0.0873 -0.0162
 5937ntf    on532350  -0.074   6.393   0.206 -0.0880  0.0842  0.0079
 5937ntf    on532351  -0.113   6.112  -0.197  0.5966 -0.2690 -0.1043
 5937ntf    on532352  -0.012   6.333  -0.217 -0.2886 -0.7857 -0.2047
 5937ntf    fn432353  -0.292   6.438  -0.222 -0.6577 -0.2615  0.3904
 5937ntf    fn432354  -0.223   6.330  -0.386  0.3379  0.3370  0.0504
 5937ntf    fn432355  -0.361   6.241  -0.247  0.3783 -0.2143  0.5357
 5938ntf    cn132356   3.166   4.618   3.760  0.0093 -0.1603 -0.0395
 5938ntf    sn232357   3.252   4.646   3.918 -0.3730  0.1511  0.1130
 5938ntf    nn332358   3.128   4.630   4.013 -0.2441 -0.6642  0.1548
 5938ntf    sn232359   3.080   4.735   4.119 -0.1449 -0.1372 -0.3137
 5938ntf    cn132360   2.957   4.836   4.031 -0.2391 -0.1052 -0.1467
 5938ntf    fn432361   3.074   4.708   3.733  0.3241  0.2700  0.3212
 5938ntf    fn432362   3.246   4.631   3.655 -0.1135  0.4679 -0.0582
 5938ntf    fn432363   3.115   4.496   3.763 -0.0652 -0.1329 -0.2017
 5938ntf    on532364   3.341   4.533   3.930  0.5001  0.7912 -0.2383
 5938ntf    on532365   3.309   4.777   3.897 -0.1362  0.0512  0.1357
 5938ntf    on532366   3.184   4.823   4.168  0.5026 -0.8005 -0.4893
 5938ntf    on532367   3.003   4.672   4.224  0.7339 -0.0321  0.4099
 5938ntf    fn432368   2.999   4.889   3.917 -1.1821 -0.3776 -0.6355
 5938ntf    fn432369   2.850   4.763   4.004 -0.2744 -0.0659 -0.1154
 5938ntf    fn432370   2.915   4.929   4.114  0.0228  0.2497 -0.4077
 5939ntf    cn132371   2.805   7.049   6.632 -0.1909  0.3123  0.3654
 5939ntf    sn232372   2.663   6.990   6.534  0.2053 -0.1538  0.0671
 5939ntf    nn332373   2.670   7.095   6.417  0.0725 -0.2144  0.0041
 5939ntf    sn232374   2.737   7.078   6.276 -0.4308  0.0282 -0.2644
 5939ntf    cn132375   2.607   7.010   6.169 -0.3127 -0.4013 -0.1376
 5939ntf    fn432376   2.806   7.177   6.664  0.4708  0.3897  0.0460
 5939ntf    fn432377   2.822   6.977   6.742 -0.3261  0.0557  0.2207
 5939ntf    fn432378   2.915   7.036   6.560 -0.5114 -0.5069  0.0126
 5939ntf    on532379   2.695   6.854   6.499  0.4843 -0.0414 -0.1139
 5939ntf    on532380   2.547   7.015   6.615  0.0215 -0.6644 -0.0361
 5939ntf    on532381   2.850   6.989   6.281 -0.8719 -0.5103  0.3451
 5939ntf    on532382   2.758   7.204   6.208 -0.9728  0.1270 -0.2556
 5939ntf    fn432383   2.566   6.891   6.210 -0.4615 -0.1412  0.4819
 5939ntf    fn432384   2.500   7.088   6.162 -0.2048 -0.2476 -0.0724
 5939ntf    fn432385   2.654   7.001   6.045 -0.3697 -0.1023 -0.1819
 5940ntf    cn132386   6.306   5.115   4.862  0.0880 -0.4137 -0.4468
 5940ntf    sn232387   6.428   5.205   4.763 -0.0143  0.3359  0.0979
 5940ntf    nn332388   6.552   5.110   4.777 -0.0440  0.2745 -0.0492
 5940ntf    sn232389   6.585   4.988   4.683 -0.0703  0.1990  0.0394
 5940ntf    cn132390   6.678   5.075   4.554 -0.2800  0.1794 -0.1268
 5940ntf    fn432391   6.181   5.158   4.846  0.0865 -0.2622 -0.0552
 5940ntf    fn432392   6.297   4.986   4.834 -0.1812 -0.5884  0.3922
 5940ntf    fn432393   6.331   5.129   4.991  0.0296 -0.0423 -0.4760
 5940ntf    on532394   6.375   5.221   4.629  0.0156 -0.5569 -0.0262
 5940ntf    on532395   6.450   5.327   4.837  0.3130  0.1491  0.3117
 5940ntf    on532396   6.466   4.937   4.619 -0.0776 -0.1825  0.3510
 5940ntf    on532397   6.685   4.899   4.737  0.0087  0.0438 -0.3649
 5940ntf    fn432398   6.728   4.988   4.468  0.4365  0.2513  0.2026
 5940ntf    fn432399   6.606   5.169   4.496 -0.7857  0.0950  0.3591
 5940ntf    fn432400   6.790   5.126   4.604 -0.0976  0.2430 -0.5896
   7.55357   7.55357   7.55357
