Converted from moscito
15120
    1poe    c31    1   5.893   2.887   4.727  0.0028  0.2337  0.3381
    1poe     o2    2   5.958   2.769   4.767  0.0609  0.0610 -0.2572
    1poe    c23    3   5.888   2.707   4.872 -0.1945 -0.2798 -0.6250
    1poe    c23    4   5.975   2.609   4.952 -0.6598 -0.0190  0.2195
    1poe     o2    5   6.019   2.514   4.858 -0.0284  0.1085  0.3794
    1poe    c23    6   6.062   2.395   4.922 -0.1060 -0.0818  0.0801
    1poe    c23    7   6.124   2.309   4.810 -0.4342  0.2345 -0.3511
    1poe     o2    8   6.207   2.398   4.738 -0.1692  0.0586 -0.2635
    1poe    c23    9   6.241   2.333   4.617  0.3258 -0.0083 -0.0936
    1poe    c23   10   6.278   2.451   4.525  0.0136 -0.0134 -0.2285
    1poe     o2   11   6.182   2.555   4.537  0.3287  0.2414  0.1240
    1poe    c31   12   6.199   2.636   4.423  0.6526 -0.4822 -0.3530
    2poe    c31   13   1.365   5.106   3.442  0.0714 -0.3044 -0.4046
    2poe     o2   14   1.401   5.110   3.578  0.1553 -0.2277 -0.4294
    2poe    c23   15   1.407   4.976   3.621  0.0885 -0.2263 -0.4150
    2poe    c23   16   1.483   4.961   3.754 -0.2194 -0.0093 -0.2155
    2poe     o2   17   1.416   5.066   3.821  0.2152 -0.1015  0.3672
    2poe    c23   18   1.474   5.089   3.947  0.2187  0.2232  0.3072
    2poe    c23   19   1.393   5.204   4.010 -0.0067  0.1474  0.1553
    2poe     o2   20   1.380   5.292   3.901 -0.9206 -0.4615 -0.2431
    2poe    c23   21   1.296   5.402   3.929  0.2989  0.4028  0.0986
    2poe    c23   22   1.307   5.481   3.797 -0.0886  0.1050 -0.1136
    2poe     o2   23   1.292   5.382   3.698  0.3239 -0.3834  0.3053
    2poe    c31   24   1.302   5.451   3.576  0.8268  0.1712  0.6555
    3poe    c31   25   5.072   5.792   5.217  0.2826 -0.1629  0.1306
    3poe     o2   26   5.057   5.808   5.357 -0.2196  0.1046  0.0485
    3poe    c23   27   5.054   5.948   5.368 -0.2798  0.1391 -0.3769
    3poe    c23   28   4.928   5.980   5.451 -0.1563 -0.0382 -0.1193
    3poe     o2   29   4.951   5.902   5.566  0.0166  0.3774  0.1315
    3poe    c23   30   4.841   5.884   5.652 -0.2369  0.1090 -0.2440
    3poe    c23   31   4.872   5.765   5.744 -0.4686 -0.0789 -0.4068
    3poe     o2   32   4.902   5.665   5.649  0.2773  0.1174 -0.3880
    3poe    c23   33   4.954   5.545   5.702 -0.9417 -0.0558  0.4549
    3poe    c23   34   4.985   5.461   5.578  0.1333  0.2291  0.5170
    3poe     o2   35   5.064   5.538   5.491  0.1309 -0.0538  0.2594
    3poe    c31   36   5.121   5.470   5.381 -0.7411  0.0387 -0.2584
    4poe    c31   37   3.046   4.147   5.036 -0.6956  0.3434 -0.2160
    4poe     o2   38   3.081   4.117   4.903 -0.2259 -0.1179  0.0045
    4poe    c23   39   3.147   4.222   4.834 -0.0893 -0.0217  0.2800
    4poe    c23   40   3.171   4.173   4.690  0.4914  0.0480  0.3511
    4poe     o2   41   3.237   4.049   4.706 -0.0581 -0.3029 -0.0580
    4poe    c23   42   3.237   3.975   4.586 -0.6751  0.0265 -0.2663
    4poe    c23   43   3.266   3.832   4.633 -0.1669  0.1168 -0.2912
    4poe     o2   44   3.196   3.828   4.756  0.2860  0.4645 -0.0226
    4poe    c23   45   3.194   3.702   4.820  0.2151  0.3266 -0.2956
    4poe    c23   46   3.107   3.715   4.946 -0.4046  0.0549 -0.6864
    4poe     o2   47   3.129   3.836   5.015 -0.2770 -0.2624 -0.1667
    4poe    c31   48   3.120   3.825   5.156  0.0524 -0.3649 -0.1507
    5poe    c31   49   5.676   4.461   1.609 -0.2941 -0.2399 -0.2544
    5poe     o2   50   5.791   4.542   1.613 -0.2595 -0.2958 -0.0787
    5poe    c23   51   5.866   4.523   1.730 -0.1062  0.3937 -0.0597
    5poe    c23   52   6.010   4.564   1.695 -0.1015  0.1519 -0.3280
    5poe     o2   53   6.042   4.700   1.718 -0.0136  0.0159  0.3612
    5poe    c23   54   6.181   4.714   1.702 -0.0362  0.0427  0.1791
    5poe    c23   55   6.213   4.856   1.652  0.2096 -0.0731  0.0099
    5poe     o2   56   6.167   4.956   1.739  0.1670 -0.3638  0.3230
    5poe    c23   57   6.209   5.087   1.707 -0.7515 -0.1394 -0.0076
    5poe    c23   58   6.122   5.199   1.768  0.2383  0.5486  0.1602
    5poe     o2   59   5.987   5.159   1.773  0.3173  0.2838  0.2089
    5poe    c31   60   5.896   5.267   1.774  0.1141  0.1175 -0.1108
    6poe    c31   61   6.422   1.692   5.643 -0.4179 -0.1727  0.2551
    6poe     o2   62   6.303   1.627   5.681 -0.5684 -0.0333  0.0257
    6poe    c23   63   6.198   1.715   5.647 -0.3476  0.1154 -0.2750
    6poe    c23   64   6.063   1.653   5.689 -0.1866  0.1402  0.2842
    6poe     o2   65   6.078   1.590   5.814 -0.3852  0.0435  0.2600
    6poe    c23   66   5.971   1.506   5.849 -0.1339 -0.2508  0.3269
    6poe    c23   67   6.022   1.425   5.970 -0.0180 -0.2410  0.2842
    6poe     o2   68   6.155   1.396   5.931 -0.1574 -0.4648 -0.0307
    6poe    c23   69   6.219   1.308   6.020  0.0940 -0.0921  0.1598
    6poe    c23   70   6.359   1.310   5.957 -0.0671 -0.0514 -0.2019
    6poe     o2   71   6.405   1.442   5.939  0.0537  0.0266  0.6223
    6poe    c31   72   6.544   1.426   5.923 -0.0487 -0.3693  0.0865
    7poe    c31   73   3.120   3.672   3.824  0.6793 -0.5924 -0.3755
    7poe     o2   74   3.087   3.551   3.760 -0.3396 -0.5245 -0.0019
    7poe    c23   75   3.062   3.575   3.624 -0.3897 -0.7698 -0.0376
    7poe    c23   76   3.121   3.460   3.540  0.1109 -0.2818 -0.3632
    7poe     o2   77   3.101   3.339   3.609 -0.0869  0.1409  0.3285
    7poe    c23   78   3.198   3.237   3.594  0.0593  0.2835  0.3004
    7poe    c23   79   3.229   3.161   3.724  0.1721 -0.0643  0.0699
    7poe     o2   80   3.248   3.268   3.814 -0.4286 -0.1797  0.3375
    7poe    c23   81   3.309   3.234   3.936  0.1458 -0.1679  0.0555
    7poe    c23   82   3.224   3.278   4.056  0.0683  0.5149 -0.2479
    7poe     o2   83   3.176   3.406   4.022 -0.0247  0.4826 -0.2377
    7poe    c31   84   3.084   3.454   4.118  0.2115  0.3118  0.0738
    8poe    c31   85   0.465   5.347   3.782  0.2344 -0.1939 -0.1975
    8poe     o2   86   0.338   5.319   3.835 -0.1423  0.4407 -0.7571
    8poe    c23   87   0.276   5.420   3.911  0.2629 -0.2201  0.4611
    8poe    c23   88   0.126   5.417   3.876  0.1836  0.0071  0.7698
    8poe     o2   89   0.093   5.281   3.889  0.0312 -0.0156  0.1730
    8poe    c23   90  -0.044   5.268   3.922  0.0712  0.3634  0.4891
    8poe    c23   91  -0.101   5.128   3.950  0.2480  0.2204  0.1455
    8poe     o2   92  -0.104   5.058   3.828 -0.1249 -0.2985  0.4450
    8poe    c23   93  -0.131   4.921   3.841  0.0984 -0.3461  0.4042
    8poe    c23   94  -0.282   4.890   3.835  0.0355  0.0521 -0.0893
    8poe     o2   95  -0.329   4.868   3.704 -0.1795 -0.4962  0.0788
    8poe    c31   96  -0.468   4.848   3.693 -0.2716  0.1853  0.0016
    9poe    c31   97   0.860   5.055   1.600  0.1017  0.3291  0.2993
    9poe     o2   98   0.797   5.009   1.483 -0.0369 -0.1308  0.5520
    9poe    c23   99   0.659   5.033   1.498 -0.1016 -0.0275 -0.1542
    9poe    c23  100   0.584   5.006   1.366  0.3765  0.3327 -0.5046
    9poe     o2  101   0.647   4.889   1.319 -0.0023 -0.4604  0.8872
    9poe    c23  102   0.603   4.855   1.189  0.5236  0.2584  0.5140
    9poe    c23  103   0.688   4.731   1.156 -0.4830 -0.4340  0.4987
    9poe     o2  104   0.815   4.760   1.208 -0.3691 -0.1893  0.0916
    9poe    c23  105   0.919   4.817   1.132 -0.0971 -0.3166  0.3625
    9poe    c23  106   1.038   4.840   1.226  0.2918  0.0182 -0.2026
    9poe     o2  107   0.993   4.917   1.336 -0.1040  0.3940 -0.6239
    9poe    c31  108   1.112   4.949   1.404 -0.0697 -0.2176 -0.3884
   10poe    c31  109   4.982   5.154   0.631 -0.0584  0.4969  0.0563
   10poe     o2  110   4.908   5.035   0.646 -0.0584  0.4274 -0.4620
   10poe    c23  111   4.982   4.939   0.573  0.0370  0.1339  0.0119
   10poe    c23  112   4.905   4.809   0.603 -0.0824  0.3541  0.6886
   10poe     o2  113   4.773   4.845   0.571  0.0540 -0.3702 -0.7893
   10poe    c23  114   4.684   4.738   0.592  0.0321 -0.1156  0.4884
   10poe    c23  115   4.543   4.799   0.591  0.2356  0.3535  0.0656
   10poe     o2  116   4.559   4.907   0.680  0.1433 -0.0576  0.5857
   10poe    c23  117   4.499   4.902   0.807 -0.2640 -0.1119  0.3925
   10poe    c23  118   4.543   5.024   0.890 -0.3944  0.6441 -0.6266
   10poe     o2  119   4.673   5.055   0.846 -0.0333 -0.2894 -0.2512
   10poe    c31  120   4.729   5.167   0.911 -0.3343 -0.4417  0.2734
   11poe    c31  121   0.602   2.104   3.406  0.6312  0.2836 -0.0248
   11poe     o2  122   0.617   1.999   3.313 -0.6102 -0.0736  0.1629
   11poe    c23  123   0.572   2.041   3.186 -0.6243  0.0554  0.2108
   11poe    c23  124   0.491   1.928   3.121 -0.3376  0.0049 -0.0619
   11poe     o2  125   0.587   1.825   3.125 -0.2889  0.0543  0.0235
   11poe    c23  126   0.544   1.699   3.080  0.1764  0.0186 -0.3290
   11poe    c23  127   0.671   1.616   3.111 -0.0430 -0.2529 -0.1560
   11poe     o2  128   0.718   1.655   3.238 -0.0920 -0.1800 -0.1599
   11poe    c23  129   0.852   1.623   3.265  0.0744  0.5450 -0.1146
   11poe    c23  130   0.890   1.693   3.398  0.3803  0.3751 -0.1106
   11poe     o2  131   0.830   1.821   3.395 -0.0231  0.1903 -0.0855
   11poe    c31  132   0.926   1.921   3.419 -0.5463  0.7025 -0.1230
   12poe    c31  133   2.384   4.313   2.646 -0.5447  0.2716 -0.0653
   12poe     o2  134   2.420   4.277   2.778 -0.8285  0.2901  0.0191
   12poe    c23  135   2.560   4.265   2.791 -0.8391  0.6250  0.4584
   12poe    c23  136   2.585   4.217   2.935  0.4478  0.1325  0.0838
   12poe     o2  137   2.489   4.117   2.959  0.1125  0.3180 -0.4651
   12poe    c23  138   2.534   3.986   2.936 -0.5879  0.0697 -0.4535
   12poe    c23  139   2.417   3.893   2.898 -0.1455 -0.6789 -0.0021
   12poe     o2  140   2.339   3.978   2.817  0.1803 -0.5755 -0.2081
   12poe    c23  141   2.225   3.914   2.764  0.0314 -0.2203 -0.3155
   12poe    c23  142   2.143   4.031   2.707  0.0594  0.0434  0.1771
   12poe     o2  143   2.150   4.146   2.789  0.1323 -0.0371  0.2833
   12poe    c31  144   2.034   4.219   2.760  0.4296  0.2479 -0.1963
   13poe    c31  145   1.069   0.811   3.323 -0.3287 -0.2008  0.6725
   13poe     o2  146   1.076   0.943   3.372  0.1270  0.0281  0.0078
   13poe    c23  147   1.162   0.947   3.484 -0.0210 -0.0835  0.1247
   13poe    c23  148   1.175   1.088   3.543  0.2720  0.2189 -0.6539
   13poe     o2  149   1.183   1.171   3.429 -0.8306  0.2441 -0.7197
   13poe    c23  150   1.145   1.304   3.456 -0.2228  0.3204 -0.1944
   13poe    c23  151   1.140   1.381   3.322  0.3640  0.2325 -0.2693
   13poe     o2  152   1.060   1.298   3.240  0.2070  0.0915  0.0230
   13poe    c23  153   1.066   1.353   3.111 -0.0292 -0.0667 -0.0557
   13poe    c23  154   1.000   1.239   3.031  0.1636 -0.4794  0.3679
   13poe     o2  155   1.036   1.113   3.082 -0.1764 -0.6130  0.2819
   13poe    c31  156   0.998   1.019   2.984  0.0851 -0.2555 -0.1666
   14poe    c31  157   2.611   3.126   1.221 -0.3621 -0.2050 -0.2286
   14poe     o2  158   2.489   3.163   1.161 -0.3242  0.3213  0.0165
   14poe    c23  159   2.495   3.107   1.031 -0.2706  0.5083 -0.0619
   14poe    c23  160   2.363   3.158   0.971 -0.4516  0.1832  0.0575
   14poe     o2  161   2.260   3.145   1.066 -0.7264  0.2520 -0.2300
   14poe    c23  162   2.132   3.198   1.036 -0.5802  0.4677 -0.4772
   14poe    c23  163   2.040   3.170   1.156  0.2314 -0.2087 -0.0036
   14poe     o2  164   2.115   3.209   1.269  0.1586  0.2651 -0.1179
   14poe    c23  165   2.096   3.118   1.375  0.6350 -0.4074 -0.5936
   14poe    c23  166   2.213   3.136   1.473 -0.0886 -0.5060  0.3045
   14poe     o2  167   2.341   3.142   1.414 -0.2207 -0.1939  0.0467
   14poe    c31  168   2.436   3.164   1.516  0.0210  0.0481 -0.2317
   15poe    c31  169   2.812   5.641   1.353 -0.2824 -0.3440 -0.1764
   15poe     o2  170   2.736   5.726   1.437  0.6189  0.6196 -0.3185
   15poe    c23  171   2.620   5.756   1.363 -0.0038  0.2107  0.4890
   15poe    c23  172   2.537   5.843   1.461 -0.3346  0.4763 -0.0238
   15poe     o2  173   2.546   5.770   1.581  0.3042  0.5637 -0.0141
   15poe    c23  174   2.487   5.843   1.687 -0.3691 -0.1845  0.1362
   15poe    c23  175   2.589   5.938   1.752 -0.2111  0.0616 -0.4601
   15poe     o2  176   2.703   5.855   1.756 -0.3067 -0.0353  0.8457
   15poe    c23  177   2.813   5.926   1.808  0.1753  0.1950 -0.4473
   15poe    c23  178   2.935   5.835   1.782  0.0381 -0.0863 -0.1170
   15poe     o2  179   2.931   5.774   1.655  0.1520  0.0404 -0.1819
   15poe    c31  180   3.060   5.767   1.598  0.0432 -0.6224 -0.3456
   16poe    c31  181   1.023   1.309   4.027  0.5093  0.4491  0.3146
   16poe     o2  182   1.125   1.386   4.087  0.5921  0.5185  0.0848
   16poe    c23  183   1.065   1.484   4.170  0.0451  0.1503  0.1294
   16poe    c23  184   1.179   1.577   4.213  0.8142 -0.5030 -0.4708
   16poe     o2  185   1.283   1.493   4.259  0.4892 -0.7788 -0.2442
   16poe    c23  186   1.406   1.550   4.296  0.0149  0.0410  0.0850
   16poe    c23  187   1.510   1.437   4.295 -0.5167 -0.4560  0.3652
   16poe     o2  188   1.480   1.374   4.173  0.3745  0.3826 -0.3058
   16poe    c23  189   1.559   1.261   4.145 -0.0841  0.0530 -0.2703
   16poe    c23  190   1.513   1.201   4.010  0.5974 -0.4430 -0.2849
   16poe     o2  191   1.373   1.199   4.010  0.5908 -0.0785  0.0284
   16poe    c31  192   1.318   1.092   3.937 -0.1362  0.1670  0.2051
   17poe    c31  193   4.794   0.093   0.584  0.4851  0.1999 -0.6413
   17poe     o2  194   4.757   0.070   0.450 -0.0938 -0.0006 -0.4522
   17poe    c23  195   4.648   0.157   0.430 -0.2678 -0.1500 -0.1539
   17poe    c23  196   4.623   0.156   0.278 -0.0596  0.0269 -0.1902
   17poe     o2  197   4.616   0.021   0.237  0.4942 -0.0376 -0.0799
   17poe    c23  198   4.612   0.009   0.096  0.2261  0.7051 -0.1421
   17poe    c23  199   4.662  -0.135   0.076  0.1508  0.7566 -0.7139
   17poe     o2  200   4.769  -0.155   0.166 -0.2501  0.2037 -0.3531
   17poe    c23  201   4.816  -0.287   0.182  0.4628  0.4833 -0.0955
   17poe    c23  202   4.920  -0.293   0.295  0.1112 -0.0053  0.2083
   17poe     o2  203   4.862  -0.211   0.394 -0.2189 -0.1249  0.1134
   17poe    c31  204   4.946  -0.232   0.505  0.3697 -0.1211 -0.3302
   18poe    c31  205   5.107   0.826   1.786  0.2156 -0.2691 -0.2687
   18poe     o2  206   5.087   0.845   1.648  0.2247 -0.0584 -0.2412
   18poe    c23  207   5.077   0.716   1.591 -0.0339 -0.0910 -0.1245
   18poe    c23  208   5.020   0.736   1.449  0.4175 -0.8810 -0.4225
   18poe     o2  209   5.111   0.828   1.392 -0.1565  0.1544  0.2907
   18poe    c23  210   5.085   0.861   1.258  0.3796  0.1589  0.1838
   18poe    c23  211   5.202   0.960   1.243 -0.1109  0.6805 -0.2437
   18poe     o2  212   5.187   1.058   1.343 -0.3068  0.5512 -0.1468
   18poe    c23  213   5.167   1.189   1.294 -0.2972  0.5707 -0.0979
   18poe    c23  214   5.301   1.263   1.273  0.2773 -0.4606 -0.1731
   18poe     o2  215   5.338   1.364   1.364 -0.2981 -0.4658  0.0755
   18poe    c31  216   5.292   1.494   1.336  0.1364 -0.1305  0.8470
   19poe    c31  217   2.906   2.519   3.443  0.0276  0.5079 -0.1381
   19poe     o2  218   2.816   2.544   3.336  0.3064  0.1910 -0.4499
   19poe    c23  219   2.804   2.431   3.253  0.7210 -0.0187 -0.2326
   19poe    c23  220   2.689   2.452   3.153  0.6948 -0.1390 -0.2281
   19poe     o2  221   2.732   2.572   3.093  0.0160  0.1500 -0.1447
   19poe    c23  222   2.628   2.668   3.093  0.3359  0.4998  0.3842
   19poe    c23  223   2.668   2.815   3.117  0.2060  0.6015 -0.0169
   19poe     o2  224   2.730   2.828   3.243  0.1980  0.2578  0.0234
   19poe    c23  225   2.784   2.955   3.270 -0.4029  0.3714  0.7137
   19poe    c23  226   2.852   2.952   3.408  0.5076  0.1033  0.2633
   19poe     o2  227   2.941   2.842   3.404  0.0068 -0.2919 -0.1625
   19poe    c31  228   3.051   2.863   3.489 -0.3541 -0.4203  0.3456
   20poe    c31  229   0.751   3.194   5.077  0.0305 -0.4968 -0.7577
   20poe     o2  230   0.611   3.184   5.076 -0.0354  0.2039 -0.0318
   20poe    c23  231   0.570   3.054   5.113  0.1883  0.0968 -0.1619
   20poe    c23  232   0.422   3.063   5.156  0.1497 -0.2966 -0.2099
   20poe     o2  233   0.326   3.093   5.057 -0.1368  0.3135  0.2514
   20poe    c23  234   0.191   3.086   5.098 -0.0871  0.1678  0.3937
   20poe    c23  235   0.120   3.118   4.965 -0.1440 -0.3657  0.2937
   20poe     o2  236   0.174   3.240   4.921 -0.4059 -0.3753 -0.0512
   20poe    c23  237   0.087   3.294   4.823  0.2168 -0.1152 -0.4704
   20poe    c23  238   0.095   3.448   4.814 -0.3081 -0.0667 -0.1864
   20poe     o2  239   0.004   3.510   4.901  0.5659 -0.0672  0.7418
   20poe    c31  240   0.011   3.651   4.893  0.2580 -0.0664  0.4624
   21poe    c31  241   3.781   1.675   4.230 -0.1770  0.0658  0.5281
   21poe     o2  242   3.665   1.596   4.217  0.0513 -0.2428  0.3640
   21poe    c23  243   3.686   1.494   4.122 -0.0544 -0.1783  0.2717
   21poe    c23  244   3.556   1.413   4.109 -0.2036  0.1233 -0.1790
   21poe     o2  245   3.498   1.410   4.237  0.0741 -0.0267 -0.0553
   21poe    c23  246   3.384   1.327   4.246  0.1614 -0.1730 -0.2980
   21poe    c23  247   3.283   1.418   4.319  0.3328  0.0122 -0.2903
   21poe     o2  248   3.363   1.503   4.398 -0.0591  0.0259  0.0903
   21poe    c23  249   3.287   1.609   4.454  0.2759  0.3077  0.0126
   21poe    c23  250   3.381   1.706   4.527  0.3102  0.1357  0.1981
   21poe     o2  251   3.491   1.727   4.442  0.0647 -0.0389 -0.1607
   21poe    c31  252   3.563   1.847   4.464 -0.6679  0.4908 -0.5934
   22poe    c31  253   4.767   4.861   2.758  0.2362 -0.4631  0.1850
   22poe     o2  254   4.859   4.958   2.714 -0.2355 -0.1493 -0.1118
   22poe    c23  255   4.848   4.989   2.577  0.1052  0.0773 -0.0892
   22poe    c23  256   4.899   5.131   2.549  0.0768  0.1304  0.1310
   22poe     o2  257   5.031   5.137   2.599  0.2180 -0.4795 -0.1719
   22poe    c23  258   5.095   5.259   2.571 -0.4306 -0.0657  0.1265
   22poe    c23  259   5.198   5.289   2.682 -0.4385 -0.2788  0.1920
   22poe     o2  260   5.143   5.230   2.797 -0.4103  0.1017  0.4035
   22poe    c23  261   5.226   5.229   2.912 -0.2491  0.2170  0.2883
   22poe    c23  262   5.146   5.158   3.023  0.2979 -0.1681  0.4361
   22poe     o2  263   5.067   5.058   2.963  0.2986  0.1661 -0.1339
   22poe    c31  264   5.001   4.975   3.056  0.1927  0.8972  0.4536
   23poe    c31  265   4.454   6.443   4.268 -0.2278 -0.2208 -0.0386
   23poe     o2  266   4.353   6.425   4.365 -0.1570 -0.2759  0.0256
   23poe    c23  267   4.411   6.445   4.492  0.3178 -0.7351 -0.1136
   23poe    c23  268   4.328   6.362   4.592 -0.2765  0.2167  0.2000
   23poe     o2  269   4.292   6.247   4.519 -0.1661  0.0259  0.4459
   23poe    c23  270   4.219   6.149   4.588  0.4046 -0.6040  0.1773
   23poe    c23  271   4.157   6.068   4.473 -0.1303 -0.0491  0.0666
   23poe     o2  272   4.108   6.157   4.375 -0.3026 -0.1066  0.0994
   23poe    c23  273   4.119   6.094   4.249 -0.1411  0.0327  0.0438
   23poe    c23  274   4.089   6.205   4.146 -0.8324  0.3999  0.6329
   23poe     o2  275   4.146   6.328   4.182  0.7661 -0.3259  0.6451
   23poe    c31  276   4.119   6.413   4.073  0.5180 -0.1868  0.8138
   24poe    c31  277   6.516   1.181   1.556  0.8325  0.0985 -0.2725
   24poe     o2  278   6.489   1.055   1.613  0.3845 -0.0346 -0.7660
   24poe    c23  279   6.399   1.074   1.720  0.2718 -0.8129 -0.7154
   24poe    c23  280   6.355   0.945   1.792 -0.2045 -0.2321  0.0585
   24poe     o2  281   6.480   0.880   1.798  0.1704  0.4838  0.1121
   24poe    c23  282   6.460   0.750   1.850  0.2589  0.5432  0.2983
   24poe    c23  283   6.598   0.682   1.835 -0.1771 -0.3330  0.2222
   24poe     o2  284   6.655   0.741   1.721  0.4513 -0.3233  0.5375
   24poe    c23  285   6.794   0.729   1.704  0.3171 -0.8079 -0.2685
   24poe    c23  286   6.824   0.797   1.569  0.3823 -0.1372  0.0812
   24poe     o2  287   6.760   0.922   1.583  0.1532 -0.2595  0.1219
   24poe    c31  288   6.827   0.993   1.482 -0.0864  0.0248  0.1619
   25poe    c31  289   4.163   3.292   1.922 -0.0528  0.1914  0.4232
   25poe     o2  290   4.044   3.272   1.849  0.2919 -0.2382 -0.0243
   25poe    c23  291   4.075   3.289   1.712 -0.1657 -0.0139 -0.1000
   25poe    c23  292   3.938   3.280   1.642 -0.2983 -0.3430  0.1959
   25poe     o2  293   3.859   3.358   1.729 -0.2578 -0.2955  0.1907
   25poe    c23  294   3.725   3.385   1.691 -0.2998 -0.5200  0.1784
   25poe    c23  295   3.689   3.493   1.794 -0.3240  0.0989 -0.4766
   25poe     o2  296   3.720   3.442   1.921 -0.0151  0.5087 -0.3852
   25poe    c23  297   3.711   3.540   2.022  0.3769 -0.2232  0.3741
   25poe    c23  298   3.771   3.469   2.145  0.2763 -0.0032  0.5515
   25poe     o2  299   3.897   3.431   2.094  0.2790  0.3526  0.2821
   25poe    c31  300   3.967   3.357   2.192  0.0721  0.4944  0.5370
   26poe    c31  301   4.327   5.848   5.336  0.1696  0.4258 -0.2283
   26poe     o2  302   4.362   5.791   5.460  0.2395  0.2757 -0.3160
   26poe    c23  303   4.442   5.874   5.541  0.5493 -0.1661 -0.1667
   26poe    c23  304   4.457   5.815   5.683  0.2506 -0.0260 -0.0742
   26poe     o2  305   4.478   5.682   5.639 -0.7322 -0.3530  0.4129
   26poe    c23  306   4.500   5.583   5.737  0.1900 -0.7198 -0.1477
   26poe    c23  307   4.468   5.452   5.663 -0.4758 -0.6767  0.0548
   26poe     o2  308   4.355   5.467   5.580  0.1232  0.0850 -0.6329
   26poe    c23  309   4.323   5.341   5.526 -0.0133 -0.1749  0.0404
   26poe    c23  310   4.212   5.366   5.421 -0.0323 -0.7123 -0.0714
   26poe     o2  311   4.236   5.485   5.350  0.1051 -0.4853  0.3481
   26poe    c31  312   4.174   5.484   5.223  0.4041  1.1546  0.1577
   27poe    c31  313   1.184   4.742   3.363  0.6046  0.7171 -0.3745
   27poe     o2  314   1.207   4.603   3.357  0.1301  0.5724  0.7594
   27poe    c23  315   1.229   4.539   3.481  0.1801  0.0647  0.4935
   27poe    c23  316   1.294   4.403   3.452 -0.4248 -0.1286  0.0239
   27poe     o2  317   1.222   4.360   3.338 -0.1363 -0.1368 -0.1559
   27poe    c23  318   1.253   4.235   3.281  0.2045  0.2448 -0.8067
   27poe    c23  319   1.166   4.226   3.154 -0.2317 -0.2441 -0.4736
   27poe     o2  320   1.184   4.350   3.090  0.2950 -0.0309  0.0798
   27poe    c23  321   1.113   4.366   2.969 -0.0259  0.0315  0.2771
   27poe    c23  322   1.128   4.516   2.939  0.2989 -0.0085  0.2368
   27poe     o2  323   1.102   4.592   3.055 -0.4259  0.2952 -0.1170
   27poe    c31  324   1.081   4.725   3.013  0.5038  0.4943  0.0175
   28poe    c31  325   5.871   0.975   5.767  0.2558  0.0147  0.1047
   28poe     o2  326   5.750   0.967   5.839  0.1885 -0.1919 -0.0284
   28poe    c23  327   5.776   0.952   5.976  0.2987 -0.5058 -0.0828
   28poe    c23  328   5.653   0.980   6.066  0.1463  0.7582 -0.6639
   28poe     o2  329   5.541   0.912   6.014 -0.0301  0.2107  0.4051
   28poe    c23  330   5.415   0.971   6.034 -0.1171  0.0816  0.2313
   28poe    c23  331   5.338   0.924   5.909  0.0146 -0.0412  0.1958
   28poe     o2  332   5.417   0.949   5.794 -0.1396 -0.7841 -0.0768
   28poe    c23  333   5.348   0.928   5.673 -0.3863  0.0702 -0.0864
   28poe    c23  334   5.436   0.977   5.556 -0.2833  0.3104  0.0898
   28poe     o2  335   5.567   0.932   5.577 -0.4219 -0.0308  0.2278
   28poe    c31  336   5.638   0.932   5.455 -0.3798  0.0872  0.2519
   29poe    c31  337   4.436   4.632   2.790 -0.6879 -0.3633 -0.2329
   29poe     o2  338   4.364   4.656   2.909 -0.2129 -0.2256  0.0311
   29poe    c23  339   4.361   4.791   2.947  0.7139 -0.2495  0.2027
   29poe    c23  340   4.289   4.800   3.083  0.2273 -0.4473 -0.0411
   29poe     o2  341   4.188   4.702   3.089  0.1146 -0.3443 -0.2623
   29poe    c23  342   4.143   4.663   3.217 -0.5566 -0.0992 -0.4190
   29poe    c23  343   4.060   4.535   3.198  0.0759 -0.5552 -0.1264
   29poe     o2  344   4.130   4.456   3.104  0.1707 -0.4853 -0.1147
   29poe    c23  345   4.053   4.351   3.051  0.3238 -0.8082  0.2995
   29poe    c23  346   4.155   4.280   2.961  0.5486 -0.1445  0.0258
   29poe     o2  347   4.233   4.369   2.883  0.0025  0.1388 -0.1977
   29poe    c31  348   4.292   4.291   2.782 -0.1265  0.0211 -0.1830
   30poe    c31  349   0.893   6.144   0.247 -0.2820  0.3011  0.0960
   30poe     o2  350   0.846   6.064   0.140 -0.1671  0.1865  0.1310
   30poe    c23  351   0.875   6.132   0.020  0.1282 -0.0539  0.0649
   30poe    c23  352   0.782   6.070  -0.086 -0.0609  0.1491  0.1110
   30poe     o2  353   0.805   5.931  -0.090 -0.3958  0.1010 -0.2132
   30poe    c23  354   0.707   5.848  -0.147 -0.0436 -0.3272 -0.1992
   30poe    c23  355   0.589   5.813  -0.054 -0.2621 -0.3854 -0.4968
   30poe     o2  356   0.641   5.783   0.073 -0.7204  0.3443 -0.1347
   30poe    c23  357   0.547   5.762   0.176 -0.1289  0.2047  0.3892
   30poe    c23  358   0.627   5.746   0.306  0.2427 -0.0567  0.1296
   30poe     o2  359   0.738   5.833   0.299  0.4014 -0.2214  0.5337
   30poe    c31  360   0.766   5.863   0.434 -0.9598 -0.3526  0.8568
   31poe    c31  361   1.806   2.904   0.614  0.0457  0.7484  0.5227
   31poe     o2  362   1.787   2.880   0.751 -0.0202  0.5304  0.4761
   31poe    c23  363   1.912   2.898   0.813  0.4972 -0.2044 -0.3356
   31poe    c23  364   1.888   2.859   0.960 -0.0248  0.4710 -0.2342
   31poe     o2  365   1.783   2.933   1.017 -0.5201 -0.2446 -0.2026
   31poe    c23  366   1.741   2.882   1.142  0.1492 -0.3033  0.0046
   31poe    c23  367   1.587   2.875   1.140  0.1273  0.2856 -0.5994
   31poe     o2  368   1.549   2.854   1.006 -0.0707 -0.4502 -0.4295
   31poe    c23  369   1.412   2.877   0.983 -0.1014 -0.0716  0.1190
   31poe    c23  370   1.372   2.822   0.844  0.2537  0.0167 -0.0176
   31poe     o2  371   1.464   2.874   0.750  0.4663  0.0495  0.2040
   31poe    c31  372   1.438   2.819   0.622 -0.2055  0.3945  0.1867
   32poe    c31  373   6.440   1.069   0.141  0.5398  0.1858 -0.1168
   32poe     o2  374   6.389   1.055   0.272  0.3665 -0.1573 -0.2214
   32poe    c23  375   6.278   0.968   0.267  0.0136  0.2949 -0.3787
   32poe    c23  376   6.223   0.972   0.411  0.0828 -0.0049 -0.3439
   32poe     o2  377   6.340   0.958   0.490 -0.1465 -0.4918 -0.0843
   32poe    c23  378   6.303   0.980   0.624  0.2776  1.0213 -0.1925
   32poe    c23  379   6.433   0.986   0.706 -0.0133 -0.3025  0.3959
   32poe     o2  380   6.517   1.080   0.643  0.0134 -0.2958  0.4415
   32poe    c23  381   6.654   1.043   0.650  0.0254 -0.3827 -0.2288
   32poe    c23  382   6.726   1.123   0.540  0.3530 -0.1952  0.1216
   32poe     o2  383   6.660   1.090   0.420  0.2811  0.2001  0.0508
   32poe    c31  384   6.741   1.124   0.311  0.2032 -0.1077 -0.1045
   33poe    c31  385   0.056   5.320   4.576 -0.0181  0.6970 -0.0326
   33poe     o2  386  -0.058   5.377   4.516 -0.4301 -0.1779 -0.0995
   33poe    c23  387  -0.064   5.308   4.394 -0.1351 -0.5361  0.0885
   33poe    c23  388  -0.195   5.352   4.327  0.0320  0.4975  0.4355
   33poe     o2  389  -0.186   5.493   4.335 -0.0128  0.5312 -0.0583
   33poe    c23  390  -0.304   5.543   4.278 -0.2507  0.1595  0.1005
   33poe    c23  391  -0.311   5.692   4.315  0.2861  0.1817  0.1154
   33poe     o2  392  -0.260   5.718   4.444  0.0666 -0.0834  0.2561
   33poe    c23  393  -0.365   5.730   4.538 -0.0834  0.1746  0.0546
   33poe    c23  394  -0.306   5.695   4.676  0.1290  0.3531  0.0102
   33poe     o2  395  -0.219   5.584   4.676  0.2067  0.4130 -0.3653
   33poe    c31  396  -0.183   5.552   4.808  0.7666  0.0478 -0.6035
   34poe    c31  397   5.094   6.425   3.446  0.0604 -0.4633  0.3595
   34poe     o2  398   4.958   6.388   3.447  0.0198 -0.3233 -0.0435
   34poe    c23  399   4.924   6.450   3.569  0.2530 -0.5429  0.1338
   34poe    c23  400   4.774   6.416   3.582  0.2072 -0.1061  0.8150
   34poe     o2  401   4.755   6.280   3.549 -0.6603  0.2877 -0.3805
   34poe    c23  402   4.619   6.251   3.527 -0.5359 -0.0036 -0.7689
   34poe    c23  403   4.604   6.134   3.428  0.1397 -0.5850 -0.1944
   34poe     o2  404   4.718   6.140   3.346  0.1382 -0.2976 -0.1749
   34poe    c23  405   4.677   6.196   3.223  0.0950  0.3461  0.1281
   34poe    c23  406   4.803   6.213   3.136  0.1005  0.0383  0.0739
   34poe     o2  407   4.894   6.281   3.220  0.0144 -0.2861  0.4334
   34poe    c31  408   4.990   6.325   3.125 -0.3801 -0.2380  0.0529
   35poe    c31  409   4.901   4.105   4.303  0.1346  0.1223  0.1183
   35poe     o2  410   4.945   3.995   4.379 -0.2048 -0.1924 -0.1414
   35poe    c23  411   4.899   4.003   4.512 -0.1246  0.1038 -0.1308
   35poe    c23  412   4.953   3.878   4.584 -0.0393 -0.1365 -0.6041
   35poe     o2  413   5.080   3.857   4.527  0.2335  0.0486 -0.0754
   35poe    c23  414   5.152   3.752   4.588 -0.0391  0.0891  0.3214
   35poe    c23  415   5.255   3.727   4.476  0.0020  0.3194  0.3063
   35poe     o2  416   5.182   3.720   4.356  0.5056 -0.5112  0.0396
   35poe    c23  417   5.272   3.731   4.247 -0.3587  0.2143 -0.6166
   35poe    c23  418   5.186   3.776   4.128 -0.3417 -0.4516 -0.8873
   35poe     o2  419   5.112   3.885   4.178  0.1106 -0.5241 -0.0412
   35poe    c31  420   5.057   3.939   4.059  0.0516  0.0959  0.2634
   36poe    c31  421   4.677   2.341   2.178  0.1071  0.1816 -0.1310
   36poe     o2  422   4.709   2.204   2.173  0.1246  0.1798  0.0537
   36poe    c23  423   4.707   2.163   2.039 -0.0399  0.1534  0.0636
   36poe    c23  424   4.676   2.012   2.031  0.0459  0.1127  0.4719
   36poe     o2  425   4.764   1.951   2.122  0.2256  0.0135  0.2316
   36poe    c23  426   4.741   1.815   2.151  0.3304 -0.2079 -0.6856
   36poe    c23  427   4.838   1.747   2.249 -0.2622  0.4028  0.3388
   36poe     o2  428   4.852   1.846   2.349 -0.5114  0.9245 -0.1326
   36poe    c23  429   4.985   1.872   2.390 -0.3515  0.3357 -0.2634
   36poe    c23  430   4.986   2.024   2.412 -0.4773  0.2552  0.3159
   36poe     o2  431   4.941   2.085   2.294 -0.1028  0.5563  0.3245
   36poe    c31  432   5.052   2.140   2.227 -0.0734  0.4567  0.2907
   37poe    c31  433   0.260   2.000   6.167  0.1084 -0.2135 -0.3171
   37poe     o2  434   0.168   2.007   6.061  0.0907  0.5670 -0.2594
   37poe    c23  435   0.194   1.899   5.973 -0.2727  0.0349  0.2762
   37poe    c23  436   0.132   1.950   5.842 -0.0064  0.8807  0.4719
   37poe     o2  437   0.006   2.008   5.869 -0.2499  0.5187  0.1208
   37poe    c23  438  -0.044   2.067   5.752 -0.3113  0.0589 -0.0894
   37poe    c23  439  -0.155   2.158   5.810  0.1982  0.3798  0.3892
   37poe     o2  440  -0.086   2.225   5.913  0.5820  0.0894  0.3281
   37poe    c23  441  -0.175   2.277   6.010  0.1335  0.3192 -0.1984
   37poe    c23  442  -0.091   2.330   6.127  0.3771  0.1416 -0.2918
   37poe     o2  443  -0.012   2.220   6.168  0.0040  0.1069  0.3425
   37poe    c31  444   0.015   2.255   6.302 -0.6328  0.1908  0.4533
   38poe    c31  445   4.680   4.005   0.052  0.1996  0.5502  0.3490
   38poe     o2  446   4.751   3.927  -0.041 -0.4178  0.2763  0.1011
   38poe    c23  447   4.882   3.909   0.008 -0.3369  0.3042 -0.1015
   38poe    c23  448   4.991   3.925  -0.100  0.2231 -0.0899  0.3949
   38poe     o2  449   4.940   3.886  -0.225  0.4736  0.3024  0.1692
   38poe    c23  450   5.010   3.923  -0.342 -0.6121  0.2359 -0.5202
   38poe    c23  451   4.946   3.844  -0.458 -0.1786  0.0815 -0.6596
   38poe     o2  452   4.809   3.845  -0.425  0.0147 -0.4418  0.1831
   38poe    c23  453   4.739   3.728  -0.463 -0.4727 -0.1035  0.0256
   38poe    c23  454   4.610   3.715  -0.379 -0.5824  0.1333 -0.1059
   38poe     o2  455   4.659   3.720  -0.247  0.1190  0.0917 -0.3564
   38poe    c31  456   4.554   3.678  -0.162  0.0268  0.3670 -0.3337
   39poe    c31  457   2.198   2.510   6.352  0.0566 -0.3265 -0.2652
   39poe     o2  458   2.252   2.532   6.224  0.0580  0.2145 -0.1750
   39poe    c23  459   2.195   2.435   6.139  0.0024  0.0149  0.0907
   39poe    c23  460   2.235   2.473   5.995  0.7923 -0.0164  0.2929
   39poe     o2  461   2.206   2.610   5.978  0.2005 -0.1334  0.3374
   39poe    c23  462   2.251   2.676   5.862 -0.3483 -0.1562  0.1041
   39poe    c23  463   2.234   2.822   5.909 -0.4661 -0.1392  0.0077
   39poe     o2  464   2.311   2.842   6.026  0.2176  0.4842 -0.5322
   39poe    c23  465   2.294   2.966   6.090  0.1744  0.1845  0.0392
   39poe    c23  466   2.375   2.957   6.221 -0.0736  0.0566  0.1857
   39poe     o2  467   2.331   2.834   6.273 -0.3762  0.1170  0.0765
   39poe    c31  468   2.341   2.834   6.414  0.6771  0.2633  0.0094
   40poe    c31  469   3.844   4.439   6.000  0.2456  0.1201 -0.5806
   40poe     o2  470   3.888   4.555   6.067 -0.1441 -0.3511  0.5165
   40poe    c23  471   3.789   4.587   6.161 -0.3661  0.1625  0.1104
   40poe    c23  472   3.844   4.543   6.298 -0.5193  0.0174  0.1262
   40poe     o2  473   3.974   4.599   6.295 -0.3098 -0.4860 -0.3436
   40poe    c23  474   4.042   4.569   6.415  0.6068  0.3326 -0.6556
   40poe    c23  475   4.169   4.656   6.426  0.6398  0.1813  0.1988
   40poe     o2  476   4.225   4.654   6.297 -0.1046  0.2770 -0.1310
   40poe    c23  477   4.351   4.716   6.278  0.2033 -0.1851  0.3854
   40poe    c23  478   4.378   4.862   6.317  0.1017 -0.1042  0.1541
   40poe     o2  479   4.388   4.888   6.455 -0.0648 -0.5295  0.2468
   40poe    c31  480   4.396   5.027   6.481  0.1124 -0.4177 -0.3975
   41poe    c31  481   1.464   4.273   1.547  0.3797  0.1773 -0.3282
   41poe     o2  482   1.457   4.153   1.473  0.4050  0.1010 -0.2074
   41poe    c23  483   1.546   4.161   1.364  0.4496  0.0134 -0.1765
   41poe    c23  484   1.523   4.041   1.271 -0.7068  0.4555 -0.4712
   41poe     o2  485   1.476   3.943   1.361  0.2019  0.0185 -0.4621
   41poe    c23  486   1.504   3.811   1.321  0.4030 -0.0918  0.0312
   41poe    c23  487   1.505   3.730   1.451  0.2072  0.0411  0.1163
   41poe     o2  488   1.392   3.769   1.527  0.1800  0.2455 -0.0302
   41poe    c23  489   1.397   3.728   1.662 -0.6197 -0.8781 -0.3308
   41poe    c23  490   1.297   3.827   1.724 -0.1872 -0.3190 -0.5219
   41poe     o2  491   1.326   3.960   1.685  0.4065 -0.3159 -0.0813
   41poe    c31  492   1.251   4.048   1.765  0.4965  0.3151 -0.6871
   42poe    c31  493   0.671   1.874   1.637  0.1326  0.1139  0.7606
   42poe     o2  494   0.554   1.936   1.590 -0.1115 -0.6181  0.3897
   42poe    c23  495   0.524   2.060   1.649  0.1403 -0.5092  0.2914
   42poe    c23  496   0.387   2.094   1.586  0.4166 -0.0307 -0.0571
   42poe     o2  497   0.390   2.056   1.450  0.2442 -0.0666 -0.0504
   42poe    c23  498   0.259   2.059   1.399  0.2477  0.1321 -0.0456
   42poe    c23  499   0.250   1.949   1.292  0.1517 -0.2843  0.3858
   42poe     o2  500   0.380   1.939   1.238 -0.0204 -0.1634 -0.0594
   42poe    c23  501   0.392   1.827   1.153 -0.2292  0.0614 -0.3861
   42poe    c23  502   0.537   1.776   1.166 -0.2167  0.1937  0.0165
   42poe     o2  503   0.578   1.785   1.300  0.2503  0.6312 -0.1533
   42poe    c31  504   0.705   1.731   1.327  0.0929  0.3890  0.1039
   43poe    c31  505   1.551   0.326   6.090  0.1627  0.4285 -0.1922
   43poe     o2  506   1.575   0.421   6.192 -0.2910  0.0850  0.2390
   43poe    c23  507   1.477   0.396   6.291 -0.1911 -0.4982  0.1948
   43poe    c23  508   1.505   0.488   6.411 -0.8723 -0.0478  0.0146
   43poe     o2  509   1.537   0.617   6.366 -0.8871  0.0829  0.3791
   43poe    c23  510   1.656   0.667   6.423 -0.4531  0.0751 -0.5162
   43poe    c23  511   1.718   0.773   6.330  0.4384 -0.0521 -0.0800
   43poe     o2  512   1.740   0.714   6.204  0.4664 -0.0285 -0.0863
   43poe    c23  513   1.754   0.814   6.106 -0.4928  0.0526 -0.1555
   43poe    c23  514   1.813   0.743   5.982 -0.0181  0.2832 -0.0667
   43poe     o2  515   1.741   0.621   5.983  0.6257 -0.0978  0.1695
   43poe    c31  516   1.755   0.568   5.854 -0.1268  0.0433  0.0267
   44poe    c31  517   5.764   4.941   2.869 -0.0176 -0.2206  0.2020
   44poe     o2  518   5.693   4.843   2.795  0.1165 -0.3412  0.2314
   44poe    c23  519   5.770   4.726   2.785  0.1794 -0.2456 -0.4660
   44poe    c23  520   5.679   4.628   2.708  0.2890 -0.3963 -0.4050
   44poe     o2  521   5.634   4.694   2.592  0.3493  0.4865  0.0628
   44poe    c23  522   5.557   4.613   2.506  0.3973  0.0952  0.3839
   44poe    c23  523   5.529   4.715   2.394  0.2512 -0.3090  0.0490
   44poe     o2  524   5.458   4.825   2.448  0.6260  0.1610 -0.4107
   44poe    c23  525   5.491   4.950   2.390  0.2583  0.3340 -0.2505
   44poe    c23  526   5.446   5.049   2.499 -0.2244 -0.2652  0.1035
   44poe     o2  527   5.538   5.026   2.604  0.1701 -0.0249 -0.1852
   44poe    c31  528   5.560   5.151   2.665  0.0119 -0.0290 -0.1192
   45poe    c31  529   4.642   1.944   1.022 -0.4563  0.4557 -0.3116
   45poe     o2  530   4.701   1.956   0.894  0.4771  0.4367  0.1032
   45poe    c23  531   4.682   2.084   0.839 -0.5214 -0.0302 -0.6841
   45poe    c23  532   4.770   2.106   0.714  0.1410 -0.0656 -0.2275
   45poe     o2  533   4.775   1.988   0.636  0.3512 -0.2431  0.0494
   45poe    c23  534   4.845   2.006   0.515  0.0993 -0.4763 -0.1333
   45poe    c23  535   4.827   1.875   0.437 -0.6938 -0.0418 -0.6940
   45poe     o2  536   4.819   1.774   0.536  0.1369  0.1576 -0.4127
   45poe    c23  537   4.804   1.641   0.491 -0.1692  0.0561 -0.0167
   45poe    c23  538   4.804   1.559   0.622  0.1835 -0.3641 -0.2747
   45poe     o2  539   4.735   1.644   0.711 -0.1470 -0.6406 -0.2644
   45poe    c31  540   4.692   1.575   0.827  0.1365 -0.2027  0.1042
   46poe    c31  541   5.328   0.029   1.864 -0.2801  0.2613  0.2456
   46poe     o2  542   5.366   0.164   1.874  0.2357  0.1084  0.3856
   46poe    c23  543   5.276   0.244   1.801  0.5864 -0.0151 -0.1837
   46poe    c23  544   5.325   0.389   1.802 -0.6691  0.4249  0.0296
   46poe     o2  545   5.361   0.420   1.935 -0.2940 -0.2916  0.1021
   46poe    c23  546   5.429   0.538   1.972  0.0442 -0.3966 -0.1785
   46poe    c23  547   5.480   0.522   2.117  0.0930  0.3398 -0.1113
   46poe     o2  548   5.552   0.401   2.107 -0.5216 -0.0490  0.0787
   46poe    c23  549   5.624   0.370   2.224  0.4998  0.3116 -0.4408
   46poe    c23  550   5.662   0.221   2.208 -0.0985  0.1160 -0.0454
   46poe     o2  551   5.547   0.157   2.157 -0.0074  0.3129 -0.4962
   46poe    c31  552   5.560   0.018   2.172 -0.1404  0.3582  0.0535
   47poe    c31  553   1.011   2.027   4.058  0.2568 -0.1494  0.1645
   47poe     o2  554   0.919   2.101   4.135 -0.5413 -0.4115 -0.5231
   47poe    c23  555   0.843   2.021   4.223 -0.8429  0.1347 -0.2791
   47poe    c23  556   0.746   2.111   4.302 -0.2654  0.5385 -0.0185
   47poe     o2  557   0.818   2.223   4.348  0.6209  0.0946 -0.3094
   47poe    c23  558   0.745   2.313   4.428  0.0908  0.3853 -1.1141
   47poe    c23  559   0.839   2.429   4.463  0.0356  0.2075 -0.3740
   47poe     o2  560   0.911   2.468   4.349  0.0967 -0.0912 -0.4387
   47poe    c23  561   0.983   2.581   4.393 -0.0543 -0.2008  0.0912
   47poe    c23  562   1.085   2.627   4.288 -0.3716  0.3424  0.0143
   47poe     o2  563   1.172   2.525   4.242 -0.5835  0.2734 -0.2382
   47poe    c31  564   1.240   2.577   4.131 -0.1749  0.4211  0.0778
   48poe    c31  565   4.662   0.492   3.743  0.0474  0.5870 -0.5033
   48poe     o2  566   4.745   0.479   3.856 -0.3655 -0.1437 -0.2791
   48poe    c23  567   4.677   0.483   3.980  0.1314 -0.1797 -0.0045
   48poe    c23  568   4.781   0.478   4.094 -0.4969 -0.6368  0.5559
   48poe     o2  569   4.859   0.368   4.051  0.1493 -0.0469  0.2043
   48poe    c23  570   4.965   0.349   4.142  0.8576  0.4499 -0.4998
   48poe    c23  571   5.039   0.220   4.103 -0.2559 -0.4284  0.2151
   48poe     o2  572   5.072   0.258   3.971 -0.5974 -0.0090  0.2489
   48poe    c23  573   5.116   0.151   3.891 -0.4454  0.2066  0.0426
   48poe    c23  574   5.093   0.194   3.745 -0.5672 -0.2729 -0.0799
   48poe     o2  575   4.973   0.265   3.727 -0.2121  0.4205  0.2567
   48poe    c31  576   4.936   0.274   3.591 -0.4964  0.2366  0.3217
   49poe    c31  577   0.392   0.802   3.403  0.3066 -0.3989  0.5361
   49poe     o2  578   0.493   0.777   3.307 -0.2950  0.1478 -0.2517
   49poe    c23  579   0.582   0.680   3.358 -0.2937  0.3384  0.1105
   49poe    c23  580   0.656   0.609   3.243 -0.2457  0.1451  0.2612
   49poe     o2  581   0.726   0.711   3.176 -0.1668 -0.0576  0.0356
   49poe    c23  582   0.763   0.701   3.040 -0.0112 -0.2540  0.0908
   49poe    c23  583   0.649   0.742   2.944  0.0751 -0.3789 -0.0639
   49poe     o2  584   0.575   0.849   2.997  0.1600 -0.1474 -0.4129
   49poe    c23  585   0.495   0.912   2.899  0.1044 -0.0909 -0.3312
   49poe    c23  586   0.424   1.027   2.973 -0.0902 -0.1575 -0.4116
   49poe     o2  587   0.379   0.984   3.099 -0.1727 -0.2693 -0.4790
   49poe    c31  588   0.306   1.083   3.168 -0.0840 -0.0059 -0.7596
   50poe    c31  589   5.750   4.987   4.612 -0.9970 -0.3015 -0.0992
   50poe     o2  590   5.698   4.988   4.481 -0.2812  0.1078 -0.3868
   50poe    c23  591   5.745   5.104   4.415 -0.2487  0.3274  0.0192
   50poe    c23  592   5.694   5.121   4.271 -0.0793  0.3561 -0.0373
   50poe     o2  593   5.566   5.063   4.280  0.2671 -0.4383 -0.1903
   50poe    c23  594   5.486   5.067   4.165  0.0602  0.0536 -0.0292
   50poe    c23  595   5.361   4.979   4.186  0.0101  0.2810  0.6424
   50poe     o2  596   5.413   4.876   4.267  0.9284  0.3900  0.2102
   50poe    c23  597   5.427   4.749   4.207 -0.3845  0.2334  0.2040
   50poe    c23  598   5.471   4.663   4.328  0.5731 -0.0246 -0.3147
   50poe     o2  599   5.582   4.718   4.395  0.2529  0.6121 -0.2915
   50poe    c31  600   5.613   4.643   4.510  0.1960  0.1622 -0.5670
   51poe    c31  601   0.095   0.689   3.947  0.8284 -0.2862  0.1918
   51poe     o2  602   0.115   0.803   4.028  0.6064 -0.0676 -0.0584
   51poe    c23  603   0.018   0.783   4.128  0.2316  0.3180 -0.3397
   51poe    c23  604  -0.026   0.925   4.169  0.4690  0.4190 -0.4354
   51poe     o2  605   0.093   0.995   4.198  0.5022  0.1666  0.0399
   51poe    c23  606   0.061   1.131   4.222  0.0870  0.1942 -0.6420
   51poe    c23  607   0.190   1.214   4.209 -0.1890  0.6325 -0.5927
   51poe     o2  608   0.253   1.153   4.098  0.2956 -0.3857  0.2208
   51poe    c23  609   0.393   1.168   4.087  0.2601  0.1957  0.4836
   51poe    c23  610   0.431   1.069   3.974 -0.2044  0.5293  0.0296
   51poe     o2  611   0.359   0.948   3.984  0.1111  0.2981 -0.5257
   51poe    c31  612   0.438   0.841   3.936  0.0366 -0.0064  0.0187
   52poe    c31  613   2.303   2.221   1.300  0.4505 -0.3483 -0.4954
   52poe     o2  614   2.437   2.182   1.315  0.3019 -0.5010  0.5421
   52poe    c23  615   2.526   2.268   1.247 -0.0502 -0.4023  0.2030
   52poe    c23  616   2.670   2.235   1.292  0.0683 -0.4528 -0.2061
   52poe     o2  617   2.666   2.094   1.297  0.0223 -0.4230  0.9954
   52poe    c23  618   2.786   2.038   1.346  0.3176 -0.2834  0.4437
   52poe    c23  619   2.760   1.887   1.358  0.5653 -0.3928 -0.3601
   52poe     o2  620   2.626   1.873   1.397  0.5939 -0.3812 -0.2579
   52poe    c23  621   2.631   1.843   1.535 -0.3469 -0.2244 -0.1780
   52poe    c23  622   2.513   1.907   1.611 -0.3833  0.0706 -0.4823
   52poe     o2  623   2.474   2.029   1.551 -0.3227  0.1968 -0.2651
   52poe    c31  624   2.368   2.073   1.633 -0.0610  0.1453  0.1056
   53poe    c31  625   3.493   4.340   3.821  0.2332 -0.1351 -0.0747
   53poe     o2  626   3.436   4.421   3.920  0.3673 -0.0530 -0.0642
   53poe    c23  627   3.414   4.557   3.890  0.0257 -0.1328 -0.1773
   53poe    c23  628   3.292   4.612   3.966  0.0170  0.1603 -0.3992
   53poe     o2  629   3.308   4.554   4.094 -0.2463  0.5772 -0.1746
   53poe    c23  630   3.191   4.569   4.170 -0.1858  0.1183  0.0090
   53poe    c23  631   3.161   4.430   4.231 -0.4445  0.1831  0.0310
   53poe     o2  632   3.289   4.373   4.241 -0.5653 -0.1156 -0.1230
   53poe    c23  633   3.296   4.236   4.275  0.4651  0.0843  0.5159
   53poe    c23  634   3.445   4.200   4.270  0.4883  0.2384  0.0527
   53poe     o2  635   3.498   4.272   4.161  0.5364  0.0122 -0.0730
   53poe    c31  636   3.611   4.198   4.118  0.3505 -0.2479 -0.1166
   54poe    c31  637   0.333   0.200   2.944 -0.1882 -0.0535  0.2074
   54poe     o2  638   0.348   0.112   2.834 -0.5608  0.6163 -0.3845
   54poe    c23  639   0.242   0.019   2.830  0.2474 -0.3758  0.4987
   54poe    c23  640   0.286  -0.105   2.750 -0.4772 -0.1855 -0.2103
   54poe     o2  641   0.347  -0.044   2.638 -0.1193 -0.1302  0.0153
   54poe    c23  642   0.426  -0.127   2.556  0.0461  0.3221 -0.2888
   54poe    c23  643   0.575  -0.093   2.578  0.0791 -0.1968  0.2975
   54poe     o2  644   0.587   0.038   2.627  0.4538 -0.3228  0.5467
   54poe    c23  645   0.715   0.097   2.636  0.3857 -0.1733  0.5437
   54poe    c23  646   0.706   0.220   2.728  0.5096  0.5438 -0.3786
   54poe     o2  647   0.572   0.264   2.720  0.2361 -0.1819  0.0424
   54poe    c31  648   0.562   0.396   2.768 -0.3916  0.0857 -0.7918
   55poe    c31  649   2.682   0.882   4.598  0.5111 -0.2733  1.1491
   55poe     o2  650   2.685   1.016   4.552 -0.3111 -0.5405  0.2699
   55poe    c23  651   2.558   1.076   4.568 -0.0101  0.2334 -0.1865
   55poe    c23  652   2.565   1.229   4.564 -0.0228  0.2417  0.1306
   55poe     o2  653   2.685   1.276   4.621 -0.1440  0.3434  0.3030
   55poe    c23  654   2.709   1.411   4.587  0.1889  0.3078  0.3978
   55poe    c23  655   2.862   1.427   4.603  0.3407  0.1358 -0.7791
   55poe     o2  656   2.919   1.306   4.560 -0.0542 -0.3088 -0.0690
   55poe    c23  657   3.051   1.285   4.605 -0.0020  0.5274  0.1816
   55poe    c23  658   3.093   1.145   4.557 -0.1260  0.5499  0.0061
   55poe     o2  659   2.990   1.067   4.614  0.0281  0.1228 -0.2963
   55poe    c31  660   3.031   0.933   4.595  0.1288  0.0824  0.1948
   56poe    c31  661   0.049   0.444   2.376 -0.2547  0.6999 -0.4119
   56poe     o2  662   0.153   0.497   2.297  0.2334  0.1011 -0.1744
   56poe    c23  663   0.098   0.499   2.168  0.2638  0.5277 -0.1799
   56poe    c23  664   0.211   0.493   2.063  0.1252  0.3766 -0.3212
   56poe     o2  665   0.299   0.588   2.119  0.3195  0.2019 -0.3328
   56poe    c23  666   0.422   0.587   2.050  0.0801  0.3852 -0.7616
   56poe    c23  667   0.488   0.705   2.124 -0.0448 -0.2761  0.4181
   56poe     o2  668   0.473   0.686   2.263 -0.7433  0.3419  0.4300
   56poe    c23  669   0.502   0.806   2.332  0.0441  0.3802  0.0436
   56poe    c23  670   0.460   0.771   2.476  0.3158 -0.5515 -0.0934
   56poe     o2  671   0.348   0.686   2.480 -0.5546  0.5768  0.0600
   56poe    c31  672   0.298   0.678   2.612 -0.0588 -0.6175  0.1893
   57poe    c31  673   2.124   2.110   0.109  0.5555 -0.0409 -0.0532
   57poe     o2  674   2.042   2.224   0.094  0.2417 -0.2168  0.2960
   57poe    c23  675   2.121   2.337   0.064  0.1437 -0.4142 -0.7479
   57poe    c23  676   2.032   2.459   0.093  0.6844 -0.0275 -0.6986
   57poe     o2  677   1.924   2.463   0.002 -0.1674  0.0721  0.3035
   57poe    c23  678   1.822   2.542   0.059 -0.0250  0.4345  0.0572
   57poe    c23  679   1.694   2.460   0.079  0.1403  0.4230  1.1026
   57poe     o2  680   1.721   2.329   0.122 -0.3267  0.1735  0.6542
   57poe    c23  681   1.601   2.256   0.133 -0.4492  0.2951  0.1147
   57poe    c23  682   1.646   2.118   0.184  0.3733  0.5181 -0.0006
   57poe     o2  683   1.763   2.078   0.115  0.2442  0.1823 -0.0257
   57poe    c31  684   1.800   1.947   0.152 -0.2392  0.1432  0.3331
   58poe    c31  685   5.875   2.730   0.199  0.1701 -0.0468 -0.2128
   58poe     o2  686   6.011   2.766   0.185  0.1469 -0.0919 -0.5583
   58poe    c23  687   6.084   2.708   0.290  0.4319  0.3491 -0.5096
   58poe    c23  688   6.228   2.759   0.270  0.7175 -0.0881  0.3580
   58poe     o2  689   6.209   2.896   0.240  0.0901 -0.1699  0.3529
   58poe    c23  690   6.333   2.959   0.219 -0.0198 -0.0231  0.1471
   58poe    c23  691   6.302   3.074   0.122 -0.3020 -0.1429  0.0939
   58poe     o2  692   6.210   3.022   0.029 -0.1275  0.0913 -0.2149
   58poe    c23  693   6.141   3.121  -0.044 -0.7081  0.3541  0.6690
   58poe    c23  694   6.015   3.045  -0.092  0.0395 -0.1588 -0.5381
   58poe     o2  695   5.952   2.987   0.019  0.1073  0.1248 -0.3487
   58poe    c31  696   5.816   2.999  -0.017  0.0538 -0.1658 -0.2501
   59poe    c31  697   1.861   6.405   2.209  0.6409 -0.2232  0.3852
   59poe     o2  698   1.800   6.531   2.195  0.3709 -0.3984 -0.0559
   59poe    c23  699   1.763   6.582   2.322  0.4688 -0.3510 -0.0462
   59poe    c23  700   1.708   6.722   2.288 -0.3809 -0.5303  0.5588
   59poe     o2  701   1.621   6.717   2.177 -0.1420  0.0422  0.3431
   59poe    c23  702   1.594   6.837   2.109 -0.0730 -0.3204 -0.3377
   59poe    c23  703   1.520   6.803   1.977  0.1045  0.4540 -0.6401
   59poe     o2  704   1.572   6.678   1.940 -0.1672 -0.0036  0.4690
   59poe    c23  705   1.590   6.656   1.802 -0.4398 -0.3711  0.4884
   59poe    c23  706   1.609   6.504   1.786 -0.7890 -0.4141  0.4711
   59poe     o2  707   1.716   6.461   1.867  0.1238 -0.0189 -0.4995
   59poe    c31  708   1.707   6.325   1.906 -0.9325 -0.0208 -0.7210
   60poe    c31  709   1.739   3.283   4.244 -0.0854 -0.1087 -0.2631
   60poe     o2  710   1.780   3.386   4.157  0.1380 -0.1429 -0.1989
   60poe    c23  711   1.696   3.499   4.164  0.5418  0.1331  0.3348
   60poe    c23  712   1.766   3.607   4.080  0.0934 -0.1386 -0.3980
   60poe     o2  713   1.902   3.588   4.113  0.0734  0.4385  0.0383
   60poe    c23  714   1.984   3.683   4.050  0.2692  0.1968 -0.0733
   60poe    c23  715   2.128   3.638   4.081 -0.1818 -0.5142  1.0334
   60poe     o2  716   2.119   3.503   4.040 -0.3907 -0.1776 -0.0749
   60poe    c23  717   2.226   3.443   4.109 -0.2392  0.1312 -0.0355
   60poe    c23  718   2.202   3.292   4.131 -0.2122  0.0830 -0.3349
   60poe     o2  719   2.064   3.268   4.121 -0.2194  0.0736 -0.2057
   60poe    c31  720   2.031   3.131   4.117 -0.5571  0.1572 -0.3409
   61poe    c31  721   2.058   5.826   4.900 -0.1988  0.0199 -0.6414
   61poe     o2  722   1.936   5.893   4.924  0.2153  0.4764  0.2774
   61poe    c23  723   1.919   5.918   5.061  0.7241  0.5484  0.3279
   61poe    c23  724   1.783   5.980   5.094  0.4525  0.4043 -0.5208
   61poe     o2  725   1.775   6.116   5.054 -0.0396  0.4982 -0.1107
   61poe    c23  726   1.650   6.168   5.093 -0.3437  0.2012 -0.6765
   61poe    c23  727   1.651   6.322   5.090  0.0174  0.2179  0.1320
   61poe     o2  728   1.743   6.360   4.990  0.1238 -0.0186  0.1380
   61poe    c23  729   1.716   6.498   4.975 -0.0909 -0.1033 -0.2633
   61poe    c23  730   1.795   6.548   4.852  0.3876 -0.8557 -0.2721
   61poe     o2  731   1.932   6.518   4.867  0.4705 -0.1777  0.4160
   61poe    c31  732   2.011   6.566   4.762 -0.2278  0.0172 -0.0269
   62poe    c31  733   2.228   1.345   4.106  0.0617  0.7263  0.0725
   62poe     o2  734   2.320   1.255   4.048 -0.3187  0.3993 -0.0268
   62poe    c23  735   2.239   1.203   3.944  0.3085 -0.2782 -0.1819
   62poe    c23  736   2.317   1.134   3.831 -0.2251  0.0505 -0.7556
   62poe     o2  737   2.439   1.205   3.832 -0.2851  0.1482 -0.4898
   62poe    c23  738   2.527   1.177   3.726 -0.3330 -0.2750 -0.4177
   62poe    c23  739   2.634   1.288   3.733 -0.9336  0.2585  0.4772
   62poe     o2  740   2.708   1.278   3.852  0.4874  0.1346 -0.4030
   62poe    c23  741   2.716   1.405   3.911 -0.6908  0.0130  0.0373
   62poe    c23  742   2.718   1.386   4.064 -0.3363 -0.3745 -0.0151
   62poe     o2  743   2.587   1.349   4.101 -0.2287 -0.8624 -0.1211
   62poe    c31  744   2.552   1.394   4.230  0.0157 -0.3492 -0.2305
   63poe    c31  745   6.615   1.527   1.086 -0.0082  0.2618 -0.1167
   63poe     o2  746   6.562   1.639   1.152 -0.6695 -0.1461  0.0568
   63poe    c23  747   6.585   1.761   1.085  0.0190 -0.1369  0.3069
   63poe    c23  748   6.470   1.858   1.115 -0.3812 -0.3618 -0.4552
   63poe     o2  749   6.475   1.864   1.256 -0.4163 -0.3816 -0.4531
   63poe    c23  750   6.381   1.955   1.309  0.0552  0.0194 -0.2894
   63poe    c23  751   6.367   1.924   1.459 -0.2100 -0.1975 -0.3581
   63poe     o2  752   6.354   1.786   1.486  0.4366 -0.2708 -0.4078
   63poe    c23  753   6.223   1.736   1.469  0.2893 -0.1647  0.3627
   63poe    c23  754   6.241   1.590   1.421  0.4071 -0.0327  0.0034
   63poe     o2  755   6.340   1.587   1.321  0.2435  0.3669 -0.1741
   63poe    c31  756   6.327   1.460   1.261  0.1291 -0.0008  0.6211
   64poe    c31  757   2.726   1.298   6.453  0.7232  0.4127  0.0744
   64poe     o2  758   2.658   1.422   6.451  0.6278  0.3526 -0.5462
   64poe    c23  759   2.739   1.511   6.525  0.4056 -0.0336  0.1687
   64poe    c23  760   2.655   1.634   6.563  0.4391 -0.0295  0.2301
   64poe     o2  761   2.598   1.676   6.441  0.1482  0.1129  0.4128
   64poe    c23  762   2.511   1.785   6.462 -0.3463 -0.2603  0.3191
   64poe    c23  763   2.395   1.780   6.361 -0.1489  0.3545  0.0567
   64poe     o2  764   2.347   1.648   6.374 -0.2104  0.3339 -0.3560
   64poe    c23  765   2.262   1.601   6.272 -0.6150  0.3822 -0.0403
   64poe    c23  766   2.263   1.447   6.280  0.5701  0.3516 -0.6998
   64poe     o2  767   2.398   1.408   6.294  0.2421 -0.4558  0.3420
   64poe    c31  768   2.406   1.274   6.249 -0.7130 -0.4333  0.0811
   65poe    c31  769   2.117   4.527   3.598 -0.0011  0.4944 -0.2775
   65poe     o2  770   2.251   4.557   3.630  0.0045 -0.2048  0.3651
   65poe    c23  771   2.329   4.441   3.610  0.3219  0.0243  0.2730
   65poe    c23  772   2.476   4.455   3.655  0.3390 -0.0224  0.2309
   65poe     o2  773   2.513   4.589   3.628 -0.3637  0.1939  0.3107
   65poe    c23  774   2.626   4.606   3.546 -0.7074 -0.5954 -0.3429
   65poe    c23  775   2.630   4.758   3.523 -0.3527 -0.5063  0.3060
   65poe     o2  776   2.494   4.784   3.500 -0.1424  0.3454 -0.0138
   65poe    c23  777   2.458   4.920   3.500 -0.1556  0.3425  0.1757
   65poe    c23  778   2.319   4.910   3.434 -0.1353  0.4448  0.1166
   65poe     o2  779   2.246   4.821   3.515 -0.1212  0.1011 -0.2426
   65poe    c31  780   2.112   4.863   3.537  0.0027  0.0702  0.6288
   66poe    c31  781   2.285   0.965   4.887 -0.0943 -0.2886 -0.3253
   66poe     o2  782   2.265   0.833   4.931 -0.8051 -0.2681 -0.5695
   66poe    c23  783   2.348   0.810   5.044 -0.4120  0.8545 -0.6232
   66poe    c23  784   2.276   0.719   5.145  0.6176 -0.0794 -0.7220
   66poe     o2  785   2.229   0.605   5.077 -0.3637  0.1233 -0.3918
   66poe    c23  786   2.150   0.521   5.158 -0.4902  0.3949 -0.2342
   66poe    c23  787   2.094   0.409   5.068 -0.5619  0.3254 -0.1030
   66poe     o2  788   2.073   0.481   4.949  0.5041  0.2614 -0.3459
   66poe    c23  789   1.938   0.495   4.910  0.3898 -0.7567 -0.3264
   66poe    c23  790   1.945   0.597   4.795  0.1374  0.2337  0.5242
   66poe     o2  791   2.024   0.710   4.823  0.1702  0.4009 -0.2220
   66poe    c31  792   1.999   0.826   4.747 -0.2494  0.1991 -0.3950
   67poe    c31  793   0.373   1.263   4.664  0.3006  0.1648  0.2481
   67poe     o2  794   0.304   1.370   4.726 -0.7068 -0.6836  0.6358
   67poe    c23  795   0.178   1.379   4.664 -0.1476  0.4957 -0.3988
   67poe    c23  796   0.103   1.492   4.737 -0.2268 -0.1305  0.5029
   67poe     o2  797   0.190   1.602   4.733 -0.3080 -0.1038 -0.8639
   67poe    c23  798   0.168   1.692   4.840 -0.1462  0.1148 -1.0130
   67poe    c23  799   0.304   1.761   4.863 -0.1903 -0.2005  0.2494
   67poe     o2  800   0.397   1.656   4.864  0.1733  0.1138 -0.1865
   67poe    c23  801   0.522   1.693   4.917  0.0310  0.0045  0.2286
   67poe    c23  802   0.601   1.561   4.920  0.6356  0.3599  0.3471
   67poe     o2  803   0.574   1.484   4.805 -0.0273  0.3294  0.5133
   67poe    c31  804   0.656   1.369   4.812  0.3173  0.5388  0.0347
   68poe    c31  805   1.881   2.468   5.266  0.3601  0.1321  0.0376
   68poe     o2  806   1.946   2.507   5.146 -0.2687  0.7014 -0.1228
   68poe    c23  807   2.027   2.620   5.167 -0.3463  0.6955  0.2174
   68poe    c23  808   2.088   2.661   5.032 -0.2042 -0.1603  0.0173
   68poe     o2  809   1.997   2.637   4.927  0.0792 -0.1568 -0.2314
   68poe    c23  810   2.043   2.678   4.801  0.4308  0.2131  0.0139
   68poe    c23  811   1.927   2.672   4.700  0.2505  0.1204  0.2285
   68poe     o2  812   1.875   2.541   4.710  0.0652  0.1107 -0.8193
   68poe    c23  813   1.734   2.534   4.715  0.0967 -0.2391 -0.3926
   68poe    c23  814   1.701   2.393   4.768  0.0166 -0.0028  0.1843
   68poe     o2  815   1.759   2.374   4.895 -0.2585  0.3050  0.3581
   68poe    c31  816   1.699   2.265   4.961  0.1367  0.1194  0.4189
   69poe    c31  817   4.763   0.903   2.034 -0.1138 -0.4610 -0.0071
   69poe     o2  818   4.695   0.962   1.925  0.2910 -0.3665 -0.2113
   69poe    c23  819   4.677   0.861   1.829 -0.0105 -0.0750 -0.4643
   69poe    c23  820   4.540   0.897   1.768 -0.0669  0.2919 -0.1271
   69poe     o2  821   4.552   1.034   1.737  0.6158  0.2899  0.1113
   69poe    c23  822   4.437   1.085   1.673  0.5408  0.1615  0.1413
   69poe    c23  823   4.468   1.236   1.664 -0.0562  0.2675 -0.1472
   69poe     o2  824   4.513   1.254   1.796 -0.4064 -0.3501  0.0603
   69poe    c23  825   4.590   1.372   1.800 -0.3677 -0.3614 -0.2913
   69poe    c23  826   4.671   1.377   1.932 -0.3256  0.1074 -0.3342
   69poe     o2  827   4.725   1.249   1.958  0.1989  0.3231 -0.3552
   69poe    c31  828   4.820   1.258   2.062 -0.1956 -0.2945  0.0602
   70poe    c31  829   0.216   3.791   2.451  0.1445  0.1058 -0.6748
   70poe     o2  830   0.248   3.918   2.504 -0.5703  0.1227 -0.2719
   70poe    c23  831   0.289   3.900   2.637  0.4152 -0.5471 -0.6513
   70poe    c23  832   0.320   4.040   2.695  0.3477 -0.4813 -0.7744
   70poe     o2  833   0.224   4.127   2.640 -0.0203 -0.1709  0.3363
   70poe    c23  834   0.252   4.262   2.669 -0.4514  0.0478 -0.2372
   70poe    c23  835   0.139   4.335   2.593 -0.4026  0.3706  0.0010
   70poe     o2  836   0.151   4.286   2.462  0.1385 -0.2720  0.2817
   70poe    c23  837   0.037   4.296   2.378  0.1446 -0.4919  0.2458
   70poe    c23  838   0.070   4.221   2.248 -0.4484  0.0665 -0.2323
   70poe     o2  839   0.122   4.095   2.285  0.0403  0.4409  0.3644
   70poe    c31  840   0.097   4.012   2.175  0.3506  0.8075  0.0130
   71poe    c31  841   2.260   4.576   5.437 -0.0721  0.2804 -0.4428
   71poe     o2  842   2.225   4.587   5.573  0.2462 -0.0528 -0.3324
   71poe    c23  843   2.119   4.675   5.605  0.2773 -0.3294  0.5551
   71poe    c23  844   2.126   4.682   5.758 -0.0917  0.6582  0.5358
   71poe     o2  845   2.163   4.555   5.808 -0.1497  0.3828 -0.1127
   71poe    c23  846   2.166   4.559   5.949  0.1791 -0.1274 -0.1029
   71poe    c23  847   2.237   4.430   5.994  0.3870 -0.0204 -0.1196
   71poe     o2  848   2.350   4.422   5.911  0.1725 -0.4790 -0.3684
   71poe    c23  849   2.462   4.468   5.982  0.1300 -0.8393 -0.0668
   71poe    c23  850   2.556   4.519   5.871  0.2343  0.0442  0.4195
   71poe     o2  851   2.477   4.575   5.769  0.2416 -0.7358 -0.0212
   71poe    c31  852   2.553   4.656   5.682 -0.3971 -0.1525 -0.0449
   72poe    c31  853   0.816   3.184   6.421  0.0285 -0.0511 -0.0068
   72poe     o2  854   0.817   3.056   6.482  0.6281  0.0747  0.2514
   72poe    c23  855   0.896   3.042   6.598  0.4356  0.1476  0.3925
   72poe    c23  856   0.835   2.927   6.681 -0.0170  0.3139  0.2894
   72poe     o2  857   0.790   2.825   6.594  0.2024  0.2310  0.2729
   72poe    c23  858   0.706   2.726   6.649  0.6973 -0.3526 -0.0228
   72poe    c23  859   0.673   2.653   6.517 -1.0263 -0.1340  0.2633
   72poe     o2  860   0.634   2.751   6.423 -0.0096  0.1616  0.1341
   72poe    c23  861   0.604   2.695   6.297 -0.2740  0.0305  0.2554
   72poe    c23  862   0.597   2.811   6.196  0.6776 -0.4900 -0.4239
   72poe     o2  863   0.711   2.890   6.219  0.0837  0.3054 -0.1506
   72poe    c31  864   0.722   2.992   6.123 -0.7234  0.2986 -0.2512
   73poe    c31  865   3.485   3.897   3.355  0.7306  0.1118 -0.4542
   73poe     o2  866   3.557   3.881   3.475 -0.0192  0.4149  0.0479
   73poe    c23  867   3.469   3.899   3.584 -0.3083 -0.1287 -0.0950
   73poe    c23  868   3.535   3.917   3.722 -0.0093 -0.2018 -0.2273
   73poe     o2  869   3.639   3.822   3.710  0.0424 -0.1554 -0.1424
   73poe    c23  870   3.723   3.823   3.823 -0.1079 -0.6947 -0.0266
   73poe    c23  871   3.839   3.728   3.787  0.3277 -0.1352 -0.0974
   73poe     o2  872   3.853   3.749   3.648 -0.4463  0.0442 -0.1517
   73poe    c23  873   3.959   3.675   3.590 -0.0844 -0.0162  0.5717
   73poe    c23  874   3.945   3.710   3.440 -0.3494 -0.2973  0.5303
   73poe     o2  875   3.808   3.729   3.409 -0.1997  0.0485  0.0860
   73poe    c31  876   3.810   3.766   3.273  0.4461  0.6656  0.2519
   74poe    c31  877   1.062   1.745   1.478  0.2167  0.1184  0.3422
   74poe     o2  878   1.120   1.871   1.450 -0.1544  0.1905 -0.1151
   74poe    c23  879   1.022   1.971   1.438 -0.2697  0.0838 -0.0627
   74poe    c23  880   1.097   2.100   1.400  0.2065 -0.1156  0.1926
   74poe     o2  881   1.128   2.099   1.262 -0.3159 -0.0884  0.0732
   74poe    c23  882   1.269   2.100   1.255 -0.3369 -0.2256 -0.3632
   74poe    c23  883   1.312   2.193   1.140  0.0405 -0.2891 -0.2730
   74poe     o2  884   1.214   2.178   1.039 -0.0105 -0.0034 -0.2665
   74poe    c23  885   1.235   2.256   0.924 -0.2541  0.6215  0.1064
   74poe    c23  886   1.106   2.229   0.843  0.0697 -0.4782 -0.0564
   74poe     o2  887   0.992   2.202   0.921 -0.3463  0.2764 -0.3943
   74poe    c31  888   0.882   2.267   0.861 -0.3915  0.5528 -0.0163
   75poe    c31  889   4.522   3.935   2.866 -0.2525 -0.0031 -0.2129
   75poe     o2  890   4.438   3.865   2.955 -0.1327  0.1484  0.0208
   75poe    c23  891   4.424   3.928   3.080 -0.2279 -0.0359  0.1033
   75poe    c23  892   4.288   3.867   3.118 -0.1195  0.0307  0.6066
   75poe     o2  893   4.296   3.726   3.105 -0.2585  0.0539  0.2603
   75poe    c23  894   4.172   3.665   3.134 -0.3582  0.1283 -0.0132
   75poe    c23  895   4.183   3.516   3.099  0.0621  0.2144 -0.2483
   75poe     o2  896   4.232   3.531   2.968 -0.3591  0.8881 -0.3343
   75poe    c23  897   4.303   3.423   2.909 -0.6706  0.6641 -0.3008
   75poe    c23  898   4.380   3.475   2.786  0.3092 -0.4532 -0.1697
   75poe     o2  899   4.451   3.590   2.829 -0.3289  0.0211 -0.3731
   75poe    c31  900   4.578   3.586   2.768  0.1997 -0.4435  0.7320
   76poe    c31  901   2.870   2.207   3.846  0.4520 -0.4793 -0.2392
   76poe     o2  902   2.778   2.146   3.935  0.3016 -0.1354 -0.1554
   76poe    c23  903   2.655   2.145   3.867  0.1732 -0.7762  0.0826
   76poe    c23  904   2.570   2.029   3.923 -0.4227 -0.4602 -0.1549
   76poe     o2  905   2.577   2.029   4.063 -0.8958 -0.0565 -0.1291
   76poe    c23  906   2.557   1.899   4.115 -0.0030 -0.2563 -0.2697
   76poe    c23  907   2.622   1.886   4.253 -0.1312 -0.6199 -0.2415
   76poe     o2  908   2.751   1.940   4.238 -0.3734  0.0998  0.1944
   76poe    c23  909   2.825   1.940   4.358 -0.2010  0.1418  0.0901
   76poe    c23  910   2.973   1.965   4.326 -0.0576 -0.6428  0.1134
   76poe     o2  911   2.954   2.066   4.229  0.0996 -0.0709  0.6724
   76poe    c31  912   3.075   2.120   4.179 -0.3081  0.0430 -0.2174
   77poe    c31  913   5.865   3.772   0.054  0.2530  0.5073 -0.0142
   77poe     o2  914   5.918   3.816   0.177 -0.2833  0.0194  0.4004
   77poe    c23  915   6.053   3.849   0.151 -0.1416 -0.8354  0.0044
   77poe    c23  916   6.118   3.865   0.290 -0.4219 -0.2465  0.0719
   77poe     o2  917   6.016   3.911   0.376 -0.1040  0.6874 -0.0408
   77poe    c23  918   6.055   3.917   0.511 -0.4362 -0.2404  0.1064
   77poe    c23  919   5.928   3.887   0.592 -0.1371 -0.1074  0.6317
   77poe     o2  920   5.842   3.813   0.508  0.6667 -0.7993  0.4028
   77poe    c23  921   5.723   3.769   0.569  0.3839 -0.4238  0.1305
   77poe    c23  922   5.650   3.694   0.456  0.5745 -0.3141 -0.0649
   77poe     o2  923   5.669   3.767   0.337 -0.0851  0.1247  0.0906
   77poe    c31  924   5.582   3.726   0.234  0.2303 -0.2915 -0.0109
   78poe    c31  925   4.466   6.337   2.577 -0.5731  0.1196  0.0957
   78poe     o2  926   4.457   6.225   2.491 -0.5575  0.4181 -0.2958
   78poe    c23  927   4.574   6.196   2.419 -0.8344 -0.6705 -0.3183
   78poe    c23  928   4.539   6.151   2.276 -0.0249  0.0666 -0.7570
   78poe     o2  929   4.450   6.045   2.304  0.5120 -0.2110 -0.0611
   78poe    c23  930   4.413   5.980   2.185 -0.6603  0.0676  0.1413
   78poe    c23  931   4.297   5.887   2.225 -0.2951 -0.5675 -0.2636
   78poe     o2  932   4.219   5.967   2.311  0.0357 -0.2040 -0.2997
   78poe    c23  933   4.122   5.885   2.372  0.1832 -0.1278  0.0395
   78poe    c23  934   4.047   5.988   2.459 -0.0538 -0.1606 -0.1240
   78poe     o2  935   4.153   6.053   2.524 -0.4531 -0.1395  0.5086
   78poe    c31  936   4.123   6.132   2.637 -0.2956  0.2850  0.2562
   79poe    c31  937   4.546   5.335   1.779  0.3015 -0.1302  0.1996
   79poe     o2  938   4.617   5.396   1.673  0.2827  0.0121  0.2679
   79poe    c23  939   4.757   5.388   1.682  0.3468  0.2859 -0.4395
   79poe    c23  940   4.810   5.409   1.539  0.2536 -0.2163 -0.5510
   79poe     o2  941   4.752   5.532   1.501  0.1137  0.0389  0.4623
   79poe    c23  942   4.778   5.560   1.366 -0.2646 -0.1069  0.3579
   79poe    c23  943   4.654   5.629   1.305 -0.1046  0.2127  0.3908
   79poe     o2  944   4.554   5.547   1.361  0.0395 -0.2561 -0.0244
   79poe    c23  945   4.427   5.567   1.303  0.2366  0.1974 -0.3035
   79poe    c23  946   4.328   5.456   1.341 -0.1056  0.5927 -0.0376
   79poe     o2  947   4.332   5.433   1.480 -0.1267 -0.2847 -0.1760
   79poe    c31  948   4.239   5.339   1.527  0.1085 -0.1422  0.5867
   80poe    c31  949   5.807   1.442   6.453 -0.2508  0.2899 -0.1554
   80poe     o2  950   5.710   1.343   6.479  0.2006 -0.0410  0.3002
   80poe    c23  951   5.689   1.278   6.355 -0.0543 -0.0489  0.3467
   80poe    c23  952   5.543   1.230   6.364 -0.1508  0.2226  0.2552
   80poe     o2  953   5.530   1.172   6.492  0.2620  0.0057  0.2000
   80poe    c23  954   5.400   1.124   6.518  0.2488 -0.0701 -0.0015
   80poe    c23  955   5.427   1.071   6.660 -0.2555 -0.0591  0.0976
   80poe     o2  956   5.522   1.146   6.731 -0.0713  0.0866 -0.2993
   80poe    c23  957   5.604   1.064   6.811 -0.4947  0.5521  0.6289
   80poe    c23  958   5.717   1.153   6.868 -0.0117  0.4829 -0.1990
   80poe     o2  959   5.753   1.235   6.760 -0.2049  0.5037 -0.2492
   80poe    c31  960   5.877   1.294   6.795  0.0169 -0.3740  0.4829
   81poe    c31  961   0.917   0.812   5.758  0.0087  0.1819  0.2334
   81poe     o2  962   1.036   0.843   5.689 -0.1835 -0.1338 -0.2489
   81poe    c23  963   1.077   0.734   5.610  0.2610  0.0842 -0.3230
   81poe    c23  964   1.173   0.790   5.504  0.5396 -0.6205 -0.4496
   81poe     o2  965   1.301   0.823   5.553  0.3058 -0.5395  0.1077
   81poe    c23  966   1.372   0.847   5.434  0.2492 -0.0505  0.1695
   81poe    c23  967   1.518   0.885   5.463  0.2803 -0.0893  0.0646
   81poe     o2  968   1.509   0.975   5.571 -0.0174  0.7730 -0.6659
   81poe    c23  969   1.637   0.998   5.626 -0.1089 -0.7109  0.2338
   81poe    c23  970   1.628   1.107   5.734 -0.4939 -0.7184  0.2100
   81poe     o2  971   1.521   1.078   5.821 -0.2720 -0.7072  0.4911
   81poe    c31  972   1.519   1.182   5.916 -0.0375  0.1401 -0.4158
   82poe    c31  973   5.081   4.288   3.849 -0.1836  0.0980  0.6005
   82poe     o2  974   5.212   4.284   3.800 -0.4001  0.0985  0.0160
   82poe    c23  975   5.272   4.409   3.824 -0.0851  0.0373 -0.4287
   82poe    c23  976   5.424   4.409   3.801  0.0247  0.1757  0.2894
   82poe     o2  977   5.460   4.352   3.677 -0.0124 -0.3255  0.5047
   82poe    c23  978   5.594   4.325   3.647  0.0362  0.1596  0.2650
   82poe    c23  979   5.615   4.177   3.687  0.0064  0.2190  0.5014
   82poe     o2  980   5.493   4.115   3.656  0.3724 -0.3586  0.2016
   82poe    c23  981   5.485   3.977   3.683  0.2509 -0.4455 -0.2695
   82poe    c23  982   5.349   3.925   3.632 -0.2453  0.3198  0.2464
   82poe     o2  983   5.268   4.035   3.663 -0.4002  0.2871 -0.0427
   82poe    c31  984   5.135   4.006   3.626 -0.1923 -0.0215 -0.5565
   83poe    c31  985   1.733   5.122   0.456  0.0348  0.6834  0.0371
   83poe     o2  986   1.870   5.131   0.488  0.0908  0.0010 -0.0022
   83poe    c23  987   1.940   5.022   0.433  0.3623 -0.2136  0.7594
   83poe    c23  988   2.089   5.054   0.461  0.3829  0.1298  0.2667
   83poe     o2  989   2.101   5.191   0.433  0.2246  0.1699  0.3894
   83poe    c23  990   2.228   5.242   0.465  0.4850 -0.1573 -0.1011
   83poe    c23  991   2.219   5.393   0.434 -0.2614 -0.1375  0.2073
   83poe     o2  992   2.101   5.435   0.499 -0.2352 -0.4077  0.4324
   83poe    c23  993   2.032   5.536   0.429 -0.0034 -0.8651 -0.4690
   83poe    c23  994   1.890   5.550   0.487  0.2680 -0.0535  0.0110
   83poe     o2  995   1.829   5.424   0.501  0.4284 -0.1479 -0.1380
   83poe    c31  996   1.699   5.450   0.549  0.5129 -0.5486  0.3181
   84poe    c31  997   4.194   0.443   0.957  0.0001  0.3289 -0.3401
   84poe     o2  998   4.256   0.375   0.849  0.1876  0.4249 -0.2936
   84poe    c23  999   4.384   0.334   0.889 -0.1124 -0.1204  0.1171
   84poe    c23 1000   4.470   0.317   0.762 -0.7197  0.0381 -0.3188
   84poe     o2 1001   4.422   0.239   0.656 -0.0600 -0.1228 -0.5012
   84poe    c23 1002   4.390   0.107   0.694  0.0452 -0.0788 -0.2624
   84poe    c23 1003   4.253   0.069   0.635 -0.2799 -0.8013  0.9095
   84poe     o2 1004   4.153   0.157   0.682  0.1476  0.1968 -0.0037
   84poe    c23 1005   4.024   0.103   0.670  0.4097 -0.5334  0.4434
   84poe    c23 1006   3.944   0.181   0.776 -0.2687 -0.0066 -0.4473
   84poe     o2 1007   3.991   0.313   0.766  0.0503 -0.0124  0.8497
   84poe    c31 1008   3.881   0.398   0.789 -0.1660 -0.1564  0.3593
   85poe    c31 1009   1.670   3.438   3.229  0.3349  0.5977 -0.1653
   85poe     o2 1010   1.599   3.335   3.294  0.5202  0.3087 -0.4162
   85poe    c23 1011   1.494   3.379   3.377  0.6511 -0.3818  0.1285
   85poe    c23 1012   1.484   3.288   3.500  0.0641  0.1495  0.4818
   85poe     o2 1013   1.490   3.159   3.443 -0.4390  0.1665  0.3864
   85poe    c23 1014   1.497   3.054   3.537 -0.7965 -0.3446 -0.1532
   85poe    c23 1015   1.569   2.938   3.464 -0.0477  0.0160  0.0015
   85poe     o2 1016   1.660   2.990   3.369  0.2526 -0.1627  0.1942
   85poe    c23 1017   1.711   2.895   3.278 -0.2698  0.0755 -0.3518
   85poe    c23 1018   1.818   2.981   3.207  0.2647 -0.2190  0.0850
   85poe     o2 1019   1.766   3.108   3.173  0.3480 -0.2392 -0.1170
   85poe    c31 1020   1.848   3.154   3.068  0.1600  0.2444 -0.0551
   86poe    c31 1021   0.167   5.944   4.958 -0.0672  0.3978 -0.0438
   86poe     o2 1022   0.122   6.014   5.071 -0.0861  0.2002  0.0723
   86poe    c23 1023   0.135   5.929   5.183 -0.1492 -0.1524 -0.1881
   86poe    c23 1024   0.135   6.016   5.310 -0.0437 -0.2635 -0.1115
   86poe     o2 1025   0.033   6.114   5.309 -0.3988 -0.6286 -0.1712
   86poe    c23 1026   0.023   6.182   5.432 -0.1250 -0.2604 -0.3493
   86poe    c23 1027  -0.104   6.269   5.429 -0.1384 -0.2775 -0.2773
   86poe     o2 1028  -0.101   6.360   5.321  0.6803 -0.7273 -0.6372
   86poe    c23 1029  -0.206   6.341   5.229  0.2239 -0.1335 -0.2429
   86poe    c23 1030  -0.156   6.372   5.086 -0.0074  0.2922 -0.2337
   86poe     o2 1031  -0.077   6.266   5.036 -0.0753  0.2357 -0.2222
   86poe    c31 1032  -0.085   6.266   4.895 -0.1201 -1.3950 -0.2336
   87poe    c31 1033   2.117   0.454   1.373 -0.2969  0.1758 -0.7101
   87poe     o2 1034   2.001   0.374   1.374 -0.0531 -0.1839  0.2444
   87poe    c23 1035   1.883   0.442   1.413  0.0812  0.4382 -0.4051
   87poe    c23 1036   1.790   0.336   1.475  0.2273  0.5388 -0.0065
   87poe     o2 1037   1.785   0.228   1.384  0.0001  0.1518  0.4609
   87poe    c23 1038   1.700   0.122   1.423  0.4514 -0.2708  0.3016
   87poe    c23 1039   1.731   0.027   1.306  0.5568 -0.1243  0.2084
   87poe     o2 1040   1.871   0.018   1.302  0.5496 -0.0801 -0.1486
   87poe    c23 1041   1.932  -0.063   1.204 -0.0516 -0.3995 -0.2588
   87poe    c23 1042   2.082  -0.040   1.226 -0.1222 -0.2754  0.0997
   87poe     o2 1043   2.107   0.098   1.241  0.0091 -0.3049  0.1527
   87poe    c31 1044   2.242   0.108   1.281  0.1531 -0.9528 -0.1617
   88poe    c31 1045   5.782   5.424   0.278  0.0224 -0.3279 -0.3384
   88poe     o2 1046   5.876   5.325   0.314  0.4589  0.3944  0.5424
   88poe    c23 1047   5.817   5.237   0.407 -0.0812  0.3119  0.1299
   88poe    c23 1048   5.935   5.150   0.457  0.0909  0.4826  0.0223
   88poe     o2 1049   6.036   5.112   0.366 -0.1400 -0.3183  0.0972
   88poe    c23 1050   6.164   5.097   0.422 -0.1161  0.0278  0.1377
   88poe    c23 1051   6.270   5.139   0.318 -0.1612 -0.1008  0.0392
   88poe     o2 1052   6.231   5.260   0.257 -0.0915 -0.0793  0.0372
   88poe    c23 1053   6.290   5.305   0.137 -0.6522 -0.4641 -0.3902
   88poe    c23 1054   6.225   5.442   0.108  0.7368  0.3050  0.0436
   88poe     o2 1055   6.087   5.430   0.130  0.7067  0.6220  0.0276
   88poe    c31 1056   6.022   5.531   0.056  0.6054  0.0301 -0.7127
   89poe    c31 1057   2.579   3.586   0.407 -0.3839 -0.0475  0.1322
   89poe     o2 1058   2.493   3.680   0.467 -0.3357  0.0186  0.0983
   89poe    c23 1059   2.487   3.798   0.390  0.4221  0.1537  0.2381
   89poe    c23 1060   2.404   3.898   0.472  0.2407  0.0303  0.2065
   89poe     o2 1061   2.320   3.842   0.570  0.2661 -0.2968  0.0415
   89poe    c23 1062   2.289   3.932   0.673  0.8040  0.0004 -0.0529
   89poe    c23 1063   2.241   3.855   0.798  0.0436 -0.1647 -0.4395
   89poe     o2 1064   2.321   3.739   0.801  0.0315 -0.1593  0.2149
   89poe    c23 1065   2.256   3.629   0.861 -0.1587 -0.0820  0.1510
   89poe    c23 1066   2.361   3.517   0.852  0.1141  0.1796  0.0491
   89poe     o2 1067   2.411   3.529   0.721  0.2985 -0.2486  0.0792
   89poe    c31 1068   2.479   3.411   0.682  0.0823 -0.3556  0.0263
   90poe    c31 1069   4.251   3.450   4.454  0.0737 -0.3158 -0.4415
   90poe     o2 1070   4.247   3.547   4.352  0.2672  0.3720  0.2048
   90poe    c23 1071   4.150   3.521   4.253  0.2665 -0.1361  0.3357
   90poe    c23 1072   4.193   3.593   4.124 -0.0184 -0.5482  0.0093
   90poe     o2 1073   4.210   3.732   4.144  0.0345 -0.5284 -0.1642
   90poe    c23 1074   4.309   3.780   4.057  0.1141 -0.4076 -0.0080
   90poe    c23 1075   4.382   3.883   4.145  0.2434 -0.1849 -0.3742
   90poe     o2 1076   4.400   3.840   4.278  0.1219  0.6686 -0.0756
   90poe    c23 1077   4.466   3.930   4.364 -0.1289  1.1477 -0.3784
   90poe    c23 1078   4.388   3.918   4.496 -0.3953  0.5687 -0.5857
   90poe     o2 1079   4.335   3.788   4.508 -0.0900  0.4957  0.0262
   90poe    c31 1080   4.238   3.775   4.609  0.4177 -0.3114  0.4180
   91poe    c31 1081   6.118   1.392   3.444  0.8340  0.3198 -0.2898
   91poe     o2 1082   6.134   1.380   3.584 -0.1707  0.0205 -0.1903
   91poe    c23 1083   6.083   1.484   3.664  0.1620  0.0966 -0.0752
   91poe    c23 1084   6.152   1.469   3.801  0.0109 -0.2607 -0.0345
   91poe     o2 1085   6.119   1.340   3.845  0.0520 -0.1789  0.2376
   91poe    c23 1086   6.174   1.299   3.968  0.2876 -0.2325  0.1158
   91poe    c23 1087   6.152   1.147   3.982 -0.4779 -0.1558 -0.1853
   91poe     o2 1088   6.200   1.118   3.853  0.3888 -0.2667  0.1548
   91poe    c23 1089   6.149   0.991   3.817  0.3194 -0.0544 -0.5129
   91poe    c23 1090   6.203   0.967   3.675 -0.0999 -0.1399 -0.6591
   91poe     o2 1091   6.151   1.076   3.602 -0.1027  0.1659 -0.2108
   91poe    c31 1092   6.150   1.042   3.465  0.6433 -0.1932 -0.1338
   92poe    c31 1093   4.000   0.544   6.568  0.0667  0.3894 -0.5155
   92poe     o2 1094   3.953   0.434   6.493 -0.0605  0.0704  0.0242
   92poe    c23 1095   4.053   0.338   6.468  0.0602  0.1459  0.2153
   92poe    c23 1096   3.976   0.206   6.452  0.0040  0.1879  0.1402
   92poe     o2 1097   3.868   0.232   6.364 -0.0840 -0.3504  0.0828
   92poe    c23 1098   3.762   0.140   6.368 -0.1323 -0.2941  0.0969
   92poe    c23 1099   3.638   0.217   6.320 -0.1656 -0.1652  0.3905
   92poe     o2 1100   3.622   0.320   6.416 -0.0680  0.1194  0.1045
   92poe    c23 1101   3.525   0.407   6.363  0.2255  0.1618 -0.3643
   92poe    c23 1102   3.520   0.521   6.467  0.6692 -0.1253 -0.0266
   92poe     o2 1103   3.653   0.553   6.502  0.4705  0.3415  0.3091
   92poe    c31 1104   3.662   0.643   6.609  0.9067  0.4523  0.1801
   93poe    c31 1105   4.979   5.721   4.255 -0.3852  0.4351 -0.3065
   93poe     o2 1106   4.995   5.860   4.237  0.0223  0.4882  0.4260
   93poe    c23 1107   5.133   5.886   4.249  0.1371  0.0999 -0.0217
   93poe    c23 1108   5.132   6.034   4.291 -0.7738  0.0821  0.0505
   93poe     o2 1109   5.058   6.092   4.186 -0.0478  0.3536 -0.3192
   93poe    c23 1110   5.057   6.232   4.204 -0.1620  0.2720  0.3197
   93poe    c23 1111   4.963   6.291   4.098  0.0808  0.3767  0.1630
   93poe     o2 1112   4.842   6.225   4.128  0.1036  0.3813  0.2649
   93poe    c23 1113   4.764   6.232   4.010  0.4507  0.3042  0.0277
   93poe    c23 1114   4.701   6.097   3.970  0.3050  0.4220 -0.1387
   93poe     o2 1115   4.796   5.999   4.005  0.4489  0.3833 -0.6345
   93poe    c31 1116   4.744   5.881   3.947  0.5798 -0.0008  0.0195
   94poe    c31 1117   6.069   4.603   6.501  0.0883 -0.1655  0.5875
   94poe     o2 1118   5.947   4.659   6.545 -0.1094 -0.2647  0.1787
   94poe    c23 1119   5.851   4.628   6.447  0.3183 -0.4066 -0.1966
   94poe    c23 1120   5.726   4.709   6.485  0.4594 -0.5709  0.6351
   94poe     o2 1121   5.712   4.705   6.625 -0.0627 -0.6510  0.5815
   94poe    c23 1122   5.615   4.791   6.681  0.3132  0.2314 -0.0966
   94poe    c23 1123   5.650   4.803   6.830 -0.1365 -0.3933  0.0634
   94poe     o2 1124   5.790   4.796   6.830 -0.0890  0.4540 -0.0652
   94poe    c23 1125   5.837   4.763   6.958  0.5071 -0.1240 -0.4265
   94poe    c23 1126   5.988   4.794   6.946  0.5602 -0.3150 -0.2745
   94poe     o2 1127   6.031   4.744   6.822 -0.3904  0.0274 -0.7573
   94poe    c31 1128   6.170   4.760   6.803 -0.4447  0.6977 -0.6146
   95poe    c31 1129   1.769   4.544   0.250 -0.2196 -0.6038  0.0577
   95poe     o2 1130   1.807   4.409   0.229  0.3594 -0.4646  0.1855
   95poe    c23 1131   1.723   4.352   0.130 -0.0251 -0.0816  0.2854
   95poe    c23 1132   1.770   4.214   0.081 -0.0419  0.1260 -0.3236
   95poe     o2 1133   1.828   4.164   0.199  0.3624  0.6140 -0.3085
   95poe    c23 1134   1.914   4.053   0.182 -1.0722 -0.5790 -0.0428
   95poe    c23 1135   1.941   4.001   0.324 -0.3342  0.1356  0.0885
   95poe     o2 1136   1.940   4.114   0.409 -0.3992  0.3478 -0.1944
   95poe    c23 1137   1.911   4.085   0.543  0.1367 -0.0119 -0.1497
   95poe    c23 1138   1.893   4.219   0.617  0.5171  0.0621 -0.1895
   95poe     o2 1139   1.837   4.301   0.518 -0.0214  0.1670  0.1947
   95poe    c31 1140   1.773   4.412   0.577 -0.3808 -0.1071  0.3232
   96poe    c31 1141   4.827   1.282   5.464  0.1078 -0.0602 -0.3529
   96poe     o2 1142   4.737   1.217   5.376  0.2657  0.4002 -0.8563
   96poe    c23 1143   4.805   1.112   5.310 -0.2054 -0.5137  0.0921
   96poe    c23 1144   4.688   1.021   5.268 -0.2744 -0.5693  0.4014
   96poe     o2 1145   4.598   1.097   5.189  0.2840  0.1140  0.4142
   96poe    c23 1146   4.482   1.027   5.152  0.2660  0.0519  0.5868
   96poe    c23 1147   4.379   1.138   5.124 -0.1261 -0.4553 -0.0120
   96poe     o2 1148   4.394   1.227   5.232  0.8184 -0.3526 -0.2227
   96poe    c23 1149   4.307   1.337   5.220  0.7247 -0.3977  0.0289
   96poe    c23 1150   4.335   1.416   5.349 -0.0506  0.3894 -0.2760
   96poe     o2 1151   4.474   1.434   5.365 -0.0737  0.0142  0.3717
   96poe    c31 1152   4.499   1.538   5.458 -0.2791  0.7325 -0.3635
   97poe    c31 1153   0.641   1.881   5.970  0.5547 -0.1316  0.0477
   97poe     o2 1154   0.718   1.953   6.064 -0.1394  0.0552  0.4760
   97poe    c23 1155   0.667   2.083   6.052  0.8857  0.4107 -0.1259
   97poe    c23 1156   0.779   2.180   6.094  0.8591  0.5812 -0.4441
   97poe     o2 1157   0.833   2.103   6.199 -0.4088 -0.1551 -0.3067
   97poe    c23 1158   0.933   2.180   6.262 -0.4831  0.0194 -0.4005
   97poe    c23 1159   0.949   2.095   6.390  0.2684 -0.0279 -0.5203
   97poe     o2 1160   0.974   1.960   6.356  0.0685 -0.1151 -0.3201
   97poe    c23 1161   0.951   1.878   6.469  0.3849  0.0676 -0.1206
   97poe    c23 1162   0.881   1.754   6.412  0.0943 -0.0065  0.3931
   97poe     o2 1163   0.779   1.790   6.321 -0.0819 -0.4395  0.4113
   97poe    c31 1164   0.700   1.680   6.285 -0.4564  0.0267 -0.2192
   98poe    c31 1165   3.005   4.876   5.066  0.8489 -0.5375 -0.2910
   98poe     o2 1166   3.053   4.956   4.960 -0.2296  0.4285 -0.0707
   98poe    c23 1167   3.045   5.093   4.993 -0.5222  0.4340 -0.1622
   98poe    c23 1168   3.077   5.196   4.883  0.7576  0.1278 -0.0948
   98poe     o2 1169   3.023   5.150   4.761 -0.1765  0.3725  0.2186
   98poe    c23 1170   3.099   5.194   4.651  0.2428 -0.0594  0.3340
   98poe    c23 1171   3.110   5.078   4.551  0.0953  0.1654  0.0541
   98poe     o2 1172   3.152   4.973   4.635 -0.3159 -0.1716 -0.1534
   98poe    c23 1173   3.194   4.863   4.556  0.1856  0.1943 -0.4032
   98poe    c23 1174   3.248   4.775   4.670 -0.1409  0.3595 -0.1175
   98poe     o2 1175   3.137   4.755   4.755 -0.1806  0.4031 -0.1593
   98poe    c31 1176   3.164   4.650   4.844  0.0978  0.5986 -0.0108
   99poe    c31 1177   5.762   3.960   1.300  0.4212 -0.5785  0.0004
   99poe     o2 1178   5.693   3.840   1.321  0.4009 -0.5781 -0.0640
   99poe    c23 1179   5.564   3.843   1.263  0.5676 -0.1777 -0.4143
   99poe    c23 1180   5.525   3.698   1.229 -0.2917  0.0527 -0.4273
   99poe     o2 1181   5.545   3.625   1.347 -0.3890  0.1379 -0.3579
   99poe    c23 1182   5.538   3.486   1.320  0.4713  0.1503 -0.6679
   99poe    c23 1183   5.609   3.421   1.440 -0.3923  0.2468 -0.0918
   99poe     o2 1184   5.721   3.505   1.464 -0.3952  0.2336 -0.0309
   99poe    c23 1185   5.805   3.454   1.565  0.1153  0.2017 -0.4704
   99poe    c23 1186   5.925   3.549   1.579  0.2822 -0.1263  0.3797
   99poe     o2 1187   5.880   3.678   1.545  0.1230 -0.2661  0.0609
   99poe    c31 1188   5.984   3.772   1.567 -0.2416  0.1488  0.0270
  100poe    c31 1189   1.866   5.319   1.941  0.3068  0.4539 -0.0520
  100poe     o2 1190   1.745   5.251   1.961  0.4814  0.0151 -0.4782
  100poe    c23 1191   1.779   5.155   2.059  0.7461  0.0208 -0.5653
  100poe    c23 1192   1.657   5.073   2.103  0.4455  0.5681 -0.3780
  100poe     o2 1193   1.584   5.056   1.984 -0.1257 -0.4207  0.0966
  100poe    c23 1194   1.453   5.007   2.005 -0.4191  0.5185  0.5374
  100poe    c23 1195   1.408   5.000   1.858 -0.0938 -0.0531  0.4629
  100poe     o2 1196   1.437   5.129   1.810 -0.1313 -0.1082  0.2920
  100poe    c23 1197   1.387   5.158   1.681  0.4683 -0.1456  0.0473
  100poe    c23 1198   1.425   5.307   1.684 -0.2383  0.0329  0.5694
  100poe     o2 1199   1.560   5.309   1.725 -0.1449 -0.0280  0.2692
  100poe    c31 1200   1.611   5.424   1.662  0.2441 -0.1640  0.3320
  101poe    c31 1201   4.146   0.192   2.973  0.0035 -0.4197  0.3716
  101poe     o2 1202   4.192   0.061   2.996 -0.0091 -0.5048 -0.0752
  101poe    c23 1203   4.265   0.037   2.877  0.3781 -0.5524  0.1679
  101poe    c23 1204   4.270  -0.117   2.869 -0.2530 -0.5627 -0.1467
  101poe     o2 1205   4.312  -0.157   2.998  0.1727 -0.0793 -0.1279
  101poe    c23 1206   4.366  -0.288   2.999  0.0823 -0.1180 -0.2190
  101poe    c23 1207   4.310  -0.360   3.123  0.4285  0.1424  0.0901
  101poe     o2 1208   4.304  -0.281   3.240 -0.1056  0.0752  0.1097
  101poe    c23 1209   4.234  -0.350   3.342  0.1941  0.1782  0.3846
  101poe    c23 1210   4.219  -0.263   3.469 -0.0271  0.1267  0.3938
  101poe     o2 1211   4.349  -0.242   3.520 -0.0466  0.5601  0.2642
  101poe    c31 1212   4.351  -0.169   3.640  0.8055  0.5376  0.2694
  102poe    c31 1213   0.927   5.882   5.208  0.0698 -0.3891  0.0942
  102poe     o2 1214   0.979   5.769   5.273  0.4797 -0.3946 -0.2422
  102poe    c23 1215   0.920   5.647   5.232 -0.2679 -0.0391 -0.2368
  102poe    c23 1216   0.974   5.543   5.331 -0.1243  0.2844  0.0282
  102poe     o2 1217   1.108   5.585   5.342 -0.1100  0.4250 -0.6790
  102poe    c23 1218   1.176   5.515   5.444 -1.0833  0.6599  0.1448
  102poe    c23 1219   1.314   5.581   5.461 -0.6592 -0.1351 -0.1517
  102poe     o2 1220   1.287   5.718   5.477  0.1685  0.0692 -0.4846
  102poe    c23 1221   1.403   5.796   5.462  0.0978  0.3410  0.3587
  102poe    c23 1222   1.341   5.937   5.457  0.1758  0.3741  0.3255
  102poe     o2 1223   1.236   5.947   5.364  0.0982 -0.0445  0.3671
  102poe    c31 1224   1.208   6.082   5.336 -0.4619 -0.2300  0.0133
  103poe    c31 1225   0.204   5.805   3.142  0.2882  0.1024 -0.1927
  103poe     o2 1226   0.309   5.896   3.121  0.2956  0.0779 -0.2610
  103poe    c23 1227   0.404   5.831   3.040  0.6111 -0.3445  0.4363
  103poe    c23 1228   0.442   5.947   2.947  0.2587 -0.2273  0.4374
  103poe     o2 1229   0.461   6.040   3.051 -0.2038  0.1584  0.1813
  103poe    c23 1230   0.496   6.168   3.004  0.2167 -0.0113  0.0328
  103poe    c23 1231   0.531   6.240   3.135  0.3713 -0.4025  0.2082
  103poe     o2 1232   0.419   6.224   3.220 -0.0359  0.5058 -0.1498
  103poe    c23 1233   0.423   6.278   3.350  0.3853  0.3128 -0.0826
  103poe    c23 1234   0.293   6.224   3.412  0.1412  0.5475 -0.3865
  103poe     o2 1235   0.280   6.092   3.362 -0.2177  0.4785 -0.1136
  103poe    c31 1236   0.158   6.033   3.399  0.3447 -0.2799  0.5504
  104poe    c31 1237   5.840   3.701   4.259  0.2589  0.4917  0.1815
  104poe     o2 1238   5.822   3.825   4.324 -0.4990  0.5190 -0.0660
  104poe    c23 1239   5.729   3.808   4.428 -0.0238 -0.3157  0.2288
  104poe    c23 1240   5.746   3.916   4.537  0.8692 -0.5915  0.3737
  104poe     o2 1241   5.784   4.034   4.470  0.3896 -0.7667 -0.2098
  104poe    c23 1242   5.844   4.128   4.556  0.0684 -0.5841 -0.1816
  104poe    c23 1243   5.861   4.246   4.458 -0.3680 -0.5135 -0.1767
  104poe     o2 1244   5.914   4.186   4.342 -0.4771 -0.5286 -0.2189
  104poe    c23 1245   5.873   4.260   4.229  0.1093 -0.3936 -0.3453
  104poe    c23 1246   5.914   4.174   4.108  0.0586 -0.3438 -0.3977
  104poe     o2 1247   5.886   4.040   4.142  0.9096 -0.3808  0.1877
  104poe    c31 1248   5.884   3.966   4.022  0.1259  0.5210 -0.3677
  105poe    c31 1249   0.017   0.966   4.678  0.0234 -0.3172 -0.5206
  105poe     o2 1250  -0.017   0.830   4.670 -0.3498 -0.2650  0.0914
  105poe    c23 1251  -0.142   0.817   4.605 -0.1710  0.4643 -0.4097
  105poe    c23 1252  -0.145   0.677   4.542  0.6538  0.2598 -0.0140
  105poe     o2 1253  -0.094   0.589   4.639  0.3281 -0.3399 -0.3762
  105poe    c23 1254  -0.103   0.459   4.586  0.3829 -0.4713 -0.0688
  105poe    c23 1255  -0.025   0.378   4.691 -0.2705 -0.9572  0.0489
  105poe     o2 1256   0.087   0.457   4.723 -0.6169 -0.4597  0.0503
  105poe    c23 1257   0.170   0.421   4.832 -0.4461 -0.0552  0.0543
  105poe    c23 1258   0.277   0.528   4.859 -0.5472  0.0195  0.1600
  105poe     o2 1259   0.213   0.653   4.848  0.0050  0.2501 -0.5766
  105poe    c31 1260   0.299   0.758   4.886 -0.0735 -0.1644  0.8295
  106poe    c31 1261   2.396   2.794   0.595  0.3047 -0.3706 -0.2832
  106poe     o2 1262   2.464   2.864   0.494  0.1509 -0.0859 -0.1920
  106poe    c23 1263   2.514   2.987   0.543 -0.3281  0.3023 -0.6632
  106poe    c23 1264   2.611   3.057   0.446  0.4636  0.0546 -0.0588
  106poe     o2 1265   2.523   3.071   0.337  0.1360  0.2873  0.2332
  106poe    c23 1266   2.579   3.137   0.227 -0.3689 -0.6185 -0.5821
  106poe    c23 1267   2.450   3.159   0.145 -0.4520  0.4291 -0.1908
  106poe     o2 1268   2.393   3.032   0.121  0.1522  0.1184  0.0004
  106poe    c23 1269   2.253   3.019   0.116  0.1946 -0.2056 -0.3926
  106poe    c23 1270   2.208   2.877   0.156 -0.3799  0.1814  0.3405
  106poe     o2 1271   2.250   2.865   0.290  0.8312 -0.0897 -0.0587
  106poe    c31 1272   2.154   2.784   0.354 -0.0481  0.4895 -0.6373
  107poe    c31 1273   3.333   5.475   2.505 -0.2247 -0.2260 -0.3541
  107poe     o2 1274   3.309   5.555   2.619  0.3816 -0.2170 -0.2306
  107poe    c23 1275   3.243   5.469   2.709  1.1013 -0.1175  0.3981
  107poe    c23 1276   3.160   5.555   2.806 -0.1313 -0.3003 -0.4709
  107poe     o2 1277   3.249   5.657   2.846 -0.7508 -0.0582  0.3292
  107poe    c23 1278   3.200   5.763   2.926  0.4387  0.3776  0.4988
  107poe    c23 1279   3.316   5.864   2.931  0.1613  0.7173  0.0857
  107poe     o2 1280   3.351   5.879   2.795  0.6711 -0.4399  0.0856
  107poe    c23 1281   3.470   5.954   2.786  0.8403 -0.6858  0.2251
  107poe    c23 1282   3.494   5.959   2.634  0.3122  0.3091  0.1599
  107poe     o2 1283   3.508   5.826   2.588 -0.0894  0.3268 -0.0178
  107poe    c31 1284   3.523   5.819   2.448 -0.1155  0.2335 -0.0157
  108poe    c31 1285   6.386   5.044   1.131 -0.1001  0.2057  0.2633
  108poe     o2 1286   6.413   5.122   1.016 -0.0991 -0.1676  0.0083
  108poe    c23 1287   6.328   5.234   1.018 -0.0334 -0.1223  0.3967
  108poe    c23 1288   6.316   5.284   0.873  0.7324  0.4729  0.5334
  108poe     o2 1289   6.446   5.266   0.822  0.4851 -0.0669  0.0849
  108poe    c23 1290   6.453   5.326   0.695 -0.4326 -0.2243 -0.0474
  108poe    c23 1291   6.588   5.275   0.640 -0.0064  0.3323  0.4625
  108poe     o2 1292   6.589   5.138   0.672  0.4669  0.2100 -0.0610
  108poe    c23 1293   6.721   5.090   0.660  0.1153 -0.7249 -0.2992
  108poe    c23 1294   6.719   4.965   0.750  0.5433 -0.0904  0.6065
  108poe     o2 1295   6.669   4.993   0.879 -0.2409  0.1137  0.2662
  108poe    c31 1296   6.703   4.881   0.958  0.2233  0.3200  0.3670
  109poe    c31 1297   2.041   4.492   1.603  0.6566  0.7751  0.5488
  109poe     o2 1298   2.114   4.371   1.600 -0.5693  0.0150  0.4234
  109poe    c23 1299   2.039   4.290   1.513 -0.1663 -0.3858  0.4467
  109poe    c23 1300   2.123   4.169   1.467  0.3206  0.2184 -0.2799
  109poe     o2 1301   2.180   4.128   1.590 -0.4472 -0.0542 -0.0136
  109poe    c23 1302   2.277   4.026   1.583  0.2615  0.6707 -1.0118
  109poe    c23 1303   2.346   4.029   1.721 -0.6609  0.0840 -0.5274
  109poe     o2 1304   2.344   4.168   1.748  0.1393  0.0296 -0.1651
  109poe    c23 1305   2.419   4.208   1.860  0.3823  0.1026 -0.3519
  109poe    c23 1306   2.409   4.362   1.864 -0.1064  0.0666  0.0086
  109poe     o2 1307   2.272   4.389   1.848  0.0440  0.7874 -0.0932
  109poe    c31 1308   2.263   4.528   1.871 -0.1081  0.7157  0.2768
  110poe    c31 1309   5.919   2.064   3.336 -0.1313 -0.3145  0.3078
  110poe     o2 1310   5.930   2.153   3.445 -0.2018 -0.2005  0.2229
  110poe    c23 1311   5.801   2.197   3.479 -0.0435  0.4934 -0.0548
  110poe    c23 1312   5.806   2.281   3.608 -0.2993  0.2545  0.1146
  110poe     o2 1313   5.910   2.216   3.679 -0.2508  0.1232 -0.0762
  110poe    c23 1314   5.920   2.270   3.809 -0.3352 -0.4351  0.1632
  110poe    c23 1315   6.032   2.191   3.880  0.2081  0.5692  0.4394
  110poe     o2 1316   6.144   2.182   3.795 -0.3033 -0.0798 -0.1719
  110poe    c23 1317   6.232   2.073   3.813  0.0114  0.1596 -0.2706
  110poe    c23 1318   6.299   2.039   3.679  0.1591 -0.5281 -0.0229
  110poe     o2 1319   6.197   2.030   3.583  0.3231  0.1210 -0.2619
  110poe    c31 1320   6.238   1.948   3.476  0.0230 -0.0496 -0.2489
  111poe    c31 1321   5.179   1.001   2.376  0.5644 -0.0757  0.1236
  111poe     o2 1322   5.168   1.133   2.424  0.1637  0.0436 -0.2869
  111poe    c23 1323   5.033   1.168   2.402 -0.0385 -0.4600  0.1349
  111poe    c23 1324   4.984   1.267   2.509  0.4145 -0.4101  0.3014
  111poe     o2 1325   5.082   1.365   2.534 -0.3434  0.4649 -0.0812
  111poe    c23 1326   5.072   1.431   2.658 -0.3407  0.4446 -0.0703
  111poe    c23 1327   5.217   1.464   2.696 -0.2394 -0.0256 -0.0430
  111poe     o2 1328   5.281   1.342   2.667  0.0133  0.1751 -0.3403
  111poe    c23 1329   5.414   1.339   2.715 -0.3567 -0.3516  0.6933
  111poe    c23 1330   5.462   1.194   2.701 -0.7851 -0.4382  0.0801
  111poe     o2 1331   5.416   1.159   2.572  0.0009  0.3901 -0.4428
  111poe    c31 1332   5.520   1.099   2.498  0.3082  0.1263  0.1930
  112poe    c31 1333   5.932   0.606   0.808  0.1870  0.0429 -0.5461
  112poe     o2 1334   5.802   0.651   0.776 -0.0521 -0.0106  0.3352
  112poe    c23 1335   5.813   0.690   0.641  0.3076 -0.1945  0.3076
  112poe    c23 1336   5.674   0.686   0.574  0.2634 -0.2677  0.4030
  112poe     o2 1337   5.615   0.577   0.640 -0.4643 -0.3023 -0.2932
  112poe    c23 1338   5.479   0.556   0.608 -0.4519 -0.3299 -0.3289
  112poe    c23 1339   5.406   0.472   0.715 -0.6690  0.3272  0.0433
  112poe     o2 1340   5.457   0.542   0.826 -0.6376  0.5492 -0.1114
  112poe    c23 1341   5.423   0.470   0.941  0.5368 -0.1783 -0.1990
  112poe    c23 1342   5.492   0.551   1.053 -0.1006 -0.2696  0.2699
  112poe     o2 1343   5.627   0.561   1.013 -0.2133  0.2703  0.0052
  112poe    c31 1344   5.711   0.604   1.118  0.1952  0.0364 -0.2231
  113poe    c31 1345   4.000   4.515   2.277  0.3234 -0.5730 -0.2444
  113poe     o2 1346   3.865   4.505   2.239  0.3072 -0.5156 -0.2038
  113poe    c23 1347   3.850   4.548   2.105  0.0674  0.0996  0.0170
  113poe    c23 1348   3.698   4.553   2.085  0.0596 -0.2921 -0.0371
  113poe     o2 1349   3.644   4.454   2.169 -0.0731 -0.0933  0.1111
  113poe    c23 1350   3.507   4.439   2.138 -0.0086 -0.2854 -0.0786
  113poe    c23 1351   3.460   4.312   2.213 -0.5776 -0.0697 -0.0649
  113poe     o2 1352   3.535   4.324   2.332 -0.8611  0.5442  0.0565
  113poe    c23 1353   3.561   4.201   2.395 -0.1943  0.6247 -0.0589
  113poe    c23 1354   3.689   4.223   2.479 -0.2014 -0.4297  0.2486
  113poe     o2 1355   3.790   4.269   2.392 -0.3487  0.1115  0.3594
  113poe    c31 1356   3.907   4.203   2.435 -0.0467  0.2291 -0.2700
  114poe    c31 1357   4.290   4.886   1.310  0.1949 -0.6092  0.8278
  114poe     o2 1358   4.317   4.752   1.345  0.2256 -0.8724 -0.1716
  114poe    c23 1359   4.229   4.671   1.269  0.0512 -0.3457 -0.5389
  114poe    c23 1360   4.255   4.522   1.297  0.8239 -0.1800 -0.3392
  114poe     o2 1361   4.256   4.504   1.436  0.3806  0.5842 -0.2364
  114poe    c23 1362   4.324   4.386   1.474 -0.0828  0.4192  0.0911
  114poe    c23 1363   4.374   4.418   1.615 -0.3971 -0.1684  0.3403
  114poe     o2 1364   4.436   4.545   1.615 -0.9543  0.1041  0.0622
  114poe    c23 1365   4.460   4.589   1.747  0.3442 -0.0617 -0.1100
  114poe    c23 1366   4.476   4.742   1.741  0.2999 -0.0504  0.0401
  114poe     o2 1367   4.374   4.799   1.663  0.0119 -0.3442  0.2021
  114poe    c31 1368   4.352   4.936   1.686  0.2379 -0.2471 -0.1550
  115poe    c31 1369   3.218   1.033   0.548 -0.1200  0.0493 -0.4497
  115poe     o2 1370   3.225   1.134   0.451  0.3682  0.0407 -0.4274
  115poe    c23 1371   3.173   1.094   0.326 -0.3756  0.6377 -0.3176
  115poe    c23 1372   3.277   1.136   0.221 -0.3751  0.2226 -0.4869
  115poe     o2 1373   3.272   1.273   0.255 -0.5269  0.0897  0.0402
  115poe    c23 1374   3.368   1.336   0.174 -0.7643 -0.1387 -0.4254
  115poe    c23 1375   3.401   1.471   0.242 -0.8581 -0.2970 -0.0661
  115poe     o2 1376   3.405   1.449   0.381 -0.5183 -0.7231 -0.1394
  115poe    c23 1377   3.434   1.561   0.462 -0.3508 -0.6605 -0.2858
  115poe    c23 1378   3.426   1.495   0.602  0.2375 -0.2245 -0.0429
  115poe     o2 1379   3.329   1.393   0.603  0.2291 -0.2213 -0.3144
  115poe    c31 1380   3.318   1.319   0.723  0.4789 -0.1068 -0.2213
  116poe    c31 1381   3.897   5.161   0.490  0.0749 -0.9904  0.0508
  116poe     o2 1382   3.970   5.083   0.399  0.5175 -0.1195 -0.3564
  116poe    c23 1383   4.054   5.173   0.330  0.1016  0.5445 -0.0053
  116poe    c23 1384   4.066   5.144   0.179  0.0916  0.1770  0.0620
  116poe     o2 1385   4.114   5.013   0.194  0.0893  0.1038 -0.5555
  116poe    c23 1386   4.129   4.939   0.074  0.2193 -0.0323 -0.4566
  116poe    c23 1387   4.194   4.811   0.130  0.0263 -0.0108 -0.1812
  116poe     o2 1388   4.124   4.791   0.251  0.4967  0.5759  0.1956
  116poe    c23 1389   4.184   4.686   0.323  0.1151  0.3765  0.2273
  116poe    c23 1390   4.122   4.695   0.463  0.4972  0.3832  0.3991
  116poe     o2 1391   4.115   4.833   0.491  0.2316  0.4885 -0.1652
  116poe    c31 1392   4.161   4.864   0.621 -0.1303 -0.3596  0.1690
  117poe    c31 1393   3.610   4.249   3.227 -0.2289 -0.5932  0.2952
  117poe     o2 1394   3.520   4.300   3.130  0.5787  0.3057  0.0008
  117poe    c23 1395   3.602   4.357   3.031  0.4431 -0.1763 -0.3940
  117poe    c23 1396   3.516   4.420   2.919 -0.0201  0.1072  0.1145
  117poe     o2 1397   3.405   4.477   2.984 -0.0957 -0.0674  0.1417
  117poe    c23 1398   3.311   4.539   2.898 -0.5781 -1.0465 -0.0524
  117poe    c23 1399   3.213   4.616   2.988  0.0869 -0.4703  0.1872
  117poe     o2 1400   3.197   4.536   3.103  0.4206 -0.6790  0.0913
  117poe    c23 1401   3.169   4.591   3.230  0.0210 -0.0363 -0.2685
  117poe    c23 1402   3.194   4.489   3.342 -0.0251  0.1422 -0.0944
  117poe     o2 1403   3.308   4.415   3.306  0.0902  0.2840 -0.0189
  117poe    c31 1404   3.349   4.346   3.422 -0.3872  0.0885  0.0337
  118poe    c31 1405   0.792   0.845   1.903 -0.3795  0.1185  0.2196
  118poe     o2 1406   0.849   0.958   1.966  0.1119  0.2024 -0.3633
  118poe    c23 1407   0.742   1.035   2.015 -0.1219 -0.3823  0.0608
  118poe    c23 1408   0.808   1.153   2.088 -0.5042  0.0307 -0.2585
  118poe     o2 1409   0.922   1.202   2.021 -0.1396 -0.0305  0.3096
  118poe    c23 1410   1.021   1.250   2.108 -0.2081  0.5933  0.0525
  118poe    c23 1411   1.160   1.212   2.053 -0.1050 -0.0619  0.7524
  118poe     o2 1412   1.130   1.084   2.002  0.1805  0.1234  0.1114
  118poe    c23 1413   1.250   1.022   1.961  0.0398  0.0029 -0.1219
  118poe    c23 1414   1.204   0.896   1.885  0.0976 -0.5498  0.7339
  118poe     o2 1415   1.100   0.938   1.799  0.6381 -0.2760  0.2062
  118poe    c31 1416   1.090   0.853   1.686  0.7972 -0.4319  0.3088
  119poe    c31 1417   3.734   1.811   2.353 -0.4259  0.1893  0.3001
  119poe     o2 1418   3.723   1.691   2.427  0.1750  0.0353  0.1370
  119poe    c23 1419   3.598   1.683   2.491  0.2386 -0.1272  0.2401
  119poe    c23 1420   3.588   1.550   2.569 -0.6003 -0.0216  0.3163
  119poe     o2 1421   3.569   1.430   2.498 -0.1148 -0.0206  0.1833
  119poe    c23 1422   3.438   1.386   2.524 -0.0979 -0.4709 -0.4814
  119poe    c23 1423   3.429   1.232   2.532 -0.0949 -0.4533 -0.1348
  119poe     o2 1424   3.527   1.188   2.441  0.5229 -0.4618  0.5268
  119poe    c23 1425   3.534   1.047   2.437 -0.7027 -0.5147 -0.3597
  119poe    c23 1426   3.626   0.998   2.323 -0.1218 -0.0557 -0.0960
  119poe     o2 1427   3.751   1.062   2.324  0.1046 -0.4991  0.0217
  119poe    c31 1428   3.816   1.050   2.199  0.1573 -0.3222  0.0312
  120poe    c31 1429   4.331   4.185   3.658  0.1336 -0.3374  0.2895
  120poe     o2 1430   4.401   4.305   3.635 -0.0671 -0.3122 -0.2120
  120poe    c23 1431   4.327   4.416   3.681  0.2643 -0.5048  0.8075
  120poe    c23 1432   4.402   4.540   3.628 -0.1126 -0.3746  0.5776
  120poe     o2 1433   4.538   4.508   3.645  0.0695  0.1718  0.1870
  120poe    c23 1434   4.624   4.594   3.575  0.0974  0.3364  0.4219
  120poe    c23 1435   4.766   4.538   3.595  0.3383  0.4364 -0.8886
  120poe     o2 1436   4.743   4.405   3.554 -0.2007  0.1196  0.3992
  120poe    c23 1437   4.844   4.309   3.572 -0.0396  0.2979  0.4612
  120poe    c23 1438   4.799   4.176   3.508  0.4211  0.3469  0.0247
  120poe     o2 1439   4.667   4.147   3.548  0.2904  0.0750 -0.5965
  120poe    c31 1440   4.633   4.015   3.511 -0.6137  0.2645 -0.4688
  121poe    c31 1441   4.508   4.807   4.384  0.0436 -0.2602  0.2676
  121poe     o2 1442   4.576   4.742   4.278 -0.0024  0.0630  0.0408
  121poe    c23 1443   4.570   4.837   4.174  0.5311  0.1729  0.1062
  121poe    c23 1444   4.641   4.783   4.049  0.3402 -0.0760  0.1062
  121poe     o2 1445   4.756   4.717   4.096  0.3103  0.0804  0.3994
  121poe    c23 1446   4.838   4.665   3.994  0.8956  1.3653  0.1864
  121poe    c23 1447   4.947   4.599   4.081 -0.1447  0.2479  0.6812
  121poe     o2 1448   4.886   4.536   4.191 -0.4485 -0.1455  0.2888
  121poe    c23 1449   4.987   4.552   4.288 -0.0690 -0.6931 -0.0054
  121poe    c23 1450   4.917   4.521   4.422 -0.1060 -0.2416  0.0810
  121poe     o2 1451   4.793   4.588   4.411 -0.3102 -0.6257  0.0249
  121poe    c31 1452   4.733   4.593   4.539 -0.1664 -0.0499  0.0730
  122poe    c31 1453   4.850   1.739   4.079 -0.2826 -0.4950  0.1908
  122poe     o2 1454   4.754   1.797   3.993  0.0906 -0.1951 -0.0230
  122poe    c23 1455   4.658   1.867   4.067 -0.0017  0.0343 -0.3554
  122poe    c23 1456   4.521   1.845   4.000 -0.4008  0.2909  0.3630
  122poe     o2 1457   4.553   1.834   3.863 -0.3279  0.0785  0.3952
  122poe    c23 1458   4.453   1.784   3.777  0.0348 -0.4854  0.3047
  122poe    c23 1459   4.502   1.795   3.631 -0.4157  0.3319  0.2133
  122poe     o2 1460   4.634   1.747   3.644 -0.4983  0.0615  0.0598
  122poe    c23 1461   4.708   1.833   3.560 -0.0716 -0.2621  0.1040
  122poe    c23 1462   4.857   1.824   3.600  0.1140 -0.6823 -0.6606
  122poe     o2 1463   4.859   1.856   3.737  0.0196  0.6066 -0.9471
  122poe    c31 1464   4.957   1.956   3.753  0.0992  0.3845  0.0191
  123poe    c31 1465   0.457   3.985   4.247 -0.4334  0.0969  0.3074
  123poe     o2 1466   0.430   4.103   4.320  0.1605  0.6242 -0.3156
  123poe    c23 1467   0.292   4.123   4.343  0.1162 -0.0350 -0.0011
  123poe    c23 1468   0.266   4.275   4.341 -0.4013 -0.1148  0.3762
  123poe     o2 1469   0.383   4.327   4.401  0.0707  0.3423 -0.9148
  123poe    c23 1470   0.391   4.467   4.420  0.1364  0.1544  0.5483
  123poe    c23 1471   0.521   4.498   4.496  0.4765  0.1315 -0.0156
  123poe     o2 1472   0.620   4.412   4.444  0.4153  0.2455 -0.3193
  123poe    c23 1473   0.718   4.386   4.542 -0.4330  0.4275  0.5981
  123poe    c23 1474   0.788   4.253   4.509 -0.7046  0.3215  0.4476
  123poe     o2 1475   0.681   4.174   4.462 -0.1450 -0.2906  0.1954
  123poe    c31 1476   0.726   4.040   4.459  0.4022 -0.1115  0.2734
  124poe    c31 1477   5.419   0.817   1.495 -0.0117 -0.2695 -0.1704
  124poe     o2 1478   5.327   0.915   1.539 -0.1204 -0.3663 -0.1820
  124poe    c23 1479   5.388   1.000   1.634  0.0654 -0.1488 -0.4973
  124poe    c23 1480   5.323   1.139   1.626  0.0911 -0.1378 -0.5192
  124poe     o2 1481   5.185   1.109   1.626 -0.0011  0.2132  0.5970
  124poe    c23 1482   5.097   1.214   1.660  0.2111  0.4769  0.3353
  124poe    c23 1483   4.951   1.163   1.664  0.5184 -0.4903 -0.1843
  124poe     o2 1484   4.915   1.105   1.541 -0.0522 -0.2468 -0.1366
  124poe    c23 1485   4.853   1.185   1.443  0.3040 -0.2294 -0.3516
  124poe    c23 1486   4.769   1.101   1.344  0.1050  0.0332 -0.4062
  124poe     o2 1487   4.666   1.032   1.412  0.5430  0.1498  0.3913
  124poe    c31 1488   4.593   0.944   1.330  0.1017  0.6308  0.2607
  125poe    c31 1489   2.932   5.512   2.463 -0.1909  0.0329  0.3557
  125poe     o2 1490   2.797   5.503   2.422 -0.3221 -0.2411  0.8329
  125poe    c23 1491   2.755   5.617   2.349 -0.0478 -0.2573  0.6435
  125poe    c23 1492   2.608   5.653   2.380 -0.0226 -0.0201  0.4867
  125poe     o2 1493   2.561   5.703   2.504 -0.2496 -0.0907  0.4290
  125poe    c23 1494   2.603   5.836   2.528  0.0503 -0.1010 -0.0295
  125poe    c23 1495   2.504   5.904   2.623 -0.3479  0.1334 -0.6044
  125poe     o2 1496   2.478   5.828   2.739 -0.0945  0.4384 -0.3446
  125poe    c23 1497   2.392   5.891   2.831 -0.8144 -0.6886 -0.2333
  125poe    c23 1498   2.375   5.800   2.954  0.3287 -0.8963 -0.2231
  125poe     o2 1499   2.377   5.666   2.909 -0.1822 -0.8232 -0.4749
  125poe    c31 1500   2.357   5.572   3.012 -0.2584 -0.6572 -0.3366
  126poe    c31 1501   2.912   0.644   1.998 -0.4374  0.5109  0.1666
  126poe     o2 1502   2.976   0.651   2.124 -0.2990  0.4992  0.0973
  126poe    c23 1503   2.953   0.535   2.201  0.4591 -0.0130 -0.4359
  126poe    c23 1504   3.013   0.557   2.341 -0.2990  0.3008 -0.1550
  126poe     o2 1505   2.966   0.682   2.384 -0.4293  0.1375  0.1791
  126poe    c23 1506   3.038   0.760   2.477  0.0754 -0.2436  0.1094
  126poe    c23 1507   3.129   0.843   2.384 -0.1477 -0.0485  0.0627
  126poe     o2 1508   3.051   0.901   2.282 -0.0669 -0.0082  0.0238
  126poe    c23 1509   3.118   0.981   2.187  0.2984 -0.2374  0.0865
  126poe    c23 1510   3.009   1.055   2.108  0.2163  0.1058  0.5192
  126poe     o2 1511   2.897   0.969   2.104  0.2223  0.1280 -0.3383
  126poe    c31 1512   2.786   1.017   2.031 -0.1298 -0.2640 -0.0641
  127poe    c31 1513   3.968   6.306   0.480 -0.2225  0.6229  0.2139
  127poe     o2 1514   3.989   6.249   0.353  0.1857  0.6479  0.2673
  127poe    c23 1515   3.864   6.219   0.294  0.5314 -0.0730 -0.1074
  127poe    c23 1516   3.882   6.166   0.151 -0.1139  0.2008 -0.2922
  127poe     o2 1517   3.937   6.270   0.072  0.4245  0.1776  0.0439
  127poe    c23 1518   3.979   6.229  -0.056 -0.1037 -0.0494 -0.0584
  127poe    c23 1519   4.031   6.355  -0.127 -0.0207 -0.0723 -0.0375
  127poe     o2 1520   4.120   6.408  -0.031  0.2033 -0.1369 -0.2093
  127poe    c23 1521   4.177   6.530  -0.075  0.8801 -0.4978 -0.3488
  127poe    c23 1522   4.259   6.583   0.043 -0.3247  0.0963  0.2362
  127poe     o2 1523   4.181   6.568   0.159 -0.3256 -0.2528  0.1913
  127poe    c31 1524   4.223   6.644   0.270  0.0931  0.0040 -0.1399
  128poe    c31 1525   2.895   0.102   2.747  0.1462 -0.0107 -0.3631
  128poe     o2 1526   2.978   0.012   2.817 -0.1933 -0.1889 -0.1845
  128poe    c23 1527   3.013  -0.090   2.727  0.7184  0.2358 -0.3287
  128poe    c23 1528   3.119  -0.188   2.780  0.0570  0.0132  0.6156
  128poe     o2 1529   3.067  -0.225   2.905 -0.7306  0.3812  0.4008
  128poe    c23 1530   3.160  -0.289   2.989 -0.4913  0.1436 -0.0438
  128poe    c23 1531   3.109  -0.272   3.133 -0.5026  0.2047 -0.0550
  128poe     o2 1532   3.087  -0.134   3.146 -0.1393  0.2609 -0.0331
  128poe    c23 1533   3.033  -0.102   3.273 -0.0433 -0.2405  0.1336
  128poe    c23 1534   2.971   0.037   3.251  0.1817 -0.1663 -0.0417
  128poe     o2 1535   2.918   0.038   3.120  0.1775 -0.3180 -0.0414
  128poe    c31 1536   2.825   0.143   3.104  0.1868 -0.2559  0.3011
  129poe    c31 1537   5.323   4.235   6.544  0.0636  0.4213 -0.4493
  129poe     o2 1538   5.340   4.276   6.677 -0.0806 -0.2959 -0.2013
  129poe    c23 1539   5.429   4.386   6.676  0.2615 -0.5584  0.6910
  129poe    c23 1540   5.412   4.452   6.815 -0.4250  0.3402  0.1942
  129poe     o2 1541   5.439   4.359   6.918  0.5326 -0.0185 -0.3601
  129poe    c23 1542   5.436   4.416   7.047 -0.8964 -0.5142 -0.1514
  129poe    c23 1543   5.477   4.296   7.135  0.5373  0.0275 -0.0564
  129poe     o2 1544   5.392   4.199   7.078  0.3492  0.1411  0.0316
  129poe    c23 1545   5.406   4.077   7.147  0.2177 -0.0065 -0.2048
  129poe    c23 1546   5.296   3.979   7.099  0.3062 -0.0194 -0.3831
  129poe     o2 1547   5.295   3.968   6.959 -0.0116  0.0510 -0.3856
  129poe    c31 1548   5.216   3.862   6.909  0.4943 -0.3394 -0.3580
  130poe    c31 1549   3.098   4.060   5.733  0.7002 -0.3792 -0.1866
  130poe     o2 1550   3.011   3.977   5.658  0.1678  0.4456 -0.5022
  130poe    c23 1551   2.992   4.021   5.526 -0.0795  0.1075 -0.5781
  130poe    c23 1552   2.928   3.908   5.443 -0.1674 -0.1333 -0.1842
  130poe     o2 1553   2.808   3.876   5.510 -0.2505 -0.0519 -0.2940
  130poe    c23 1554   2.760   3.753   5.458 -0.0229 -0.2983  0.0779
  130poe    c23 1555   2.684   3.688   5.575  0.0821  0.1104  0.3769
  130poe     o2 1556   2.770   3.708   5.684  0.2965  0.3585  0.1659
  130poe    c23 1557   2.731   3.629   5.795  0.1222  0.2543  0.0323
  130poe    c23 1558   2.860   3.626   5.880 -0.0176  0.0583  0.2376
  130poe     o2 1559   2.910   3.758   5.882  0.3379 -0.0500 -0.8649
  130poe    c31 1560   3.012   3.771   5.979 -0.3494  0.2225 -0.1691
  131poe    c31 1561   5.158   4.449   1.192 -0.0117 -0.1917 -0.1579
  131poe     o2 1562   5.133   4.377   1.074 -0.0307 -0.2318 -0.1295
  131poe    c23 1563   5.154   4.452   0.956 -0.1678 -0.1885 -0.1260
  131poe    c23 1564   5.131   4.355   0.838  0.3990 -0.2756 -0.1644
  131poe     o2 1565   5.193   4.233   0.870  0.1987 -0.1955  0.5696
  131poe    c23 1566   5.173   4.122   0.784 -0.1917  0.7770 -0.6207
  131poe    c23 1567   5.083   4.037   0.876  0.8000 -0.0810 -0.4333
  131poe     o2 1568   5.142   4.047   1.004 -0.2372 -0.5030  0.0830
  131poe    c23 1569   5.084   3.962   1.101  0.1343 -0.6817  0.1510
  131poe    c23 1570   5.157   3.976   1.235 -0.1503 -0.1621  0.2521
  131poe     o2 1571   5.166   4.113   1.269  0.5994 -0.1621  0.0743
  131poe    c31 1572   5.145   4.131   1.407 -0.5804  0.5807 -0.1845
  132poe    c31 1573   4.877   3.570   1.929  0.0175 -0.0639  0.3141
  132poe     o2 1574   4.929   3.701   1.939 -0.0967 -0.0005  0.0936
  132poe    c23 1575   4.898   3.777   1.824  0.0250  0.4530  0.3562
  132poe    c23 1576   4.920   3.924   1.864 -0.0325  0.5499  0.0332
  132poe     o2 1577   5.040   3.925   1.938 -0.1734 -0.5399  0.3052
  132poe    c23 1578   5.086   4.052   1.981 -0.1350 -0.4408 -0.0248
  132poe    c23 1579   5.216   4.036   2.062 -0.0052 -0.1016 -0.1655
  132poe     o2 1580   5.182   3.939   2.158 -0.0384  0.0941  0.0212
  132poe    c23 1581   5.293   3.860   2.192 -0.1199  0.2697  0.7177
  132poe    c23 1582   5.262   3.715   2.233  0.4143 -0.0063  0.1589
  132poe     o2 1583   5.186   3.650   2.133  0.3273 -0.2067  0.3557
  132poe    c31 1584   5.179   3.509   2.138  0.1317 -0.1966  0.3777
  133poe    c31 1585   6.101   0.015   1.451 -0.5623 -0.0618  0.3963
  133poe     o2 1586   6.041  -0.005   1.577  0.0374 -0.0079  0.6980
  133poe    c23 1587   6.141  -0.027   1.673  0.6662  0.0565  0.0617
  133poe    c23 1588   6.075  -0.027   1.812  0.2564 -0.6481 -0.1320
  133poe     o2 1589   5.954  -0.098   1.797 -0.0391 -0.2182  0.1977
  133poe    c23 1590   5.863  -0.102   1.905 -0.1742 -0.2788  0.0817
  133poe    c23 1591   5.739  -0.172   1.845 -0.1480 -0.0934 -0.1913
  133poe     o2 1592   5.685  -0.100   1.736 -0.4520  0.1907  0.1417
  133poe    c23 1593   5.630  -0.186   1.639 -0.4194  0.1180  0.1874
  133poe    c23 1594   5.628  -0.112   1.504  0.1027 -0.2186 -0.0104
  133poe     o2 1595   5.764  -0.077   1.494  0.1100 -0.3009 -0.2035
  133poe    c31 1596   5.770  -0.020   1.365  0.2018  0.1966  0.0190
  134poe    c31 1597   4.265   2.679   1.440 -0.2142 -0.1814  0.0305
  134poe     o2 1598   4.344   2.566   1.411 -0.1003 -0.1352  0.1596
  134poe    c23 1599   4.246   2.470   1.377  0.0304 -0.2850  0.2000
  134poe    c23 1600   4.304   2.328   1.366 -0.3193 -0.4720  0.7212
  134poe     o2 1601   4.390   2.321   1.478 -0.0037  0.4239  0.5477
  134poe    c23 1602   4.465   2.203   1.488 -0.6905 -0.0358  0.3678
  134poe    c23 1603   4.595   2.237   1.564  0.2234  0.2285 -1.2483
  134poe     o2 1604   4.619   2.374   1.542  0.1175  0.5652  0.5667
  134poe    c23 1605   4.731   2.418   1.615  0.6247 -0.0582  0.1727
  134poe    c23 1606   4.732   2.561   1.559 -0.5299 -0.1039  0.0095
  134poe     o2 1607   4.605   2.619   1.540 -0.1385  0.5746 -0.5807
  134poe    c31 1608   4.616   2.757   1.510 -0.0851  0.8146  0.5158
  135poe    c31 1609   3.021   2.618   1.833  0.6063 -0.2827  0.0028
  135poe     o2 1610   2.974   2.566   1.710 -0.5184  0.2611  0.1839
  135poe    c23 1611   3.029   2.442   1.675 -0.3762  0.4461 -0.2528
  135poe    c23 1612   2.943   2.386   1.560  0.5195 -0.0886 -0.6800
  135poe     o2 1613   2.882   2.484   1.480  0.1328 -0.1191 -0.4278
  135poe    c23 1614   2.965   2.513   1.369  1.1259 -0.7747  0.1249
  135poe    c23 1615   2.936   2.662   1.342  0.3352 -0.7865  0.8501
  135poe     o2 1616   2.908   2.717   1.468  0.0571 -0.2844  0.5728
  135poe    c23 1617   2.835   2.838   1.460  0.1472 -0.2297  0.5748
  135poe    c23 1618   2.796   2.887   1.600  1.1560  0.3107  0.6768
  135poe     o2 1619   2.758   2.781   1.685  0.0979  0.0229 -0.1333
  135poe    c31 1620   2.726   2.841   1.808  0.0115 -0.0085 -0.1401
  136poe    c31 1621   5.423   4.930   1.100  0.2167  0.1303  0.4715
  136poe     o2 1622   5.319   5.024   1.113  0.2445  0.3392 -0.6957
  136poe    c23 1623   5.254   5.056   0.992 -0.3974 -0.3355 -0.5326
  136poe    c23 1624   5.217   5.205   0.993 -0.5064 -0.3645  0.0186
  136poe     o2 1625   5.158   5.225   1.120 -0.5154  0.4467 -0.1070
  136poe    c23 1626   5.156   5.359   1.165 -0.0342  0.4498 -0.0832
  136poe    c23 1627   5.100   5.351   1.309  0.1262  0.5839 -0.0134
  136poe     o2 1628   5.184   5.251   1.360 -0.6202  0.1381  0.3591
  136poe    c23 1629   5.161   5.207   1.492 -0.0061 -0.5307  0.2524
  136poe    c23 1630   5.284   5.121   1.526  0.3231 -0.0670  0.2420
  136poe     o2 1631   5.310   5.049   1.408  0.3186 -0.0763  0.2467
  136poe    c31 1632   5.375   4.927   1.436 -0.3624 -0.4003  0.4475
  137poe    c31 1633   6.509   4.658   4.177 -0.3912  0.0854 -0.0627
  137poe     o2 1634   6.423   4.588   4.264 -0.2983  0.0320 -0.0134
  137poe    c23 1635   6.408   4.456   4.214  0.3859 -0.0833  0.0836
  137poe    c23 1636   6.354   4.370   4.329 -0.0095  0.0753  0.0177
  137poe     o2 1637   6.265   4.444   4.410  0.0658  0.1529  0.0290
  137poe    c23 1638   6.239   4.389   4.537  0.0163  0.0895 -0.0084
  137poe    c23 1639   6.183   4.500   4.627 -0.1732 -0.2505  0.2972
  137poe     o2 1640   6.260   4.611   4.589 -0.5897 -0.0148  0.1285
  137poe    c23 1641   6.187   4.730   4.613 -0.5385  0.0737 -0.1566
  137poe    c23 1642   6.284   4.833   4.551 -0.4310 -0.1269 -0.3228
  137poe     o2 1643   6.317   4.805   4.416  0.2764 -0.1551 -0.1465
  137poe    c31 1644   6.390   4.920   4.379 -0.3935  0.0524 -0.8428
  138poe    c31 1645   5.665   3.130   4.041  0.3637  0.6687  0.3823
  138poe     o2 1646   5.746   3.016   4.061 -0.2616  0.1923  0.2221
  138poe    c23 1647   5.816   3.026   4.183  0.5909  0.3624 -0.2772
  138poe    c23 1648   5.828   2.885   4.242 -0.4789  0.3843  0.0053
  138poe     o2 1649   5.863   2.809   4.128 -0.2941 -0.1068  0.3820
  138poe    c23 1650   5.847   2.670   4.141 -0.1824 -0.1959 -0.4059
  138poe    c23 1651   5.882   2.610   4.003  0.9248 -0.3312 -0.0722
  138poe     o2 1652   5.816   2.702   3.920 -0.0142 -0.3831  0.5953
  138poe    c23 1653   5.798   2.677   3.783 -0.2098 -0.3407  0.6127
  138poe    c23 1654   5.724   2.795   3.715  0.5461 -0.2218 -0.0245
  138poe     o2 1655   5.758   2.913   3.784  0.6050 -0.2795  0.0452
  138poe    c31 1656   5.742   3.037   3.719  0.1830 -0.5134 -0.2996
  139poe    c31 1657   6.156   1.994   2.575  0.1155 -0.7353 -0.0382
  139poe     o2 1658   6.029   1.933   2.565 -0.1119 -0.3231  0.3144
  139poe    c23 1659   5.930   2.034   2.568  0.5374  0.3551 -0.5693
  139poe    c23 1660   5.810   1.972   2.495  0.2706  0.4116 -0.1809
  139poe     o2 1661   5.810   1.845   2.556  0.2647  0.3289 -0.3506
  139poe    c23 1662   5.718   1.760   2.491 -0.1494  0.2100  0.3812
  139poe    c23 1663   5.743   1.630   2.570  0.1158 -0.6388 -1.0824
  139poe     o2 1664   5.883   1.613   2.566  0.3042  0.3604  0.5467
  139poe    c23 1665   5.922   1.499   2.638  0.3813  0.4798  0.6947
  139poe    c23 1666   6.074   1.515   2.618  0.3443  0.6357  0.5367
  139poe     o2 1667   6.124   1.646   2.632  0.0036  0.8157  0.0925
  139poe    c31 1668   6.264   1.661   2.634  0.1471 -0.4185  0.2763
  140poe    c31 1669   4.319   0.277   5.609 -0.1755  0.4683  0.9060
  140poe     o2 1670   4.215   0.370   5.589 -0.0451  0.3352 -0.4857
  140poe    c23 1671   4.202   0.465   5.692  0.3666  0.1503 -0.2638
  140poe    c23 1672   4.098   0.566   5.641  0.1390 -0.1461 -0.3891
  140poe     o2 1673   3.995   0.490   5.582 -0.4065 -0.1192  0.4991
  140poe    c23 1674   3.881   0.553   5.530 -0.3378  0.1574  0.6821
  140poe    c23 1675   3.814   0.452   5.434  0.2214  0.6247 -0.2202
  140poe     o2 1676   3.914   0.410   5.344 -0.2760 -0.1469 -0.4146
  140poe    c23 1677   3.875   0.311   5.251  0.1371 -0.2881 -0.4386
  140poe    c23 1678   4.009   0.249   5.208  0.3848 -0.0960  0.0471
  140poe     o2 1679   4.090   0.224   5.321  0.3188  0.2566  0.1707
  140poe    c31 1680   4.188   0.126   5.296 -0.4501 -0.2986 -0.7424
  141poe    c31 1681   1.030   5.213   1.999 -0.0766 -0.2750 -0.3138
  141poe     o2 1682   0.921   5.212   2.088  0.0493  0.6964 -0.1411
  141poe    c23 1683   0.797   5.191   2.024 -0.0419  0.1137  0.2195
  141poe    c23 1684   0.682   5.186   2.126 -0.2474  0.3560  0.0016
  141poe     o2 1685   0.719   5.113   2.241  0.0674  0.0114 -0.3145
  141poe    c23 1686   0.620   5.121   2.341 -0.0074 -0.5044 -0.3468
  141poe    c23 1687   0.680   5.046   2.461  0.1410  0.4000  0.1511
  141poe     o2 1688   0.819   5.074   2.464  0.1530  0.3700 -0.1748
  141poe    c23 1689   0.881   5.052   2.588  0.0496 -0.0229 -0.1890
  141poe    c23 1690   0.921   4.908   2.623 -0.1689 -0.0999 -0.2532
  141poe     o2 1691   1.044   4.880   2.559  0.2425  0.5307  0.2593
  141poe    c31 1692   1.112   4.763   2.600  0.2899  0.4366 -0.0858
  142poe    c31 1693   4.039   1.418   4.309  0.6548 -0.1777  0.0725
  142poe     o2 1694   4.062   1.291   4.366 -0.0839 -0.3847 -0.0882
  142poe    c23 1695   3.978   1.192   4.312  0.0647 -0.2125 -0.6358
  142poe    c23 1696   3.979   1.064   4.398  0.4746  0.4000  0.2891
  142poe     o2 1697   3.952   1.105   4.530 -0.6970  0.0157  0.1858
  142poe    c23 1698   3.968   1.005   4.627 -0.3637  0.2138  0.3372
  142poe    c23 1699   3.975   1.072   4.766  0.1787  0.2288  0.3029
  142poe     o2 1700   4.068   1.177   4.749 -0.1538  0.4051 -0.4656
  142poe    c23 1701   4.059   1.268   4.856 -0.8063 -0.0816 -0.0997
  142poe    c23 1702   4.145   1.392   4.823 -0.4833 -0.1313  0.5307
  142poe     o2 1703   4.138   1.410   4.683 -0.1348  0.0902  0.5413
  142poe    c31 1704   4.210   1.527   4.652  0.5234 -0.4081  0.1644
  143poe    c31 1705   4.962   4.418   1.689  0.5293  0.2894 -0.6020
  143poe     o2 1706   4.938   4.490   1.808 -0.2847 -0.2144 -0.4556
  143poe    c23 1707   4.894   4.408   1.913  0.0222  0.2809  0.0610
  143poe    c23 1708   4.856   4.504   2.028 -0.2441  0.1436  0.0886
  143poe     o2 1709   4.947   4.611   2.041 -0.4520  0.3517 -0.1508
  143poe    c23 1710   4.918   4.704   2.143 -0.1334  0.0705  0.2004
  143poe    c23 1711   5.039   4.798   2.129  0.0970 -0.2808 -0.2021
  143poe     o2 1712   5.052   4.835   1.994 -0.1250  0.2532 -0.0816
  143poe    c23 1713   4.971   4.945   1.957 -0.7383 -0.0689  0.2888
  143poe    c23 1714   4.912   4.919   1.817 -0.3895  0.2553  0.0806
  143poe     o2 1715   4.892   4.781   1.800  0.1546  0.1968 -0.1236
  143poe    c31 1716   4.825   4.772   1.677 -0.2083 -0.4972  0.1172
  144poe    c31 1717   5.656   0.657   4.429  0.2277 -0.4055  0.2779
  144poe     o2 1718   5.691   0.790   4.396 -0.5265 -0.2025  0.2878
  144poe    c23 1719   5.612   0.824   4.284  0.0200 -0.0893 -0.0686
  144poe    c23 1720   5.634   0.972   4.250  0.2419  0.0262  0.5716
  144poe     o2 1721   5.760   1.021   4.290  0.5315  0.3907 -0.7599
  144poe    c23 1722   5.772   1.162   4.291  0.4840  0.3941  0.4242
  144poe    c23 1723   5.921   1.176   4.328  0.6326  0.1068 -0.0528
  144poe     o2 1724   5.957   1.093   4.436  0.2651  0.2107  0.1533
  144poe    c23 1725   5.927   1.151   4.561  0.0799  0.0007  0.2063
  144poe    c23 1726   5.888   1.042   4.662 -0.0105 -0.6795 -0.5459
  144poe     o2 1727   5.792   0.954   4.607 -0.4406 -0.5057 -0.0853
  144poe    c31 1728   5.726   0.894   4.716 -1.0576 -0.0548 -0.2042
  145poe    c31 1729   5.607   4.928   3.780 -0.0140  0.4510  0.4735
  145poe     o2 1730   5.596   5.040   3.696 -0.0518 -0.1313 -0.3156
  145poe    c23 1731   5.492   5.035   3.601 -0.2185  0.2409 -0.1570
  145poe    c23 1732   5.475   5.179   3.549 -0.1471  0.1122 -0.5463
  145poe     o2 1733   5.607   5.228   3.543 -0.2772  0.5207 -0.1273
  145poe    c23 1734   5.615   5.369   3.533  0.5170  0.5308  0.5192
  145poe    c23 1735   5.608   5.419   3.679  0.7159  1.0340  0.3588
  145poe     o2 1736   5.719   5.353   3.735 -0.2708 -0.6943  0.3760
  145poe    c23 1737   5.713   5.373   3.874 -0.7492 -0.2838  0.3010
  145poe    c23 1738   5.816   5.271   3.928 -0.3271  0.0148  0.0715
  145poe     o2 1739   5.823   5.151   3.855  0.1502 -0.1054  0.3087
  145poe    c31 1740   5.918   5.068   3.917  0.0503 -0.1549  0.3970
  146poe    c31 1741   3.934   2.554   3.325 -0.0323  0.1888  0.0829
  146poe     o2 1742   3.868   2.678   3.317 -0.1792  0.1007 -0.0857
  146poe    c23 1743   3.904   2.739   3.195 -0.0204 -0.3026 -0.2427
  146poe    c23 1744   3.836   2.877   3.197  0.1202 -0.2371  0.0925
  146poe     o2 1745   3.832   2.907   3.335 -0.3416  0.0256  0.0263
  146poe    c23 1746   3.758   3.024   3.359 -0.0857  0.2410 -0.2299
  146poe    c23 1747   3.630   3.004   3.441  0.2253 -0.2333  0.1446
  146poe     o2 1748   3.639   2.870   3.484  0.5921 -0.4359 -0.5442
  146poe    c23 1749   3.526   2.821   3.554  0.6362  0.5607  0.2471
  146poe    c23 1750   3.541   2.670   3.525  0.1071  0.4813  0.3758
  146poe     o2 1751   3.679   2.642   3.535 -0.0079 -0.1214  0.3040
  146poe    c31 1752   3.670   2.504   3.562 -0.1265 -0.2262 -0.2532
  147poe    c31 1753   4.172   1.491   1.303  0.7718 -0.5059  0.0023
  147poe     o2 1754   4.254   1.417   1.215  0.3495 -0.2468 -0.6164
  147poe    c23 1755   4.355   1.361   1.295 -0.6067 -0.5881  0.3869
  147poe    c23 1756   4.470   1.327   1.198 -0.1349  0.5727  0.5203
  147poe     o2 1757   4.429   1.231   1.103  0.3082 -0.0348  0.9349
  147poe    c23 1758   4.520   1.223   0.996 -0.5810 -0.3162  0.1865
  147poe    c23 1759   4.460   1.120   0.899  0.1508 -0.1769 -0.4219
  147poe     o2 1760   4.339   1.184   0.869  0.1945 -0.0397 -0.3049
  147poe    c23 1761   4.241   1.107   0.804 -0.3047 -0.0154  0.3978
  147poe    c23 1762   4.109   1.186   0.818 -0.1937  0.2498 -0.0092
  147poe     o2 1763   4.116   1.254   0.941  0.1156 -0.1537  0.1999
  147poe    c31 1764   3.989   1.308   0.970  0.0759 -0.2005  0.1098
  148poe    c31 1765   2.825   3.795   1.542 -0.1769  0.5071 -0.2485
  148poe     o2 1766   2.960   3.755   1.535 -0.3354 -0.0583 -0.0764
  148poe    c23 1767   3.040   3.866   1.569 -0.3756 -0.0711  0.0599
  148poe    c23 1768   3.183   3.828   1.527 -0.3540  0.0620  0.0139
  148poe     o2 1769   3.196   3.697   1.577  0.0908 -0.0158 -0.2970
  148poe    c23 1770   3.326   3.650   1.549 -0.0075 -0.1631 -0.5147
  148poe    c23 1771   3.305   3.516   1.476  0.1473 -0.3381 -0.2396
  148poe     o2 1772   3.173   3.524   1.427 -0.0723  0.1517  0.4068
  148poe    c23 1773   3.159   3.484   1.292  0.4233  0.7107  0.1882
  148poe    c23 1774   3.048   3.575   1.236 -0.0713  0.0146  0.0362
  148poe     o2 1775   2.946   3.565   1.333 -0.3313 -0.1389 -0.2511
  148poe    c31 1776   2.824   3.555   1.263 -0.8907  0.1463  0.6630
  149poe    c31 1777   0.842   3.271   4.164  0.3460 -0.1590  0.3024
  149poe     o2 1778   0.947   3.197   4.105 -0.0071 -0.1325 -0.3709
  149poe    c23 1779   0.923   3.059   4.124 -0.1008 -0.0632  0.0297
  149poe    c23 1780   1.019   2.987   4.027 -0.1225 -0.1299  0.0575
  149poe     o2 1781   1.138   3.056   4.058  0.1614 -0.5485 -0.0907
  149poe    c23 1782   1.247   3.039   3.970  0.2244 -0.2667 -0.0692
  149poe    c23 1783   1.352   3.148   4.002  0.0847 -0.2885  0.4802
  149poe     o2 1784   1.281   3.265   4.038 -0.0064 -0.1945  0.0107
  149poe    c23 1785   1.308   3.363   3.941 -0.4426  0.0598  0.1467
  149poe    c23 1786   1.230   3.487   3.991 -0.4575  0.2085 -0.2397
  149poe     o2 1787   1.106   3.439   4.037 -0.2279 -0.0630  0.0948
  149poe    c31 1788   1.023   3.550   4.063 -0.1180  0.0157  0.1114
  150poe    c31 1789   5.083   0.961   5.007  0.1399  0.1658  0.2264
  150poe     o2 1790   5.033   0.952   4.876 -0.5994 -0.0262  0.5122
  150poe    c23 1791   5.042   1.075   4.809 -0.2900 -0.2015  0.2277
  150poe    c23 1792   4.936   1.076   4.697  0.4303 -0.0564 -0.4720
  150poe     o2 1793   4.968   0.966   4.614  0.1559 -0.1111 -0.5074
  150poe    c23 1794   4.848   0.921   4.555 -0.1031 -0.1036  0.0069
  150poe    c23 1795   4.875   0.822   4.441 -0.0520  0.1549 -0.2075
  150poe     o2 1796   4.974   0.734   4.489 -0.4000 -0.2498 -0.2248
  150poe    c23 1797   5.018   0.649   4.385  0.1529  0.1135 -0.2947
  150poe    c23 1798   5.112   0.535   4.429  0.0798  0.1623 -0.0068
  150poe     o2 1799   5.241   0.578   4.468  0.0985 -0.5780  0.7510
  150poe    c31 1800   5.334   0.472   4.465  0.7496  0.0116 -0.3346
  151poe    c31 1801   5.288   0.560   5.951 -0.1030  0.1908 -0.0832
  151poe     o2 1802   5.166   0.550   6.020 -0.0815  0.0226 -0.0686
  151poe    c23 1803   5.072   0.490   5.933  0.5200  0.1163 -0.7895
  151poe    c23 1804   4.932   0.496   5.997  0.6919 -0.5171 -0.3373
  151poe     o2 1805   4.947   0.446   6.127 -0.6574  0.2889  0.1483
  151poe    c23 1806   4.849   0.479   6.224 -0.1754  1.0276  0.3938
  151poe    c23 1807   4.904   0.422   6.356  0.2036  0.0832 -0.1552
  151poe     o2 1808   5.038   0.467   6.357  0.1714  0.1900 -0.5895
  151poe    c23 1809   5.101   0.447   6.481 -0.0885  0.4805 -0.4081
  151poe    c23 1810   5.236   0.519   6.462  0.4665 -0.4032  0.1387
  151poe     o2 1811   5.263   0.519   6.324 -0.3176  0.1158 -0.0168
  151poe    c31 1812   5.387   0.575   6.291 -0.4936  0.5114 -0.0062
  152poe    c31 1813   1.844   2.758   1.497 -0.5749 -0.1650  0.8537
  152poe     o2 1814   1.911   2.641   1.538 -0.2173 -0.2432  0.0632
  152poe    c23 1815   2.049   2.664   1.522 -0.3481  0.4011 -0.1881
  152poe    c23 1816   2.115   2.525   1.515  0.5479  0.8097 -0.0173
  152poe     o2 1817   2.058   2.440   1.612  0.5972  0.1718 -0.5408
  152poe    c23 1818   2.100   2.306   1.596  0.1752  0.0119 -0.3172
  152poe    c23 1819   2.034   2.226   1.710 -0.0099  0.2473 -0.2568
  152poe     o2 1820   1.901   2.272   1.707 -0.0113  0.2417 -0.2891
  152poe    c23 1821   1.852   2.268   1.839  0.5817  0.7801 -0.0446
  152poe    c23 1822   1.739   2.373   1.850 -0.1566 -0.0403  0.2721
  152poe     o2 1823   1.775   2.487   1.777  0.0718  0.0217  0.4831
  152poe    c31 1824   1.686   2.594   1.800  0.5861  0.5061  0.2544
  153poe    c31 1825   5.141   4.941   5.763  0.0879 -0.2573  0.0519
  153poe     o2 1826   5.224   5.029   5.836  0.2409 -0.4125  0.0635
  153poe    c23 1827   5.146   5.137   5.883  0.7719  0.0744 -0.1692
  153poe    c23 1828   5.240   5.258   5.890  0.2972  0.4377 -0.0043
  153poe     o2 1829   5.364   5.223   5.948 -0.1127  0.1054  0.6785
  153poe    c23 1830   5.470   5.313   5.925  0.3794 -0.6377 -0.0407
  153poe    c23 1831   5.599   5.263   5.992  0.6714 -0.2709 -0.3274
  153poe     o2 1832   5.587   5.129   5.951  0.0034 -0.3479  0.1153
  153poe    c23 1833   5.671   5.049   6.031  0.0643 -0.4126 -0.0138
  153poe    c23 1834   5.626   4.905   6.001 -0.0122 -0.3051 -0.4256
  153poe     o2 1835   5.486   4.908   5.992 -0.0167 -0.0899 -0.2788
  153poe    c31 1836   5.433   4.787   5.942 -0.1257 -0.3186  0.3802
  154poe    c31 1837   3.111   4.489   6.609 -0.1921  0.2708 -0.0448
  154poe     o2 1838   3.075   4.399   6.506  0.0827  0.2593 -0.1320
  154poe    c23 1839   3.043   4.276   6.567  0.1884  0.0638 -0.4683
  154poe    c23 1840   2.942   4.195   6.484  0.1452 -0.7613  0.3845
  154poe     o2 1841   3.000   4.207   6.356 -0.0995 -0.3200  0.3148
  154poe    c23 1842   2.917   4.178   6.246  0.1372  0.6382 -0.1254
  154poe    c23 1843   2.988   4.242   6.125 -0.0454  0.2085 -0.4584
  154poe     o2 1844   3.045   4.364   6.165  0.5741 -0.1560 -0.2215
  154poe    c23 1845   3.100   4.447   6.065  0.1823  0.0384 -0.2798
  154poe    c23 1846   3.185   4.557   6.132 -0.4000  0.2139  0.1779
  154poe     o2 1847   3.214   4.523   6.265  0.4823  0.2802  0.0072
  154poe    c31 1848   3.287   4.627   6.327  0.3787  0.2564  0.1708
  155poe    c31 1849   4.336   0.077   5.923 -0.6165 -0.0584 -0.1069
  155poe     o2 1850   4.215   0.008   5.941 -0.1845 -0.7384  0.2372
  155poe    c23 1851   4.131   0.084   6.025 -0.1376 -0.5354  0.0997
  155poe    c23 1852   4.030  -0.017   6.083  0.0538 -0.5133  0.4703
  155poe     o2 1853   4.009  -0.113   5.982  0.3822 -0.2150  0.1193
  155poe    c23 1854   3.919  -0.211   6.027  0.2591 -0.2373 -0.1733
  155poe    c23 1855   3.926  -0.321   5.919  0.3435 -0.4083  0.0070
  155poe     o2 1856   4.061  -0.334   5.882  0.4181 -0.3078  0.2394
  155poe    c23 1857   4.076  -0.371   5.747  0.4314 -0.2900  0.2360
  155poe    c23 1858   4.218  -0.336   5.697  0.4250 -0.0818  0.3635
  155poe     o2 1859   4.240  -0.201   5.734  0.3451  0.0936 -0.2179
  155poe    c31 1860   4.356  -0.164   5.663  0.3583  0.1248 -0.1802
  156poe    c31 1861   2.376   1.770   4.545 -0.0954  0.2285 -0.6140
  156poe     o2 1862   2.240   1.763   4.510 -0.4083  0.5771  0.5150
  156poe    c23 1863   2.215   1.843   4.397 -0.0883 -0.6083 -0.4148
  156poe    c23 1864   2.069   1.819   4.357 -0.5067  0.7629  0.2356
  156poe     o2 1865   2.005   1.848   4.479 -0.3337  0.3422  0.4233
  156poe    c23 1866   1.866   1.872   4.475 -0.4505 -0.2481  0.7623
  156poe    c23 1867   1.818   1.832   4.616 -0.0091  0.0450  0.9950
  156poe     o2 1868   1.921   1.755   4.675  0.4770 -0.2414 -0.1933
  156poe    c23 1869   1.879   1.704   4.799 -0.1041  0.2051 -0.1969
  156poe    c23 1870   2.002   1.636   4.863 -0.5509  0.1040  0.5643
  156poe     o2 1871   2.124   1.689   4.816 -0.4941 -0.4007  0.1282
  156poe    c31 1872   2.231   1.614   4.868 -0.9434 -0.6319  0.7374
  157poe    c31 1873   0.259   5.140   0.067 -0.0482 -0.4414 -0.2698
  157poe     o2 1874   0.320   5.016   0.040  0.8773 -0.0322 -0.1041
  157poe    c23 1875   0.343   5.003  -0.098  0.3396  0.1269 -0.2127
  157poe    c23 1876   0.377   4.861  -0.148 -0.1657 -0.2937  0.6103
  157poe     o2 1877   0.399   4.785  -0.032  0.1948 -0.4881  0.4155
  157poe    c23 1878   0.412   4.647  -0.058 -0.3482 -0.3815 -0.4637
  157poe    c23 1879   0.453   4.571   0.069 -0.5825  0.0586 -0.1230
  157poe     o2 1880   0.413   4.646   0.181  0.3099  1.0886 -0.4739
  157poe    c23 1881   0.503   4.648   0.290  0.0631  0.0336 -0.2438
  157poe    c23 1882   0.455   4.757   0.387 -0.7203 -0.4488 -0.0744
  157poe     o2 1883   0.419   4.869   0.310  0.5871  0.1727  0.1721
  157poe    c31 1884   0.387   4.975   0.398 -0.0283  0.0629  0.0876
  158poe    c31 1885   1.750   5.286   4.553 -0.0108 -0.3172  0.0144
  158poe     o2 1886   1.750   5.424   4.582 -0.2730 -0.3797  0.3104
  158poe    c23 1887   1.666   5.448   4.693 -0.1996 -0.4056  0.3720
  158poe    c23 1888   1.713   5.585   4.745 -0.2641 -0.2483  0.0229
  158poe     o2 1889   1.735   5.654   4.624 -0.2872 -0.0588  0.1265
  158poe    c23 1890   1.753   5.794   4.638 -0.4436 -0.0406  0.1498
  158poe    c23 1891   1.767   5.869   4.505 -0.8134 -0.5568 -0.1863
  158poe     o2 1892   1.807   5.763   4.421 -0.1126 -0.3665 -0.0999
  158poe    c23 1893   1.790   5.795   4.285 -0.3297  0.1783  0.0503
  158poe    c23 1894   1.813   5.657   4.220  0.1679  0.0883  0.4130
  158poe     o2 1895   1.738   5.566   4.297 -0.1656 -0.0588 -0.0794
  158poe    c31 1896   1.721   5.452   4.215  0.1913 -0.3331  0.2249
  159poe    c31 1897   0.088   3.855   6.488 -0.4472 -0.0663 -0.3237
  159poe     o2 1898   0.156   3.887   6.369  0.1021  1.0031  0.2634
  159poe    c23 1899   0.203   3.765   6.318  0.0006  0.9746  0.2367
  159poe    c23 1900   0.207   3.790   6.166  0.3162 -0.4900 -0.0183
  159poe     o2 1901   0.278   3.911   6.149 -0.8199  0.1989  0.0142
  159poe    c23 1902   0.278   3.947   6.013 -0.8301  0.1351 -0.0025
  159poe    c23 1903   0.259   4.100   6.011 -0.5111  0.1698 -0.3806
  159poe     o2 1904   0.175   4.130   6.120  0.0403  0.0753  0.0789
  159poe    c23 1905   0.152   4.268   6.140 -0.0221  0.1811 -0.6761
  159poe    c23 1906   0.029   4.266   6.233  0.4843  0.3296  0.0028
  159poe     o2 1907   0.046   4.155   6.319  0.0057  0.1588 -0.1235
  159poe    c31 1908   0.023   4.200   6.451  0.2846  0.4058 -0.1585
  160poe    c31 1909   2.687   5.876   0.519  0.3517  0.3810  0.3236
  160poe     o2 1910   2.649   5.756   0.584 -0.3485  0.3619 -0.1078
  160poe    c23 1911   2.651   5.771   0.724 -0.4118 -0.2085 -0.0452
  160poe    c23 1912   2.562   5.663   0.789 -0.5665 -0.0908 -0.0585
  160poe     o2 1913   2.607   5.541   0.734  0.1138  0.0607  0.1466
  160poe    c23 1914   2.531   5.425   0.760 -0.1060  0.1750  0.0117
  160poe    c23 1915   2.577   5.330   0.649  0.1127  0.5640 -0.2312
  160poe     o2 1916   2.579   5.400   0.527 -0.1664  0.2960 -0.3892
  160poe    c23 1917   2.650   5.331   0.426 -0.5057  0.2083 -0.5703
  160poe    c23 1918   2.651   5.433   0.311 -0.2730  0.1644 -0.6070
  160poe     o2 1919   2.707   5.550   0.365  0.0321 -0.3426  0.1846
  160poe    c31 1920   2.718   5.642   0.259 -0.4473 -0.6618 -0.1417
  161poe    c31 1921   1.337   4.701   0.282  0.2061 -0.2590 -0.3987
  161poe     o2 1922   1.254   4.594   0.242  0.0894 -0.2831 -0.0942
  161poe    c23 1923   1.134   4.615   0.314  0.2034  0.2292 -0.0439
  161poe    c23 1924   1.034   4.502   0.283  0.0000  0.4053 -0.0354
  161poe     o2 1925   1.053   4.484   0.144  0.1857  0.0668  0.0321
  161poe    c23 1926   0.966   4.397   0.076 -0.0396  0.2152  0.1305
  161poe    c23 1927   0.994   4.438  -0.070  0.2319  0.4097  0.2389
  161poe     o2 1928   1.133   4.444  -0.090  0.2990 -0.4850  0.3927
  161poe    c23 1929   1.183   4.519  -0.199 -0.1621 -0.4405  0.2121
  161poe    c23 1930   1.334   4.520  -0.172 -0.1157 -0.1702 -0.0607
  161poe     o2 1931   1.354   4.562  -0.039  0.1658 -0.3168 -0.0561
  161poe    c31 1932   1.491   4.589  -0.023  0.2295 -0.2905 -0.6311
  162poe    c31 1933   0.099   3.471   1.132  0.1671 -0.0058 -0.7408
  162poe     o2 1934   0.027   3.354   1.163 -0.3872  0.3691 -0.5960
  162poe    c23 1935  -0.024   3.311   1.039 -0.1359  0.0860 -0.6015
  162poe    c23 1936  -0.069   3.164   1.055 -0.0061  0.0965 -0.1247
  162poe     o2 1937  -0.157   3.160   1.165 -0.4532 -0.3926 -0.4960
  162poe    c23 1938  -0.213   3.034   1.196 -0.1010 -0.3798  0.2265
  162poe    c23 1939  -0.278   3.068   1.332  0.1037 -0.2278  0.2862
  162poe     o2 1940  -0.188   3.147   1.406 -0.2185  0.2196  0.2033
  162poe    c23 1941  -0.247   3.199   1.523 -0.1946  0.2615  0.1968
  162poe    c23 1942  -0.145   3.300   1.579 -0.4183  0.5282  0.1297
  162poe     o2 1943  -0.082   3.362   1.469 -0.0387  0.6287  0.4013
  162poe    c31 1944   0.005   3.458   1.524  0.2461  0.4453  0.2743
  163poe    c31 1945   2.251   6.260   3.643  0.0268 -0.3714 -0.1492
  163poe     o2 1946   2.177   6.162   3.574 -0.4706 -0.1762  0.1014
  163poe    c23 1947   2.149   6.206   3.443 -0.4012  0.5996  0.3465
  163poe    c23 1948   2.202   6.091   3.356 -0.5312  0.2792  0.6907
  163poe     o2 1949   2.175   5.968   3.421  0.4795 -0.3796 -0.0962
  163poe    c23 1950   2.160   5.850   3.345  0.8138 -0.2659 -0.3402
  163poe    c23 1951   2.117   5.746   3.450 -0.1053  0.6183  0.1790
  163poe     o2 1952   2.045   5.809   3.554 -0.0658  0.3824  0.3492
  163poe    c23 1953   1.905   5.829   3.549 -0.0517  0.3585 -0.2716
  163poe    c23 1954   1.868   5.907   3.677 -0.1890  0.3282 -0.2927
  163poe     o2 1955   1.959   6.015   3.677 -0.3441  0.4590 -0.3047
  163poe    c31 1956   1.925   6.114   3.772  0.5190  0.0574  0.4454
  164poe    c31 1957   1.368   0.721   0.416 -0.3936 -0.0660  0.5259
  164poe     o2 1958   1.376   0.593   0.474  0.2324 -0.0310  0.5278
  164poe    c23 1959   1.506   0.554   0.512  0.1264  0.3451  1.2891
  164poe    c23 1960   1.497   0.423   0.593  0.0716 -0.4573  0.0166
  164poe     o2 1961   1.403   0.340   0.529  0.0642 -0.1538 -0.3693
  164poe    c23 1962   1.354   0.252   0.628  0.1715  0.0309 -0.1506
  164poe    c23 1963   1.221   0.201   0.568  0.1176  0.1632 -0.1433
  164poe     o2 1964   1.162   0.321   0.522 -0.2777  0.0922  0.1681
  164poe    c23 1965   1.023   0.320   0.500 -0.1516  0.1627 -0.6465
  164poe    c23 1966   0.983   0.445   0.419 -0.8732  0.1102 -0.3785
  164poe     o2 1967   1.103   0.510   0.383 -0.7289 -0.0013 -0.0995
  164poe    c31 1968   1.063   0.615   0.298 -0.1248  0.3575  0.0493
  165poe    c31 1969   4.183   5.577   4.321 -0.1905 -0.2142 -0.1185
  165poe     o2 1970   4.272   5.556   4.428 -0.0230 -0.2465 -0.2637
  165poe    c23 1971   4.236   5.656   4.521 -0.1481 -0.3201 -0.2325
  165poe    c23 1972   4.281   5.603   4.658 -0.0290 -0.5066 -0.3419
  165poe     o2 1973   4.415   5.560   4.646 -0.0358 -0.6605  0.1118
  165poe    c23 1974   4.475   5.512   4.764 -0.2575 -0.2276  0.4009
  165poe    c23 1975   4.613   5.466   4.714 -0.4698 -0.5522  0.1107
  165poe     o2 1976   4.591   5.420   4.583  0.6225  0.2019 -0.3564
  165poe    c23 1977   4.706   5.409   4.503  0.5452 -0.0447 -0.4341
  165poe    c23 1978   4.657   5.415   4.357 -0.8930 -1.0463 -0.0178
  165poe     o2 1979   4.548   5.504   4.354 -0.1246 -0.0963 -0.1716
  165poe    c31 1980   4.535   5.551   4.221 -0.0014  0.3074 -0.0429
  166poe    c31 1981   2.927   3.587   4.474 -0.1083  0.0646 -0.6729
  166poe     o2 1982   2.815   3.514   4.520 -0.0919  0.3426 -0.1829
  166poe    c23 1983   2.860   3.434   4.627 -0.2350 -0.3200 -0.6179
  166poe    c23 1984   2.750   3.344   4.688 -0.4111  0.0772 -0.3471
  166poe     o2 1985   2.641   3.433   4.696  0.1572  0.7787 -0.3210
  166poe    c23 1986   2.516   3.370   4.702  0.1915  0.6220 -1.1431
  166poe    c23 1987   2.412   3.482   4.681 -0.4474  0.3132  0.2503
  166poe     o2 1988   2.468   3.555   4.574 -0.3351  0.1872  0.2225
  166poe    c23 1989   2.402   3.677   4.546 -0.8893 -0.2498 -0.3931
  166poe    c23 1990   2.477   3.730   4.423 -0.3013 -0.1108  0.0190
  166poe     o2 1991   2.614   3.702   4.436 -0.3006 -0.3108 -0.4037
  166poe    c31 1992   2.684   3.780   4.340  0.0979  0.3515  0.4146
  167poe    c31 1993   1.019   0.510   1.225  0.4007  0.0722  0.2983
  167poe     o2 1994   0.978   0.380   1.258  0.0784  0.0230 -0.2752
  167poe    c23 1995   0.853   0.355   1.198 -0.3656 -0.3804  0.7876
  167poe    c23 1996   0.840   0.202   1.186 -0.5472 -0.2724 -0.5037
  167poe     o2 1997   0.856   0.152   1.317  0.2569 -0.0414 -0.5048
  167poe    c23 1998   0.875   0.012   1.319 -0.5330 -0.1466  0.1805
  167poe    c23 1999   0.891  -0.040   1.462  0.4145 -0.1505  0.0807
  167poe     o2 2000   0.959   0.060   1.534  0.0185 -0.2012  0.5312
  167poe    c23 2001   1.016   0.015   1.655  0.1769  0.0208  0.5387
  167poe    c23 2002   0.913  -0.006   1.767 -0.4971  0.2551 -0.0304
  167poe     o2 2003   0.845  -0.128   1.748 -0.3120  0.2188 -0.4587
  167poe    c31 2004   0.723  -0.131   1.818 -0.1612  0.4164 -0.1881
  168poe    c31 2005   1.278   6.020   0.427  0.0989 -0.2810  0.3497
  168poe     o2 2006   1.337   6.122   0.505  0.3734  0.0702 -0.3051
  168poe    c23 2007   1.347   6.235   0.422  0.2708  0.0253 -0.3786
  168poe    c23 2008   1.450   6.334   0.480 -0.3709  0.2931  0.3189
  168poe     o2 2009   1.409   6.356   0.614 -0.0873  0.4397  0.3810
  168poe    c23 2010   1.487   6.446   0.688  0.6470  0.4061 -0.3341
  168poe    c23 2011   1.485   6.400   0.835 -0.5620  0.2764 -0.3875
  168poe     o2 2012   1.485   6.259   0.844 -0.5254  0.2936 -0.0965
  168poe    c23 2013   1.409   6.205   0.949  0.0068 -0.0828  0.1027
  168poe    c23 2014   1.380   6.056   0.927  0.3013 -0.0856 -0.2744
  168poe     o2 2015   1.325   6.022   0.802 -0.1794 -0.0171 -0.0836
  168poe    c31 2016   1.279   5.890   0.788 -0.2753  0.0057  0.0209
  169poe    c31 2017   4.486   2.764   0.751  0.5427  0.2586  0.3648
  169poe     o2 2018   4.428   2.850   0.847 -0.1606  0.4865 -0.2564
  169poe    c23 2019   4.523   2.884   0.945 -0.0109  0.1838 -0.2929
  169poe    c23 2020   4.453   2.929   1.075 -0.2083  0.1244 -0.3777
  169poe     o2 2021   4.353   3.018   1.032 -0.5574 -0.3394 -0.5301
  169poe    c23 2022   4.288   3.095   1.131 -0.2591 -0.2630 -0.3941
  169poe    c23 2023   4.205   3.187   1.040  0.0314 -0.1354 -0.5342
  169poe     o2 2024   4.121   3.097   0.971  0.1241 -0.5862 -0.0684
  169poe    c23 2025   4.055   3.160   0.863  0.0177 -0.2802  0.1710
  169poe    c23 2026   4.034   3.045   0.762 -0.1732  0.1997 -0.3423
  169poe     o2 2027   4.153   2.971   0.746 -0.2885 -0.0104 -0.2264
  169poe    c31 2028   4.148   2.901   0.624  0.4540  0.0568 -0.2994
  170poe    c31 2029   3.973   2.044   4.993 -0.2576  0.1037 -0.0301
  170poe     o2 2030   3.834   2.024   4.994 -0.2564  0.0748 -0.3058
  170poe    c23 2031   3.802   1.918   4.907 -0.1700 -0.1068 -0.1160
  170poe    c23 2032   3.663   1.863   4.944 -0.3411  0.3424 -0.0922
  170poe     o2 2033   3.571   1.969   4.931 -0.4533  0.2418 -0.1160
  170poe    c23 2034   3.444   1.934   4.982 -0.1332  0.4000  0.8147
  170poe    c23 2035   3.381   2.064   5.036 -0.4472  0.1768  0.9835
  170poe     o2 2036   3.502   2.106   5.094  0.0637 -0.4794  0.4139
  170poe    c23 2037   3.495   2.228   5.164  0.5003 -0.1933 -0.0367
  170poe    c23 2038   3.636   2.272   5.207  0.2628  0.1333  0.4197
  170poe     o2 2039   3.732   2.258   5.105  0.1098 -0.2647  0.3302
  170poe    c31 2040   3.842   2.343   5.130  0.0013 -0.0528  0.0929
  171poe    c31 2041   3.783   0.719   3.881  0.2296 -0.4843 -0.1075
  171poe     o2 2042   3.673   0.746   3.966  0.5028 -0.0004  0.0945
  171poe    c23 2043   3.689   0.876   4.018 -0.2515  0.0363  0.2420
  171poe    c23 2044   3.596   0.896   4.139 -0.1589 -0.2355  0.3600
  171poe     o2 2045   3.473   0.835   4.105 -0.2719  0.0426  0.2693
  171poe    c23 2046   3.371   0.814   4.201 -0.1246  0.2648  0.4773
  171poe    c23 2047   3.260   0.735   4.129  0.1214  0.2578  0.0999
  171poe     o2 2048   3.324   0.629   4.061 -0.0560  0.1371  0.1178
  171poe    c23 2049   3.243   0.538   3.991 -0.0963  0.3016 -0.0526
  171poe    c23 2050   3.332   0.455   3.897 -0.1366 -0.3530  0.4734
  171poe     o2 2051   3.453   0.525   3.873 -0.2699 -0.3440 -0.2063
  171poe    c31 2052   3.542   0.457   3.787  0.0201 -0.3698  0.1142
  172poe    c31 2053   0.462   1.460   0.410 -0.5860  0.1314 -0.3584
  172poe     o2 2054   0.589   1.467   0.349 -0.1620 -0.0646  0.4865
  172poe    c23 2055   0.656   1.588   0.376 -0.1009  0.0927 -0.3183
  172poe    c23 2056   0.744   1.621   0.254 -0.4154 -0.0698 -0.5906
  172poe     o2 2057   0.800   1.494   0.224 -0.1735  0.0072 -0.4698
  172poe    c23 2058   0.940   1.497   0.238 -0.1585 -0.1396 -0.5901
  172poe    c23 2059   0.972   1.382   0.335  0.0805  0.3891 -0.0282
  172poe     o2 2060   0.889   1.277   0.289  0.4010 -0.0921  0.4844
  172poe    c23 2061   0.862   1.171   0.378  0.6078 -0.2121  0.4039
  172poe    c23 2062   0.748   1.099   0.305  0.5040  0.3310  0.0230
  172poe     o2 2063   0.648   1.197   0.288  0.1369 -0.1306 -0.5303
  172poe    c31 2064   0.521   1.135   0.275 -0.1139  0.2942 -0.1490
  173poe    c31 2065   0.449   6.045   6.233 -0.2390  0.4174  0.5563
  173poe     o2 2066   0.327   5.975   6.225 -0.1410  0.3023 -0.0006
  173poe    c23 2067   0.259   5.960   6.348 -0.0236 -0.3410 -0.0056
  173poe    c23 2068   0.116   5.912   6.315 -0.2011  0.5683 -0.6185
  173poe     o2 2069   0.137   5.815   6.214  0.5222  0.1187 -0.0509
  173poe    c23 2070   0.017   5.769   6.154  0.5717 -0.0051 -0.0555
  173poe    c23 2071   0.057   5.694   6.026  0.6202 -0.0014 -0.0425
  173poe     o2 2072   0.170   5.758   5.973  0.1956  0.6759 -0.1441
  173poe    c23 2073   0.239   5.666   5.891 -0.4208 -0.2478  0.3525
  173poe    c23 2074   0.360   5.743   5.834 -0.2051 -0.7752  0.0832
  173poe     o2 2075   0.402   5.834   5.934 -0.2377 -0.2102 -0.4080
  173poe    c31 2076   0.524   5.897   5.904 -0.1228 -0.3095 -0.1554
  174poe    c31 2077   5.421   5.412   0.101 -0.0423 -0.4016  0.1230
  174poe     o2 2078   5.390   5.510   0.198 -0.4868 -0.1827 -0.2376
  174poe    c23 2079   5.288   5.470   0.286  0.2019 -0.7295  0.3290
  174poe    c23 2080   5.290   5.575   0.398  0.3858 -0.4932  0.1068
  174poe     o2 2081   5.305   5.702   0.340 -0.0003 -0.3420  0.3279
  174poe    c23 2082   5.331   5.786   0.450 -0.4185  0.4918 -0.2033
  174poe    c23 2083   5.408   5.901   0.381  0.8047  0.0314  0.3525
  174poe     o2 2084   5.498   5.833   0.296  0.1545  0.1375 -0.4417
  174poe    c23 2085   5.587   5.919   0.228  0.1082  0.1320 -0.5096
  174poe    c23 2086   5.688   5.818   0.170  0.2026 -0.0519 -0.0296
  174poe     o2 2087   5.618   5.706   0.123  0.2135 -0.1677  0.2300
  174poe    c31 2088   5.663   5.677  -0.007  0.0516  0.5630  0.0059
  175poe    c31 2089   1.434   4.202   5.240 -0.0020  0.0201 -0.3407
  175poe     o2 2090   1.502   4.237   5.122 -0.2556 -0.0038 -0.4952
  175poe    c23 2091   1.637   4.244   5.161 -0.4654 -0.0136  0.2363
  175poe    c23 2092   1.706   4.301   5.036 -0.0935 -0.1270  0.3872
  175poe     o2 2093   1.634   4.413   4.988  0.6316 -0.0413 -0.5358
  175poe    c23 2094   1.698   4.464   4.874  0.3105  0.2575 -0.5815
  175poe    c23 2095   1.618   4.591   4.838 -0.0678  0.0286 -0.5502
  175poe     o2 2096   1.485   4.544   4.851 -0.1345  0.3544 -0.0263
  175poe    c23 2097   1.386   4.645   4.854 -0.0616  0.4162  0.2683
  175poe    c23 2098   1.258   4.569   4.895  0.0664  0.1212  0.1263
  175poe     o2 2099   1.276   4.477   5.000 -0.2386 -0.2915 -0.1791
  175poe    c31 2100   1.169   4.385   5.001 -0.5062  0.0204  0.3384
  176poe    c31 2101   2.342   1.726   2.500 -0.4214 -0.1355 -0.2671
  176poe     o2 2102   2.420   1.775   2.393 -0.5993 -0.1742 -0.4149
  176poe    c23 2103   2.503   1.669   2.349  0.4428  0.0768  0.8990
  176poe    c23 2104   2.577   1.705   2.219  0.0014 -0.2005  0.5729
  176poe     o2 2105   2.619   1.840   2.226 -0.1027 -0.1095 -0.4039
  176poe    c23 2106   2.674   1.893   2.107  0.4772 -0.5322 -0.3284
  176poe    c23 2107   2.645   2.044   2.100  0.2669 -0.5616 -0.1181
  176poe     o2 2108   2.515   2.062   2.150  0.2275 -0.4512 -0.2629
  176poe    c23 2109   2.416   2.061   2.049 -0.1167  0.5838  0.0495
  176poe    c23 2110   2.281   2.067   2.123 -0.0723  0.0569  0.1710
  176poe     o2 2111   2.291   1.973   2.229  0.1374 -0.2515 -0.1201
  176poe    c31 2112   2.188   1.987   2.324 -0.0535 -0.5230 -0.2868
  177poe    c31 2113   0.217   5.570   3.476  0.2010  0.1061  0.1591
  177poe     o2 2114   0.233   5.430   3.481  0.0467  0.0813 -0.0171
  177poe    c23 2115   0.114   5.366   3.521 -0.1946  0.3481 -0.3128
  177poe    c23 2116   0.131   5.213   3.518  0.0065  0.3740 -0.4491
  177poe     o2 2117   0.204   5.165   3.629 -0.2475  0.2317 -0.3450
  177poe    c23 2118   0.208   5.025   3.613 -0.1732  0.1061  0.7351
  177poe    c23 2119   0.321   4.978   3.706  0.2920  0.1679  0.2058
  177poe     o2 2120   0.298   5.034   3.833 -0.1510 -0.0832  0.2375
  177poe    c23 2121   0.388   4.981   3.928 -0.0460 -0.4513 -0.0664
  177poe    c23 2122   0.333   4.996   4.071  0.5481  0.3029  0.0914
  177poe     o2 2123   0.330   5.134   4.099  0.8867  0.3230  0.0350
  177poe    c31 2124   0.239   5.168   4.202  0.2301 -0.4368 -0.2821
  178poe    c31 2125   5.885   3.157   1.303 -0.6449  0.1650  0.0951
  178poe     o2 2126   5.886   3.080   1.185  0.0301  0.0311  0.1850
  178poe    c23 2127   5.803   3.137   1.086 -0.3412 -0.3015  0.3031
  178poe    c23 2128   5.851   3.092   0.947  0.2063  0.2615  0.3061
  178poe     o2 2129   5.875   2.954   0.962  0.2575  0.2266 -0.0869
  178poe    c23 2130   5.950   2.901   0.855 -0.3007 -0.5325 -0.1065
  178poe    c23 2131   6.028   2.781   0.912  0.6545  0.2393  0.2354
  178poe     o2 2132   6.048   2.811   1.048  0.1124  0.3199  0.2967
  178poe    c23 2133   6.075   2.691   1.117 -0.0640 -0.0787 -0.3212
  178poe    c23 2134   6.116   2.744   1.255 -0.4610 -0.8607  0.1055
  178poe     o2 2135   6.026   2.849   1.282  0.1314 -0.3491  0.1063
  178poe    c31 2136   6.006   2.864   1.421  0.3671 -0.5397  0.1626
  179poe    c31 2137   1.193   3.169   5.742  0.5522  0.1184 -0.7588
  179poe     o2 2138   1.257   3.060   5.803 -0.3928  0.2082  0.4291
  179poe    c23 2139   1.306   3.096   5.930 -0.0317  0.0622  0.3336
  179poe    c23 2140   1.391   2.985   5.993 -0.0063 -0.0283  0.1413
  179poe     o2 2141   1.509   2.951   5.924 -0.1847 -0.7471  0.1851
  179poe    c23 2142   1.580   2.846   5.986  0.1739 -0.6144  0.0026
  179poe    c23 2143   1.733   2.863   5.974  0.1382 -0.3148 -0.0310
  179poe     o2 2144   1.765   2.872   5.837  0.3211 -0.0918  0.0263
  179poe    c23 2145   1.882   2.950   5.824  0.2535 -0.0006 -0.0380
  179poe    c23 2146   1.924   2.962   5.676 -0.0345  0.0439 -0.1160
  179poe     o2 2147   1.818   3.011   5.598 -0.5222 -0.5926  0.1322
  179poe    c31 2148   1.852   3.014   5.461 -0.2466 -0.2359  0.2069
  180poe    c31 2149   0.730   3.741   5.364  0.2340  0.3274  0.2275
  180poe     o2 2150   0.868   3.733   5.336  0.2264  0.5112  0.1335
  180poe    c23 2151   0.882   3.730   5.196 -0.5538  0.5668  0.0476
  180poe    c23 2152   0.990   3.835   5.165  0.2789 -0.1887  0.3234
  180poe     o2 2153   1.095   3.794   5.249  0.6080 -0.4572 -0.2206
  180poe    c23 2154   1.203   3.881   5.222  0.3604 -0.2149 -0.4241
  180poe    c23 2155   1.303   3.873   5.338 -0.0725 -0.2076 -0.0461
  180poe     o2 2156   1.226   3.858   5.455 -0.2913 -0.2099 -0.1915
  180poe    c23 2157   1.277   3.759   5.541  0.2095  0.1256 -0.0944
  180poe    c23 2158   1.167   3.701   5.632  0.1138  0.3931 -0.0391
  180poe     o2 2159   1.038   3.705   5.574 -0.0929 -0.0627  0.3840
  180poe    c31 2160   0.943   3.632   5.649 -0.5866 -0.0822 -0.2564
  181poe    c31 2161   0.353   4.409   1.875  0.5552 -0.0520 -0.2169
  181poe     o2 2162   0.290   4.534   1.883  0.3216 -0.1678 -0.2413
  181poe    c23 2163   0.174   4.503   1.959  0.3334  0.3607 -0.0024
  181poe    c23 2164   0.066   4.612   1.947  0.4381  0.4407 -0.2373
  181poe     o2 2165   0.136   4.733   1.967  0.4276  0.3555  0.3210
  181poe    c23 2166   0.042   4.836   1.948  0.1270  0.0219 -0.0128
  181poe    c23 2167   0.119   4.969   1.950  0.4923 -0.1915  0.2319
  181poe     o2 2168   0.238   4.937   1.882  0.3485 -0.5333  0.1409
  181poe    c23 2169   0.342   5.023   1.923 -0.2128  0.0767  0.3029
  181poe    c23 2170   0.460   4.974   1.837 -0.2360  0.1465  0.2312
  181poe     o2 2171   0.472   4.834   1.850  0.3250  0.1637 -0.0683
  181poe    c31 2172   0.601   4.792   1.811  0.0137 -0.5689 -0.3155
  182poe    c31 2173   0.114   3.934   5.173 -0.3619 -0.3226 -0.5324
  182poe     o2 2174   0.247   3.976   5.149 -0.3700  0.3440  0.5314
  182poe    c23 2175   0.338   3.940   5.250 -0.1794  0.3705  0.3700
  182poe    c23 2176   0.475   3.997   5.211 -0.4544  0.3673 -0.6327
  182poe     o2 2177   0.449   4.123   5.155 -0.2564  0.6659 -0.0641
  182poe    c23 2178   0.573   4.184   5.127  0.0592  0.0835  0.0639
  182poe    c23 2179   0.534   4.315   5.057 -0.3358  0.2645  0.6180
  182poe     o2 2180   0.435   4.280   4.963  0.2020  0.3090  0.0229
  182poe    c23 2181   0.363   4.379   4.893  0.0749  0.1612 -0.0552
  182poe    c23 2182   0.243   4.302   4.835  0.0863  0.2755 -0.2294
  182poe     o2 2183   0.184   4.224   4.936 -0.0199  0.3624 -0.2229
  182poe    c31 2184   0.077   4.160   4.870 -0.2319  0.1204  0.3434
  183poe    c31 2185   4.691   3.327   2.195 -0.6049  0.6287  0.1649
  183poe     o2 2186   4.707   3.218   2.283 -0.1522  0.0949 -0.5686
  183poe    c23 2187   4.758   3.274   2.402 -0.1494 -0.1002 -0.4783
  183poe    c23 2188   4.724   3.175   2.515  0.2501 -0.1388 -0.3912
  183poe     o2 2189   4.760   3.046   2.471  0.0305 -0.3197 -0.0423
  183poe    c23 2190   4.720   2.930   2.540 -0.0577 -0.1559  0.1862
  183poe    c23 2191   4.689   2.814   2.443  0.2914  0.1215 -0.2613
  183poe     o2 2192   4.600   2.863   2.346  0.3372  0.3654 -0.1816
  183poe    c23 2193   4.585   2.788   2.227  0.0713  0.3881 -0.1634
  183poe    c23 2194   4.506   2.873   2.127 -0.4651  0.1229  0.0331
  183poe     o2 2195   4.550   3.007   2.132  0.5393 -0.1955 -0.0781
  183poe    c31 2196   4.508   3.071   2.013  0.0142 -0.0826  0.1627
  184poe    c31 2197   6.443   2.560   0.565 -0.2545  0.4036  0.2883
  184poe     o2 2198   6.570   2.567   0.625  0.1808 -0.1915 -0.5380
  184poe    c23 2199   6.548   2.592   0.762  0.0282  0.5074 -0.6852
  184poe    c23 2200   6.668   2.677   0.806  0.3748 -0.4600  0.2768
  184poe     o2 2201   6.783   2.616   0.752  0.3669  0.0541 -0.3267
  184poe    c23 2202   6.897   2.686   0.796  0.0641  0.1797  0.2590
  184poe    c23 2203   7.002   2.645   0.692 -0.0455  0.5316  0.0069
  184poe     o2 2204   6.932   2.638   0.570 -0.1848  0.3600  0.0974
  184poe    c23 2205   7.005   2.608   0.454  0.0822  0.2714  0.2876
  184poe    c23 2206   6.893   2.616   0.348  0.1216  0.5947  0.2701
  184poe     o2 2207   6.773   2.556   0.389  0.3433 -0.1147 -0.0944
  184poe    c31 2208   6.689   2.535   0.278 -0.3207 -0.1825  0.4106
  185poe    c31 2209   1.719   3.230   5.974 -0.2116 -0.2457 -0.2832
  185poe     o2 2210   1.703   3.189   5.840  0.1436  0.3068 -0.4979
  185poe    c23 2211   1.591   3.251   5.782  0.0546  0.6454  0.0301
  185poe    c23 2212   1.574   3.194   5.640 -0.0073 -0.0710  0.3204
  185poe     o2 2213   1.534   3.060   5.655 -0.3143  0.0462  0.5553
  185poe    c23 2214   1.467   3.017   5.538  0.5443 -0.0299  0.0886
  185poe    c23 2215   1.431   2.870   5.565  0.2827  0.0664  0.2650
  185poe     o2 2216   1.550   2.816   5.618  0.3045 -0.0041  0.1446
  185poe    c23 2217   1.532   2.680   5.587 -0.6948  0.1351  0.0797
  185poe    c23 2218   1.646   2.590   5.637 -0.5112  0.2478 -0.1350
  185poe     o2 2219   1.765   2.628   5.571 -0.4380 -0.7303 -0.5875
  185poe    c31 2220   1.880   2.569   5.627 -0.0833  0.4395 -0.0523
  186poe    c31 2221   0.380   0.084   4.069 -0.6990 -0.2094  0.0462
  186poe     o2 2222   0.394   0.057   4.207  0.4915  0.0158 -0.0195
  186poe    c23 2223   0.437   0.171   4.278 -0.3627  0.5418 -0.3239
  186poe    c23 2224   0.389   0.151   4.422  0.5883 -0.4763 -0.1348
  186poe     o2 2225   0.419   0.017   4.455 -0.0653 -0.5922  0.0208
  186poe    c23 2226   0.362  -0.028   4.576  0.2464 -0.1591  0.3352
  186poe    c23 2227   0.409  -0.174   4.576 -0.2800 -0.3341 -0.3388
  186poe     o2 2228   0.367  -0.217   4.448  0.2143  0.0968 -0.6508
  186poe    c23 2229   0.407  -0.348   4.414  0.6121  0.0075  0.1359
  186poe    c23 2230   0.343  -0.384   4.278  0.2216  0.3380  0.2307
  186poe     o2 2231   0.370  -0.275   4.193 -0.3295  0.3082  0.0144
  186poe    c31 2232   0.364  -0.294   4.054 -0.5747  0.5873 -0.0147
  187poe    c31 2233   0.520   5.432   2.507  0.5360 -0.4136 -0.1836
  187poe     o2 2234   0.656   5.448   2.538  0.3896  0.2127  0.1572
  187poe    c23 2235   0.723   5.475   2.417  0.0046 -0.6514 -0.2600
  187poe    c23 2236   0.875   5.451   2.423  0.0726 -0.1456  0.1241
  187poe     o2 2237   0.931   5.323   2.400  0.2039 -0.0830  0.0978
  187poe    c23 2238   1.067   5.353   2.381  0.1478 -0.0683 -0.2871
  187poe    c23 2239   1.145   5.220   2.378  0.2858 -0.0067  0.3983
  187poe     o2 2240   1.077   5.131   2.293  0.4043 -0.0497  0.3483
  187poe    c23 2241   1.148   5.009   2.291  0.3415 -0.0821 -0.1889
  187poe    c23 2242   1.056   4.917   2.209 -0.3240  0.3328  0.0828
  187poe     o2 2243   0.934   4.913   2.280 -0.5344  0.2337 -0.2841
  187poe    c31 2244   0.852   4.805   2.242 -0.1204 -0.2127  0.0858
  188poe    c31 2245   3.356   0.710   0.573 -0.1594  0.1418 -0.5231
  188poe     o2 2246   3.495   0.724   0.597 -0.1310  0.1228 -0.6730
  188poe    c23 2247   3.563   0.630   0.518  0.1209  0.2766 -0.6412
  188poe    c23 2248   3.711   0.668   0.531  0.1029  0.1442 -0.0323
  188poe     o2 2249   3.755   0.704   0.660 -0.2124  0.4985 -0.0210
  188poe    c23 2250   3.866   0.791   0.655 -0.1096  0.3624 -0.1229
  188poe    c23 2251   3.854   0.854   0.795 -0.2683  0.3400 -0.1260
  188poe     o2 2252   3.725   0.905   0.816 -0.0372  0.9362 -0.1342
  188poe    c23 2253   3.698   0.943   0.950 -0.3266  0.3247 -0.0171
  188poe    c23 2254   3.553   0.996   0.958 -0.2482  0.5604 -0.1549
  188poe     o2 2255   3.474   0.916   0.873  0.1850 -0.2915  0.2274
  188poe    c31 2256   3.337   0.930   0.901  0.0876 -0.5643 -0.1048
  189poe    c31 2257   5.535   6.059   4.128  0.7603  0.2018  0.8902
  189poe     o2 2258   5.668   6.077   4.086  0.1971  0.1943 -1.0000
  189poe    c23 2259   5.723   6.182   4.162 -0.2193 -0.0836 -0.3103
  189poe    c23 2260   5.868   6.151   4.203 -0.2901 -0.1529 -0.1076
  189poe     o2 2261   5.928   6.101   4.085  0.1582 -0.6795  0.3380
  189poe    c23 2262   6.047   6.033   4.116  0.4727  0.0277  0.7118
  189poe    c23 2263   6.074   5.959   3.983 -0.3482  0.0638  0.5231
  189poe     o2 2264   5.945   5.929   3.934 -0.0642 -0.0072 -0.1833
  189poe    c23 2265   5.949   5.920   3.793 -0.2518  0.1440 -0.1987
  189poe    c23 2266   5.806   5.869   3.766 -0.1838 -0.0256 -0.2423
  189poe     o2 2267   5.712   5.951   3.832  0.0943  0.0285  0.0845
  189poe    c31 2268   5.581   5.914   3.799  0.2901 -0.1364 -0.5076
  190poe    c31 2269   2.521   0.491   3.981  0.1382  0.3546 -0.2168
  190poe     o2 2270   2.504   0.441   3.850  0.3291  0.0485 -0.1248
  190poe    c23 2271   2.542   0.533   3.751 -0.1330  0.4526  0.0693
  190poe    c23 2272   2.455   0.538   3.624 -0.8706 -0.2777  0.5414
  190poe     o2 2273   2.442   0.399   3.599 -0.4818 -0.2453  0.1451
  190poe    c23 2274   2.332   0.366   3.518 -0.1503 -0.3389 -0.2684
  190poe    c23 2275   2.300   0.222   3.563 -0.0876 -0.1888  0.2603
  190poe     o2 2276   2.301   0.226   3.704 -0.4858 -0.0289  0.2617
  190poe    c23 2277   2.284   0.102   3.768 -0.2222 -0.1156  0.1660
  190poe    c23 2278   2.309   0.121   3.919  0.1375  0.6341  0.0177
  190poe     o2 2279   2.433   0.186   3.934  0.2258  0.3825  0.3803
  190poe    c31 2280   2.490   0.131   4.050  0.3007 -0.4609 -0.0467
  191poe    c31 2281   4.309   5.973   6.559  0.3233 -0.1715 -0.0735
  191poe     o2 2282   4.362   5.867   6.483  0.1233  0.0578 -0.5410
  191poe    c23 2283   4.499   5.856   6.514  0.0026 -0.1203 -0.0524
  191poe    c23 2284   4.568   5.725   6.471  0.5110  0.1610 -0.1033
  191poe     o2 2285   4.564   5.717   6.331  0.4142 -0.2591 -0.0772
  191poe    c23 2286   4.554   5.585   6.280  0.1260 -0.3279  0.1553
  191poe    c23 2287   4.451   5.585   6.166  0.2706 -0.4586  0.0249
  191poe     o2 2288   4.331   5.643   6.210  0.3618  0.0298 -0.3646
  191poe    c23 2289   4.229   5.653   6.113  0.1108  0.6717 -0.0446
  191poe    c23 2290   4.108   5.712   6.188  0.2158  0.3871  0.3553
  191poe     o2 2291   4.160   5.820   6.261  0.6145  0.6198 -0.2610
  191poe    c31 2292   4.042   5.875   6.317  0.1511 -0.3181 -0.3045
  192poe    c31 2293   2.025   0.841   4.351 -0.0054 -0.2781  0.8351
  192poe     o2 2294   1.907   0.765   4.337  0.1345 -0.3617  0.0302
  192poe    c23 2295   1.797   0.851   4.359  0.3491 -0.1041  0.1160
  192poe    c23 2296   1.672   0.761   4.356  0.3180 -0.0725  0.4132
  192poe     o2 2297   1.678   0.680   4.240  0.2578 -0.0486  0.3934
  192poe    c23 2298   1.582   0.578   4.254 -0.1392  0.2719  0.0212
  192poe    c23 2299   1.631   0.455   4.175  0.0059  0.2514  0.1427
  192poe     o2 2300   1.766   0.454   4.216  0.1405 -0.1613 -0.2975
  192poe    c23 2301   1.835   0.353   4.146  0.2204 -0.1748 -0.1976
  192poe    c23 2302   1.978   0.361   4.204  0.1015 -0.5703  0.1567
  192poe     o2 2303   2.000   0.493   4.249 -0.4236 -0.4797  0.1590
  192poe    c31 2304   2.136   0.503   4.284 -0.2790 -0.6969 -0.3232
  193poe    c31 2305   1.849   4.249   4.511 -0.1892  0.0329  0.4364
  193poe     o2 2306   1.778   4.143   4.450  0.1344  0.2798 -0.3718
  193poe    c23 2307   1.724   4.163   4.321 -0.7147  0.0498 -0.0561
  193poe    c23 2308   1.705   4.029   4.248  0.2255 -0.3430  0.4079
  193poe     o2 2309   1.649   3.968   4.362 -0.0155  0.0172  0.4842
  193poe    c23 2310   1.604   3.843   4.313  0.2451 -0.0585  0.4376
  193poe    c23 2311   1.532   3.769   4.427  0.0251 -0.0413  0.3111
  193poe     o2 2312   1.597   3.809   4.546  0.3984 -0.4194  0.2344
  193poe    c23 2313   1.702   3.721   4.581  0.4111 -0.3173  0.4555
  193poe    c23 2314   1.792   3.784   4.689  0.2299 -0.0714  0.4647
  193poe     o2 2315   1.829   3.910   4.638 -0.5007 -0.0275  0.0262
  193poe    c31 2316   1.924   3.970   4.724  0.5497 -0.8157 -0.5728
  194poe    c31 2317   6.097   3.988   2.063  0.4327 -0.2413  0.2560
  194poe     o2 2318   6.101   4.057   2.186 -0.3288  0.3351 -0.0318
  194poe    c23 2319   6.214   4.015   2.261 -0.3872  0.2683  0.0177
  194poe    c23 2320   6.284   4.126   2.341 -0.1568  0.0754  0.0841
  194poe     o2 2321   6.176   4.202   2.390 -0.1070  0.4648 -0.4052
  194poe    c23 2322   6.212   4.336   2.418  0.2370  0.1484  0.6945
  194poe    c23 2323   6.094   4.434   2.408 -0.0610 -0.2740  0.0294
  194poe     o2 2324   6.015   4.370   2.310 -0.3867  0.6660 -0.3268
  194poe    c23 2325   5.900   4.439   2.266 -0.8789  0.3240  0.3991
  194poe    c23 2326   5.866   4.383   2.127 -0.5065 -0.1953  0.5162
  194poe     o2 2327   5.873   4.242   2.133  0.0305 -0.1746  0.4001
  194poe    c31 2328   5.807   4.194   2.019 -0.0700  0.5788  0.1368
  195poe    c31 2329   3.697   1.806   5.814  1.0461  0.0331  0.2730
  195poe     o2 2330   3.769   1.897   5.733  0.2637 -0.1680 -0.6571
  195poe    c23 2331   3.700   2.018   5.752  0.5028 -0.1388  0.0340
  195poe    c23 2332   3.742   2.112   5.637 -0.1218  0.0305 -0.0577
  195poe     o2 2333   3.880   2.092   5.619 -0.0524  0.3533  0.1125
  195poe    c23 2334   3.944   2.180   5.529  0.9212  0.2567  0.6954
  195poe    c23 2335   4.092   2.137   5.534  0.8830  0.0069 -0.1474
  195poe     o2 2336   4.080   1.997   5.528  0.0071  0.0514  0.3661
  195poe    c23 2337   4.205   1.931   5.536  0.0695  0.1261  0.0399
  195poe    c23 2338   4.165   1.783   5.550 -0.2988  0.2198  0.0010
  195poe     o2 2339   4.068   1.762   5.650 -0.2310 -0.3851 -0.0546
  195poe    c31 2340   4.060   1.632   5.703 -0.3320 -0.1507  0.5230
  196poe    c31 2341   1.512   1.365   6.303  0.1891  0.5034 -0.2218
  196poe     o2 2342   1.585   1.343   6.421  0.1185 -0.3406 -0.3318
  196poe    c23 2343   1.604   1.204   6.438 -0.5505 -0.3983 -0.0440
  196poe    c23 2344   1.623   1.180   6.589 -0.0054  0.3171  0.0076
  196poe     o2 2345   1.712   1.284   6.622  0.1699  0.0294  0.4572
  196poe    c23 2346   1.717   1.292   6.762 -0.9042  0.4597  0.4751
  196poe    c23 2347   1.797   1.420   6.795 -0.5950  0.2584  0.5108
  196poe     o2 2348   1.743   1.523   6.714 -0.0925  0.4435  0.4093
  196poe    c23 2349   1.846   1.612   6.679  0.0529  0.5331  1.0610
  196poe    c23 2350   1.816   1.664   6.537 -0.6697 -0.2985  0.9046
  196poe     o2 2351   1.770   1.560   6.454 -0.4492  0.0045  0.4058
  196poe    c31 2352   1.780   1.600   6.319  0.0070 -0.2084  0.3750
  197poe    c31 2353   0.530   1.945   2.758  0.1887  0.2869 -0.1133
  197poe     o2 2354   0.642   1.982   2.680  0.0054 -0.1043 -0.5685
  197poe    c23 2355   0.603   2.098   2.610 -0.6572 -0.0645 -0.1507
  197poe    c23 2356   0.735   2.167   2.568 -0.7449 -0.0892 -0.4697
  197poe     o2 2357   0.824   2.065   2.530 -0.1109  0.3370 -0.1420
  197poe    c23 2358   0.954   2.113   2.504  0.1445 -0.2688  0.0008
  197poe    c23 2359   1.035   1.987   2.469  0.2688 -0.1568 -0.1187
  197poe     o2 2360   0.995   1.888   2.562 -0.3529 -0.0016 -0.2193
  197poe    c23 2361   1.026   1.761   2.510  0.2079  0.0222  0.0551
  197poe    c23 2362   0.936   1.663   2.587 -0.0618  0.1260 -0.1270
  197poe     o2 2363   0.813   1.727   2.612  0.0388  0.3803 -0.2745
  197poe    c31 2364   0.726   1.635   2.674 -0.2836  0.4726 -0.5847
  198poe    c31 2365   4.264   3.095   5.317 -0.4831  0.0388 -0.0344
  198poe     o2 2366   4.381   3.148   5.260 -0.3062 -0.6149 -0.2889
  198poe    c23 2367   4.489   3.149   5.350 -0.2966 -0.0092 -0.3053
  198poe    c23 2368   4.605   3.230   5.290  0.3600 -0.6848  0.0286
  198poe     o2 2369   4.587   3.201   5.153  0.1257 -0.7561  0.0756
  198poe    c23 2370   4.698   3.249   5.081  0.2215 -0.8042  0.1907
  198poe    c23 2371   4.671   3.188   4.943 -0.0202  0.0513 -0.1470
  198poe     o2 2372   4.535   3.191   4.905 -0.1236  0.3969  0.2441
  198poe    c23 2373   4.509   3.093   4.806  0.2517  0.0341  0.5027
  198poe    c23 2374   4.394   3.002   4.851  0.4817 -0.4335  0.1489
  198poe     o2 2375   4.396   2.992   4.991  0.2904 -0.3295  0.1599
  198poe    c31 2376   4.349   2.866   5.035  0.3456 -0.6173 -0.5906
  199poe    c31 2377   0.398   0.709   1.142  0.4570 -0.8956  0.4992
  199poe     o2 2378   0.476   0.698   1.025  0.0087 -0.4364  0.1551
  199poe    c23 2379   0.608   0.677   1.068  0.0785  0.8238  0.6070
  199poe    c23 2380   0.712   0.738   0.972  0.3857 -0.0734  0.3544
  199poe     o2 2381   0.664   0.721   0.840 -0.5089  0.5862  0.5859
  199poe    c23 2382   0.726   0.802   0.743  0.6576 -0.9040  0.0522
  199poe    c23 2383   0.637   0.796   0.617  0.0321 -0.3057  0.4558
  199poe     o2 2384   0.510   0.822   0.671 -0.2078 -0.4531 -0.0301
  199poe    c23 2385   0.403   0.786   0.586 -0.2802 -0.3453  0.0152
  199poe    c23 2386   0.282   0.817   0.676 -0.0878  0.4654  0.0062
  199poe     o2 2387   0.298   0.751   0.800  0.1358  0.3200 -0.1002
  199poe    c31 2388   0.171   0.755   0.860 -0.0373  0.0109 -0.4403
  200poe    c31 2389   5.374   2.280   4.720  0.2855  0.5639  0.1028
  200poe     o2 2390   5.487   2.307   4.801  0.0283  0.0422  0.6437
  200poe    c23 2391   5.467   2.418   4.886  0.0738  0.4014  0.1883
  200poe    c23 2392   5.594   2.440   4.970  0.5687 -0.0337 -0.4244
  200poe     o2 2393   5.626   2.310   5.014 -0.5030 -0.1984 -0.0823
  200poe    c23 2394   5.741   2.308   5.095 -0.3764  0.2097 -0.2450
  200poe    c23 2395   5.773   2.158   5.078 -0.0359  0.2561 -0.0351
  200poe     o2 2396   5.768   2.123   4.941 -0.3500 -0.1090  0.0696
  200poe    c23 2397   5.791   1.985   4.924 -0.2833 -0.0623 -0.2206
  200poe    c23 2398   5.734   1.956   4.784 -0.0736 -0.0060 -0.3177
  200poe     o2 2399   5.609   2.019   4.766 -0.1684 -0.0874  0.0506
  200poe    c31 2400   5.561   1.976   4.641 -0.3545 -0.4717  0.2512
  201poe    c31 2401   2.138   2.065   5.984  0.3315  0.6253 -0.7113
  201poe     o2 2402   2.158   1.940   5.920  0.1195  0.2180  0.0082
  201poe    c23 2403   2.064   1.842   5.956  0.1333  0.0185 -0.4907
  201poe    c23 2404   1.942   1.830   5.862  0.0682 -0.1343 -0.3874
  201poe     o2 2405   1.847   1.922   5.911  0.4300 -0.2504  0.5648
  201poe    c23 2406   1.717   1.895   5.862  0.2914  0.8601  0.3126
  201poe    c23 2407   1.642   1.804   5.960  0.0675  0.6336 -0.0676
  201poe     o2 2408   1.584   1.876   6.067 -0.4782  0.6273 -0.3547
  201poe    c23 2409   1.502   1.793   6.146 -0.1474  0.4542 -0.1929
  201poe    c23 2410   1.438   1.861   6.268  0.2112 -0.2248  0.3825
  201poe     o2 2411   1.434   1.999   6.242 -0.5899 -0.4183 -0.5976
  201poe    c31 2412   1.349   2.070   6.329 -0.1224 -0.3185 -0.2175
  202poe    c31 2413   2.046   3.646   2.494 -0.1519  0.3724 -0.2282
  202poe     o2 2414   1.924   3.593   2.540  0.1460 -0.1661 -0.0421
  202poe    c23 2415   1.822   3.623   2.448  0.1519 -0.5036 -0.1583
  202poe    c23 2416   1.695   3.592   2.530 -0.0374 -0.6820 -0.5150
  202poe     o2 2417   1.696   3.474   2.606  0.0807 -0.1561  0.3080
  202poe    c23 2418   1.666   3.357   2.534  0.6452 -0.2829  0.2772
  202poe    c23 2419   1.739   3.236   2.595  0.2192 -0.5092  0.3398
  202poe     o2 2420   1.868   3.283   2.626  0.1008  0.1304 -0.1311
  202poe    c23 2421   1.933   3.186   2.706 -0.4906  0.0647  0.2772
  202poe    c23 2422   2.050   3.262   2.770 -0.1814  0.2548 -0.5047
  202poe     o2 2423   2.017   3.388   2.825  0.0171 -0.0288  0.2779
  202poe    c31 2424   2.136   3.445   2.874 -0.0038  0.2193  0.0464
  203poe    c31 2425   0.668   6.236   2.273  0.0797 -0.2833 -0.1717
  203poe     o2 2426   0.786   6.171   2.230  0.1896 -0.2076  0.0128
  203poe    c23 2427   0.850   6.270   2.153 -0.0264  0.4206  0.6231
  203poe    c23 2428   0.988   6.233   2.094 -0.3210  0.1392  0.1017
  203poe     o2 2429   0.971   6.093   2.082  0.0742  0.0421  0.6470
  203poe    c23 2430   1.091   6.024   2.056 -0.3184 -0.2963 -0.3048
  203poe    c23 2431   1.046   5.879   2.031  0.4445 -0.6645  0.3803
  203poe     o2 2432   0.956   5.855   2.137  0.0215  0.5774  0.3195
  203poe    c23 2433   0.867   5.752   2.101  0.2122  0.4476  0.2185
  203poe    c23 2434   0.744   5.801   2.023  0.4901  0.1660 -0.4057
  203poe     o2 2435   0.711   5.924   2.084  0.4652 -0.0635  0.0515
  203poe    c31 2436   0.594   5.965   2.017  0.6871  0.3666 -0.0811
  204poe    c31 2437   3.966   1.169   5.429  0.0438  0.2371  0.4273
  204poe     o2 2438   3.883   1.117   5.531 -0.0275 -0.6625 -0.0735
  204poe    c23 2439   3.852   0.980   5.517 -0.6872 -0.4708 -0.5835
  204poe    c23 2440   3.785   0.923   5.644 -0.2907  0.3680  0.0168
  204poe     o2 2441   3.838   0.996   5.752  0.0833  0.0966  0.0200
  204poe    c23 2442   3.771   0.961   5.871 -0.4346 -0.1231 -0.3342
  204poe    c23 2443   3.807   1.071   5.973 -0.1865 -0.3197 -0.2090
  204poe     o2 2444   3.805   1.200   5.916  0.0116 -0.3923 -0.3837
  204poe    c23 2445   3.688   1.276   5.938  0.6559  0.4639  0.1339
  204poe    c23 2446   3.700   1.382   5.827  0.2639 -0.2023 -0.5552
  204poe     o2 2447   3.755   1.316   5.715  0.2423  0.1158 -0.7582
  204poe    c31 2448   3.718   1.383   5.597 -0.0606  0.2872 -0.5656
  205poe    c31 2449   4.852   0.734   0.377 -0.2349 -1.5295 -0.4859
  205poe     o2 2450   4.993   0.738   0.366 -0.2269 -0.2571 -0.1786
  205poe    c23 2451   5.029   0.772   0.233 -0.3301 -0.1355 -0.1753
  205poe    c23 2452   5.182   0.779   0.232 -0.3156 -0.3720  0.0747
  205poe     o2 2453   5.211   0.855   0.347 -0.1259 -0.2828 -0.0314
  205poe    c23 2454   5.350   0.854   0.373 -0.1616 -0.1666  0.1750
  205poe    c23 2455   5.358   0.907   0.517  0.0764  0.1761  0.0355
  205poe     o2 2456   5.247   0.842   0.575 -0.1399 -0.0387 -0.6111
  205poe    c23 2457   5.232   0.857   0.714  0.3236  0.1675 -0.5790
  205poe    c23 2458   5.123   0.757   0.756  0.3933  0.4760  0.3548
  205poe     o2 2459   5.035   0.739   0.647  0.2708 -0.1667  0.5538
  205poe    c31 2460   4.936   0.648   0.691  0.2564 -0.3517  0.1425
  206poe    c31 2461   3.709   1.282   1.566 -0.7259 -0.1632 -0.1048
  206poe     o2 2462   3.676   1.149   1.533 -0.2200 -0.3508  0.1284
  206poe    c23 2463   3.612   1.146   1.407  0.4366 -0.0213 -0.2181
  206poe    c23 2464   3.566   1.000   1.384 -0.2097  0.2082 -0.4057
  206poe     o2 2465   3.686   0.929   1.407 -0.0559  0.4010 -0.5968
  206poe    c23 2466   3.657   0.791   1.421  0.2187  0.4141  0.1599
  206poe    c23 2467   3.787   0.740   1.486  0.2402 -0.3887 -0.5078
  206poe     o2 2468   3.812   0.813   1.604 -0.3761  0.1514 -0.7083
  206poe    c23 2469   3.942   0.790   1.653 -0.5484 -0.0853 -0.3542
  206poe    c23 2470   3.981   0.905   1.748  0.1025 -0.4370 -0.1869
  206poe     o2 2471   3.935   1.017   1.676  0.0134 -0.2821  0.1097
  206poe    c31 2472   3.990   1.133   1.734 -0.4924 -0.3417  0.7115
  207poe    c31 2473   2.387   5.153   2.354 -0.3343 -0.4637 -0.2431
  207poe     o2 2474   2.481   5.172   2.251 -0.6456  0.0118 -0.4432
  207poe    c23 2475   2.607   5.184   2.313 -0.8544 -0.3537  0.0583
  207poe    c23 2476   2.686   5.282   2.224 -0.4442 -0.6409  0.1046
  207poe     o2 2477   2.702   5.232   2.093  0.1641  0.1879 -0.1471
  207poe    c23 2478   2.792   5.124   2.078  0.1804  0.1738  0.0479
  207poe    c23 2479   2.738   5.033   1.967 -0.0227  0.2005  0.1251
  207poe     o2 2480   2.600   5.007   1.985 -0.0883  0.5417  0.1228
  207poe    c23 2481   2.532   4.943   1.880  0.7619 -0.0564 -0.0745
  207poe    c23 2482   2.398   4.894   1.938  0.4909  0.0961 -0.5617
  207poe     o2 2483   2.358   5.013   2.003  0.6223  0.3368 -0.9152
  207poe    c31 2484   2.219   5.013   2.027  0.6327  0.3497 -0.8564
  208poe    c31 2485   3.997   1.074   3.210  0.1445 -0.1171  0.5816
  208poe     o2 2486   3.960   0.947   3.259  0.9189 -0.4093  0.4263
  208poe    c23 2487   3.915   0.950   3.392  0.2380  0.2427  0.1822
  208poe    c23 2488   3.858   0.808   3.404  0.3254  0.1719 -0.2233
  208poe     o2 2489   3.939   0.713   3.338  0.2432 -0.2405  0.2573
  208poe    c23 2490   3.887   0.583   3.327 -0.3762  0.0348 -0.1068
  208poe    c23 2491   3.948   0.516   3.202  0.1155  0.1674  0.0608
  208poe     o2 2492   3.938   0.614   3.101 -0.4075 -0.0584 -0.1143
  208poe    c23 2493   4.017   0.577   2.990 -0.7720 -0.4977 -0.2292
  208poe    c23 2494   4.039   0.708   2.912 -0.3061 -0.3821  0.0901
  208poe     o2 2495   4.054   0.814   3.003  0.2662 -0.3368 -0.0505
  208poe    c31 2496   4.099   0.916   2.917  0.4302 -0.6237 -0.3041
  209poe    c31 2497   0.555   4.353   5.505  0.1715 -0.6342  0.2459
  209poe     o2 2498   0.426   4.349   5.562  0.2744 -0.0497  0.5298
  209poe    c23 2499   0.420   4.221   5.622  0.1393 -0.5033 -0.4377
  209poe    c23 2500   0.278   4.170   5.652  0.2960 -0.5885  0.1707
  209poe     o2 2501   0.206   4.272   5.718  0.3777 -0.1534 -0.4039
  209poe    c23 2502   0.066   4.277   5.735  0.5015  0.7626  0.3827
  209poe    c23 2503   0.031   4.422   5.772 -0.2123  0.5952  0.3755
  209poe     o2 2504   0.115   4.493   5.683 -0.0704  0.1078  0.1218
  209poe    c23 2505   0.090   4.629   5.655 -0.1317 -0.0442 -0.5823
  209poe    c23 2506   0.162   4.652   5.521 -0.2591 -0.3872 -0.7119
  209poe     o2 2507   0.295   4.608   5.523 -0.1354 -0.0046  0.0684
  209poe    c31 2508   0.373   4.667   5.421 -0.0813  0.4439  0.3670
  210poe    c31 2509   2.702   2.575   5.480 -0.3814 -0.1255 -0.2366
  210poe     o2 2510   2.743   2.446   5.520 -0.3359  0.0805  0.3970
  210poe    c23 2511   2.740   2.441   5.661 -0.5638  0.4112  0.4051
  210poe    c23 2512   2.777   2.298   5.705  0.6454  0.4514 -0.4402
  210poe     o2 2513   2.721   2.203   5.618  0.9702 -0.0428 -0.1095
  210poe    c23 2514   2.765   2.069   5.627 -0.2367 -0.4571 -0.2541
  210poe    c23 2515   2.697   2.002   5.506 -0.1910 -0.0745 -0.4933
  210poe     o2 2516   2.737   2.083   5.398 -0.2178  0.4536 -0.1116
  210poe    c23 2517   2.671   2.057   5.276 -0.1750 -0.0329 -0.0324
  210poe    c23 2518   2.733   2.160   5.180  0.4111  0.1058  0.4845
  210poe     o2 2519   2.702   2.283   5.241 -0.1457 -0.0271  0.4755
  210poe    c31 2520   2.634   2.359   5.144  0.5183 -0.0275  0.0023
  211poe    c31 2521   1.387   5.145   0.801  0.2882  0.3399 -0.8568
  211poe     o2 2522   1.423   5.180   0.933 -0.1386 -0.0010 -0.6457
  211poe    c23 2523   1.420   5.073   1.025  0.4685  0.1794 -0.4114
  211poe    c23 2524   1.532   5.090   1.129 -0.0078  0.0737  0.1211
  211poe     o2 2525   1.528   5.225   1.169 -0.0646  0.1677 -0.2011
  211poe    c23 2526   1.650   5.262   1.229 -0.4290  0.2473  0.5053
  211poe    c23 2527   1.662   5.416   1.226 -0.5432  0.2509  0.1407
  211poe     o2 2528   1.612   5.446   1.098 -0.4484  0.1474  0.0787
  211poe    c23 2529   1.632   5.574   1.043 -0.2337 -0.1167 -0.4655
  211poe    c23 2530   1.520   5.607   0.943 -0.2021 -0.0537 -0.4797
  211poe     o2 2531   1.485   5.487   0.877  0.3631 -0.2248 -0.4690
  211poe    c31 2532   1.381   5.524   0.790 -0.2788 -0.1852  0.3064
  212poe    c31 2533   4.680   6.567   2.872  0.1165  0.2854  0.4014
  212poe     o2 2534   4.630   6.552   3.003 -0.4555 -0.2238  0.1254
  212poe    c23 2535   4.606   6.681   3.055  0.1068  0.0291 -0.2331
  212poe    c23 2536   4.538   6.653   3.190  0.4323 -0.5883 -0.1939
  212poe     o2 2537   4.398   6.665   3.186  0.4567 -0.0890  0.3411
  212poe    c23 2538   4.360   6.705   3.316 -0.4847  0.4826 -0.0972
  212poe    c23 2539   4.213   6.749   3.330 -0.3624  0.8604  0.0272
  212poe     o2 2540   4.151   6.638   3.268  0.2172  0.3135  0.4076
  212poe    c23 2541   4.011   6.651   3.264  0.2295  0.1937 -0.5292
  212poe    c23 2542   3.952   6.527   3.194 -0.2758  0.1690 -0.0614
  212poe     o2 2543   4.056   6.493   3.106  0.2910  0.0362  0.6437
  212poe    c31 2544   4.001   6.400   3.015  0.6429 -0.1427  0.6142
  213poe    c31 2545   4.776   5.754   2.109 -0.1049 -0.2700 -0.1230
  213poe     o2 2546   4.878   5.830   2.170  0.1262 -0.3269 -0.4349
  213poe    c23 2547   4.931   5.900   2.060 -0.3034  0.1739 -0.3257
  213poe    c23 2548   5.050   5.985   2.108  0.0113 -0.4391 -0.0189
  213poe     o2 2549   5.136   5.888   2.165  0.1051  0.0615  0.7050
  213poe    c23 2550   5.254   5.942   2.219  0.4093  0.1399 -0.0326
  213poe    c23 2551   5.325   5.835   2.305 -0.0088  0.0113  0.1515
  213poe     o2 2552   5.236   5.753   2.377  0.3359 -0.4783  0.0202
  213poe    c23 2553   5.182   5.800   2.499  0.4098  0.1425 -0.1853
  213poe    c23 2554   5.053   5.720   2.526  0.2536  0.4296 -0.0765
  213poe     o2 2555   4.971   5.732   2.413 -0.0350  0.5957  0.1489
  213poe    c31 2556   4.839   5.699   2.451  0.2277 -0.2022  0.3924
  214poe    c31 2557   2.258   0.909   6.482 -0.0416 -0.2325  0.0457
  214poe     o2 2558   2.352   0.863   6.576  0.1487 -0.3990 -0.2232
  214poe    c23 2559   2.357   0.723   6.561 -0.4158 -0.4634  0.1660
  214poe    c23 2560   2.428   0.656   6.680  0.1853 -0.3187 -0.1098
  214poe     o2 2561   2.379   0.716   6.798 -0.1038 -0.3095 -0.2338
  214poe    c23 2562   2.425   0.662   6.920 -0.0673  0.2954  0.0234
  214poe    c23 2563   2.376   0.763   7.026  0.3226  0.2271  0.2721
  214poe     o2 2564   2.377   0.894   6.975 -0.3247 -0.0469 -0.4710
  214poe    c23 2565   2.485   0.971   7.023 -0.2458 -0.0830 -0.5908
  214poe    c23 2566   2.478   1.092   6.929  0.2715  0.4175  0.0053
  214poe     o2 2567   2.446   1.045   6.800 -0.6609 -0.3368  0.4991
  214poe    c31 2568   2.514   1.119   6.701 -1.0700  0.0744  0.5237
  215poe    c31 2569   1.318   5.376   6.584 -0.1082  0.6550 -0.2095
  215poe     o2 2570   1.262   5.287   6.677  0.1395  0.0696 -0.6177
  215poe    c23 2571   1.376   5.230   6.738 -0.1122  0.2065 -0.0107
  215poe    c23 2572   1.334   5.108   6.822 -0.0644  0.3638  0.2422
  215poe     o2 2573   1.218   5.151   6.891 -0.6616 -0.1165 -0.4505
  215poe    c23 2574   1.138   5.053   6.954 -0.7592  0.1119 -0.2222
  215poe    c23 2575   1.041   5.145   7.031 -0.7526  0.1008 -0.2001
  215poe     o2 2576   1.007   5.251   6.943  0.5443  0.0611 -0.7723
  215poe    c23 2577   0.872   5.248   6.903  0.4374 -0.0500 -0.4071
  215poe    c23 2578   0.868   5.359   6.796  0.1081  0.1055 -0.2348
  215poe     o2 2579   0.979   5.349   6.710  0.3388 -0.1529  0.0935
  215poe    c31 2580   0.946   5.421   6.594  0.1252  0.2335  0.3927
  216poe    c31 2581   5.664   3.372   2.975 -0.5598  0.2523 -0.1806
  216poe     o2 2582   5.626   3.507   2.971  0.0484  0.4192 -0.4057
  216poe    c23 2583   5.744   3.586   2.971  0.3218  0.0123 -0.3642
  216poe    c23 2584   5.679   3.724   2.947  0.0648 -0.0195  0.1362
  216poe     o2 2585   5.559   3.738   3.020 -0.2403 -0.5796 -0.2501
  216poe    c23 2586   5.491   3.859   2.998 -0.0248 -0.2472  0.8627
  216poe    c23 2587   5.376   3.868   3.100 -0.6076  0.5388  0.1513
  216poe     o2 2588   5.325   3.737   3.097 -0.1408  0.3607 -0.0788
  216poe    c23 2589   5.255   3.701   3.214  0.2051 -0.6328 -0.1657
  216poe    c23 2590   5.245   3.548   3.198  0.2002 -0.6297 -0.1915
  216poe     o2 2591   5.372   3.498   3.162  0.2442 -0.0851 -0.8367
  216poe    c31 2592   5.370   3.362   3.201 -0.3471  0.0968 -0.2030
  217poe    c31 2593   2.754   1.973   0.045  0.1858 -0.3910  0.2951
  217poe     o2 2594   2.777   2.011  -0.089 -0.1356  0.4166  0.4633
  217poe    c23 2595   2.720   2.138  -0.114 -0.6585  0.0471 -0.2421
  217poe    c23 2596   2.743   2.202  -0.252 -0.5188 -0.0461 -0.2619
  217poe     o2 2597   2.879   2.239  -0.252 -0.3744 -0.5623  0.3670
  217poe    c23 2598   2.900   2.378  -0.244  0.1577 -0.6208  0.0172
  217poe    c23 2599   3.032   2.400  -0.168  0.0314  0.0676  0.0429
  217poe     o2 2600   3.134   2.350  -0.252 -0.1701 -0.1749 -0.0575
  217poe    c23 2601   3.267   2.359  -0.206 -0.1907 -0.0988 -0.0142
  217poe    c23 2602   3.351   2.328  -0.331 -0.6345  0.8919 -0.5703
  217poe     o2 2603   3.291   2.219  -0.397 -0.1417  0.0864  0.2796
  217poe    c31 2604   3.387   2.159  -0.481 -0.3542  0.1568 -0.0152
  218poe    c31 2605   2.568   3.848   6.284 -0.5891  0.2892 -0.7484
  218poe     o2 2606   2.453   3.803   6.352 -0.0008 -0.1417 -0.0346
  218poe    c23 2607   2.446   3.848   6.485  0.0690  0.1050 -0.1153
  218poe    c23 2608   2.348   3.750   6.551  0.1309  0.1500  0.0450
  218poe     o2 2609   2.239   3.751   6.462  0.1231 -0.5777  0.0367
  218poe    c23 2610   2.125   3.686   6.516  0.0073 -0.3069  0.1221
  218poe    c23 2611   2.013   3.678   6.411  0.2221  0.0119 -0.1351
  218poe     o2 2612   2.064   3.625   6.291 -0.0725  0.4947 -0.4777
  218poe    c23 2613   1.993   3.519   6.231  0.2861 -0.1158  0.1521
  218poe    c23 2614   1.866   3.566   6.156  0.3764  0.7971  0.5529
  218poe     o2 2615   1.914   3.628   6.039 -0.2854  0.5761  0.1603
  218poe    c31 2616   1.886   3.561   5.918 -0.4701 -0.5667  0.8250
  219poe    c31 2617   2.603   1.015   2.752  0.2751 -0.3576 -0.0800
  219poe     o2 2618   2.717   1.075   2.810 -0.1907  0.4236  0.0392
  219poe    c23 2619   2.831   0.992   2.804 -0.0794  0.5411  0.5048
  219poe    c23 2620   2.948   1.051   2.884  0.2647 -0.0056  0.4090
  219poe     o2 2621   2.942   1.184   2.837  0.1927 -0.2152 -0.1789
  219poe    c23 2622   3.033   1.269   2.903 -0.3092  0.1656  0.0294
  219poe    c23 2623   2.999   1.405   2.840 -0.1480  0.0157 -0.3853
  219poe     o2 2624   2.860   1.411   2.863 -0.1245 -0.1617 -0.1966
  219poe    c23 2625   2.802   1.524   2.803 -0.1309 -0.1827 -0.2294
  219poe    c23 2626   2.649   1.507   2.811 -0.1970  0.4736 -0.1119
  219poe     o2 2627   2.628   1.373   2.774 -0.0593  0.3492  0.2544
  219poe    c31 2628   2.496   1.359   2.725  0.1955 -0.6616 -0.1610
  220poe    c31 2629   6.004   5.429   3.656 -0.1919  0.2274  0.2148
  220poe     o2 2630   6.076   5.323   3.597  0.1226  0.4197  0.2497
  220poe    c23 2631   6.176   5.271   3.682  0.3514  0.4577  0.0037
  220poe    c23 2632   6.270   5.183   3.597  0.1335 -0.3594  0.5908
  220poe     o2 2633   6.288   5.253   3.476  0.3198 -0.3418  0.6294
  220poe    c23 2634   6.374   5.186   3.386  0.4450  0.2811  0.2747
  220poe    c23 2635   6.350   5.264   3.255 -0.5331 -0.1533  0.1841
  220poe     o2 2636   6.213   5.296   3.247 -0.3676  0.5927  0.3355
  220poe    c23 2637   6.201   5.401   3.154  0.3139 -0.0434 -0.4834
  220poe    c23 2638   6.050   5.430   3.165  0.2838 -0.3206 -0.1809
  220poe     o2 2639   6.039   5.455   3.303 -0.5026  0.3127 -0.3509
  220poe    c31 2640   5.960   5.570   3.319 -0.2602  0.4354  0.0077
  221poe    c31 2641   2.466   1.410   1.405  0.9326  0.4122 -0.2869
  221poe     o2 2642   2.560   1.313   1.362  0.2185 -0.5526  0.2883
  221poe    c23 2643   2.541   1.313   1.222 -0.3612 -0.0332  0.3635
  221poe    c23 2644   2.605   1.179   1.183  0.3258  0.3628  0.1063
  221poe     o2 2645   2.725   1.167   1.255  0.1865 -0.0183  0.2775
  221poe    c23 2646   2.750   1.028   1.262  0.0140 -0.0514  0.2342
  221poe    c23 2647   2.694   0.976   1.396 -0.2679  0.0105  0.1404
  221poe     o2 2648   2.735   1.065   1.497  0.0021 -0.0452  0.0787
  221poe    c23 2649   2.670   1.033   1.618  0.0875  0.1051  0.1655
  221poe    c23 2650   2.682   1.154   1.712 -0.1176 -0.0269  0.3610
  221poe     o2 2651   2.648   1.264   1.631  0.3037 -0.0178  0.1934
  221poe    c31 2652   2.585   1.357   1.716 -0.1332 -0.1667  0.0352
  222poe    c31 2653   4.137   1.003   6.233  0.0908  0.3782  0.3394
  222poe     o2 2654   4.271   0.981   6.273  0.1061  0.0675  0.1161
  222poe    c23 2655   4.298   1.024   6.404  0.0342 -0.3663  0.2742
  222poe    c23 2656   4.449   1.046   6.417 -0.0339  0.3622 -0.1620
  222poe     o2 2657   4.497   0.928   6.357 -0.1150  0.2752 -0.0556
  222poe    c23 2658   4.615   0.966   6.289 -0.0718  0.2840  0.0242
  222poe    c23 2659   4.644   0.858   6.183 -0.1907 -0.1697  0.4494
  222poe     o2 2660   4.513   0.844   6.133 -0.2004 -0.0656  0.4462
  222poe    c23 2661   4.499   0.770   6.014  0.2802 -0.1994  0.4710
  222poe    c23 2662   4.346   0.758   6.002  0.3119  0.0606 -0.2375
  222poe     o2 2663   4.295   0.735   6.131 -0.0860 -0.4339 -0.4796
  222poe    c31 2664   4.190   0.642   6.140 -0.2774 -0.2153 -0.4279
  223poe    c31 2665   2.024   5.467   6.300 -0.2002  0.0052  0.1339
  223poe     o2 2666   2.015   5.531   6.174  0.8445  0.3651  0.2380
  223poe    c23 2667   1.894   5.602   6.160  0.5175 -0.3227 -0.4594
  223poe    c23 2668   1.871   5.642   6.014  0.2088 -0.4031 -0.4341
  223poe     o2 2669   1.977   5.720   5.965 -0.2333  0.5665  0.1394
  223poe    c23 2670   1.965   5.770   5.833 -0.1645 -0.7122 -0.3666
  223poe    c23 2671   2.102   5.826   5.789 -0.1239 -0.4394  0.1004
  223poe     o2 2672   2.193   5.719   5.782 -0.1639 -0.4419 -0.4125
  223poe    c23 2673   2.326   5.763   5.767 -0.1635 -0.1111  0.4611
  223poe    c23 2674   2.431   5.650   5.763 -0.2557 -0.2006  0.5881
  223poe     o2 2675   2.413   5.553   5.662  0.4373  0.1413  0.1283
  223poe    c31 2676   2.521   5.463   5.680  0.0800 -0.4115 -0.4720
  224poe    c31 2677   0.035   6.619   3.344  0.3838  0.2367 -0.0089
  224poe     o2 2678   0.028   6.662   3.478 -0.0893 -0.1284  0.0869
  224poe    c23 2679  -0.043   6.567   3.555  0.0371  0.0048  0.3692
  224poe    c23 2680  -0.051   6.611   3.703 -0.1539 -0.0329  0.3694
  224poe     o2 2681  -0.090   6.745   3.685  0.2984  0.0353 -0.1644
  224poe    c23 2682  -0.091   6.824   3.802  0.6750  0.2051 -0.2756
  224poe    c23 2683  -0.070   6.972   3.764 -0.3296  0.5176  0.3308
  224poe     o2 2684   0.009   6.967   3.647 -0.2475  0.0099  0.4039
  224poe    c23 2685   0.013   7.092   3.580  0.6413 -0.1111  0.2196
  224poe    c23 2686   0.105   7.075   3.458 -0.0356 -0.1101 -0.2938
  224poe     o2 2687   0.076   6.953   3.393  0.1114 -0.2667 -0.0633
  224poe    c31 2688   0.146   6.953   3.271 -0.2487  0.4523 -0.2769
  225poe    c31 2689   5.442   5.461   4.469  0.3837  0.1337  0.0155
  225poe     o2 2690   5.477   5.398   4.590 -0.0727 -0.0807  0.0363
  225poe    c23 2691   5.602   5.451   4.629 -0.0541 -0.2240  0.1706
  225poe    c23 2692   5.647   5.362   4.746  0.4175 -0.4068 -0.1456
  225poe     o2 2693   5.527   5.364   4.821  0.3906  0.3064 -0.2070
  225poe    c23 2694   5.554   5.332   4.956 -0.5163  0.3720 -0.0040
  225poe    c23 2695   5.434   5.328   5.053 -0.1538 -0.0823  0.4307
  225poe     o2 2696   5.332   5.250   4.995  0.1649 -0.2148  0.0411
  225poe    c23 2697   5.227   5.239   5.088  0.2136  0.0283  0.1255
  225poe    c23 2698   5.113   5.150   5.034  0.3248 -0.0532  0.0244
  225poe     o2 2699   5.098   5.023   5.092  0.5165 -0.1641 -0.1665
  225poe    c31 2700   4.986   4.964   5.030  0.4004 -0.4351  0.2926
  226poe    c31 2701   3.759   3.797   0.284 -0.1353  0.4332 -0.3128
  226poe     o2 2702   3.829   3.901   0.349  0.3936 -0.1947  0.1409
  226poe    c23 2703   3.923   3.851   0.441  0.4045 -0.2558  0.0971
  226poe    c23 2704   3.956   3.968   0.536 -0.5186  0.4135 -0.3951
  226poe     o2 2705   3.986   4.088   0.468 -0.1067  0.3279 -0.3653
  226poe    c23 2706   3.987   4.198   0.555  0.0831  0.2735 -0.2980
  226poe    c23 2707   3.898   4.309   0.496  0.3572  0.6646  0.0173
  226poe     o2 2708   3.803   4.247   0.412  0.4029  0.3863  0.1712
  226poe    c23 2709   3.735   4.345   0.337  0.6834  0.2037 -0.3308
  226poe    c23 2710   3.656   4.257   0.240  0.5515 -0.1987  0.1384
  226poe     o2 2711   3.728   4.143   0.198  0.6361  0.0041 -0.2779
  226poe    c31 2712   3.654   4.105   0.084  0.5457  0.0477 -0.2340
  227poe    c31 2713   6.100   2.191   6.113  0.3088 -0.1004  0.0292
  227poe     o2 2714   6.041   2.152   6.235 -0.1715  0.7815  0.0868
  227poe    c23 2715   6.054   2.248   6.337  0.4278  0.5525  0.2330
  227poe    c23 2716   6.029   2.172   6.469 -0.0089  0.0872 -0.1143
  227poe     o2 2717   5.901   2.114   6.463 -0.0132  0.0426  0.3892
  227poe    c23 2718   5.879   2.027   6.572 -0.4884 -0.1892  0.1113
  227poe    c23 2719   5.765   1.943   6.511 -0.2108 -0.3914 -0.1297
  227poe     o2 2720   5.815   1.905   6.384 -0.2646 -0.1755 -0.2168
  227poe    c23 2721   5.717   1.834   6.311 -0.3285 -0.0901 -0.2134
  227poe    c23 2722   5.785   1.804   6.177  0.2450 -0.4562  0.1536
  227poe     o2 2723   5.868   1.910   6.134  0.1334 -0.2897  0.3503
  227poe    c31 2724   5.913   1.882   6.003 -0.1128  0.2419  0.1464
  228poe    c31 2725   6.337   0.139   2.687  0.4001 -0.4158  0.1791
  228poe     o2 2726   6.327   0.011   2.630  0.2621 -0.2322 -0.2206
  228poe    c23 2727   6.191  -0.026   2.635  0.2856 -0.3035 -0.0509
  228poe    c23 2728   6.187  -0.157   2.554 -0.2685 -0.3354  0.0239
  228poe     o2 2729   6.247  -0.114   2.433 -0.1536 -0.0791  0.1708
  228poe    c23 2730   6.257  -0.236   2.363 -0.3932 -0.0139  0.0190
  228poe    c23 2731   6.385  -0.241   2.277 -0.0474 -0.3399  0.5422
  228poe     o2 2732   6.492  -0.205   2.361  0.1476 -0.5365  0.3806
  228poe    c23 2733   6.613  -0.187   2.292  0.0893  0.1249  0.4392
  228poe    c23 2734   6.691  -0.099   2.391  0.2647  0.0865  0.3354
  228poe     o2 2735   6.603  -0.009   2.455  0.0196  0.1004 -0.0205
  228poe    c31 2736   6.677   0.094   2.516 -0.0283  0.0174  0.1790
  229poe    c31 2737   3.692   6.249   3.362  0.0582 -0.8838 -0.0813
  229poe     o2 2738   3.607   6.309   3.457  0.5298 -0.1461 -0.1179
  229poe    c23 2739   3.479   6.305   3.396  0.3884 -0.3341  0.1896
  229poe    c23 2740   3.404   6.427   3.453  0.0511 -0.1994 -0.5389
  229poe     o2 2741   3.436   6.414   3.590  0.2142  0.2845 -0.5282
  229poe    c23 2742   3.385   6.521   3.666  0.0515 -0.4322  0.3836
  229poe    c23 2743   3.410   6.479   3.812  0.0131 -0.4668  0.3804
  229poe     o2 2744   3.536   6.414   3.804  0.3406  0.1799  0.2337
  229poe    c23 2745   3.573   6.339   3.917  0.2693 -0.4369 -0.1483
  229poe    c23 2746   3.723   6.311   3.892  0.3583 -0.2935  0.2285
  229poe     o2 2747   3.732   6.291   3.753 -0.1471 -0.4681  0.2173
  229poe    c31 2748   3.855   6.230   3.720 -0.0859 -0.5642  0.6141
  230poe    c31 2749   3.700   2.161   4.269 -0.3220 -0.2124 -0.2077
  230poe     o2 2750   3.769   2.161   4.145 -0.3368  0.0770 -0.2181
  230poe    c23 2751   3.702   2.059   4.074  0.0470 -0.2678 -0.0892
  230poe    c23 2752   3.766   2.032   3.936 -0.6719  0.1781 -0.5191
  230poe     o2 2753   3.906   2.024   3.955 -0.8068 -0.3773  0.2942
  230poe    c23 2754   3.980   1.978   3.844 -0.2498  0.7080  0.2009
  230poe    c23 2755   4.122   2.036   3.849 -0.0064  0.1164  0.1669
  230poe     o2 2756   4.100   2.146   3.934  0.5388  0.2152  0.1845
  230poe    c23 2757   4.173   2.264   3.905  0.8969 -0.0520 -0.0111
  230poe    c23 2758   4.134   2.363   4.016  0.2227 -0.4728  0.1366
  230poe     o2 2759   4.010   2.318   4.066 -0.0806  0.1120 -0.0863
  230poe    c31 2760   3.967   2.424   4.149 -0.0889  0.2743 -0.2970
  231poe    c31 2761   5.140   0.606   4.823  0.4514 -0.2199 -0.0272
  231poe     o2 2762   5.151   0.723   4.745  0.1018 -0.4590 -0.4350
  231poe    c23 2763   5.288   0.747   4.728  0.0294 -0.1245 -0.5559
  231poe    c23 2764   5.325   0.879   4.658  0.0709  0.1749  0.0253
  231poe     o2 2765   5.239   0.900   4.547 -0.0754  0.1337  0.1307
  231poe    c23 2766   5.289   0.984   4.446  0.2799 -0.4579 -0.1900
  231poe    c23 2767   5.211   0.976   4.314  0.1874  0.2613 -0.1795
  231poe     o2 2768   5.081   1.031   4.325 -0.0519 -0.3652  0.1907
  231poe    c23 2769   5.029   1.076   4.202 -0.3878 -0.1797  0.4003
  231poe    c23 2770   4.972   0.981   4.095  0.2176 -0.2286  0.1146
  231poe     o2 2771   4.851   0.918   4.131  0.1335 -0.0671  0.1197
  231poe    c31 2772   4.778   0.867   4.022 -0.2498  0.9501 -0.1066
  232poe    c31 2773   3.178   4.754   1.409  0.2287 -0.1272 -1.2874
  232poe     o2 2774   3.162   4.894   1.399 -0.2754 -0.1002 -0.2466
  232poe    c23 2775   3.027   4.925   1.375 -0.4455 -0.0941  0.6880
  232poe    c23 2776   3.012   5.075   1.405 -0.4944  0.1827 -0.6731
  232poe     o2 2777   3.130   5.131   1.351  0.2701 -0.5857  0.1797
  232poe    c23 2778   3.141   5.265   1.392 -0.4395 -0.3688 -0.3347
  232poe    c23 2779   3.284   5.302   1.349 -0.3756 -0.1637  0.0527
  232poe     o2 2780   3.361   5.213   1.426 -0.0702 -0.0023 -0.0652
  232poe    c23 2781   3.498   5.218   1.391  0.0403 -0.1321  0.3446
  232poe    c23 2782   3.564   5.090   1.446  0.1921 -0.0974  0.2442
  232poe     o2 2783   3.469   4.990   1.417  0.3331 -0.0308 -0.4490
  232poe    c31 2784   3.516   4.863   1.452  0.1973  0.0920  0.1843
  233poe    c31 2785   4.303   1.299   0.436  0.2125 -0.1325  0.0825
  233poe     o2 2786   4.382   1.183   0.452  0.1123 -0.2202 -0.0651
  233poe    c23 2787   4.514   1.230   0.471 -0.1601  0.3524  0.4365
  233poe    c23 2788   4.594   1.156   0.362 -0.8059  0.1889  0.0661
  233poe     o2 2789   4.547   1.023   0.351 -0.4881  0.0799  0.0115
  233poe    c23 2790   4.599   0.967   0.233  0.1854  0.2469  0.2246
  233poe    c23 2791   4.481   0.878   0.189  0.2477 -0.0825  0.7113
  233poe     o2 2792   4.366   0.956   0.211  0.0020 -0.3619  0.4177
  233poe    c23 2793   4.245   0.887   0.186  0.0030 -0.5775  0.9984
  233poe    c23 2794   4.125   0.969   0.236 -0.1801 -0.2392  0.0229
  233poe     o2 2795   4.173   1.014   0.361  0.5954  0.0085 -0.3608
  233poe    c31 2796   4.059   1.048   0.435  0.7575 -0.1041 -0.0561
  234poe    c31 2797   0.180   0.399   1.200 -0.0459  0.5345  0.1876
  234poe     o2 2798   0.145   0.320   1.090  0.4449  0.4914  0.0604
  234poe    c23 2799   0.022   0.353   1.029  0.1093 -0.0193  0.4494
  234poe    c23 2800   0.021   0.312   0.881  0.0733  0.2469  0.3759
  234poe     o2 2801   0.084   0.186   0.885  0.1315  0.2607 -0.0367
  234poe    c23 2802   0.072   0.122   0.760 -0.4696  0.1085  0.0965
  234poe    c23 2803   0.156  -0.007   0.774 -0.2608  0.1916 -0.3989
  234poe     o2 2804   0.272   0.035   0.842 -0.1516 -0.3300 -0.2622
  234poe    c23 2805   0.335  -0.070   0.912  0.3451  0.1439  0.0101
  234poe    c23 2806   0.433  -0.007   1.012  0.2880  0.3432 -0.0585
  234poe     o2 2807   0.358   0.084   1.090 -0.3942 -0.0954 -0.1987
  234poe    c31 2808   0.420   0.111   1.213 -0.0247  0.1687 -0.4426
  235poe    c31 2809   4.335   1.616   6.079 -0.4852 -0.3013  0.4642
  235poe     o2 2810   4.288   1.718   6.164 -0.3274 -0.3934  0.6625
  235poe    c23 2811   4.398   1.798   6.204 -0.1040 -0.2091 -0.2950
  235poe    c23 2812   4.365   1.925   6.284 -0.1417  0.0385 -0.7013
  235poe     o2 2813   4.251   1.888   6.358  0.4142 -0.3625 -0.0345
  235poe    c23 2814   4.175   1.989   6.420  0.0667 -0.6976  0.0872
  235poe    c23 2815   4.050   1.920   6.479 -0.7337  0.2679 -0.4373
  235poe     o2 2816   4.010   1.841   6.370 -0.2519 -0.3594 -0.1657
  235poe    c23 2817   3.915   1.744   6.408 -0.0988 -0.3343  0.2840
  235poe    c23 2818   3.876   1.665   6.282  0.0108 -0.1873  0.1588
  235poe     o2 2819   3.991   1.618   6.215 -0.2024 -0.0474 -0.3145
  235poe    c31 2820   3.954   1.535   6.107  0.0769 -0.3592 -0.1748
  236poe    c31 2821   4.636   1.737   4.435 -0.0395 -0.4590  0.0562
  236poe     o2 2822   4.553   1.625   4.417 -0.3250 -0.2238 -0.0947
  236poe    c23 2823   4.426   1.678   4.386 -0.0694  0.5685  0.1912
  236poe    c23 2824   4.373   1.607   4.260 -0.3174 -0.0319  0.6328
  236poe     o2 2825   4.403   1.470   4.274  0.6211  0.0868 -0.1670
  236poe    c23 2826   4.425   1.416   4.146  0.0889 -0.0171 -0.2137
  236poe    c23 2827   4.527   1.304   4.171  0.3690  0.2717 -0.0637
  236poe     o2 2828   4.632   1.360   4.247  0.3400 -0.3153  0.4141
  236poe    c23 2829   4.736   1.274   4.286  0.4110 -0.4842 -0.1491
  236poe    c23 2830   4.812   1.342   4.401  0.1199 -0.5603  0.0880
  236poe     o2 2831   4.708   1.396   4.480 -0.0473  0.0099 -0.5103
  236poe    c31 2832   4.753   1.432   4.609 -0.4003  0.2991 -0.4646
  237poe    c31 2833   0.563   3.462   2.373 -0.3283  0.0909 -0.2252
  237poe     o2 2834   0.507   3.446   2.245 -0.0714 -0.3350 -0.2866
  237poe    c23 2835   0.370   3.477   2.248 -0.0218 -0.1623  0.1901
  237poe    c23 2836   0.311   3.439   2.111  0.2625 -0.3330  0.1155
  237poe     o2 2837   0.388   3.483   2.002 -0.4394  0.0964 -0.2103
  237poe    c23 2838   0.344   3.436   1.876 -0.5182 -0.3121 -0.0317
  237poe    c23 2839   0.444   3.485   1.769 -0.2246  0.1586  0.4499
  237poe     o2 2840   0.559   3.504   1.847  0.3102 -0.1418 -0.2569
  237poe    c23 2841   0.648   3.591   1.780  0.0131  0.4807  0.1513
  237poe    c23 2842   0.761   3.628   1.878  0.1381  0.0351  0.1748
  237poe     o2 2843   0.740   3.566   2.003 -0.0950 -0.2373  0.0031
  237poe    c31 2844   0.832   3.630   2.089  0.3363 -0.4265 -0.3126
  238poe    c31 2845   3.605   5.262   3.678  0.1359 -0.1048  0.5959
  238poe     o2 2846   3.720   5.268   3.760  0.3466  0.2702  0.2782
  238poe    c23 2847   3.697   5.180   3.868  0.1236 -0.2543 -0.1954
  238poe    c23 2848   3.798   5.204   3.982 -0.1111  0.1507 -0.0724
  238poe     o2 2849   3.924   5.217   3.920  0.0735 -0.3421  0.1902
  238poe    c23 2850   4.012   5.284   4.007  0.3160 -0.6887  0.2103
  238poe    c23 2851   4.131   5.319   3.916 -0.0557  0.2128  0.0581
  238poe     o2 2852   4.074   5.385   3.806  0.1422  0.2462 -0.0233
  238poe    c23 2853   4.082   5.526   3.820  0.5641  0.2403 -0.1696
  238poe    c23 2854   3.988   5.558   3.702  0.1994  0.1855  0.1013
  238poe     o2 2855   3.865   5.495   3.730  0.1479  0.3244  0.1871
  238poe    c31 2856   3.757   5.583   3.713 -0.0597  0.0777  0.2323
  239poe    c31 2857   1.578   4.185   2.171  0.2226  0.2578 -0.1563
  239poe     o2 2858   1.673   4.282   2.209  0.2305  0.2212 -0.0824
  239poe    c23 2859   1.753   4.223   2.309 -0.3321 -0.1729  0.1399
  239poe    c23 2860   1.862   4.326   2.343 -0.0781 -0.1143 -0.8315
  239poe     o2 2861   1.795   4.450   2.341 -0.3744 -0.2523  0.1836
  239poe    c23 2862   1.878   4.563   2.358 -0.4152 -0.1666 -0.1824
  239poe    c23 2863   1.905   4.625   2.220 -0.2536  0.1207 -0.0233
  239poe     o2 2864   1.779   4.612   2.158 -0.3149  0.9049 -0.0719
  239poe    c23 2865   1.803   4.627   2.020 -0.3403  0.1461 -0.1629
  239poe    c23 2866   1.669   4.628   1.945 -0.1170  0.0677 -0.5649
  239poe     o2 2867   1.611   4.505   1.980  0.2833 -0.0155 -0.1894
  239poe    c31 2868   1.486   4.491   1.916  0.3971 -0.0574 -0.4032
  240poe    c31 2869   2.866   1.958   0.637  0.3941  0.2322  0.5334
  240poe     o2 2870   2.908   1.828   0.671 -0.1288 -0.0074  0.2759
  240poe    c23 2871   2.990   1.841   0.785 -0.0514  0.0907  0.2097
  240poe    c23 2872   3.031   1.701   0.834 -0.0611  0.2084  0.5609
  240poe     o2 2873   2.913   1.628   0.813  0.1776 -0.0320  0.0437
  240poe    c23 2874   2.916   1.506   0.884  0.0330 -0.3207 -0.4360
  240poe    c23 2875   2.781   1.445   0.842  0.0275 -0.5250 -0.1216
  240poe     o2 2876   2.746   1.478   0.710 -0.2544  0.5925  0.2202
  240poe    c23 2877   2.609   1.457   0.682 -0.1288  0.0646 -0.0297
  240poe    c23 2878   2.578   1.546   0.560  0.5741 -0.1853 -0.3954
  240poe     o2 2879   2.654   1.666   0.563  0.0921  0.1193 -0.3398
  240poe    c31 2880   2.616   1.760   0.465 -0.1558  0.5331  0.1520
  241poe    c31 2881   2.681   2.240   0.873 -0.0775 -0.1505  0.3156
  241poe     o2 2882   2.705   2.365   0.812  0.1567 -0.4300 -0.1720
  241poe    c23 2883   2.768   2.444   0.911 -0.2788  0.1792 -0.3778
  241poe    c23 2884   2.790   2.587   0.860 -0.0193  0.3232  0.1378
  241poe     o2 2885   2.853   2.575   0.734 -0.0010 -0.0892  0.1848
  241poe    c23 2886   2.879   2.697   0.668 -0.8377 -0.1007 -0.1741
  241poe    c23 2887   2.976   2.680   0.550 -0.4042  0.1293  0.1466
  241poe     o2 2888   2.946   2.568   0.470 -0.3034  0.3491 -0.1998
  241poe    c23 2889   3.021   2.572   0.351 -0.1918  0.5860 -0.1223
  241poe    c23 2890   2.989   2.442   0.274  0.2576  0.3365  0.1126
  241poe     o2 2891   3.058   2.325   0.312 -0.3570  0.0615  0.3958
  241poe    c31 2892   3.024   2.221   0.223 -0.3835  0.2463  0.1901
  242poe    c31 2893   1.909   1.954   0.878 -0.0963  0.4283  0.2058
  242poe     o2 2894   2.015   1.946   0.786 -0.2890 -0.0122  0.0221
  242poe    c23 2895   2.003   1.839   0.694 -0.3374 -0.1084  0.1398
  242poe    c23 2896   2.142   1.822   0.630 -0.0925  0.0617  0.6188
  242poe     o2 2897   2.172   1.950   0.580 -0.2255 -0.2523 -0.2945
  242poe    c23 2898   2.302   1.950   0.526 -0.0676  0.2247  0.0700
  242poe    c23 2899   2.347   2.094   0.556 -0.3592  0.3253  0.0219
  242poe     o2 2900   2.312   2.113   0.691 -0.1978 -0.5478  0.1911
  242poe    c23 2901   2.318   2.249   0.727 -0.0851 -0.6116  0.4136
  242poe    c23 2902   2.252   2.265   0.865  0.0786 -0.2808  0.4544
  242poe     o2 2903   2.125   2.210   0.837  0.2187 -0.4764  0.1930
  242poe    c31 2904   2.030   2.243   0.936  0.2106  0.7149 -0.1912
  243poe    c31 2905   6.332   4.605   2.958  0.3516 -0.0878  0.2418
  243poe     o2 2906   6.461   4.628   2.905  0.2121  0.4853  0.1511
  243poe    c23 2907   6.449   4.693   2.780 -0.1336  0.0379 -0.0500
  243poe    c23 2908   6.583   4.683   2.706 -0.0009  0.0340  0.1887
  243poe     o2 2909   6.694   4.688   2.793 -0.1097 -0.3265  0.3488
  243poe    c23 2910   6.816   4.678   2.722 -0.0298 -0.0594  0.4493
  243poe    c23 2911   6.925   4.672   2.831  0.6077  0.2981 -0.1578
  243poe     o2 2912   6.885   4.599   2.945  0.8659  0.0389 -0.2319
  243poe    c23 2913   6.988   4.620   3.038  0.5850 -0.0431  0.0993
  243poe    c23 2914   6.966   4.530   3.162  0.0191  0.5924  0.4665
  243poe     o2 2915   6.832   4.537   3.206 -0.0445  0.0827  0.3599
  243poe    c31 2916   6.800   4.453   3.315  0.1155  0.2243  0.5163
  244poe    c31 2917   2.002   6.504   6.263 -0.0426  0.0175 -0.0699
  244poe     o2 2918   2.028   6.462   6.131 -0.0907 -0.2786  0.0135
  244poe    c23 2919   1.910   6.445   6.056 -0.0710  0.0574 -0.0956
  244poe    c23 2920   1.939   6.425   5.906  0.2102  0.0461 -0.0401
  244poe     o2 2921   2.031   6.523   5.862  0.0400  0.2592  0.0750
  244poe    c23 2922   2.101   6.481   5.747 -0.0437  0.3382 -0.0051
  244poe    c23 2923   2.248   6.517   5.771  0.0746  0.1076 -0.3781
  244poe     o2 2924   2.282   6.488   5.905 -0.3338  0.5649 -0.1761
  244poe    c23 2925   2.413   6.529   5.936 -0.3303  0.2845  0.1856
  244poe    c23 2926   2.431   6.516   6.089 -0.0177  0.3527  0.1545
  244poe     o2 2927   2.311   6.575   6.132 -0.0084  0.4992 -0.0169
  244poe    c31 2928   2.331   6.615   6.266 -0.2566 -0.5628  0.3448
  245poe    c31 2929   0.440   0.033   5.685 -0.3656  0.0076 -0.2503
  245poe     o2 2930   0.381   0.072   5.563 -0.1939 -0.1199 -0.3738
  245poe    c23 2931   0.475   0.103   5.462  0.0208 -0.5336 -0.3025
  245poe    c23 2932   0.400   0.139   5.332 -0.1880 -0.4224 -0.1515
  245poe     o2 2933   0.293   0.217   5.381  0.4278  0.2231  0.1859
  245poe    c23 2934   0.207   0.266   5.281  0.2568  0.2543  0.3468
  245poe    c23 2935   0.085   0.303   5.366 -0.3912 -0.0252 -0.4491
  245poe     o2 2936   0.041   0.199   5.451 -0.4345  0.2479 -0.1341
  245poe    c23 2937  -0.013   0.077   5.405 -0.5649  0.2350  0.0526
  245poe    c23 2938  -0.037  -0.005   5.533 -0.2481  0.0361 -0.0145
  245poe     o2 2939   0.079   0.020   5.609 -0.3409  0.3424  0.0272
  245poe    c31 2940   0.074  -0.008   5.747 -0.1512  0.1772  0.0004
  246poe    c31 2941   0.785   1.006   4.117 -0.1650 -0.0689 -0.0609
  246poe     o2 2942   0.881   0.941   4.197 -0.1157 -0.4025 -0.3849
  246poe    c23 2943   0.976   0.865   4.127  0.2431  0.2132 -0.5689
  246poe    c23 2944   1.085   0.790   4.206  0.0147  0.3931 -0.0821
  246poe     o2 2945   1.020   0.748   4.324  0.0887 -0.3179 -0.2881
  246poe    c23 2946   1.099   0.672   4.412  0.2112 -0.0857 -0.1950
  246poe    c23 2947   1.029   0.668   4.549  0.1469  0.3637 -0.2151
  246poe     o2 2948   1.006   0.805   4.572  0.3078  0.3508  0.0212
  246poe    c23 2949   0.901   0.814   4.666  0.1669 -0.0562 -0.0971
  246poe    c23 2950   0.832   0.951   4.657  0.1547 -0.0263  0.3970
  246poe     o2 2951   0.804   0.974   4.520 -0.5604 -0.0032  0.5450
  246poe    c31 2952   0.705   1.071   4.498 -1.2619 -0.7479  0.3384
  247poe    c31 2953   5.355   0.065   1.090 -0.1843 -0.3695  0.4899
  247poe     o2 2954   5.232   0.024   1.035 -0.3858  0.6020  0.1969
  247poe    c23 2955   5.243   0.009   0.895  0.3620  0.1058  0.3042
  247poe    c23 2956   5.098   0.017   0.846  0.2198  0.2157  0.7380
  247poe     o2 2957   5.030  -0.080   0.923 -0.4359  0.2379  0.2059
  247poe    c23 2958   4.919  -0.144   0.865 -0.2476  0.2373 -0.1570
  247poe    c23 2959   4.864  -0.235   0.976  0.3779  0.3779  0.2761
  247poe     o2 2960   4.900  -0.180   1.101  0.5061  0.3073  0.2706
  247poe    c23 2961   4.930  -0.274   1.201  0.0317  0.3687  0.4765
  247poe    c23 2962   5.002  -0.199   1.315  0.2387  0.5606  0.2212
  247poe     o2 2963   5.084  -0.095   1.267  0.2694  0.2093 -0.4928
  247poe    c31 2964   5.142  -0.025   1.375  0.1389  0.5346 -0.6314
  248poe    c31 2965   3.144   0.028   1.700  0.5053  0.2198  0.3708
  248poe     o2 2966   3.069  -0.014   1.588  0.6485 -0.2367  0.4443
  248poe    c23 2967   3.162  -0.046   1.487  0.1540  0.4529 -0.2488
  248poe    c23 2968   3.060  -0.076   1.376 -0.1533 -0.1545  0.1903
  248poe     o2 2969   2.977   0.037   1.362  0.6661  0.4072 -0.2187
  248poe    c23 2970   2.886   0.023   1.255  0.0813  0.5315  0.2587
  248poe    c23 2971   2.757   0.102   1.286 -0.0515  0.5306 -0.2846
  248poe     o2 2972   2.742   0.068   1.422  0.0156 -0.0184 -0.4095
  248poe    c23 2973   2.647   0.144   1.494  0.9125 -0.0574  0.8400
  248poe    c23 2974   2.667   0.100   1.640 -0.4411 -0.6401  0.8558
  248poe     o2 2975   2.803   0.115   1.674 -0.2989 -0.3915  0.1936
  248poe    c31 2976   2.815   0.132   1.814 -0.5962 -0.4490  0.2283
  249poe    c31 2977   4.572   1.680   2.678 -0.1013 -0.0511 -0.5316
  249poe     o2 2978   4.584   1.764   2.791 -0.0990 -0.3765 -0.2905
  249poe    c23 2979   4.666   1.716   2.896 -0.1549 -0.2861 -0.2061
  249poe    c23 2980   4.705   1.821   3.002  0.2224 -0.4791 -0.1538
  249poe     o2 2981   4.584   1.887   3.032  0.4514 -0.2282  0.2340
  249poe    c23 2982   4.606   2.011   3.093  0.2411 -0.0085 -0.1303
  249poe    c23 2983   4.467   2.074   3.068  0.4233  0.3771 -0.1800
  249poe     o2 2984   4.424   2.051   2.936  0.1598 -0.0500 -0.0201
  249poe    c23 2985   4.294   2.094   2.904  0.3809  0.4594 -0.2383
  249poe    c23 2986   4.241   2.055   2.765 -0.4147 -0.2718  0.2571
  249poe     o2 2987   4.297   1.926   2.757  0.4546  0.1214 -0.1199
  249poe    c31 2988   4.217   1.840   2.679  0.4742 -0.0334  0.0314
  250poe    c31 2989   0.676   3.938   3.241 -0.1974  0.4200 -0.8971
  250poe     o2 2990   0.630   4.028   3.340  0.4383  0.4151 -0.5887
  250poe    c23 2991   0.494   4.060   3.321  0.3657  0.2548 -0.3349
  250poe    c23 2992   0.442   4.133   3.447  0.1858  0.2928 -0.4300
  250poe     o2 2993   0.529   4.242   3.464  0.2182  0.2041 -0.0073
  250poe    c23 2994   0.504   4.310   3.585  0.2077  0.5105 -0.1794
  250poe    c23 2995   0.612   4.418   3.604  0.3819  0.3013  0.0186
  250poe     o2 2996   0.730   4.358   3.556 -0.3169 -0.5302 -0.6961
  250poe    c23 2997   0.820   4.338   3.663 -0.0060  0.3544 -0.7828
  250poe    c23 2998   0.922   4.237   3.607  0.3525  0.3238 -0.0874
  250poe     o2 2999   0.852   4.142   3.529 -0.0492  0.3929  0.1867
  250poe    c31 3000   0.947   4.046   3.491  0.0053  0.3233  0.4930
  251poe    c31 3001   1.525   2.984   6.500  0.3712  0.4666  0.1687
  251poe     o2 3002   1.480   3.116   6.520 -0.0156  0.3106  0.3424
  251poe    c23 3003   1.455   3.174   6.394  0.1565 -0.2115  0.0643
  251poe    c23 3004   1.430   3.325   6.409  0.1644 -0.2110  0.0708
  251poe     o2 3005   1.524   3.378   6.500  0.3966  0.0686 -0.3312
  251poe    c23 3006   1.490   3.512   6.529 -0.2471 -0.2495  0.4160
  251poe    c23 3007   1.591   3.541   6.642 -0.2076  0.1409  0.2794
  251poe     o2 3008   1.608   3.421   6.713 -0.0952  0.1221  0.2217
  251poe    c23 3009   1.743   3.408   6.750 -0.1300 -0.1943  0.2425
  251poe    c23 3010   1.752   3.276   6.829  0.0581 -0.1243  0.3408
  251poe     o2 3011   1.707   3.182   6.734  0.0251  0.1173  0.1169
  251poe    c31 3012   1.719   3.054   6.792  0.0681  0.1871  0.2616
  252poe    c31 3013   2.775   5.137   3.672  0.3950 -0.4127 -0.1025
  252poe     o2 3014   2.902   5.180   3.628  0.0136  0.1412 -0.6691
  252poe    c23 3015   2.940   5.284   3.715  0.2462  0.0042 -0.6060
  252poe    c23 3016   3.083   5.333   3.690  0.3943 -0.2840 -0.3262
  252poe     o2 3017   3.107   5.339   3.551 -0.2029  0.5172 -0.3951
  252poe    c23 3018   3.233   5.396   3.523  0.1613 -0.0412  0.0959
  252poe    c23 3019   3.292   5.296   3.421 -0.2520  0.4629 -0.6438
  252poe     o2 3020   3.183   5.255   3.342 -0.4762 -0.0906 -0.0499
  252poe    c23 3021   3.197   5.133   3.273  0.0131  0.0960 -0.2828
  252poe    c23 3022   3.058   5.083   3.228 -0.0127 -0.3513  0.2837
  252poe     o2 3023   2.977   5.066   3.342  0.2175  0.0502  0.5078
  252poe    c31 3024   2.903   4.948   3.326  0.0475  0.2852 -0.4677
  253poe    c31 3025   6.458   4.834   6.037  0.2249 -0.0708 -0.0793
  253poe     o2 3026   6.349   4.922   6.019  0.5516  0.3106 -0.2009
  253poe    c23 3027   6.241   4.853   6.076  0.6693 -0.3518 -0.7556
  253poe    c23 3028   6.129   4.955   6.048  0.5516 -0.2435  0.0745
  253poe     o2 3029   6.184   5.080   6.086  0.0494 -0.0932  0.3149
  253poe    c23 3030   6.093   5.186   6.068 -0.0880 -0.1580  0.6269
  253poe    c23 3031   6.172   5.317   6.082  0.3410 -0.3980  0.4725
  253poe     o2 3032   6.282   5.301   5.995 -0.0630 -0.4665 -0.0346
  253poe    c23 3033   6.393   5.379   6.033 -0.4644 -0.0878  0.3701
  253poe    c23 3034   6.467   5.316   6.152 -0.1237 -0.3272  0.0331
  253poe     o2 3035   6.483   5.177   6.129  0.2399 -0.2686 -0.0617
  253poe    c31 3036   6.598   5.125   6.192  0.1728  0.2107  0.4707
  254poe    c31 3037   3.099   3.543   3.151  0.0180 -0.2193 -0.0705
  254poe     o2 3038   3.042   3.441   3.072  0.3332 -0.1285 -0.4155
  254poe    c23 3039   3.092   3.317   3.116  0.1158  0.0861  0.4623
  254poe    c23 3040   3.059   3.205   3.015  0.6746  0.2326  0.1111
  254poe     o2 3041   3.006   3.282   2.909  0.6083  0.1766  0.1043
  254poe    c23 3042   2.929   3.202   2.821  0.3550 -0.0000  0.4796
  254poe    c23 3043   2.893   3.303   2.710 -0.1848 -0.0083  0.6493
  254poe     o2 3044   2.852   3.424   2.769 -0.6932  0.4036 -0.5231
  254poe    c23 3045   2.838   3.540   2.690 -0.2225  0.4682 -0.5161
  254poe    c23 3046   2.827   3.667   2.777  0.3781  0.0679  0.1507
  254poe     o2 3047   2.942   3.688   2.856  0.5394 -0.1734 -0.0159
  254poe    c31 3048   2.888   3.795   2.930  0.2066 -0.0236 -0.4696
  255poe    c31 3049   5.165   1.441   6.153  0.6172 -0.0968 -0.5280
  255poe     o2 3050   5.081   1.393   6.051  0.1994  0.2697 -0.3589
  255poe    c23 3051   5.155   1.381   5.931 -0.2917  0.2696 -0.6664
  255poe    c23 3052   5.078   1.279   5.845 -0.5931  0.1361 -0.2447
  255poe     o2 3053   4.944   1.282   5.889 -0.3644 -0.0928  0.4640
  255poe    c23 3054   4.879   1.157   5.880  0.5126 -0.5148 -0.0806
  255poe    c23 3055   4.745   1.165   5.954  0.3824  0.1734 -0.3792
  255poe     o2 3056   4.765   1.248   6.067  0.0957 -0.7250  0.3494
  255poe    c23 3057   4.655   1.300   6.138  0.3519 -0.0725  0.2690
  255poe    c23 3058   4.729   1.384   6.244 -0.3155  0.5765  0.2234
  255poe     o2 3059   4.837   1.461   6.196 -0.1127  0.1725  0.0271
  255poe    c31 3060   4.869   1.564   6.288 -0.3046 -0.0308  0.3258
  256poe    c31 3061   6.280   4.610   5.318  0.9338  0.0104  0.5372
  256poe     o2 3062   6.264   4.494   5.240 -0.8440  0.8165 -0.3384
  256poe    c23 3063   6.287   4.544   5.110  0.1571  0.4501 -0.3104
  256poe    c23 3064   6.295   4.433   5.003 -0.1933 -0.0420  0.1700
  256poe     o2 3065   6.192   4.342   5.037  0.1027 -0.2090  0.6318
  256poe    c23 3066   6.191   4.232   4.949 -0.4906  0.2630  0.0406
  256poe    c23 3067   6.085   4.148   5.023 -0.5122  0.5700  0.3656
  256poe     o2 3068   6.113   4.139   5.160 -0.4016 -0.4690  0.2865
  256poe    c23 3069   6.001   4.112   5.241 -0.6986  0.1392  0.0873
  256poe    c23 3070   6.055   4.135   5.384 -0.1430  0.2303 -0.1383
  256poe     o2 3071   6.090   4.272   5.386 -0.0406  0.1978  0.2270
  256poe    c31 3072   6.150   4.300   5.511  0.2080 -0.0105  0.1556
  257poe    c31 3073   0.797   0.573   3.931 -0.0719 -0.4562 -0.1429
  257poe     o2 3074   0.864   0.499   3.832  0.4122  0.1466 -0.2768
  257poe    c23 3075   0.861   0.565   3.707  0.6011  0.2166 -0.2442
  257poe    c23 3076   0.913   0.490   3.583  0.0265  0.6625 -0.7597
  257poe     o2 3077   0.850   0.364   3.585  0.0551  0.6571 -0.0466
  257poe    c23 3078   0.916   0.256   3.523 -0.5445  0.0623  0.3356
  257poe    c23 3079   0.827   0.135   3.556 -0.5921 -0.0607 -0.2259
  257poe     o2 3080   0.796   0.137   3.693  0.1350 -0.0800 -0.0555
  257poe    c23 3081   0.884   0.070   3.781 -0.0408 -0.1306  0.0827
  257poe    c23 3082   0.831   0.094   3.923 -0.9573 -0.6387 -0.1592
  257poe     o2 3083   0.810   0.231   3.948  0.2288 -0.5175  0.2610
  257poe    c31 3084   0.744   0.242   4.072 -0.5038 -0.1795 -0.1489
  258poe    c31 3085   2.097   1.313   3.490 -0.4063  0.2953 -0.2752
  258poe     o2 3086   2.117   1.255   3.363  0.3311 -0.3161  0.1120
  258poe    c23 3087   2.042   1.331   3.270 -0.2101 -0.5240  0.3724
  258poe    c23 3088   2.075   1.304   3.122 -0.3590 -0.3614  0.3099
  258poe     o2 3089   2.063   1.164   3.127  0.3134 -0.4377 -0.1049
  258poe    c23 3090   2.122   1.112   3.010  0.2616 -0.0190 -0.3155
  258poe    c23 3091   2.100   0.960   3.015  0.0422  0.0131 -0.2794
  258poe     o2 3092   2.139   0.929   3.146 -0.6729  0.0179 -0.0619
  258poe    c23 3093   2.100   0.808   3.207 -0.0345 -0.2334 -0.1368
  258poe    c23 3094   2.168   0.817   3.345 -0.4362  0.1521  0.0382
  258poe     o2 3095   2.158   0.949   3.395 -0.0904  0.3110 -0.3093
  258poe    c31 3096   2.184   0.966   3.532  0.4413 -0.1983 -0.3455
  259poe    c31 3097   3.706   3.870   1.703 -0.0559 -0.0018  0.3476
  259poe     o2 3098   3.737   3.889   1.567 -0.3520 -0.5563  0.1998
  259poe    c23 3099   3.656   3.987   1.506 -0.3347 -0.7554 -0.1409
  259poe    c23 3100   3.704   3.996   1.359  0.3554 -0.0963  0.1178
  259poe     o2 3101   3.844   3.989   1.374  0.3622 -0.0232  0.0909
  259poe    c23 3102   3.909   3.994   1.249 -0.0572 -0.4837 -0.1498
  259poe    c23 3103   4.059   3.974   1.273 -0.0065 -0.3118 -0.3218
  259poe     o2 3104   4.054   3.863   1.359 -0.1197  0.0088  0.0926
  259poe    c23 3105   4.185   3.830   1.398 -0.0004  0.1882 -0.1558
  259poe    c23 3106   4.176   3.715   1.501 -0.2782  0.0291 -0.3566
  259poe     o2 3107   4.080   3.766   1.591 -0.1204 -0.1512 -0.0879
  259poe    c31 3108   4.060   3.682   1.703  0.0522  0.0363  0.0843
  260poe    c31 3109   1.358   6.455   3.419 -0.0439  0.3450 -0.0282
  260poe     o2 3110   1.358   6.399   3.289  0.2236 -0.3695  0.2783
  260poe    c23 3111   1.483   6.399   3.224  0.0305 -0.0919 -0.0964
  260poe    c23 3112   1.469   6.305   3.103 -0.9571 -0.4633  0.2951
  260poe     o2 3113   1.374   6.365   3.019 -0.0136 -0.1644 -0.5798
  260poe    c23 3114   1.337   6.273   2.919 -0.0470 -0.3237 -0.4203
  260poe    c23 3115   1.190   6.301   2.882 -0.0898  0.3137  0.2060
  260poe     o2 3116   1.117   6.316   3.002 -0.0561 -0.0594  0.2761
  260poe    c23 3117   0.984   6.356   2.981 -0.0242 -0.2340 -0.2548
  260poe    c23 3118   0.910   6.373   3.115  0.2036  0.0554 -0.1635
  260poe     o2 3119   1.002   6.431   3.204 -0.2315  0.0443  0.3002
  260poe    c31 3120   0.953   6.423   3.335  0.1002 -0.1536  0.4140
  261poe    c31 3121   3.608   3.097   5.680 -0.0803 -0.4183 -0.0805
  261poe     o2 3122   3.488   3.075   5.610 -0.2350 -0.1328  0.0917
  261poe    c23 3123   3.484   3.157   5.496  0.0013 -0.3828 -0.0995
  261poe    c23 3124   3.359   3.128   5.411 -0.5840  0.0975  0.5832
  261poe     o2 3125   3.348   2.988   5.425 -0.6279  0.0750  0.3267
  261poe    c23 3126   3.235   2.941   5.355  0.1126 -0.3689 -0.5865
  261poe    c23 3127   3.228   2.789   5.376  0.1826 -0.3046 -0.0881
  261poe     o2 3128   3.259   2.774   5.513 -0.3894 -0.3773  0.0389
  261poe    c23 3129   3.147   2.765   5.598 -0.2526 -0.8627  0.1684
  261poe    c23 3130   3.187   2.800   5.742  0.0597 -0.1829 -0.0776
  261poe     o2 3131   3.281   2.905   5.747 -0.0879 -0.0490 -0.0965
  261poe    c31 3132   3.299   2.960   5.876  0.1288  0.2620 -0.2573
  262poe    c31 3133   4.356   2.003   0.262 -0.8111  0.4551 -0.4370
  262poe     o2 3134   4.293   2.011   0.388  0.1053  0.3642  0.0346
  262poe    c23 3135   4.353   2.125   0.447  0.4193  0.1668  0.0995
  262poe    c23 3136   4.249   2.195   0.536 -0.1919 -0.3157 -0.2251
  262poe     o2 3137   4.180   2.096   0.609  0.0985 -0.1205  0.3240
  262poe    c23 3138   4.062   2.142   0.672  0.1091  0.2399  0.0839
  262poe    c23 3139   3.980   2.022   0.722  0.1181  0.1232 -0.1797
  262poe     o2 3140   3.957   1.944   0.606 -0.0356 -0.0575 -0.0280
  262poe    c23 3141   3.940   1.808   0.639  0.4509 -0.0805  0.1438
  262poe    c23 3142   3.951   1.728   0.507 -0.7524  0.6065 -0.3937
  262poe     o2 3143   4.060   1.778   0.432 -0.2463 -0.3911 -0.3400
  262poe    c31 3144   4.073   1.712   0.308  0.2348 -0.2855 -0.3484
  263poe    c31 3145   4.919   3.217   3.242 -0.3701  0.0357  0.0044
  263poe     o2 3146   4.833   3.184   3.135 -0.1995 -0.1610 -0.0730
  263poe    c23 3147   4.898   3.212   3.013 -0.0056  0.0816  0.0853
  263poe    c23 3148   4.836   3.131   2.898  0.6610 -0.4088  0.0662
  263poe     o2 3149   4.697   3.157   2.899  0.6543 -0.4616  0.5786
  263poe    c23 3150   4.620   3.041   2.877  0.0622 -0.0587  0.5012
  263poe    c23 3151   4.485   3.063   2.948 -0.2297  0.5810 -0.2482
  263poe     o2 3152   4.515   3.072   3.085 -0.0034 -0.6160 -0.2156
  263poe    c23 3153   4.399   3.075   3.165 -0.0900 -0.3143 -0.3553
  263poe    c23 3154   4.469   3.044   3.298 -0.6718  0.2452  0.0901
  263poe     o2 3155   4.584   3.121   3.325 -0.1706 -0.4852  0.0592
  263poe    c31 3156   4.616   3.115   3.462 -0.3289  0.1272  0.1256
  264poe    c31 3157   0.589   5.391   4.585 -0.3783 -0.0729 -0.6521
  264poe     o2 3158   0.726   5.387   4.554 -0.1319  0.0985  0.3693
  264poe    c23 3159   0.801   5.434   4.663 -0.1280 -0.2511  0.5208
  264poe    c23 3160   0.952   5.428   4.632 -0.1628  0.4269  0.1824
  264poe     o2 3161   0.986   5.293   4.610 -0.0814  0.4348  0.2622
  264poe    c23 3162   1.108   5.269   4.543 -0.4838 -0.3130 -0.2132
  264poe    c23 3163   1.105   5.299   4.392 -0.1633  0.3192 -0.0942
  264poe     o2 3164   0.978   5.255   4.349  0.0822 -0.3188 -0.1765
  264poe    c23 3165   0.974   5.262   4.208  0.4845 -0.1790 -0.1847
  264poe    c23 3166   0.843   5.339   4.181  0.5589  0.0710  0.1433
  264poe     o2 3167   0.747   5.295   4.274 -0.1152 -0.1841 -0.6536
  264poe    c31 3168   0.622   5.331   4.218 -0.5457 -0.3214  0.1997
  265poe    c31 3169   0.455   6.182   5.637 -0.6573  0.1339 -0.3911
  265poe     o2 3170   0.580   6.187   5.573 -0.3281 -0.0801  0.2347
  265poe    c23 3171   0.571   6.095   5.466  0.0662 -0.0754  0.1947
  265poe    c23 3172   0.708   6.096   5.396 -0.0430 -0.0708 -0.0186
  265poe     o2 3173   0.757   6.228   5.404 -0.0364 -0.0435 -0.4826
  265poe    c23 3174   0.864   6.265   5.319  0.0349  0.0145 -0.3676
  265poe    c23 3175   0.872   6.416   5.347 -0.0699  0.0418 -0.4796
  265poe     o2 3176   0.856   6.431   5.486  0.1227  0.0242 -0.4542
  265poe    c23 3177   0.813   6.556   5.536  0.3538  0.0050 -0.2076
  265poe    c23 3178   0.781   6.539   5.686  0.4793 -0.0995 -0.1937
  265poe     o2 3179   0.710   6.418   5.688 -0.2703  0.3449  0.2566
  265poe    c31 3180   0.660   6.393   5.818  0.0545 -0.2302  0.2777
  266poe    c31 3181   2.396   6.444   2.428 -0.0512 -0.4252  0.1530
  266poe     o2 3182   2.415   6.436   2.289  0.0231  0.3184  0.1177
  266poe    c23 3183   2.333   6.522   2.211  0.2523  0.2082 -0.2489
  266poe    c23 3184   2.367   6.485   2.066 -0.0004  0.1057 -0.2814
  266poe     o2 3185   2.503   6.452   2.051 -0.1433 -0.5880 -0.0657
  266poe    c23 3186   2.542   6.415   1.921 -0.1948 -0.4459 -0.1224
  266poe    c23 3187   2.682   6.352   1.937 -0.0318 -0.0750 -0.0790
  266poe     o2 3188   2.680   6.280   2.059  0.4012 -0.0661 -0.0676
  266poe    c23 3189   2.812   6.252   2.101  0.1593 -0.3970  0.4787
  266poe    c23 3190   2.804   6.214   2.250  0.5584  0.3111  0.6825
  266poe     o2 3191   2.685   6.262   2.308  0.3607 -0.2348  0.7300
  266poe    c31 3192   2.700   6.250   2.448 -0.0983  0.0919  0.8123
  267poe    c31 3193   0.541   4.036   0.481  0.0073 -0.8008  0.3116
  267poe     o2 3194   0.531   3.942   0.377 -0.0815 -0.1189 -0.3063
  267poe    c23 3195   0.404   3.881   0.382 -0.2366  0.2532  0.4190
  267poe    c23 3196   0.392   3.769   0.277  0.0026  0.7773 -0.1703
  267poe     o2 3197   0.522   3.723   0.247 -0.0133  0.3998  0.3390
  267poe    c23 3198   0.541   3.621   0.152 -0.5611  0.4895  0.1302
  267poe    c23 3199   0.695   3.617   0.150 -0.5755  0.1255 -0.4845
  267poe     o2 3200   0.736   3.751   0.139 -0.5211  0.1897  0.3948
  267poe    c23 3201   0.874   3.780   0.137 -0.4862  0.0075 -0.0444
  267poe    c23 3202   0.885   3.933   0.123 -0.3834 -0.0765 -0.9520
  267poe     o2 3203   0.781   3.976   0.209  0.4697 -0.2241  0.1813
  267poe    c31 3204   0.768   4.116   0.212  0.7253 -0.1874 -0.2449
  268poe    c31 3205   6.114   6.047   2.557  0.0666  0.1826 -0.2120
  268poe     o2 3206   6.044   5.926   2.573 -0.0523  0.3026  0.1912
  268poe    c23 3207   6.116   5.823   2.510 -0.4668  0.1580 -0.0535
  268poe    c23 3208   6.032   5.696   2.532  0.2638 -0.1829  0.8306
  268poe     o2 3209   5.899   5.735   2.506  0.4487 -0.1872 -0.1748
  268poe    c23 3210   5.801   5.644   2.551  0.0872  0.2312 -0.1020
  268poe    c23 3211   5.671   5.722   2.575 -0.1976 -0.3626  0.3049
  268poe     o2 3212   5.720   5.835   2.643 -0.0299 -0.2453 -0.0141
  268poe    c23 3213   5.610   5.919   2.670 -0.0028 -0.0684 -0.4374
  268poe    c23 3214   5.679   6.048   2.719 -0.2516 -0.0013 -0.2636
  268poe     o2 3215   5.792   6.081   2.642  0.3340 -0.3081  0.4491
  268poe    c31 3216   5.815   6.218   2.615 -0.1347 -0.3990 -0.4387
  269poe    c31 3217   5.827   6.324   5.214 -0.1933  0.0201 -0.0861
  269poe     o2 3218   5.872   6.416   5.311 -0.1651 -0.1628  0.0754
  269poe    c23 3219   5.987   6.476   5.256 -0.2595  0.1954  0.2640
  269poe    c23 3220   6.041   6.571   5.365 -0.2802 -0.1258  0.5558
  269poe     o2 3221   5.936   6.649   5.417 -0.3944 -0.4016  0.7454
  269poe    c23 3222   5.961   6.725   5.533 -0.1961  0.3803  0.1972
  269poe    c23 3223   5.832   6.722   5.616 -0.4378 -0.1894 -0.1925
  269poe     o2 3224   5.756   6.609   5.577  0.0890 -0.4602 -0.4428
  269poe    c23 3225   5.722   6.553   5.702  0.2332 -0.4087 -0.3787
  269poe    c23 3226   5.639   6.425   5.675 -0.5849  0.1435 -0.5343
  269poe     o2 3227   5.714   6.360   5.575 -0.0782  0.1214 -0.1488
  269poe    c31 3228   5.671   6.229   5.548  0.2299 -0.0298  0.1002
  270poe    c31 3229   4.766   4.780   6.038  0.0972 -0.6416 -0.1358
  270poe     o2 3230   4.852   4.669   6.045  0.4230 -0.3335  0.8656
  270poe    c23 3231   4.921   4.686   5.923 -0.4697  0.1906  0.4251
  270poe    c23 3232   5.058   4.618   5.945 -0.2439  0.8237  0.9909
  270poe     o2 3233   5.039   4.482   5.977  0.7089  0.2293 -0.8634
  270poe    c23 3234   5.150   4.426   6.043  0.2090 -0.2800 -0.4388
  270poe    c23 3235   5.105   4.329   6.153 -0.3898 -0.0304 -0.4594
  270poe     o2 3236   5.014   4.414   6.218  0.6924  0.6266  0.2188
  270poe    c23 3237   4.971   4.350   6.336  0.4591  0.5734  0.1053
  270poe    c23 3238   4.850   4.426   6.392 -0.0244  0.3945 -0.6753
  270poe     o2 3239   4.781   4.484   6.284  0.0205  0.4150 -0.6933
  270poe    c31 3240   4.665   4.547   6.332 -0.6346 -0.5156 -1.0385
  271poe    c31 3241   1.538   5.235   3.115 -0.1969 -0.1198  0.1105
  271poe     o2 3242   1.512   5.187   2.986 -0.4621 -0.0046  0.1198
  271poe    c23 3243   1.494   5.047   3.002  0.0315 -0.1093 -0.2362
  271poe    c23 3244   1.422   4.979   2.885 -0.0222 -0.0749 -0.2229
  271poe     o2 3245   1.476   5.048   2.774 -0.1219  0.2540 -0.0684
  271poe    c23 3246   1.430   5.004   2.648  0.1628  0.1071 -0.1223
  271poe    c23 3247   1.501   5.098   2.549 -0.3400  0.0805 -0.5154
  271poe     o2 3248   1.472   5.229   2.594  0.3331  0.0462  0.0380
  271poe    c23 3249   1.565   5.324   2.548  0.5503  0.0993  0.5793
  271poe    c23 3250   1.569   5.445   2.643 -0.2440  0.3131  0.3429
  271poe     o2 3251   1.583   5.389   2.771 -0.3057 -0.2902  0.0899
  271poe    c31 3252   1.637   5.478   2.866 -0.6443  0.0638 -0.0476
  272poe    c31 3253   5.166   6.625   2.814  0.3625 -0.0613 -0.0799
  272poe     o2 3254   5.087   6.605   2.699  0.2522  0.4880 -0.1019
  272poe    c23 3255   5.027   6.727   2.661 -0.4167  0.2030  0.0258
  272poe    c23 3256   4.923   6.699   2.551 -0.6535 -0.1793  0.3423
  272poe     o2 3257   4.990   6.606   2.468 -0.1198  0.2487  0.2847
  272poe    c23 3258   4.900   6.536   2.385  0.1613 -0.4430  0.5569
  272poe    c23 3259   4.993   6.491   2.270 -0.1414  0.6102 -0.1193
  272poe     o2 3260   5.105   6.421   2.319 -0.0625  0.3561 -0.6646
  272poe    c23 3261   5.223   6.492   2.287  0.2857  0.1128  0.0621
  272poe    c23 3262   5.339   6.444   2.376  0.2855  0.2355  0.1278
  272poe     o2 3263   5.292   6.455   2.509  0.1402 -0.2590  0.1183
  272poe    c31 3264   5.401   6.413   2.589  0.0531  0.2354  0.5025
  273poe    c31 3265   3.976   5.007   6.347 -0.0180 -0.1660 -0.4215
  273poe     o2 3266   4.047   4.935   6.249  0.1115  0.0169 -0.4619
  273poe    c23 3267   3.972   4.941   6.129 -0.0434  0.1609 -0.3588
  273poe    c23 3268   4.050   4.877   6.013  0.1901  0.0060 -0.1170
  273poe     o2 3269   4.069   4.739   6.033 -0.0722  0.0333  0.3339
  273poe    c23 3270   4.185   4.708   5.958 -0.1728 -0.0058  0.1940
  273poe    c23 3271   4.203   4.560   5.921  0.0662  0.0581  0.0522
  273poe     o2 3272   4.164   4.499   6.042  0.1572  0.1604  0.1331
  273poe    c23 3273   4.214   4.367   6.033 -0.0300  0.0752  0.3327
  273poe    c23 3274   4.178   4.312   6.172 -0.0170 -0.1692  0.2391
  273poe     o2 3275   4.042   4.311   6.208 -0.0919  0.0820 -0.0389
  273poe    c31 3276   4.015   4.237   6.324 -0.3718  0.3122  0.0452
  274poe    c31 3277   5.442   5.792   1.915 -0.1942 -0.0178  0.3973
  274poe     o2 3278   5.341   5.828   1.824  0.1380  0.2034  0.1104
  274poe    c23 3279   5.225   5.752   1.850 -0.0090  0.3920  0.0098
  274poe    c23 3280   5.136   5.757   1.724  0.2554  0.0813 -0.1893
  274poe     o2 3281   5.119   5.894   1.694  0.1269  0.0687 -0.1721
  274poe    c23 3282   5.059   5.907   1.566  0.1106 -0.1951 -0.1931
  274poe    c23 3283   5.160   5.917   1.451  0.2285  0.2820 -0.0518
  274poe     o2 3284   5.269   5.989   1.504  0.4664  0.0314 -0.1982
  274poe    c23 3285   5.377   5.980   1.414  0.7920 -0.9685  0.2758
  274poe    c23 3286   5.498   6.037   1.489  0.4033 -0.0646  0.2305
  274poe     o2 3287   5.498   5.986   1.621  0.0943 -0.2360  0.1652
  274poe    c31 3288   5.593   6.053   1.701  0.2105 -0.1833 -0.0179
  275poe    c31 3289   3.314   0.296   1.284  0.3641  0.0540  0.0713
  275poe     o2 3290   3.238   0.338   1.173  0.2660 -0.4167 -0.0400
  275poe    c23 3291   3.167   0.224   1.129 -0.0540 -0.1589 -0.1945
  275poe    c23 3292   3.086   0.258   1.003 -0.6184  0.0669  0.2226
  275poe     o2 3293   3.025   0.381   1.033 -0.5130  0.0875  0.3546
  275poe    c23 3294   2.966   0.444   0.921 -0.1093  0.3024  0.2599
  275poe    c23 3295   2.966   0.593   0.959 -0.1444  0.3545  0.0567
  275poe     o2 3296   3.082   0.621   1.034  0.0683 -0.5979  0.1011
  275poe    c23 3297   3.052   0.730   1.119 -0.2717 -0.5168 -0.1207
  275poe    c23 3298   3.188   0.776   1.174 -0.0285 -0.0731 -1.0715
  275poe     o2 3299   3.238   0.660   1.237 -0.4572  0.3069 -0.0277
  275poe    c31 3300   3.311   0.679   1.356  0.0466 -0.3382 -0.2294
  276poe    c31 3301   5.611   0.722   3.596  0.0064  0.2006 -0.0983
  276poe     o2 3302   5.711   0.692   3.690 -0.1538  0.1745  0.0639
  276poe    c23 3303   5.797   0.588   3.650 -0.1598 -0.0354  0.5834
  276poe    c23 3304   5.770   0.438   3.675 -0.4481 -0.0883 -0.0419
  276poe     o2 3305   5.761   0.413   3.813  0.0884 -0.2997 -0.0448
  276poe    c23 3306   5.734   0.281   3.855 -0.4934 -0.2253 -0.1808
  276poe    c23 3307   5.839   0.170   3.836 -0.1214  0.1031 -0.0680
  276poe     o2 3308   5.958   0.216   3.896  0.0067 -0.5001  0.1474
  276poe    c23 3309   6.057   0.116   3.905  0.6158  0.0135 -0.7177
  276poe    c23 3310   6.177   0.184   3.973 -0.0584 -0.0039  0.5116
  276poe     o2 3311   6.125   0.235   4.094 -0.2154  0.4410  0.2588
  276poe    c31 3312   6.221   0.326   4.145  0.3024  0.3079 -0.4600
  277poe    c31 3313   1.787   1.280   5.121 -0.3658 -0.0919  0.3445
  277poe     o2 3314   1.899   1.270   5.207 -0.2560  0.2270  0.2417
  277poe    c23 3315   1.876   1.372   5.302  0.2381  0.0753  0.5235
  277poe    c23 3316   1.892   1.316   5.445 -0.0300  0.0249  0.5334
  277poe     o2 3317   2.017   1.253   5.433  0.0893  0.3046  0.3256
  277poe    c23 3318   2.075   1.202   5.550  0.1643  0.0781  0.1903
  277poe    c23 3319   2.226   1.201   5.519  0.1801 -0.4036  0.2641
  277poe     o2 3320   2.231   1.124   5.401  0.3170  0.0683 -0.0437
  277poe    c23 3321   2.353   1.124   5.331  0.2389  0.0529 -0.1797
  277poe    c23 3322   2.338   1.234   5.225 -0.3331  0.2720  0.1274
  277poe     o2 3323   2.215   1.229   5.156 -0.4432 -0.4869  0.3755
  277poe    c31 3324   2.213   1.324   5.052  0.6121 -0.5427  0.2894
  278poe    c31 3325   5.668   5.668   5.325 -0.1242 -0.4948  0.6295
  278poe     o2 3326   5.754   5.775   5.292 -0.2001 -0.6505 -0.0862
  278poe    c23 3327   5.656   5.875   5.273  0.2266 -0.2567 -0.2251
  278poe    c23 3328   5.633   5.907   5.125  0.2394  0.6588 -0.0352
  278poe     o2 3329   5.760   5.927   5.068  0.3112  0.3943  0.0286
  278poe    c23 3330   5.779   5.930   4.928  0.1038 -0.5508 -0.0226
  278poe    c23 3331   5.920   5.871   4.912  0.4320  0.1720  0.1841
  278poe     o2 3332   5.916   5.752   4.987  0.4710  0.3008  0.3906
  278poe    c23 3333   6.010   5.659   4.939  0.2856  0.2384  0.1485
  278poe    c23 3334   6.016   5.540   5.038  0.6453  0.0412 -0.1092
  278poe     o2 3335   5.983   5.597   5.163 -0.0511 -0.4955 -0.0431
  278poe    c31 3336   5.988   5.506   5.271  0.1405  0.2952  0.6203
  279poe    c31 3337   2.392   3.427   1.994  0.1341  0.1250 -0.3271
  279poe     o2 3338   2.514   3.383   2.049 -0.2880 -0.7196 -0.0489
  279poe    c23 3339   2.490   3.271   2.130 -0.9265  0.0332  0.8316
  279poe    c23 3340   2.624   3.239   2.200 -0.3330  0.3294 -0.1535
  279poe     o2 3341   2.685   3.361   2.235 -0.0456  0.1080  0.1192
  279poe    c23 3342   2.822   3.341   2.264 -0.0826 -0.3811 -0.0340
  279poe    c23 3343   2.900   3.460   2.204  0.3185 -0.3381  0.5571
  279poe     o2 3344   2.838   3.490   2.080  0.6327  0.6631  0.6354
  279poe    c23 3345   2.909   3.601   2.031 -0.0325  0.4721 -0.7950
  279poe    c23 3346   2.816   3.644   1.916 -0.8431 -0.7042 -0.5906
  279poe     o2 3347   2.683   3.653   1.963 -0.4293 -0.1024  0.4956
  279poe    c31 3348   2.652   3.790   1.976  0.5447  0.1667  0.1116
  280poe    c31 3349   2.132   5.422   4.096 -0.5579  0.7961 -0.6783
  280poe     o2 3350   2.260   5.465   4.054  0.0635  0.0096  0.3374
  280poe    c23 3351   2.328   5.518   4.166 -0.3759  0.0861  0.5727
  280poe    c23 3352   2.474   5.479   4.135 -0.5917 -0.2853  0.0066
  280poe     o2 3353   2.491   5.530   4.004 -0.0413 -0.1683  0.1228
  280poe    c23 3354   2.625   5.506   3.966  0.0933 -0.0653  0.5223
  280poe    c23 3355   2.625   5.516   3.812 -0.2400 -0.1734  0.5147
  280poe     o2 3356   2.509   5.443   3.779  0.0717 -0.4682  0.0640
  280poe    c23 3357   2.472   5.441   3.643 -0.2286  0.1839  0.1352
  280poe    c23 3358   2.332   5.377   3.634 -0.1832  0.0813  0.1619
  280poe     o2 3359   2.250   5.446   3.726 -0.1018 -0.0577  0.3385
  280poe    c31 3360   2.124   5.383   3.723 -0.1255  0.0105 -0.3859
  281poe    c31 3361   0.607   4.736   5.045 -0.0916 -0.6217 -0.1087
  281poe     o2 3362   0.697   4.810   5.124 -0.2684 -0.7819  0.2456
  281poe    c23 3363   0.804   4.721   5.146  0.3553 -0.1476 -0.1848
  281poe    c23 3364   0.913   4.787   5.232 -0.1321  0.3168  0.0862
  281poe     o2 3365   0.929   4.912   5.169  0.0743 -0.0383 -0.5724
  281poe    c23 3366   1.043   4.987   5.203 -0.2703  0.2917 -0.1378
  281poe    c23 3367   1.026   5.126   5.140  0.1246  0.5083  0.2278
  281poe     o2 3368   0.886   5.143   5.153  0.0513 -0.0125  0.1243
  281poe    c23 3369   0.843   5.268   5.105  0.3297 -0.0835 -0.3188
  281poe    c23 3370   0.690   5.263   5.087  0.1920  0.4391  0.6596
  281poe     o2 3371   0.664   5.128   5.053 -0.1713  0.5681  0.4106
  281poe    c31 3372   0.526   5.106   5.036  0.0277 -0.4076  0.0058
  282poe    c31 3373   0.309   2.835   4.154 -0.7028  0.0283  0.1257
  282poe     o2 3374   0.312   2.975   4.136  0.3046 -0.0471 -0.3280
  282poe    c23 3375   0.443   3.021   4.112  0.2289  0.3079 -0.0703
  282poe    c23 3376   0.423   3.166   4.065  0.1925  0.1293 -0.6209
  282poe     o2 3377   0.318   3.168   3.971 -0.1931 -0.6344 -0.2103
  282poe    c23 3378   0.275   3.298   3.938  0.4859 -0.4393 -0.3416
  282poe    c23 3379   0.135   3.278   3.878  0.2485 -0.0675  0.0771
  282poe     o2 3380   0.066   3.191   3.966  0.2900  0.2724  0.4480
  282poe    c23 3381  -0.062   3.150   3.924  0.3529  0.3258  0.1960
  282poe    c23 3382  -0.108   3.040   4.021 -0.1092  0.7285  0.4407
  282poe     o2 3383   0.011   2.976   4.064 -0.2843  0.1076  0.0173
  282poe    c31 3384  -0.016   2.888   4.171  0.7865 -0.2462  0.0107
  283poe    c31 3385   0.034   3.830   4.407  0.7411  0.2998  0.4559
  283poe     o2 3386   0.035   3.741   4.297  0.1934  0.3118  0.4380
  283poe    c23 3387   0.061   3.825   4.187 -0.1657 -0.1234  0.0216
  283poe    c23 3388   0.067   3.730   4.065 -0.0445 -0.1985  0.0866
  283poe     o2 3389  -0.043   3.644   4.084  0.0238 -0.3716 -0.3079
  283poe    c23 3390  -0.068   3.548   3.984 -0.0405 -0.0752 -0.5789
  283poe    c23 3391  -0.207   3.496   4.024  0.2561 -0.1186  0.4257
  283poe     o2 3392  -0.207   3.434   4.150 -0.1692 -0.7528  0.1211
  283poe    c23 3393  -0.325   3.459   4.224 -0.1581 -0.0828 -0.0803
  283poe    c23 3394  -0.286   3.470   4.373  0.2514  0.2466 -0.2100
  283poe     o2 3395  -0.172   3.553   4.378  0.3068  0.1531  0.0652
  283poe    c31 3396  -0.152   3.560   4.517  1.1188 -0.1172 -0.0289
  284poe    c31 3397   4.193   2.101   1.846  0.0790 -0.1572 -0.3776
  284poe     o2 3398   4.144   2.022   1.952  0.0184  0.0734 -0.2345
  284poe    c23 3399   4.088   2.105   2.052 -0.2804  0.2169 -0.5199
  284poe    c23 3400   3.981   2.010   2.108  0.2212 -0.1133 -0.1090
  284poe     o2 3401   4.030   1.882   2.142  0.5348 -0.0272 -0.2405
  284poe    c23 3402   4.078   1.863   2.273  0.4784  0.0819 -0.2035
  284poe    c23 3403   4.174   1.742   2.272 -0.2646 -0.5100 -0.0142
  284poe     o2 3404   4.222   1.751   2.140  0.0627 -0.4090  0.1135
  284poe    c23 3405   4.362   1.745   2.124  0.0581 -0.1255 -0.0628
  284poe    c23 3406   4.398   1.724   1.976  0.0480 -0.2490 -0.0478
  284poe     o2 3407   4.322   1.820   1.906 -0.0842 -0.2692  0.0659
  284poe    c31 3408   4.338   1.796   1.768  0.7364 -0.4770  0.1869
  285poe    c31 3409   4.220   3.084   0.243 -0.2733 -0.7600 -0.4314
  285poe     o2 3410   4.333   3.167   0.228 -0.5365 -0.3367 -0.0988
  285poe    c23 3411   4.318   3.290   0.160 -0.0568 -0.2593 -0.0645
  285poe    c23 3412   4.436   3.373   0.215 -0.0177 -0.2585 -0.1490
  285poe     o2 3413   4.546   3.286   0.225  0.0624 -0.1425 -0.0139
  285poe    c23 3414   4.659   3.344   0.287  0.2365 -0.1736 -0.3007
  285poe    c23 3415   4.764   3.234   0.310  0.0660 -0.2290  0.2175
  285poe     o2 3416   4.695   3.126   0.368 -0.4652 -0.1098 -0.1826
  285poe    c23 3417   4.766   3.008   0.340 -0.4617 -0.0229 -0.5428
  285poe    c23 3418   4.671   2.892   0.377 -0.3824  0.0449 -0.1275
  285poe     o2 3419   4.557   2.897   0.296 -0.2937 -0.2099 -0.2685
  285poe    c31 3420   4.467   2.789   0.307  0.0655 -0.4985 -0.1420
  286poe    c31 3421   1.004   4.473   1.010 -0.3441 -0.3065 -0.0801
  286poe     o2 3422   1.116   4.411   1.070 -0.0111 -0.1529 -0.5397
  286poe    c23 3423   1.134   4.469   1.198 -0.4451  0.0948 -0.5896
  286poe    c23 3424   1.244   4.387   1.267 -0.2803  0.3899 -0.5030
  286poe     o2 3425   1.348   4.358   1.176 -0.0907  0.5042 -0.3253
  286poe    c23 3426   1.443   4.461   1.157  0.5035  0.0255  0.0301
  286poe    c23 3427   1.523   4.417   1.033  0.2522  0.8741 -0.4404
  286poe     o2 3428   1.424   4.378   0.940  0.1114  0.6294 -0.1888
  286poe    c23 3429   1.464   4.375   0.805  0.1032  0.1483 -0.1828
  286poe    c23 3430   1.337   4.389   0.718 -0.0536 -0.3579 -0.0404
  286poe     o2 3431   1.237   4.311   0.779  0.2075 -0.4306  0.2991
  286poe    c31 3432   1.120   4.308   0.701  0.1692 -0.3320  0.3522
  287poe    c31 3433   2.811   5.171   6.491  0.2297 -0.1527  0.1200
  287poe     o2 3434   2.941   5.182   6.437  0.3264  0.1210  0.4014
  287poe    c23 3435   2.986   5.049   6.420 -0.0916  0.1034 -0.6122
  287poe    c23 3436   3.098   5.041   6.315  0.2682 -0.5290 -0.1850
  287poe     o2 3437   3.157   5.169   6.325  0.5559 -0.6724 -0.0322
  287poe    c23 3438   3.259   5.196   6.231  0.2783 -0.0665 -0.1673
  287poe    c23 3439   3.297   5.343   6.258  0.0327 -0.0432  0.0618
  287poe     o2 3440   3.182   5.415   6.293 -0.0569 -0.1007 -0.1086
  287poe    c23 3441   3.201   5.551   6.327  0.0921 -0.1002 -0.1945
  287poe    c23 3442   3.059   5.597   6.365 -0.0274 -0.2725 -0.4294
  287poe     o2 3443   2.979   5.494   6.418  0.1145  0.0559  0.4325
  287poe    c31 3444   2.850   5.533   6.460 -0.3011 -1.0812  0.2471
  288poe    c31 3445   4.416   2.642   4.030 -0.6236  0.2750 -0.1194
  288poe     o2 3446   4.448   2.778   4.052 -0.5063  0.2255  0.0169
  288poe    c23 3447   4.403   2.852   3.941 -0.3222  0.0304 -0.1878
  288poe    c23 3448   4.420   2.999   3.985 -0.0908 -0.0385 -0.0438
  288poe     o2 3449   4.513   3.003   4.090 -0.4422 -0.0583  0.2722
  288poe    c23 3450   4.550   3.134   4.126 -0.0040 -0.0807 -0.0937
  288poe    c23 3451   4.646   3.114   4.245 -0.2372 -0.0152  0.1067
  288poe     o2 3452   4.596   3.008   4.322 -0.2439  0.0192  0.1496
  288poe    c23 3453   4.702   2.945   4.389 -0.3967  0.0908  0.4621
  288poe    c23 3454   4.668   2.799   4.427  0.2571 -0.0425  0.5565
  288poe     o2 3455   4.608   2.745   4.312  0.0841  0.6046  0.3338
  288poe    c31 3456   4.574   2.608   4.321 -0.6461  0.7916  0.4174
  289poe    c31 3457   1.553   3.034   2.237  0.0773  0.3096 -0.3578
  289poe     o2 3458   1.417   3.065   2.259 -0.0110 -0.3986  0.1631
  289poe    c23 3459   1.400   3.050   2.398  0.2065  0.0503  0.2436
  289poe    c23 3460   1.264   3.108   2.443 -0.0136  0.0057 -0.3461
  289poe     o2 3461   1.176   3.035   2.361 -0.3913 -0.0821  0.1381
  289poe    c23 3462   1.045   3.087   2.371 -0.4240 -0.1665  0.1517
  289poe    c23 3463   1.026   3.126   2.223  0.8995  0.1262  0.0488
  289poe     o2 3464   1.078   3.029   2.135 -0.0717 -0.0428 -0.3496
  289poe    c23 3465   1.071   3.072   2.000 -1.1737  0.3536 -0.1763
  289poe    c23 3466   1.156   2.966   1.928 -0.4888  0.2305  0.7891
  289poe     o2 3467   1.275   2.944   2.001 -0.1002  0.1694  0.1465
  289poe    c31 3468   1.375   2.890   1.918  0.1310 -0.1262  0.6156
  290poe    c31 3469   6.483   5.072   4.942  0.3696 -0.1414 -0.3853
  290poe     o2 3470   6.577   5.083   5.047  0.0654 -0.4597 -0.0764
  290poe    c23 3471   6.690   5.012   5.002  0.5747  0.3261 -0.0443
  290poe    c23 3472   6.772   4.978   5.128 -0.1462 -0.1297  0.3096
  290poe     o2 3473   6.770   5.092   5.211 -0.0269  0.2138 -0.1554
  290poe    c23 3474   6.831   5.075   5.337  0.4333  0.1474 -0.3868
  290poe    c23 3475   6.813   5.211   5.407  0.0605  0.1874 -0.5590
  290poe     o2 3476   6.682   5.250   5.373 -0.2183 -0.1037  0.1862
  290poe    c23 3477   6.672   5.389   5.357 -0.3095 -0.1696 -0.3451
  290poe    c23 3478   6.525   5.398   5.312 -0.3548  0.7648 -0.0288
  290poe     o2 3479   6.495   5.319   5.199 -0.0014  0.0513  0.3715
  290poe    c31 3480   6.387   5.368   5.122 -0.1242  0.2499  0.6629
  291poe    c31 3481   5.629   2.835   3.006 -0.5773  0.0969 -0.4801
  291poe     o2 3482   5.675   2.755   2.900  0.4443 -0.2245  0.1929
  291poe    c23 3483   5.792   2.804   2.838  0.3530  0.1400  0.3099
  291poe    c23 3484   5.844   2.712   2.726 -0.1329  0.0220  0.1789
  291poe     o2 3485   5.763   2.719   2.611  0.6184 -0.4834 -0.3924
  291poe    c23 3486   5.780   2.837   2.535 -0.2126  0.6168  1.0596
  291poe    c23 3487   5.643   2.849   2.464  0.4250  0.1564 -0.2845
  291poe     o2 3488   5.613   2.731   2.392 -0.1019 -0.0243  0.2294
  291poe    c23 3489   5.495   2.747   2.317 -0.0659 -0.1904  0.1371
  291poe    c23 3490   5.472   2.618   2.236 -0.1531  0.0416 -0.2087
  291poe     o2 3491   5.522   2.520   2.323  0.2136  0.4284  0.0199
  291poe    c31 3492   5.486   2.390   2.282 -0.7981  0.5299  0.5487
  292poe    c31 3493   4.359   6.440   1.764  0.0384 -0.3508 -0.3072
  292poe     o2 3494   4.427   6.502   1.871 -0.1492 -0.5863 -0.0469
  292poe    c23 3495   4.549   6.436   1.897  0.3974  0.3973 -0.0434
  292poe    c23 3496   4.644   6.528   1.976  0.2804  0.2950  0.2182
  292poe     o2 3497   4.563   6.613   2.055 -0.0392  0.2122 -0.0171
  292poe    c23 3498   4.635   6.705   2.134 -0.0074  0.1451  0.0314
  292poe    c23 3499   4.526   6.761   2.227 -0.1288 -0.5066  0.2820
  292poe     o2 3500   4.410   6.765   2.147  0.0493  0.1983  0.0550
  292poe    c23 3501   4.295   6.778   2.228  0.1420  0.5075  0.1375
  292poe    c23 3502   4.181   6.789   2.126  0.0051 -0.3620  0.1885
  292poe     o2 3503   4.214   6.702   2.021 -0.0670 -0.0917 -0.0607
  292poe    c31 3504   4.116   6.721   1.922  0.1432  0.7032 -0.1244
  293poe    c31 3505   6.196   2.862   2.192 -0.5927  0.5986  0.0125
  293poe     o2 3506   6.298   2.913   2.108  0.0014 -0.4453  0.0748
  293poe    c23 3507   6.349   3.030   2.168 -0.1886 -0.2786 -0.0881
  293poe    c23 3508   6.465   3.078   2.080 -0.0713  0.1606  0.2997
  293poe     o2 3509   6.418   3.063   1.948  0.2123 -0.2038  0.2384
  293poe    c23 3510   6.519   3.081   1.851 -0.2094  0.3362 -0.1058
  293poe    c23 3511   6.557   2.938   1.809 -0.1668  0.2895  0.0886
  293poe     o2 3512   6.441   2.858   1.815  0.0489 -0.0281  0.0235
  293poe    c23 3513   6.453   2.720   1.785 -0.1633  0.0325 -0.3371
  293poe    c23 3514   6.308   2.668   1.774 -0.1568 -0.0008 -0.2688
  293poe     o2 3515   6.253   2.720   1.892  0.1258 -0.0490 -0.1142
  293poe    c31 3516   6.158   2.624   1.936  0.2473 -0.0329  0.1824
  294poe    c31 3517   4.098   0.064   1.456  0.0822 -0.4694  0.4099
  294poe     o2 3518   3.993  -0.020   1.411 -0.1922  0.2001 -0.2092
  294poe    c23 3519   3.985  -0.123   1.506 -0.8264  0.1064 -0.3597
  294poe    c23 3520   3.882  -0.229   1.462 -0.4685 -0.4492  0.1304
  294poe     o2 3521   3.889  -0.240   1.322  0.2599 -0.5138  0.1659
  294poe    c23 3522   3.779  -0.303   1.260  0.4124 -0.4694 -0.1543
  294poe    c23 3523   3.768  -0.251   1.116  0.1635 -0.3690 -0.1006
  294poe     o2 3524   3.797  -0.113   1.126  0.1901 -0.3761 -0.0811
  294poe    c23 3525   3.742  -0.027   1.028  0.4425 -0.1051  0.0156
  294poe    c23 3526   3.735   0.114   1.090 -0.4360 -0.2514  0.2669
  294poe     o2 3527   3.846   0.124   1.177 -0.2700  0.1575  0.0108
  294poe    c31 3528   3.841   0.254   1.232  0.9430  0.3411 -0.2859
  295poe    c31 3529   2.165   4.747   1.234 -0.1408 -0.2047  0.0020
  295poe     o2 3530   2.240   4.842   1.161 -0.1959 -0.1032  0.0770
  295poe    c23 3531   2.247   4.816   1.023  0.0759  0.5924 -0.0422
  295poe    c23 3532   2.326   4.930   0.955 -0.4430  0.7692 -0.3556
  295poe     o2 3533   2.438   4.942   1.041 -0.5989  0.4228 -0.0991
  295poe    c23 3534   2.512   5.060   1.021 -0.1666  0.1937  0.1561
  295poe    c23 3535   2.618   5.069   1.133  0.1981 -0.2684 -0.1520
  295poe     o2 3536   2.555   5.042   1.256  0.1191 -0.4042 -0.2214
  295poe    c23 3537   2.498   5.159   1.310  0.8208 -0.2556  0.1989
  295poe    c23 3538   2.390   5.130   1.416  0.0627  0.3461 -0.3984
  295poe     o2 3539   2.323   5.015   1.369 -0.2056  0.0436  0.6969
  295poe    c31 3540   2.220   4.996   1.463 -0.8015 -0.0066  0.0392
  296poe    c31 3541   3.369   5.540   2.012 -0.0553  0.4904 -0.0410
  296poe     o2 3542   3.397   5.404   2.035 -0.5192  0.5069  0.6333
  296poe    c23 3543   3.288   5.340   2.098 -0.5653 -0.6451 -0.5770
  296poe    c23 3544   3.331   5.235   2.203  0.0347 -0.0429 -0.2149
  296poe     o2 3545   3.443   5.176   2.142  0.0678 -0.1638 -0.0378
  296poe    c23 3546   3.505   5.080   2.224  0.3548  0.7538  0.8465
  296poe    c23 3547   3.624   5.014   2.151  0.1400  0.1935  0.9966
  296poe     o2 3548   3.670   5.120   2.070 -0.7476 -0.0695  0.1232
  296poe    c23 3549   3.690   5.087   1.935 -0.3494 -0.1186  0.1947
  296poe    c23 3550   3.714   5.220   1.863 -0.5497 -0.0785  0.2018
  296poe     o2 3551   3.601   5.303   1.876  0.0400  0.7550  0.0992
  296poe    c31 3552   3.597   5.370   1.752 -0.4258  0.3474 -0.1063
  297poe    c31 3553   0.175   0.170   6.198  0.3154  0.0390 -0.0212
  297poe     o2 3554   0.045   0.121   6.223  0.3056  0.1305  0.1069
  297poe    c23 3555  -0.028   0.146   6.106  0.1748 -0.3127  0.0929
  297poe    c23 3556  -0.119   0.025   6.080  0.1922 -0.4096  0.4863
  297poe     o2 3557  -0.165  -0.026   6.203  0.2851  0.2041  0.7779
  297poe    c23 3558  -0.241  -0.145   6.195 -0.3337  0.6667 -0.3498
  297poe    c23 3559  -0.159  -0.262   6.252 -0.5875  0.6205 -0.0781
  297poe     o2 3560  -0.079  -0.210   6.355 -0.0385 -0.2420 -0.0618
  297poe    c23 3561   0.035  -0.286   6.392  0.2745  0.0181 -0.4877
  297poe    c23 3562   0.110  -0.183   6.478 -0.2545 -0.1104  0.1320
  297poe     o2 3563   0.112  -0.053   6.424 -0.2480 -0.2424 -0.1845
  297poe    c31 3564   0.172   0.021   6.528 -0.6400  0.3855 -0.4004
  298poe    c31 3565   6.167   1.872   4.181 -0.0984 -0.8271 -0.5879
  298poe     o2 3566   6.298   1.823   4.199 -0.2866 -1.0655  0.1470
  298poe    c23 3567   6.330   1.750   4.083 -0.4950 -0.1749 -0.4750
  298poe    c23 3568   6.430   1.642   4.127 -0.0425  0.2565 -0.4406
  298poe     o2 3569   6.526   1.700   4.213 -0.0091 -0.2219 -0.1528
  298poe    c23 3570   6.618   1.609   4.268 -0.0345 -0.0797  0.1284
  298poe    c23 3571   6.658   1.644   4.413 -0.2863 -0.8293  0.3842
  298poe     o2 3572   6.544   1.714   4.458 -0.0877  0.2148 -0.6952
  298poe    c23 3573   6.571   1.798   4.568 -0.2669  0.1344 -0.5906
  298poe    c23 3574   6.445   1.877   4.604 -0.1253  0.1608 -0.1439
  298poe     o2 3575   6.389   1.914   4.480  0.0691 -0.0778 -0.3022
  298poe    c31 3576   6.276   1.994   4.508  0.0511 -0.0980 -0.3164
  299poe    c31 3577   1.769   0.749   2.472 -0.3685 -0.0864  0.1734
  299poe     o2 3578   1.719   0.704   2.596  0.1851 -0.3441  0.3083
  299poe    c23 3579   1.753   0.804   2.689  0.3583 -0.1351  0.0238
  299poe    c23 3580   1.642   0.804   2.796  0.2002  0.0488 -0.1376
  299poe     o2 3581   1.632   0.664   2.814  0.0240  0.1422  0.5196
  299poe    c23 3582   1.559   0.632   2.930  0.0177 -0.0273  0.4690
  299poe    c23 3583   1.540   0.480   2.916 -0.3598  0.0372  0.2549
  299poe     o2 3584   1.493   0.451   2.786  0.2304 -0.2361  0.0959
  299poe    c23 3585   1.544   0.326   2.744 -1.0472 -0.6404 -0.2881
  299poe    c23 3586   1.588   0.313   2.598  0.2067 -0.4856  0.0654
  299poe     o2 3587   1.670   0.421   2.559 -0.4915 -0.0669 -0.2781
  299poe    c31 3588   1.720   0.388   2.431 -0.3668  0.1655 -0.2895
  300poe    c31 3589   1.407   2.594   0.289  0.1646 -0.4492 -0.0859
  300poe     o2 3590   1.308   2.579   0.190  0.7028  0.4164 -0.7702
  300poe    c23 3591   1.260   2.706   0.153 -0.4401  0.1034 -0.3993
  300poe    c23 3592   1.150   2.701   0.046 -0.7750  0.5866 -0.0818
  300poe     o2 3593   1.064   2.600   0.094 -0.0251  0.0800  0.1947
  300poe    c23 3594   1.006   2.530  -0.014 -1.8970  0.6864  0.7876
  300poe    c23 3595   0.981   2.383   0.026 -0.1101  0.1470  0.0248
  300poe     o2 3596   1.086   2.343   0.111 -0.4260  0.1607  0.4244
  300poe    c23 3597   1.052   2.229   0.187  0.1544 -0.0030  0.4382
  300poe    c23 3598   1.172   2.185   0.273  0.5131 -0.4196 -0.2662
  300poe     o2 3599   1.215   2.303   0.338 -0.5399 -0.0675 -0.1897
  300poe    c31 3600   1.298   2.288   0.451 -0.7719 -0.1758 -0.0330
  301poe    c31 3601   3.869   2.773   5.158 -0.5350  0.1409  0.3477
  301poe     o2 3602   3.746   2.813   5.101 -0.2379  0.1659 -0.2901
  301poe    c23 3603   3.643   2.777   5.191 -0.0307  0.7239  0.1761
  301poe    c23 3604   3.506   2.804   5.126 -0.0784  0.0143 -0.0328
  301poe     o2 3605   3.504   2.933   5.068  0.7231 -0.0964 -0.3334
  301poe    c23 3606   3.414   2.942   4.960  0.3369 -0.5345 -0.0548
  301poe    c23 3607   3.481   3.061   4.889 -0.8617 -0.1371 -0.5394
  301poe     o2 3608   3.616   3.029   4.867 -0.7198  0.2704 -0.2618
  301poe    c23 3609   3.679   3.097   4.761 -0.0193 -0.0834 -0.0861
  301poe    c23 3610   3.789   2.997   4.724  0.0861  0.1967 -0.5432
  301poe     o2 3611   3.854   2.951   4.841  0.8009  1.2221 -0.5208
  301poe    c31 3612   3.965   2.871   4.803 -0.1419 -0.0903 -0.5699
  302poe    c31 3613   4.097   1.984   1.118  0.0908  0.6575  0.1167
  302poe     o2 3614   4.068   2.116   1.078 -0.1976  0.5450 -0.0457
  302poe    c23 3615   3.928   2.131   1.073 -0.2708 -0.1358 -0.2431
  302poe    c23 3616   3.876   2.275   1.093  0.2336 -0.0134  0.2086
  302poe     o2 3617   3.893   2.301   1.230 -0.1887 -0.0487  0.2695
  302poe    c23 3618   3.853   2.435   1.253 -0.0995  0.0555 -0.1842
  302poe    c23 3619   3.881   2.471   1.400  0.0944 -0.1377 -0.1733
  302poe     o2 3620   3.796   2.390   1.477 -0.0927  0.0532 -0.1798
  302poe    c23 3621   3.753   2.455   1.595  0.2070 -0.2332  0.0914
  302poe    c23 3622   3.653   2.361   1.665  0.0243  0.0215  0.1715
  302poe     o2 3623   3.719   2.238   1.681 -0.6022 -0.3256  0.1310
  302poe    c31 3624   3.685   2.181   1.806  0.0110  0.0173  0.4641
  303poe    c31 3625   1.178   3.981   6.307 -0.0893 -0.3325  0.1161
  303poe     o2 3626   1.090   3.871   6.321 -0.3117 -0.2188 -0.3531
  303poe    c23 3627   1.145   3.781   6.415 -0.3192  0.3589  0.2129
  303poe    c23 3628   1.031   3.686   6.457 -0.4712  0.4539  0.0200
  303poe     o2 3629   0.951   3.655   6.345 -0.4436  0.0179  0.1170
  303poe    c23 3630   0.835   3.585   6.382 -0.3389 -0.2236 -0.0091
  303poe    c23 3631   0.710   3.662   6.336 -0.2926 -0.1605 -0.0296
  303poe     o2 3632   0.743   3.717   6.211  0.4293 -0.0596  0.2016
  303poe    c23 3633   0.674   3.831   6.165 -0.1389 -0.2169  0.6521
  303poe    c23 3634   0.766   3.876   6.049 -0.3825 -0.1554  0.4832
  303poe     o2 3635   0.897   3.896   6.096 -0.1581 -0.0019 -0.1987
  303poe    c31 3636   0.977   3.959   5.998  0.1938  0.0412  0.1135
  304poe    c31 3637   4.512   4.514   5.291  0.0888 -0.3288 -0.4117
  304poe     o2 3638   4.593   4.628   5.303 -0.6810  0.1872 -0.0229
  304poe    c23 3639   4.579   4.699   5.182  0.7685  0.0268 -0.3020
  304poe    c23 3640   4.642   4.839   5.198  0.4694  0.0552  0.7359
  304poe     o2 3641   4.597   4.875   5.327 -0.4938  0.6566  0.2500
  304poe    c23 3642   4.672   4.979   5.385 -0.3099  0.8495 -0.3194
  304poe    c23 3643   4.621   5.006   5.528  0.0482 -0.2924  0.0371
  304poe     o2 3644   4.598   4.882   5.591 -0.3631 -0.0140  0.4395
  304poe    c23 3645   4.506   4.891   5.697 -0.8779  0.3008 -0.0299
  304poe    c23 3646   4.487   4.742   5.733  0.9686 -0.0263 -0.3454
  304poe     o2 3647   4.479   4.651   5.626 -0.3584 -0.1355 -0.1689
  304poe    c31 3648   4.514   4.520   5.664  0.3073  0.0666 -0.0654
  305poe    c31 3649   2.425   3.500   6.274 -0.3401  0.4617  0.1015
  305poe     o2 3650   2.347   3.599   6.212 -0.6692 -0.2015 -0.5633
  305poe    c23 3651   2.356   3.608   6.072  0.4615 -0.2299 -0.5002
  305poe    c23 3652   2.248   3.704   6.019  0.1864 -0.0166  0.4439
  305poe     o2 3653   2.263   3.810   6.111 -0.5322  0.0397  0.5030
  305poe    c23 3654   2.211   3.931   6.061  0.5039  0.3198  0.0792
  305poe    c23 3655   2.234   4.048   6.158  0.2284  0.6143 -0.2076
  305poe     o2 3656   2.218   4.009   6.293  0.0759 -0.0614 -0.4180
  305poe    c23 3657   2.154   4.113   6.363 -0.0743 -0.3367 -0.1460
  305poe    c23 3658   2.090   4.089   6.501  0.6413 -0.2883  0.1982
  305poe     o2 3659   1.982   3.999   6.509  0.7922 -0.4813  0.0725
  305poe    c31 3660   1.865   4.022   6.434  1.1693 -0.3668 -0.4831
  306poe    c31 3661   2.138   3.730   5.617  0.2886  0.0157  0.2596
  306poe     o2 3662   2.156   3.702   5.480  0.1982  0.4399  0.1629
  306poe    c23 3663   2.279   3.754   5.435 -0.0052  0.7573 -0.0332
  306poe    c23 3664   2.282   3.765   5.281  0.5157 -0.5536 -0.1348
  306poe     o2 3665   2.231   3.644   5.231 -0.2351 -0.3513  0.1244
  306poe    c23 3666   2.220   3.639   5.090  0.2538 -0.0144  0.0722
  306poe    c23 3667   2.140   3.511   5.060  0.3557 -0.1267  0.2693
  306poe     o2 3668   2.040   3.526   5.158 -0.3663  0.4649 -0.5314
  306poe    c23 3669   1.952   3.417   5.175 -0.3742  0.6052  0.4186
  306poe    c23 3670   1.857   3.465   5.286 -0.4207  0.3258  0.5007
  306poe     o2 3671   1.929   3.515   5.397  0.1098 -0.1383  0.3680
  306poe    c31 3672   1.841   3.546   5.502  0.0325 -0.3556  0.3663
  307poe    c31 3673   4.583   3.992   5.532  0.2574 -0.1007 -0.6014
  307poe     o2 3674   4.511   3.894   5.461  0.6556 -0.6329 -0.2877
  307poe    c23 3675   4.530   3.771   5.527 -0.1259 -0.2566  0.6649
  307poe    c23 3676   4.502   3.654   5.431  0.0751  0.1139  0.1475
  307poe     o2 3677   4.380   3.688   5.369  0.4008  0.2604 -0.4228
  307poe    c23 3678   4.346   3.603   5.262  0.0616  0.0104 -0.1203
  307poe    c23 3679   4.272   3.683   5.153  0.0546  0.0574 -0.0818
  307poe     o2 3680   4.330   3.810   5.173  0.1090  0.0078  0.0864
  307poe    c23 3681   4.333   3.894   5.059 -0.1814 -0.2480 -0.1117
  307poe    c23 3682   4.414   4.019   5.096 -0.3979  0.1268 -0.9029
  307poe     o2 3683   4.387   4.040   5.232 -0.5322  0.2842 -0.9528
  307poe    c31 3684   4.431   4.172   5.257  0.2628 -0.0868 -0.3389
  308poe    c31 3685   3.010   2.904   4.239  0.1554 -0.6904  0.6879
  308poe     o2 3686   2.886   2.917   4.306 -0.1620 -0.3817  0.0485
  308poe    c23 3687   2.929   2.966   4.431 -0.1219 -0.5318  0.0938
  308poe    c23 3688   2.824   2.934   4.539 -0.3572  0.2847  0.1168
  308poe     o2 3689   2.701   2.990   4.500 -0.1973  0.1796 -0.5406
  308poe    c23 3690   2.593   2.932   4.570 -0.1255  0.4828 -0.1776
  308poe    c23 3691   2.471   2.913   4.477 -0.2013 -0.9189  0.1855
  308poe     o2 3692   2.535   2.875   4.358 -0.2410 -0.1386 -0.0897
  308poe    c23 3693   2.451   2.817   4.260  0.0430 -0.1307 -0.3401
  308poe    c23 3694   2.552   2.775   4.151 -0.1466 -0.5832 -0.3413
  308poe     o2 3695   2.654   2.870   4.133 -0.1716 -0.4484  0.1910
  308poe    c31 3696   2.726   2.839   4.016 -0.8886 -0.5146 -0.2436
  309poe    c31 3697   5.915   6.613   6.406 -0.3229 -0.5696 -0.0662
  309poe     o2 3698   5.833   6.517   6.342 -0.5734 -0.4850  0.1248
  309poe    c23 3699   5.709   6.572   6.304 -0.2045  0.5543  0.3767
  309poe    c23 3700   5.620   6.467   6.235  0.1599  0.4410  0.0806
  309poe     o2 3701   5.709   6.401   6.147 -0.3920  0.5222 -0.5409
  309poe    c23 3702   5.644   6.282   6.109  0.2645 -0.1718  0.4474
  309poe    c23 3703   5.760   6.195   6.056  0.1055  0.1694 -0.4841
  309poe     o2 3704   5.860   6.215   6.153 -0.2986  0.1373 -0.0599
  309poe    c23 3705   5.986   6.183   6.100 -0.4001 -0.3744 -0.0034
  309poe    c23 3706   6.082   6.196   6.220 -0.1398  0.1079 -0.2578
  309poe     o2 3707   6.039   6.312   6.288  0.3580 -0.0319  0.3036
  309poe    c31 3708   6.101   6.309   6.415  0.5229 -0.3021  0.2173
  310poe    c31 3709   4.001   6.070   1.768 -0.0279  0.1991 -0.1892
  310poe     o2 3710   4.088   6.006   1.677  0.6744  0.1693  0.4884
  310poe    c23 3711   4.135   6.110   1.596 -0.2169  0.3624  0.2073
  310poe    c23 3712   4.238   6.066   1.490  0.4294  0.0902  0.9400
  310poe     o2 3713   4.182   5.948   1.438 -0.0084  0.7442 -0.1184
  310poe    c23 3714   4.239   5.904   1.316  0.4723  0.3052  0.2583
  310poe    c23 3715   4.143   5.791   1.275  0.4931  0.3483  0.0924
  310poe     o2 3716   4.101   5.722   1.391  0.3276  0.0906 -0.1187
  310poe    c23 3717   4.004   5.622   1.374  0.1652  0.2410 -0.0817
  310poe    c23 3718   3.965   5.584   1.519  0.3244  0.0580 -0.0866
  310poe     o2 3719   3.954   5.699   1.599  0.4559  0.0596 -0.0708
  310poe    c31 3720   3.930   5.668   1.734  0.1464 -0.2647 -0.1993
  311poe    c31 3721   6.539   2.286   2.363  0.1532  0.1133 -0.3244
  311poe     o2 3722   6.504   2.298   2.227  0.0999 -0.1171 -0.3313
  311poe    c23 3723   6.408   2.400   2.211  0.2531  0.0451 -0.2110
  311poe    c23 3724   6.304   2.343   2.114  0.0541 -0.3959  0.2571
  311poe     o2 3725   6.370   2.286   2.003  0.0262 -0.2082  0.1438
  311poe    c23 3726   6.280   2.232   1.909  0.0827  0.1349 -0.1097
  311poe    c23 3727   6.373   2.155   1.814 -0.2739  0.0755 -0.4122
  311poe     o2 3728   6.463   2.092   1.902 -0.3701  0.0811 -0.3105
  311poe    c23 3729   6.565   2.023   1.833 -0.2051  0.3042 -0.2923
  311poe    c23 3730   6.674   1.969   1.927  0.3512 -0.0764 -1.1377
  311poe     o2 3731   6.701   2.052   2.038 -0.0846 -0.8072 -0.4722
  311poe    c31 3732   6.802   1.992   2.116 -0.1763 -0.1279  0.1881
  312poe    c31 3733   0.394   4.999   5.774  0.2445  0.4647  0.0341
  312poe     o2 3734   0.462   4.976   5.895 -0.2032 -0.5417  0.1098
  312poe    c23 3735   0.446   5.090   5.976 -0.3152 -0.2818 -0.2759
  312poe    c23 3736   0.570   5.109   6.066 -0.0722  0.2169 -0.7068
  312poe     o2 3737   0.620   4.981   6.098 -0.1327  0.3641 -0.0206
  312poe    c23 3738   0.723   4.969   6.194  0.0967 -0.3819 -0.3529
  312poe    c23 3739   0.752   4.824   6.239 -0.2268 -0.2462  0.3048
  312poe     o2 3740   0.798   4.739   6.136 -0.2874  0.1444 -0.0475
  312poe    c23 3741   0.836   4.619   6.199 -0.4977  0.1082  0.0113
  312poe    c23 3742   0.909   4.513   6.114 -0.3473 -0.3346  0.6820
  312poe     o2 3743   1.039   4.552   6.075 -0.5090 -0.3904  0.0673
  312poe    c31 3744   1.089   4.466   5.975  0.1661 -0.0281  0.0873
  313poe    c31 3745   2.092   1.486   0.725  0.2409  0.3518  0.0108
  313poe     o2 3746   2.112   1.350   0.694 -0.3046  0.3390 -0.3053
  313poe    c23 3747   2.180   1.343   0.570  0.5428  0.1052  0.1655
  313poe    c23 3748   2.128   1.223   0.488  0.2394  0.3047  0.0658
  313poe     o2 3749   2.090   1.132   0.589 -0.4197  0.2748 -0.2048
  313poe    c23 3750   2.029   1.016   0.537 -0.2583 -0.2024  0.6536
  313poe    c23 3751   2.027   0.929   0.664  0.2469 -0.6356  0.3677
  313poe     o2 3752   1.948   0.999   0.758  0.4146 -0.3345  0.2871
  313poe    c23 3753   1.994   0.955   0.883  0.2006 -0.4632  0.3228
  313poe    c23 3754   1.970   1.075   0.976 -0.0589  0.0733 -0.4300
  313poe     o2 3755   2.035   1.191   0.929  0.5481 -0.1150 -0.0659
  313poe    c31 3756   2.033   1.274   1.043  0.0516 -0.2920  0.0561
  314poe    c31 3757   3.832   5.135   4.924 -0.3003  0.3216 -0.6298
  314poe     o2 3758   3.971   5.141   4.904 -0.1569  0.0617  0.2298
  314poe    c23 3759   4.028   5.270   4.896 -0.0504  0.0208  0.3418
  314poe    c23 3760   4.178   5.256   4.930  0.0869 -0.1076 -0.3046
  314poe     o2 3761   4.216   5.142   4.857  0.1433  0.0415 -0.5072
  314poe    c23 3762   4.354   5.116   4.868  0.1390  0.2919  0.1824
  314poe    c23 3763   4.382   4.972   4.820 -0.2606  0.2780 -0.0158
  314poe     o2 3764   4.283   4.888   4.875  0.1601 -0.1556  0.0818
  314poe    c23 3765   4.285   4.754   4.833 -0.1619 -0.1457  0.0313
  314poe    c23 3766   4.137   4.716   4.853 -0.2092  0.2563  0.4410
  314poe     o2 3767   4.050   4.813   4.801  0.1866  0.0592 -0.6181
  314poe    c31 3768   3.918   4.762   4.809  0.1739  0.1390 -0.3137
  315poe    c31 3769   2.774   5.930   5.948 -0.5347  0.0769 -0.2509
  315poe     o2 3770   2.807   6.054   5.889 -0.1198 -0.1282 -0.4526
  315poe    c23 3771   2.794   6.145   5.996  0.1296 -0.4910 -0.1087
  315poe    c23 3772   2.798   6.287   5.936  0.0594 -0.4543 -0.0263
  315poe     o2 3773   2.728   6.272   5.815 -0.2874  0.0982  0.1019
  315poe    c23 3774   2.715   6.385   5.731  0.0146 -0.1442 -0.2753
  315poe    c23 3775   2.630   6.333   5.613 -0.0462 -0.3202 -0.1533
  315poe     o2 3776   2.684   6.208   5.577  0.3782 -0.1675 -0.0503
  315poe    c23 3777   2.598   6.125   5.502  0.2187 -0.3171  0.2956
  315poe    c23 3778   2.665   5.988   5.484 -0.1664 -0.4673  0.0028
  315poe     o2 3779   2.704   5.940   5.611 -0.6082 -0.1502  0.2635
  315poe    c31 3780   2.738   5.803   5.604 -0.1513 -0.0212 -0.1883
  316poe    c31 3781   5.223   2.269   0.317 -0.6265 -0.0141  0.4708
  316poe     o2 3782   5.166   2.359   0.409 -0.5507  0.1040  0.4021
  316poe    c23 3783   5.042   2.409   0.364 -0.2629  0.2131 -0.2831
  316poe    c23 3784   4.961   2.394   0.494 -0.0002  0.1000 -0.1322
  316poe     o2 3785   5.054   2.435   0.592  0.0946  0.2125 -0.2697
  316poe    c23 3786   4.987   2.466   0.713  0.2264  0.0950 -0.1677
  316poe    c23 3787   5.096   2.446   0.820  0.1931 -0.0403 -0.1593
  316poe     o2 3788   5.207   2.513   0.767  0.4688 -0.4547 -0.1131
  316poe    c23 3789   5.329   2.477   0.828  0.2705 -0.2097  0.4305
  316poe    c23 3790   5.443   2.490   0.725 -0.2708  0.4203 -0.0952
  316poe     o2 3791   5.394   2.434   0.605  0.2430  0.4951 -0.3403
  316poe    c31 3792   5.491   2.373   0.523  0.4081 -0.3860  0.4949
  317poe    c31 3793   5.039   2.201   2.821  0.1157  0.1372 -0.0602
  317poe     o2 3794   5.130   2.303   2.853  0.0345  0.1119  0.2476
  317poe    c23 3795   5.168   2.294   2.989  0.2676 -0.1072  0.1677
  317poe    c23 3796   5.267   2.406   3.024 -0.2469  0.2581  0.4588
  317poe     o2 3797   5.208   2.521   2.967  0.3925  0.1975 -0.3440
  317poe    c23 3798   5.289   2.636   2.981  0.6069 -0.0122  0.1983
  317poe    c23 3799   5.243   2.743   2.880 -0.1991 -0.2809  0.2687
  317poe     o2 3800   5.202   2.668   2.768 -0.3023 -0.2770  0.3044
  317poe    c23 3801   5.132   2.743   2.671 -0.1444 -0.0122  0.3945
  317poe    c23 3802   5.126   2.647   2.551 -0.4612  0.4041  0.0758
  317poe     o2 3803   5.073   2.521   2.582 -0.0134  0.1445 -0.1995
  317poe    c31 3804   5.066   2.435   2.471 -0.0697  0.1054 -0.1658
  318poe    c31 3805   3.273   0.410   1.905  0.2269  0.2833  0.1740
  318poe     o2 3806   3.410   0.443   1.906  0.3940 -0.3877 -0.1130
  318poe    c23 3807   3.451   0.508   1.788 -0.1022 -0.5522 -0.3766
  318poe    c23 3808   3.591   0.569   1.807 -0.1789 -0.3528 -0.4504
  318poe     o2 3809   3.665   0.460   1.856 -0.1171  0.0381  0.3278
  318poe    c23 3810   3.790   0.499   1.908 -0.0856  0.1586  0.1596
  318poe    c23 3811   3.868   0.382   1.970  0.0485  0.2688  0.2014
  318poe     o2 3812   3.762   0.312   2.032 -0.2265  0.2384 -0.2985
  318poe    c23 3813   3.777   0.172   2.036 -0.3356  0.2368  0.0619
  318poe    c23 3814   3.654   0.096   2.088 -0.3212 -0.1862 -0.5100
  318poe     o2 3815   3.551   0.174   2.033 -0.4249 -0.0437 -0.1185
  318poe    c31 3816   3.429   0.126   2.085 -0.5422  0.2032 -0.1638
  319poe    c31 3817   2.922   4.473   1.599  0.1597 -0.1329  0.4583
  319poe     o2 3818   2.979   4.549   1.703  0.1477 -0.0714  0.4198
  319poe    c23 3819   2.883   4.632   1.764 -0.4933 -0.6317  0.1841
  319poe    c23 3820   2.927   4.713   1.887 -0.4190  0.1096 -0.3160
  319poe     o2 3821   2.989   4.629   1.983 -0.1492  0.9250  0.2368
  319poe    c23 3822   3.016   4.707   2.097  0.5727  0.2014  0.5673
  319poe    c23 3823   3.084   4.622   2.206  0.3483 -0.6924  0.0275
  319poe     o2 3824   2.997   4.532   2.270 -0.0547 -0.2277  0.1397
  319poe    c23 3825   3.068   4.442   2.352 -0.0569 -0.2598  0.1068
  319poe    c23 3826   2.968   4.372   2.446 -0.1470 -0.0608  0.1602
  319poe     o2 3827   2.848   4.337   2.380 -0.2162 -0.1714  0.3431
  319poe    c31 3828   2.754   4.274   2.464 -0.1707 -0.2738  0.3164
  320poe    c31 3829   5.284   3.259   4.111 -0.2250 -0.0811 -0.0716
  320poe     o2 3830   5.164   3.280   4.040 -0.3159  0.0981  0.1360
  320poe    c23 3831   5.069   3.342   4.124  0.1723  0.9869  0.0367
  320poe    c23 3832   4.967   3.395   4.022 -0.3028  0.1051  0.0523
  320poe     o2 3833   4.934   3.294   3.928  0.0315  0.4539 -0.4440
  320poe    c23 3834   4.844   3.339   3.829  0.1729  0.8933 -0.3779
  320poe    c23 3835   4.861   3.233   3.718 -0.2074  0.1732  0.2487
  320poe     o2 3836   5.000   3.221   3.702 -0.2710 -0.0812 -0.1144
  320poe    c23 3837   5.036   3.114   3.618  0.0104  0.2634 -0.4386
  320poe    c23 3838   5.189   3.099   3.634 -0.0825  0.0796  0.3177
  320poe     o2 3839   5.221   3.110   3.770  0.1181  0.0702  0.2714
  320poe    c31 3840   5.357   3.077   3.790  0.1393  0.3656  0.6307
  321poe    c31 3841   5.356   1.537   3.890  0.2249 -0.2699 -0.4797
  321poe     o2 3842   5.481   1.562   3.950  0.0106  0.1124 -0.1863
  321poe    c23 3843   5.561   1.448   3.925  0.1719  0.2384 -0.2467
  321poe    c23 3844   5.690   1.432   4.007  0.2339  0.0118 -0.3891
  321poe     o2 3845   5.774   1.544   3.991  0.3371  0.0600  0.4328
  321poe    c23 3846   5.851   1.579   4.103  0.3157 -0.1510  0.5145
  321poe    c23 3847   5.772   1.650   4.214 -0.5122 -0.2467 -0.0095
  321poe     o2 3848   5.683   1.740   4.151 -0.4919 -0.2637 -0.0614
  321poe    c23 3849   5.606   1.800   4.252 -0.2172 -0.0367  0.0157
  321poe    c23 3850   5.504   1.894   4.185  0.2474  0.4483 -0.0175
  321poe     o2 3851   5.457   1.816   4.077 -0.1250  0.8594 -0.1527
  321poe    c31 3852   5.338   1.877   4.031 -0.6712 -0.2403 -0.2368
  322poe    c31 3853   1.880   5.732   1.847  0.3378  0.7138  0.0137
  322poe     o2 3854   1.801   5.816   1.928 -0.5635 -0.0684 -0.0383
  322poe    c23 3855   1.741   5.913   1.845 -0.4431 -0.1662 -0.2408
  322poe    c23 3856   1.636   5.982   1.935  0.0517  0.0945  0.1387
  322poe     o2 3857   1.689   6.038   2.054  0.2477  1.3070 -0.5124
  322poe    c23 3858   1.583   6.083   2.135  0.1044 -0.4693  0.3405
  322poe    c23 3859   1.663   6.088   2.266 -0.1890 -0.1931  0.5116
  322poe     o2 3860   1.771   5.998   2.269  0.3307  0.4257  0.5603
  322poe    c23 3861   1.777   5.925   2.390 -0.1613 -0.2040  0.2110
  322poe    c23 3862   1.854   5.795   2.360 -0.2677 -0.2073 -0.0495
  322poe     o2 3863   1.819   5.759   2.228  0.0470  0.2631 -0.2634
  322poe    c31 3864   1.822   5.620   2.206 -0.7269  0.2510 -0.2904
  323poe    c31 3865   3.255   0.252   4.396 -0.5073 -0.0028 -0.0875
  323poe     o2 3866   3.262   0.365   4.481 -0.8700 -0.1095  0.0855
  323poe    c23 3867   3.158   0.456   4.453 -0.5180  0.2338 -0.1159
  323poe    c23 3868   3.156   0.570   4.557  0.1990  0.0190  0.1371
  323poe     o2 3869   3.276   0.641   4.537  0.1826  0.2103  0.6993
  323poe    c23 3870   3.301   0.730   4.643 -0.2559  0.4183  0.6298
  323poe    c23 3871   3.450   0.714   4.679 -0.0484  0.2652 -0.2661
  323poe     o2 3872   3.477   0.575   4.676  0.4380  0.3488  0.0764
  323poe    c23 3873   3.607   0.543   4.718  0.2596  0.0000  0.3638
  323poe    c23 3874   3.614   0.389   4.726  0.2732 -0.0389 -0.3485
  323poe     o2 3875   3.545   0.340   4.613 -0.0055 -0.2748 -0.0749
  323poe    c31 3876   3.543   0.199   4.618  0.2707 -0.2813 -0.1284
  324poe    c31 3877   0.614   1.384   1.302  0.2137  0.4955 -0.7071
  324poe     o2 3878   0.691   1.278   1.251  0.2668  0.0875  0.2028
  324poe    c23 3879   0.792   1.333   1.169  0.6332  0.1278  0.6709
  324poe    c23 3880   0.834   1.217   1.077 -0.5813  0.3096 -0.1466
  324poe     o2 3881   0.874   1.123   1.175 -0.8237  0.2310 -0.1232
  324poe    c23 3882   0.921   1.012   1.104 -0.1682  0.4917 -0.0992
  324poe    c23 3883   0.928   0.904   1.213  0.0765  0.5383 -0.0677
  324poe     o2 3884   0.804   0.900   1.279 -0.1778 -0.7123 -0.5783
  324poe    c23 3885   0.817   0.869   1.416 -0.0297  0.7365 -0.2452
  324poe    c23 3886   0.689   0.916   1.487 -0.1366 -0.2415  0.2260
  324poe     o2 3887   0.638   1.034   1.429  0.1550 -0.2587 -0.0670
  324poe    c31 3888   0.510   1.060   1.483  0.4592 -0.3911  0.7325
  325poe    c31 3889   5.308   1.774   5.690 -0.2973  0.3964  0.2322
  325poe     o2 3890   5.424   1.838   5.641 -0.3913  0.4768  0.1127
  325poe    c23 3891   5.536   1.752   5.632 -0.2280  0.6448  0.5226
  325poe    c23 3892   5.658   1.846   5.630  0.2918 -0.0189  0.6585
  325poe     o2 3893   5.628   1.946   5.534  0.1084 -0.0779  0.6545
  325poe    c23 3894   5.715   2.056   5.543 -0.2930  0.2320  0.8027
  325poe    c23 3895   5.645   2.161   5.630  0.1238  0.6521  0.6382
  325poe     o2 3896   5.509   2.145   5.595  0.2591 -0.2704  0.5179
  325poe    c23 3897   5.423   2.243   5.648  0.3672 -0.0353  0.2615
  325poe    c23 3898   5.290   2.222   5.572  0.1826 -0.0466  0.5876
  325poe     o2 3899   5.257   2.085   5.571  0.2326 -0.0596  0.7041
  325poe    c31 3900   5.117   2.074   5.557  0.3484 -0.0566 -0.6083
  326poe    c31 3901   1.823   5.006   5.866  0.5324 -0.1233  0.3940
  326poe     o2 3902   1.723   4.948   5.947  0.2595 -0.1069  0.0724
  326poe    c23 3903   1.660   4.847   5.872  0.0606  0.3703 -0.4042
  326poe    c23 3904   1.597   4.751   5.975  0.4009  0.2622 -0.2950
  326poe     o2 3905   1.516   4.834   6.056 -0.2798 -0.3807 -0.3031
  326poe    c23 3906   1.461   4.759   6.162 -0.1482  0.3913  0.3147
  326poe    c23 3907   1.427   4.874   6.259 -0.2146  0.6874 -0.0557
  326poe     o2 3908   1.543   4.955   6.267  0.4870 -0.3471  0.4562
  326poe    c23 3909   1.535   5.064   6.357 -0.3484 -0.0721  0.0603
  326poe    c23 3910   1.676   5.125   6.344 -0.7078  0.7387 -0.1217
  326poe     o2 3911   1.714   5.113   6.209  0.1103  0.2511  0.1373
  326poe    c31 3912   1.845   5.162   6.193  0.4527 -0.6538  0.1654
  327poe    c31 3913   1.809   1.569   3.577  0.2047  0.3809 -0.4223
  327poe     o2 3914   1.767   1.670   3.666 -0.0058 -0.1152  0.0516
  327poe    c23 3915   1.833   1.794   3.654  0.3677 -0.3004  0.2032
  327poe    c23 3916   1.744   1.886   3.739  0.5329 -0.3240  0.4037
  327poe     o2 3917   1.767   1.843   3.872 -0.2223 -0.0800  0.6203
  327poe    c23 3918   1.679   1.907   3.962 -0.4913  0.4237  0.0081
  327poe    c23 3919   1.710   1.846   4.099 -0.1448  0.0178 -0.2476
  327poe     o2 3920   1.723   1.707   4.077  0.1753  0.1056 -0.6132
  327poe    c23 3921   1.821   1.655   4.165 -0.0614  0.4964 -0.1156
  327poe    c23 3922   1.834   1.513   4.108 -0.1041  0.1891  0.6397
  327poe     o2 3923   1.850   1.521   3.968  0.0414 -0.2059  0.6296
  327poe    c31 3924   1.881   1.393   3.918 -0.3007 -0.1158  0.1764
  328poe    c31 3925   1.770   1.859   1.804 -0.6201 -0.2655  0.8128
  328poe     o2 3926   1.678   1.861   1.697 -0.1117  0.5192  0.3728
  328poe    c23 3927   1.580   1.960   1.722 -0.3304  0.3958  0.0159
  328poe    c23 3928   1.461   1.935   1.629 -0.1776  0.2337 -0.1371
  328poe     o2 3929   1.523   1.890   1.510 -0.4203 -0.4133 -0.0250
  328poe    c23 3930   1.444   1.803   1.432  0.0647 -0.4256 -0.5078
  328poe    c23 3931   1.531   1.738   1.323 -0.0901 -0.2755 -0.7230
  328poe     o2 3932   1.649   1.709   1.395 -0.4072 -0.3574 -0.2250
  328poe    c23 3933   1.756   1.671   1.311  0.0722 -0.1255  0.2777
  328poe    c23 3934   1.882   1.652   1.399  0.0848 -0.1532  0.2537
  328poe     o2 3935   1.884   1.759   1.490  0.3615  0.2050 -0.1669
  328poe    c31 3936   2.010   1.800   1.537  0.1505  0.3659  0.2693
  329poe    c31 3937   3.791   5.433   6.036  0.5330  0.3270  0.2304
  329poe     o2 3938   3.793   5.372   5.909  0.5683  0.0940  0.3426
  329poe    c23 3939   3.919   5.311   5.892  0.3373 -0.2199 -0.2775
  329poe    c23 3940   3.927   5.232   5.761 -0.3640 -0.4783 -0.1652
  329poe     o2 3941   3.873   5.320   5.665 -0.1555 -0.3300 -0.1445
  329poe    c23 3942   3.822   5.255   5.551  0.0226 -0.9111  0.1068
  329poe    c23 3943   3.682   5.198   5.579 -0.2201 -0.2845  0.1618
  329poe     o2 3944   3.604   5.297   5.644  0.0232  0.0749 -0.0875
  329poe    c23 3945   3.486   5.253   5.707  0.2968 -0.1666  0.2611
  329poe    c23 3946   3.425   5.380   5.770  0.3711  0.1673 -0.3286
  329poe     o2 3947   3.531   5.457   5.822  0.1159  0.7269 -0.6348
  329poe    c31 3948   3.475   5.524   5.932  0.6094  0.9645 -0.5247
  330poe    c31 3949   1.090   4.381   4.189  0.4805  0.1527  0.3278
  330poe     o2 3950   1.175   4.473   4.124 -0.0445 -0.0110 -0.6079
  330poe    c23 3951   1.207   4.442   3.991  0.5537 -0.1220 -0.4384
  330poe    c23 3952   1.320   4.523   3.924  0.1694  0.3588 -0.5116
  330poe     o2 3953   1.331   4.661   3.950  0.5457  0.1573  0.4502
  330poe    c23 3954   1.228   4.746   3.904  0.6452  0.4815  0.8244
  330poe    c23 3955   1.170   4.824   4.024  0.1228  0.2639  0.7156
  330poe     o2 3956   1.109   4.744   4.123 -0.1148 -0.0089  0.3537
  330poe    c23 3957   1.048   4.821   4.224  0.6529  0.6242  0.3512
  330poe    c23 3958   1.007   4.724   4.337  0.2045 -0.1414 -0.4575
  330poe     o2 3959   1.122   4.650   4.374  0.0589 -0.5392 -0.7924
  330poe    c31 3960   1.110   4.595   4.503  0.4911  0.8082 -0.1623
  331poe    c31 3961   6.017   0.317   4.655  0.5697  0.5443 -0.5506
  331poe     o2 3962   6.010   0.417   4.754  0.0303 -0.2198  0.1980
  331poe    c23 3963   6.108   0.518   4.737 -0.1712 -0.0015  0.3401
  331poe    c23 3964   6.056   0.651   4.795  0.0260  0.1938  0.0704
  331poe     o2 3965   6.035   0.631   4.933 -0.2509  0.0605  0.0102
  331poe    c23 3966   5.983   0.743   5.001 -0.6708 -0.0266 -0.1676
  331poe    c23 3967   5.960   0.681   5.140  0.1984 -0.3094 -0.1455
  331poe     o2 3968   5.918   0.551   5.104 -0.4525 -0.2207  0.2791
  331poe    c23 3969   5.908   0.465   5.215  0.0491 -0.0156  0.4841
  331poe    c23 3970   5.856   0.330   5.163  0.5803 -0.1306  0.2370
  331poe     o2 3971   5.904   0.298   5.035  0.4014 -0.2676  0.2037
  331poe    c31 3972   5.864   0.168   5.001  0.4452 -0.1765 -0.2010
  332poe    c31 3973   4.791   4.509   2.568  0.2773  0.0517 -0.1849
  332poe     o2 3974   4.862   4.406   2.634 -0.2618 -0.0919  0.1779
  332poe    c23 3975   4.785   4.361   2.743 -0.3659  0.3000  0.2694
  332poe    c23 3976   4.858   4.246   2.815 -0.3386  0.3374  0.3026
  332poe     o2 3977   4.887   4.154   2.712  0.5416  0.6687  0.2549
  332poe    c23 3978   4.978   4.054   2.752 -0.0609  0.0439  0.0653
  332poe    c23 3979   5.059   4.018   2.627  0.0640 -0.2942  0.2420
  332poe     o2 3980   5.101   4.133   2.558  0.0041 -0.4117  0.0093
  332poe    c23 3981   5.202   4.101   2.464 -0.0980 -0.1417 -0.1929
  332poe    c23 3982   5.241   4.240   2.412  0.0780  0.0815  0.5264
  332poe     o2 3983   5.125   4.320   2.405 -0.1713 -0.3535 -0.5258
  332poe    c31 3984   5.143   4.441   2.335  0.1021  0.2601  0.5811
  333poe    c31 3985   4.466   4.066   1.898 -0.5652  0.3669  0.0143
  333poe     o2 3986   4.435   3.957   1.983 -0.1612  0.0088 -0.2981
  333poe    c23 3987   4.420   3.847   1.897 -0.2445 -0.4601  0.3130
  333poe    c23 3988   4.416   3.723   1.988  0.2833 -0.6500  0.0821
  333poe     o2 3989   4.319   3.761   2.083  0.3127  0.2461 -0.2348
  333poe    c23 3990   4.308   3.677   2.196  0.0171 -0.2527 -0.6309
  333poe    c23 3991   4.348   3.761   2.318  0.2531  0.0768 -0.9350
  333poe     o2 3992   4.288   3.887   2.299  0.2999  0.1934 -0.3298
  333poe    c23 3993   4.355   3.981   2.381  0.4980 -0.1529 -0.0927
  333poe    c23 3994   4.322   4.124   2.336  0.1049 -0.1904  0.0694
  333poe     o2 3995   4.340   4.129   2.197  0.2903 -0.0867  0.0957
  333poe    c31 3996   4.310   4.263   2.162  0.5525  0.0771  0.4976
  334poe    c31 3997   5.946   3.914   5.887 -0.2220 -0.5285  0.4835
  334poe     o2 3998   5.979   3.975   6.010 -0.2307  0.2682  0.0970
  334poe    c23 3999   5.896   3.930   6.115 -0.2499  0.1091  0.0141
  334poe    c23 4000   5.940   4.006   6.241 -0.5729 -0.0776  0.2430
  334poe     o2 4001   6.079   3.991   6.259 -0.5256  0.5071  0.3912
  334poe    c23 4002   6.144   4.053   6.368 -0.1301 -0.2971  0.6241
  334poe    c23 4003   6.287   4.001   6.345  0.2134  0.8402  0.0776
  334poe     o2 4004   6.328   4.023   6.212 -0.1639 -0.1160 -0.2059
  334poe    c23 4005   6.434   3.940   6.171 -0.3780 -0.4276 -0.1332
  334poe    c23 4006   6.451   3.961   6.019  0.3161 -0.3540 -0.0473
  334poe     o2 4007   6.326   3.949   5.956  0.4553  0.0884 -0.4069
  334poe    c31 4008   6.351   3.972   5.819  0.1566  0.4640 -0.4035
  335poe    c31 4009   0.387   1.407   3.828  0.3268  0.4062  0.4745
  335poe     o2 4010   0.372   1.532   3.892 -0.5530  0.5859 -0.0657
  335poe    c23 4011   0.239   1.566   3.925 -0.6303  0.3892 -0.1713
  335poe    c23 4012   0.240   1.698   4.005  0.0247 -0.0148  0.5092
  335poe     o2 4013   0.328   1.768   3.920 -0.2645  0.1865  0.3717
  335poe    c23 4014   0.333   1.903   3.959 -0.0183  0.1893  0.3303
  335poe    c23 4015   0.460   1.959   3.892 -0.1449  0.1462  0.0506
  335poe     o2 4016   0.554   1.854   3.893 -0.2799  0.0241 -0.1467
  335poe    c23 4017   0.669   1.877   3.815 -0.2900 -0.0242 -0.1759
  335poe    c23 4018   0.760   1.753   3.817 -0.3628 -0.0688  0.5878
  335poe     o2 4019   0.667   1.648   3.807 -0.2056 -0.1173 -0.5449
  335poe    c31 4020   0.720   1.532   3.746 -0.5777  0.1442 -1.3790
  336poe    c31 4021   4.019   6.489   5.136  0.1770  0.0357 -0.1535
  336poe     o2 4022   3.895   6.423   5.124  0.3424 -0.2710 -0.1895
  336poe    c23 4023   3.814   6.471   5.019 -0.1424 -0.2616  0.1832
  336poe    c23 4024   3.688   6.383   5.011 -0.2689 -0.0226 -0.5477
  336poe     o2 4025   3.639   6.388   5.143  0.0335 -0.0076 -0.4363
  336poe    c23 4026   3.519   6.317   5.163  0.1954 -0.3300 -0.5958
  336poe    c23 4027   3.555   6.209   5.266  0.2391  0.4517  0.2209
  336poe     o2 4028   3.695   6.195   5.258  0.2082 -0.0387  0.4761
  336poe    c23 4029   3.752   6.102   5.347 -0.2536 -0.2913  0.5057
  336poe    c23 4030   3.891   6.065   5.295 -0.5584  0.1111 -0.6141
  336poe     o2 4031   3.962   6.186   5.280  0.0175 -0.2562 -0.9171
  336poe    c31 4032   4.099   6.170   5.250  0.3519 -0.0930  0.4635
  337poe    c31 4033   5.366   3.337   5.673 -0.4170 -0.3648  0.2509
  337poe     o2 4034   5.330   3.259   5.561  0.0953 -0.2358 -0.0082
  337poe    c23 4035   5.289   3.344   5.456 -0.1000 -0.5442 -0.1849
  337poe    c23 4036   5.244   3.262   5.334 -0.5369 -0.2038 -0.2567
  337poe     o2 4037   5.184   3.149   5.393  0.4430 -0.4689  0.2567
  337poe    c23 4038   5.120   3.071   5.294 -0.6418  0.6681  0.0350
  337poe    c23 4039   5.046   2.964   5.377  0.2344  0.3497  0.4220
  337poe     o2 4040   5.141   2.920   5.471  0.0974 -0.3053  0.2542
  337poe    c23 4041   5.074   2.913   5.595 -0.3028 -0.0899  0.0493
  337poe    c23 4042   5.187   2.896   5.698  0.1052  0.0799 -0.3668
  337poe     o2 4043   5.284   2.996   5.675 -0.0518  0.3481  0.1154
  337poe    c31 4044   5.403   2.974   5.748 -0.1701  0.1319  0.2449
  338poe    c31 4045   6.405   5.751   0.351  0.0529  0.1580 -0.0563
  338poe     o2 4046   6.320   5.839   0.281 -0.2000  0.2527  0.3665
  338poe    c23 4047   6.191   5.787   0.258 -0.0671  0.0068  0.1745
  338poe    c23 4048   6.083   5.896   0.269  0.0042  0.1115 -0.1810
  338poe     o2 4049   6.139   6.015   0.216  0.5338  0.4492  1.0922
  338poe    c23 4050   6.082   6.135   0.261 -0.4021  0.5422 -0.2786
  338poe    c23 4051   6.182   6.232   0.196  0.3471 -0.0780 -0.0585
  338poe     o2 4052   6.309   6.183   0.233  0.4346  0.0228 -0.2211
  338poe    c23 4053   6.417   6.259   0.183  0.2988  0.3434 -0.0325
  338poe    c23 4054   6.533   6.173   0.234  0.1262  0.0830 -0.0748
  338poe     o2 4055   6.513   6.036   0.207 -0.6184  0.2033 -0.1329
  338poe    c31 4056   6.644   5.989   0.189 -0.3764  0.6214  0.5081
  339poe    c31 4057   4.589   2.229   5.538 -0.1172  0.0943  0.0044
  339poe     o2 4058   4.619   2.356   5.488 -0.1848  0.1079 -0.0024
  339poe    c23 4059   4.747   2.359   5.428 -0.3329  0.3938 -0.3118
  339poe    c23 4060   4.778   2.495   5.363  0.5926  0.2593 -0.1670
  339poe     o2 4061   4.723   2.590   5.451  0.3972  0.0805 -0.0970
  339poe    c23 4062   4.756   2.723   5.416 -0.3722  0.2973 -0.0214
  339poe    c23 4063   4.640   2.790   5.493 -0.4758 -0.2602  0.3212
  339poe     o2 4064   4.518   2.720   5.489 -0.3904 -0.3847 -0.2876
  339poe    c23 4065   4.445   2.773   5.598  0.2602 -0.0535 -0.0034
  339poe    c23 4066   4.341   2.661   5.618  0.1076  0.1021  0.0713
  339poe     o2 4067   4.417   2.542   5.622  0.2203  0.1687 -0.0630
  339poe    c31 4068   4.333   2.453   5.692  0.4081 -0.1666 -0.2647
  340poe    c31 4069   4.868   6.246   6.290 -0.0756 -0.2277  0.5736
  340poe     o2 4070   4.875   6.378   6.241 -0.2076 -0.3618  0.1844
  340poe    c23 4071   4.839   6.465   6.347 -0.5218  0.1592 -0.3428
  340poe    c23 4072   4.883   6.609   6.314  0.6650  0.0408  0.6520
  340poe     o2 4073   4.812   6.636   6.195  0.4978 -0.0684  0.7269
  340poe    c23 4074   4.851   6.755   6.131  0.1920 -0.1913  0.3111
  340poe    c23 4075   4.793   6.727   5.991  0.4568 -0.2524  0.2130
  340poe     o2 4076   4.833   6.600   5.944 -0.6447 -0.6194  0.2488
  340poe    c23 4077   4.755   6.552   5.837 -0.5651  0.2248 -0.1923
  340poe    c23 4078   4.790   6.404   5.816 -0.0192  0.3499 -0.1577
  340poe     o2 4079   4.798   6.340   5.941  0.2228  0.2286 -0.2325
  340poe    c31 4080   4.831   6.204   5.926  0.3209  0.2576 -0.2720
  341poe    c31 4081   2.251   6.234   2.756  0.0066  0.1357  0.2988
  341poe     o2 4082   2.118   6.277   2.735 -0.1588 -0.4778  0.0757
  341poe    c23 4083   2.069   6.228   2.613 -0.0078  0.4290 -0.3513
  341poe    c23 4084   1.920   6.191   2.630  0.2605 -0.5503 -0.1091
  341poe     o2 4085   1.858   6.309   2.676  0.6208 -0.5411  0.3646
  341poe    c23 4086   1.722   6.290   2.706  0.4113  0.5397  0.1290
  341poe    c23 4087   1.656   6.414   2.771 -0.2517  0.2828 -0.0400
  341poe     o2 4088   1.756   6.433   2.868  0.1009  0.0055 -0.3446
  341poe    c23 4089   1.741   6.545   2.953  0.8287  0.2787 -0.5673
  341poe    c23 4090   1.869   6.536   3.038  0.1519  0.3549  0.4723
  341poe     o2 4091   1.970   6.506   2.945 -0.2440  0.0527  0.1401
  341poe    c31 4092   2.092   6.478   3.009  0.0910  0.3812 -0.3392
  342poe    c31 4093   4.198   0.413   4.719 -0.8000  0.7582 -0.5424
  342poe     o2 4094   4.282   0.507   4.781  0.0577 -0.4064  0.0907
  342poe    c23 4095   4.280   0.629   4.709 -0.2534 -0.2290  0.3970
  342poe    c23 4096   4.402   0.710   4.756 -0.1364 -0.2036  0.0528
  342poe     o2 4097   4.515   0.628   4.773 -0.3062 -0.4393  0.0523
  342poe    c23 4098   4.615   0.698   4.844 -0.8134  0.0433  0.3026
  342poe    c23 4099   4.700   0.592   4.918 -0.1603  0.0707 -0.3904
  342poe     o2 4100   4.613   0.495   4.970 -0.1106  0.2078 -0.0511
  342poe    c23 4101   4.689   0.388   5.021  0.6085  0.8963  0.3482
  342poe    c23 4102   4.582   0.283   5.058  0.7906  0.2719 -0.8574
  342poe     o2 4103   4.475   0.287   4.966  0.0221  0.1810  0.0258
  342poe    c31 4104   4.389   0.176   4.983  0.1422  0.0610 -0.1529
  343poe    c31 4105   2.388   0.111   4.972 -0.4294  0.1540 -0.2789
  343poe     o2 4106   2.492   0.182   4.909 -0.0550  0.0180  0.1711
  343poe    c23 4107   2.577   0.245   5.002  0.5188 -0.3889 -0.0703
  343poe    c23 4108   2.666   0.350   4.932 -0.6692  0.4552 -0.3437
  343poe     o2 4109   2.716   0.286   4.818 -0.1378  0.4662 -0.1172
  343poe    c23 4110   2.803   0.376   4.753  0.0758  0.0521 -0.4193
  343poe    c23 4111   2.844   0.290   4.633  0.4027 -0.0390 -0.2419
  343poe     o2 4112   2.726   0.248   4.568  0.3812 -0.6357  0.1749
  343poe    c23 4113   2.732   0.231   4.429  0.3136  0.5484  0.0180
  343poe    c23 4114   2.705   0.367   4.361 -0.1777  0.2463 -0.4034
  343poe     o2 4115   2.817   0.453   4.367  0.0263 -0.0503  0.1197
  343poe    c31 4116   2.810   0.552   4.267  0.1439  0.2852  0.4419
  344poe    c31 4117   0.613   4.930   2.932 -0.1094 -0.1431  0.9163
  344poe     o2 4118   0.585   5.068   2.929 -0.0441 -0.1405  0.3458
  344poe    c23 4119   0.540   5.110   2.802  0.4204 -0.1776  0.1678
  344poe    c23 4120   0.519   5.263   2.806 -0.0797 -0.2526  0.4985
  344poe     o2 4121   0.447   5.285   2.925 -0.2128  0.2162  0.3312
  344poe    c23 4122   0.430   5.424   2.942 -0.2049  0.3074 -0.4043
  344poe    c23 4123   0.422   5.440   3.095  0.1431 -0.1977 -0.3325
  344poe     o2 4124   0.517   5.354   3.153 -0.3087 -0.4607  0.0205
  344poe    c23 4125   0.478   5.328   3.286  0.3507  0.1509  0.3364
  344poe    c23 4126   0.569   5.214   3.336  0.3577 -0.0281 -0.0839
  344poe     o2 4127   0.555   5.112   3.240 -1.0507 -0.1631  0.2499
  344poe    c31 4128   0.610   4.989   3.283 -0.6574 -0.0653  0.0243
  345poe    c31 4129   0.661   1.455   2.335  0.1856  0.1419  0.5797
  345poe     o2 4130   0.524   1.476   2.312  0.1319  0.2188  0.9592
  345poe    c23 4131   0.451   1.373   2.376 -0.0340 -0.3073 -0.0503
  345poe    c23 4132   0.313   1.438   2.393  0.2484  0.3996 -0.3930
  345poe     o2 4133   0.265   1.481   2.268 -0.3232  0.0611 -0.2986
  345poe    c23 4134   0.137   1.539   2.263 -0.4656 -0.2389 -0.1038
  345poe    c23 4135   0.111   1.544   2.111 -0.1751 -0.1894 -0.1521
  345poe     o2 4136   0.233   1.593   2.062 -0.5165  0.5555 -0.2658
  345poe    c23 4137   0.261   1.528   1.940  0.0657  0.4031 -0.0545
  345poe    c23 4138   0.404   1.555   1.889  0.0929 -0.1142 -0.2568
  345poe     o2 4139   0.486   1.515   1.996 -0.1587  0.1338  0.0295
  345poe    c31 4140   0.615   1.489   1.947 -0.0536  0.3495  0.1910
  346poe    c31 4141   4.958   6.261   4.955  0.4496 -0.2018  0.1509
  346poe     o2 4142   4.845   6.198   4.899  0.1747  0.2199  0.2255
  346poe    c23 4143   4.874   6.063   4.872 -0.1429  0.1388  0.2839
  346poe    c23 4144   4.743   5.983   4.889 -0.0443 -0.1514 -0.3028
  346poe     o2 4145   4.638   6.067   4.845 -0.0605 -0.2111 -0.3796
  346poe    c23 4146   4.508   6.017   4.868  0.0288 -0.3195 -0.0963
  346poe    c23 4147   4.456   6.127   4.962  0.6629  0.0713 -0.1929
  346poe     o2 4148   4.489   6.250   4.902 -0.1060  0.3260 -0.1060
  346poe    c23 4149   4.464   6.357   4.991 -0.7240  0.1698 -0.0887
  346poe    c23 4150   4.533   6.477   4.924  0.2600 -0.3914 -0.1092
  346poe     o2 4151   4.662   6.439   4.882  0.1643 -0.4027 -0.3960
  346poe    c31 4152   4.748   6.542   4.839  0.0899 -0.1322  0.0964
  347poe    c31 4153   0.212   2.713   4.958 -0.0892 -0.4837  0.5987
  347poe     o2 4154   0.202   2.577   4.992 -0.6620 -0.6754 -0.3098
  347poe    c23 4155   0.141   2.556   5.118 -0.5072 -0.2149 -0.1549
  347poe    c23 4156   0.225   2.442   5.178  0.1323  0.2863 -0.0910
  347poe     o2 4157   0.232   2.345   5.075 -0.5467 -0.5205  0.6039
  347poe    c23 4158   0.338   2.257   5.106  0.0432 -0.2184 -0.4890
  347poe    c23 4159   0.359   2.164   4.986 -0.5721 -0.5730 -0.3274
  347poe     o2 4160   0.331   2.258   4.885  0.0570  0.0785  0.0926
  347poe    c23 4161   0.269   2.191   4.777  0.0731  0.1225  0.0552
  347poe    c23 4162   0.236   2.298   4.672  0.2447  0.1839  0.0643
  347poe     o2 4163   0.180   2.406   4.743  0.1613  0.1854 -0.0045
  347poe    c31 4164   0.126   2.508   4.663 -0.0600 -0.0027 -0.0977
  348poe    c31 4165   5.131   2.444   6.521 -0.1230 -0.0729  0.2740
  348poe     o2 4166   5.067   2.357   6.431 -0.2738 -0.0352  0.3432
  348poe    c23 4167   4.995   2.433   6.336 -0.2517 -0.0980  0.2757
  348poe    c23 4168   4.938   2.335   6.231  0.0256  0.0866 -0.0503
  348poe     o2 4169   4.882   2.227   6.302  0.3050 -0.1278 -0.1567
  348poe    c23 4170   4.854   2.115   6.221 -0.1483 -0.0158 -0.1588
  348poe    c23 4171   4.917   1.990   6.286 -0.1872 -0.0866 -0.2569
  348poe     o2 4172   5.044   2.031   6.330 -0.2907 -0.1216  0.0731
  348poe    c23 4173   5.125   1.931   6.389 -0.2823 -0.3239 -0.2822
  348poe    c23 4174   5.261   1.996   6.417 -0.5916  0.0497  0.3896
  348poe     o2 4175   5.235   2.103   6.505 -0.0871 -0.0968  0.7216
  348poe    c31 4176   5.352   2.177   6.534 -0.2672  0.4247  0.1417
  349poe    c31 4177   3.441   5.548   4.006 -0.2502 -0.7477  0.2653
  349poe     o2 4178   3.379   5.643   4.090  0.0001 -0.1009 -0.2734
  349poe    c23 4179   3.291   5.723   4.015 -0.7754 -0.5493  0.1523
  349poe    c23 4180   3.287   5.854   4.096  1.2122 -0.5187  0.2333
  349poe     o2 4181   3.243   5.809   4.222 -0.4429  0.4221  0.0192
  349poe    c23 4182   3.272   5.914   4.312 -0.0943  0.0652  0.3302
  349poe    c23 4183   3.288   5.849   4.451  0.3408 -0.2793  0.1209
  349poe     o2 4184   3.359   5.731   4.422 -0.7034 -0.8584 -0.1511
  349poe    c23 4185   3.378   5.647   4.533  0.1401 -0.5372 -0.0450
  349poe    c23 4186   3.446   5.519   4.482  0.2325 -0.5647  0.1471
  349poe     o2 4187   3.382   5.485   4.361 -0.2892 -0.0433  0.2708
  349poe    c31 4188   3.410   5.356   4.310  0.2342 -0.0222  0.4937
  350poe    c31 4189   3.009   2.409   2.258 -0.3051 -0.2199  0.4035
  350poe     o2 4190   2.874   2.448   2.274 -0.3011 -0.0669  0.0652
  350poe    c23 4191   2.847   2.540   2.170  0.6081 -0.4664 -0.5409
  350poe    c23 4192   2.706   2.594   2.200  0.9393  0.2607 -0.2610
  350poe     o2 4193   2.712   2.634   2.335 -0.0473  0.4963 -0.2765
  350poe    c23 4194   2.591   2.680   2.390 -0.0833 -0.0205  0.0818
  350poe    c23 4195   2.623   2.714   2.536  0.1646  0.2851 -0.0434
  350poe     o2 4196   2.700   2.602   2.574 -0.0538  0.2551  0.3143
  350poe    c23 4197   2.753   2.603   2.705  0.5733  0.1217  0.0664
  350poe    c23 4198   2.830   2.471   2.722 -0.0751 -0.2959 -0.1711
  350poe     o2 4199   2.921   2.453   2.615  0.5290  0.3746  0.2160
  350poe    c31 4200   3.015   2.359   2.663 -0.0326 -0.1449  0.3198
  351poe    c31 4201   3.345   3.206   6.315 -0.1298  0.1440  0.0467
  351poe     o2 4202   3.291   3.151   6.433  0.4498  0.0314  0.2609
  351poe    c23 4203   3.359   3.207   6.543  0.3503  0.4485  0.1126
  351poe    c23 4204   3.273   3.229   6.668  0.1341  0.2911 -0.0085
  351poe     o2 4205   3.194   3.112   6.664  0.1719  0.2556  0.2241
  351poe    c23 4206   3.100   3.114   6.768 -0.2227  0.3898 -0.1326
  351poe    c23 4207   3.000   3.004   6.728  0.1770 -0.0246  0.0102
  351poe     o2 4208   2.994   3.009   6.588  0.5639 -0.4581 -0.0262
  351poe    c23 4209   2.903   2.918   6.529  0.1712  0.0040 -0.1394
  351poe    c23 4210   2.901   2.974   6.386  0.0929 -0.1341 -0.1914
  351poe     o2 4211   3.034   2.962   6.343  0.2422  0.4989  0.0908
  351poe    c31 4212   3.044   2.960   6.203 -0.0545  0.2310  0.0729
  352poe    c31 4213   4.430   2.398   6.199 -0.0534  0.4994 -0.0961
  352poe     o2 4214   4.383   2.520   6.147 -0.3324  0.2301 -0.4805
  352poe    c23 4215   4.265   2.503   6.072  0.2745  0.0643 -1.4109
  352poe    c23 4216   4.224   2.647   6.036 -0.1887  0.2968 -0.0194
  352poe     o2 4217   4.341   2.720   6.008 -0.1090  0.3011  0.3275
  352poe    c23 4218   4.317   2.859   5.998  0.2817  0.2920 -0.8859
  352poe    c23 4219   4.460   2.918   6.000  0.2564  0.3519  0.3051
  352poe     o2 4220   4.541   2.850   6.093 -0.3049  0.1308  0.6376
  352poe    c23 4221   4.681   2.857   6.082 -0.3629  0.4963  0.0708
  352poe    c23 4222   4.727   2.812   6.222 -0.1097 -0.3224 -0.2674
  352poe     o2 4223   4.656   2.693   6.249 -0.2337 -0.1906 -0.0106
  352poe    c31 4224   4.684   2.651   6.381  0.8480 -0.3514 -0.2834
  353poe    c31 4225   0.823   3.337   4.551  0.0921 -0.2788 -0.3900
  353poe     o2 4226   0.914   3.410   4.631 -0.3324 -0.4280  0.2290
  353poe    c23 4227   0.892   3.365   4.763  0.1704 -0.2771  0.3672
  353poe    c23 4228   1.017   3.407   4.842 -0.0131  0.4523  0.2756
  353poe     o2 4229   1.060   3.533   4.794 -0.3048  0.1580 -0.7766
  353poe    c23 4230   1.198   3.541   4.818 -0.4583  0.1585  0.1182
  353poe    c23 4231   1.236   3.681   4.769  0.2353 -0.1010 -0.0986
  353poe     o2 4232   1.168   3.672   4.645 -0.7037  0.4652  0.3644
  353poe    c23 4233   1.117   3.794   4.596 -0.0019  0.6311  0.0279
  353poe    c23 4234   1.028   3.770   4.473  0.2269  0.1872 -0.0521
  353poe     o2 4235   0.952   3.654   4.497 -0.2347  0.4716 -0.1277
  353poe    c31 4236   0.845   3.666   4.406 -0.2836 -0.2406 -0.1708
  354poe    c31 4237   1.508   5.742   6.525 -0.5707  0.5878  0.7770
  354poe     o2 4238   1.476   5.875   6.558 -0.3383  0.7935  0.1911
  354poe    c23 4239   1.569   5.927   6.651  0.3338  0.0350 -0.0427
  354poe    c23 4240   1.526   6.073   6.678  0.5462  0.1509 -0.3210
  354poe     o2 4241   1.439   6.122   6.579  0.2140  0.1948 -0.0067
  354poe    c23 4242   1.347   6.219   6.626  0.0320 -0.1379  0.3319
  354poe    c23 4243   1.270   6.264   6.500  0.6023 -0.1422 -0.0224
  354poe     o2 4244   1.246   6.135   6.448  0.1590 -0.1607  0.2262
  354poe    c23 4245   1.184   6.143   6.322  0.4371 -0.8379  0.0417
  354poe    c23 4246   1.139   6.002   6.280 -0.0346 -0.6563 -0.0682
  354poe     o2 4247   1.244   5.921   6.326  0.1845 -0.3558 -0.0360
  354poe    c31 4248   1.213   5.785   6.302  0.0300 -0.4015  0.4193
  355poe    c31 4249   3.583   3.189   0.859  0.6690 -0.7043  0.5914
  355poe     o2 4250   3.482   3.092   0.871  0.1061 -0.2146 -0.1066
  355poe    c23 4251   3.374   3.135   0.951  0.0523  0.2967 -0.4541
  355poe    c23 4252   3.261   3.033   0.928  0.1078  0.1666 -0.1513
  355poe     o2 4253   3.329   2.912   0.951  0.0910  0.2019  0.0889
  355poe    c23 4254   3.251   2.796   0.931  0.2081  0.0609  0.4459
  355poe    c23 4255   3.337   2.672   0.905  0.4006  0.3822 -0.4882
  355poe     o2 4256   3.441   2.725   0.826  0.6214  0.3525 -0.2216
  355poe    c23 4257   3.436   2.690   0.689 -0.1820  0.2601 -0.1744
  355poe    c23 4258   3.553   2.771   0.630 -0.1649  0.2080 -0.2125
  355poe     o2 4259   3.521   2.907   0.653 -0.2189  0.1366  0.1386
  355poe    c31 4260   3.465   2.969   0.540 -0.7047 -0.3762  0.0888
  356poe    c31 4261   1.828   2.302   3.934  0.3699 -0.5411  0.0401
  356poe     o2 4262   1.858   2.342   4.066  0.0175 -0.2475  0.0304
  356poe    c23 4263   1.734   2.357   4.132 -0.1650  0.0794 -0.3775
  356poe    c23 4264   1.770   2.344   4.281 -0.1095  0.2739 -0.3730
  356poe     o2 4265   1.888   2.415   4.311  0.2729 -0.4221 -0.1915
  356poe    c23 4266   1.938   2.385   4.439  0.2921 -0.2176 -0.1500
  356poe    c23 4267   2.090   2.399   4.419  0.2220  0.3905 -0.2728
  356poe     o2 4268   2.120   2.341   4.294 -0.3222  0.0262 -0.2389
  356poe    c23 4269   2.257   2.358   4.264 -0.1242 -0.1275  0.5680
  356poe    c23 4270   2.283   2.295   4.127 -0.2477  0.3912  0.3018
  356poe     o2 4271   2.169   2.332   4.053 -0.1636  0.1054  0.0253
  356poe    c31 4272   2.205   2.362   3.920 -0.2010 -0.0629 -0.0230
  357poe    c31 4273   4.266   5.455   2.207 -0.2170 -0.4526 -0.0004
  357poe     o2 4274   4.198   5.343   2.258 -0.2956 -0.4618 -0.1266
  357poe    c23 4275   4.253   5.305   2.382 -0.0891  0.0772 -0.0516
  357poe    c23 4276   4.160   5.199   2.444 -0.2248  0.3164  0.1556
  357poe     o2 4277   4.146   5.099   2.346 -0.4194  0.2264  0.2753
  357poe    c23 4278   4.046   5.004   2.376 -0.3004  0.0145  0.0092
  357poe    c23 4279   4.042   4.927   2.243 -0.0030 -0.0789  0.0545
  357poe     o2 4280   4.023   5.019   2.138  0.3507 -0.0460  0.0186
  357poe    c23 4281   4.066   4.958   2.018 -0.3294 -0.7165  0.1115
  357poe    c23 4282   4.074   5.080   1.925  0.2546 -0.7962  0.0575
  357poe     o2 4283   4.139   5.190   1.984  0.0742 -0.3165 -0.6137
  357poe    c31 4284   4.135   5.295   1.891 -0.2509  0.0634 -0.1763
  358poe    c31 4285   3.985   2.028   1.568  0.3566 -0.4237 -0.4963
  358poe     o2 4286   3.860   2.061   1.511  0.0283 -0.8668 -0.0394
  358poe    c23 4287   3.822   1.973   1.408 -0.3722 -0.4539 -0.2494
  358poe    c23 4288   3.676   1.996   1.365 -0.4555  0.1948  0.3837
  358poe     o2 4289   3.660   2.136   1.372 -0.1180  0.2314  0.4411
  358poe    c23 4290   3.548   2.163   1.291  0.1926 -0.2063 -0.1414
  358poe    c23 4291   3.531   2.310   1.248 -0.0836 -0.2860 -0.3046
  358poe     o2 4292   3.483   2.382   1.359 -0.5629 -0.1840 -0.5779
  358poe    c23 4293   3.492   2.519   1.327  0.6452  0.0256  0.5642
  358poe    c23 4294   3.445   2.616   1.437 -0.0052  0.0394  0.2806
  358poe     o2 4295   3.308   2.601   1.467 -0.0671 -0.4413 -0.2388
  358poe    c31 4296   3.264   2.713   1.539  0.6157 -0.4348  0.1651
  359poe    c31 4297   4.633   5.716   3.313 -0.0131  0.2499  0.2595
  359poe     o2 4298   4.774   5.713   3.302 -0.0418 -0.2912 -0.0027
  359poe    c23 4299   4.802   5.751   3.170 -0.2758 -0.3973 -0.0837
  359poe    c23 4300   4.954   5.768   3.152 -0.3423  0.6499  0.2847
  359poe     o2 4301   5.018   5.670   3.230 -0.1119  0.5013 -0.0884
  359poe    c23 4302   5.153   5.642   3.200 -0.0077  0.1933  0.6302
  359poe    c23 4303   5.178   5.507   3.269  0.0687 -0.1125  0.0196
  359poe     o2 4304   5.121   5.526   3.397 -0.5096  0.6148 -0.3405
  359poe    c23 4305   5.074   5.408   3.458  0.2724  0.5345  0.1205
  359poe    c23 4306   4.990   5.455   3.579  0.5238 -0.2573  0.6112
  359poe     o2 4307   4.893   5.549   3.539  0.6765 -0.1983  0.3694
  359poe    c31 4308   4.827   5.582   3.660 -0.0811  0.0945 -0.1187
  360poe    c31 4309   3.339   3.597   6.184  0.7870 -0.7029  0.2843
  360poe     o2 4310   3.400   3.651   6.069 -0.1921  0.1973  0.1779
  360poe    c23 4311   3.345   3.606   5.947 -0.4524  0.6725  0.1161
  360poe    c23 4312   3.399   3.689   5.830 -0.5550  0.2243 -0.2523
  360poe     o2 4313   3.534   3.725   5.845 -0.5234  0.0046 -0.0060
  360poe    c23 4314   3.601   3.746   5.722  0.1356  0.3409  0.4048
  360poe    c23 4315   3.744   3.789   5.762  0.2135  0.0326  0.4590
  360poe     o2 4316   3.726   3.876   5.871 -0.3511  0.3182  0.1430
  360poe    c23 4317   3.849   3.928   5.916 -0.0166 -0.3244 -0.0134
  360poe    c23 4318   3.827   3.985   6.058 -0.4703  0.0243 -0.2184
  360poe     o2 4319   3.751   3.894   6.133 -0.1958  0.0507  0.0948
  360poe    c31 4320   3.782   3.909   6.270  0.0497 -0.0388  0.0491
  361poe    c31 4321   1.795   6.156   5.446  0.4838 -0.2784 -0.2188
  361poe     o2 4322   1.834   6.245   5.344 -0.5975  0.2203 -0.2023
  361poe    c23 4323   1.952   6.315   5.376 -0.0597 -0.6975 -0.1368
  361poe    c23 4324   1.976   6.403   5.252  0.3822 -0.0847  0.3724
  361poe     o2 4325   2.002   6.323   5.138  0.2506  0.2780  0.0846
  361poe    c23 4326   2.116   6.371   5.071  0.3028  0.0073 -0.0216
  361poe    c23 4327   2.153   6.275   4.956 -0.4802 -0.0229 -0.2543
  361poe     o2 4328   2.029   6.245   4.897 -0.5187 -0.1211 -0.1235
  361poe    c23 4329   2.052   6.185   4.771  0.2791  0.0423 -0.0580
  361poe    c23 4330   1.927   6.194   4.682  0.2554  0.0946 -0.0192
  361poe     o2 4331   1.811   6.211   4.762  0.1061 -0.3370 -0.1431
  361poe    c31 4332   1.692   6.237   4.691  0.5992  0.7263 -0.6193
  362poe    c31 4333   3.055   5.871   0.392  0.0162  0.1336  0.4229
  362poe     o2 4334   3.101   6.002   0.417  0.3004  0.1125  0.0271
  362poe    c23 4335   3.067   6.047   0.546  0.3030 -0.4396  0.2199
  362poe    c23 4336   3.074   6.201   0.540 -0.1863 -0.4055  0.4893
  362poe     o2 4337   3.195   6.242   0.481 -0.0779 -0.4151  0.7050
  362poe    c23 4338   3.201   6.378   0.447  0.0327 -0.5615  0.1273
  362poe    c23 4339   3.338   6.387   0.376  0.0585 -0.5376  0.1799
  362poe     o2 4340   3.327   6.277   0.289 -0.3237 -0.1770 -0.2279
  362poe    c23 4341   3.447   6.241   0.224 -0.1046 -0.2368  0.2039
  362poe    c23 4342   3.425   6.115   0.137  0.2836 -0.0463 -0.1715
  362poe     o2 4343   3.328   6.032   0.197  0.3595 -0.1760 -0.2258
  362poe    c31 4344   3.302   5.922   0.112 -0.9318 -0.0179 -0.0617
  363poe    c31 4345   2.880   4.063   0.162 -0.1498 -0.1178  0.2997
  363poe     o2 4346   2.932   3.947   0.224  0.5663  0.0187 -0.0378
  363poe    c23 4347   2.891   3.952   0.358  0.2480  0.0443 -0.1356
  363poe    c23 4348   2.985   3.855   0.432 -0.3188 -0.1697  0.3115
  363poe     o2 4349   2.996   3.736   0.358 -0.0408  0.1403 -0.1436
  363poe    c23 4350   3.084   3.644   0.419 -0.5434 -0.9642 -1.0425
  363poe    c23 4351   3.156   3.575   0.302  0.5674 -0.6034 -0.5802
  363poe     o2 4352   3.172   3.672   0.201 -0.3828  0.0687 -0.0969
  363poe    c23 4353   3.264   3.634   0.102 -0.2411  0.3068 -0.0579
  363poe    c23 4354   3.253   3.759   0.013  0.1356  0.3644 -0.0245
  363poe     o2 4355   3.118   3.798   0.003  0.0275  0.0388  0.1727
  363poe    c31 4356   3.113   3.865  -0.121 -0.6893  0.4117  0.3993
  364poe    c31 4357   1.034   3.230   0.753  0.1343 -0.4174 -0.0551
  364poe     o2 4358   0.935   3.185   0.663  0.1619 -0.0216 -0.2860
  364poe    c23 4359   0.958   3.239   0.535 -0.3457 -0.2152 -0.4608
  364poe    c23 4360   0.850   3.175   0.446 -0.0563 -0.4964 -0.6140
  364poe     o2 4361   0.739   3.149   0.530  0.3677 -0.7018 -0.1145
  364poe    c23 4362   0.652   3.061   0.463 -0.3067 -0.0917 -0.0506
  364poe    c23 4363   0.536   3.038   0.562 -0.1134 -0.1371  0.1674
  364poe     o2 4364   0.598   3.030   0.688 -0.1872  0.4551  0.2444
  364poe    c23 4365   0.513   3.065   0.795 -0.3261  0.4339  0.1400
  364poe    c23 4366   0.597   3.063   0.924 -0.0051 -0.3183 -0.0738
  364poe     o2 4367   0.714   3.134   0.890 -0.0020 -0.1063  0.3758
  364poe    c31 4368   0.794   3.133   1.006 -0.2288 -0.2665  0.5323
  365poe    c31 4369   3.174   5.818   4.967  0.4243  0.5797  0.2581
  365poe     o2 4370   3.169   5.689   5.023 -0.0620  0.4586 -0.0606
  365poe    c23 4371   3.034   5.647   5.019 -0.0087  0.3456 -0.7757
  365poe    c23 4372   3.021   5.496   5.045  0.7813  0.4062  0.0229
  365poe     o2 4373   3.106   5.458   5.151  0.7056 -0.4182 -0.2065
  365poe    c23 4374   3.039   5.450   5.275  0.7695 -0.1501 -0.1552
  365poe    c23 4375   3.156   5.435   5.373  0.4278 -0.2413  0.2422
  365poe     o2 4376   3.233   5.550   5.345  0.0006 -0.2711 -1.1366
  365poe    c23 4377   3.363   5.537   5.398 -0.2519 -0.0589 -0.4488
  365poe    c23 4378   3.452   5.639   5.325 -0.4289  0.3015 -0.1626
  365poe     o2 4379   3.412   5.659   5.191 -0.5005  0.3538 -0.1338
  365poe    c31 4380   3.500   5.760   5.145 -0.6635  0.4260 -0.2879
  366poe    c31 4381   1.038   3.550   1.547  0.2821  0.3526 -0.2068
  366poe     o2 4382   1.064   3.491   1.421  0.0259 -0.0855 -0.0537
  366poe    c23 4383   1.180   3.542   1.360  0.0709  0.0666  0.1561
  366poe    c23 4384   1.183   3.475   1.221 -0.5451  0.5032 -0.0764
  366poe     o2 4385   1.061   3.480   1.151 -0.4148 -0.6040 -0.4127
  366poe    c23 4386   1.024   3.610   1.110  0.1343 -0.2057  0.3192
  366poe    c23 4387   0.870   3.612   1.118  0.0855 -0.2688 -0.5420
  366poe     o2 4388   0.826   3.559   1.241  0.4924  0.5879 -0.0172
  366poe    c23 4389   0.690   3.526   1.250  0.7336 -0.5302 -0.2881
  366poe    c23 4390   0.670   3.460   1.388 -0.8161  0.1228 -0.1741
  366poe     o2 4391   0.773   3.366   1.406 -0.8138  0.0861 -0.3679
  366poe    c31 4392   0.715   3.271   1.494 -0.9805  0.4471 -0.0846
  367poe    c31 4393   2.944   0.547   3.630 -0.5878 -0.0668 -0.0132
  367poe     o2 4394   2.934   0.666   3.555  0.6593 -0.0254 -0.1338
  367poe    c23 4395   2.910   0.772   3.644 -0.8144 -0.4693  0.0370
  367poe    c23 4396   2.860   0.884   3.551 -0.1201  0.3028  0.5706
  367poe     o2 4397   2.956   0.873   3.449 -0.1120 -0.6753  0.6708
  367poe    c23 4398   2.959   0.972   3.348 -0.3391 -0.9362  0.4073
  367poe    c23 4399   3.096   0.943   3.285 -0.2880 -0.3056  0.2226
  367poe     o2 4400   3.098   0.802   3.277 -0.3250 -0.2868 -0.1121
  367poe    c23 4401   3.230   0.754   3.268 -0.2414  0.0178 -0.5516
  367poe    c23 4402   3.220   0.600   3.270 -0.5087  0.0392  0.2829
  367poe     o2 4403   3.125   0.559   3.365 -1.0157  0.3161 -0.0972
  367poe    c31 4404   3.148   0.424   3.400  0.5215  0.3404 -0.9303
  368poe    c31 4405   3.921   2.173   2.569  0.5498  0.0122  0.2541
  368poe     o2 4406   3.861   2.285   2.507  0.3025 -0.3093 -0.0881
  368poe    c23 4407   3.956   2.353   2.428  0.3697 -0.1460  0.1337
  368poe    c23 4408   3.873   2.427   2.321  0.6241  0.1340  0.1284
  368poe     o2 4409   3.781   2.503   2.396  0.1230 -0.2747 -0.0630
  368poe    c23 4410   3.702   2.592   2.321  0.1490 -0.3313 -0.1572
  368poe    c23 4411   3.597   2.655   2.414 -0.0327 -0.2490 -0.4164
  368poe     o2 4412   3.558   2.553   2.504 -0.1300  0.2614  0.1271
  368poe    c23 4413   3.486   2.615   2.609  0.1148  0.6861  0.0467
  368poe    c23 4414   3.467   2.499   2.708 -0.0083  0.4385 -0.2647
  368poe     o2 4415   3.585   2.421   2.710 -0.3421 -0.0659  0.0646
  368poe    c31 4416   3.577   2.339   2.825 -0.6522 -0.1235  0.0045
  369poe    c31 4417   0.037   2.843   6.612 -0.5937  0.4900 -0.2337
  369poe     o2 4418   0.057   2.848   6.473 -0.1519 -0.2062 -0.1994
  369poe    c23 4419   0.091   2.717   6.433 -0.4285 -0.2393 -0.3300
  369poe    c23 4420   0.091   2.716   6.279  0.2846 -0.2013 -0.3345
  369poe     o2 4421   0.180   2.811   6.226 -0.1808  0.3036 -0.2148
  369poe    c23 4422   0.156   2.830   6.089 -0.1510 -0.1271 -0.2807
  369poe    c23 4423   0.121   2.978   6.059  0.1649  0.0134  0.0411
  369poe     o2 4424   0.051   3.029   6.170 -0.1013 -0.3290  0.0338
  369poe    c23 4425   0.007   3.163   6.160 -0.1087 -0.3311  0.0385
  369poe    c23 4426  -0.072   3.172   6.292  0.3115  0.0551  0.2660
  369poe     o2 4427   0.012   3.120   6.393  0.3914 -0.2864  0.0258
  369poe    c31 4428  -0.029   3.160   6.522  0.0754  0.4033 -0.2822
  370poe    c31 4429   1.132   3.348   3.358 -0.2583 -0.0751  0.3293
  370poe     o2 4430   1.004   3.406   3.356 -0.2075  0.0371  0.2753
  370poe    c23 4431   0.920   3.330   3.272  0.8728  0.4425 -1.2068
  370poe    c23 4432   0.794   3.415   3.250  0.0163 -0.4725  0.0129
  370poe     o2 4433   0.762   3.491   3.365 -0.1702 -0.1774 -0.2333
  370poe    c23 4434   0.652   3.579   3.369 -0.4383 -0.5282  0.0569
  370poe    c23 4435   0.659   3.638   3.511  0.2267 -0.4493 -0.0074
  370poe     o2 4436   0.792   3.680   3.528 -0.0299  0.2311  0.3526
  370poe    c23 4437   0.816   3.718   3.662 -0.4015  0.1445  0.4449
  370poe    c23 4438   0.969   3.722   3.682 -0.2813  0.1390 -0.4265
  370poe     o2 4439   1.025   3.625   3.596  0.0895 -0.2488  0.2403
  370poe    c31 4440   1.165   3.619   3.609  0.1331  0.5433  0.2197
  371poe    c31 4441   1.972   1.518   2.771 -0.1630 -0.2455 -0.4346
  371poe     o2 4442   1.854   1.455   2.728 -0.2476 -0.2188 -0.2439
  371poe    c23 4443   1.856   1.317   2.756  0.1301 -0.1970 -0.1634
  371poe    c23 4444   1.710   1.269   2.748 -0.0315  0.1229  0.7914
  371poe     o2 4445   1.635   1.337   2.650  0.3250 -0.2990  0.2180
  371poe    c23 4446   1.498   1.341   2.685  0.1158 -0.2146 -0.5920
  371poe    c23 4447   1.437   1.435   2.579 -0.0828  0.0386 -0.2527
  371poe     o2 4448   1.528   1.543   2.576 -0.5575  0.4694  0.4997
  371poe    c23 4449   1.496   1.644   2.483 -0.5425 -0.2506 -0.2931
  371poe    c23 4450   1.617   1.738   2.503 -0.4094 -0.2845 -0.8985
  371poe     o2 4451   1.731   1.657   2.521 -0.2434  0.0968 -0.1925
  371poe    c31 4452   1.846   1.736   2.497  0.1887 -0.5274 -0.2112
  372poe    c31 4453   2.416   0.483   0.794  0.0559 -0.0348  0.1826
  372poe     o2 4454   2.417   0.358   0.858 -0.6181 -0.0988  0.0705
  372poe    c23 4455   2.491   0.369   0.977  0.0323  0.1303 -0.3502
  372poe    c23 4456   2.521   0.228   1.033 -0.2501  0.1238 -0.2114
  372poe     o2 4457   2.406   0.155   0.997 -0.1648 -0.1534  0.0727
  372poe    c23 4458   2.427   0.016   1.009  0.0745 -0.1123  0.1497
  372poe    c23 4459   2.329  -0.062   0.919 -0.1513  0.2757  0.0540
  372poe     o2 4460   2.311   0.011   0.800 -0.3935 -0.0877 -0.1348
  372poe    c23 4461   2.193  -0.007   0.726 -0.3288 -0.4157 -0.1597
  372poe    c23 4462   2.214   0.076   0.598 -0.1623  0.1464  0.2324
  372poe     o2 4463   2.231   0.208   0.646 -0.6062  0.2895  0.0036
  372poe    c31 4464   2.198   0.304   0.549 -0.4768  0.2812 -0.0486
  373poe    c31 4465   2.444   1.883   3.288 -0.0566 -0.0997 -0.3497
  373poe     o2 4466   2.361   1.997   3.288  0.2322  0.1104 -0.1261
  373poe    c23 4467   2.285   1.994   3.406  0.3904  0.3225 -0.0182
  373poe    c23 4468   2.152   2.060   3.363 -0.0198 -0.8767 -0.6388
  373poe     o2 4469   2.183   2.171   3.282 -0.2390  0.2414  0.7554
  373poe    c23 4470   2.066   2.243   3.251 -0.2312 -0.1252 -0.1788
  373poe    c23 4471   2.109   2.327   3.129 -0.3514 -0.1049 -0.2063
  373poe     o2 4472   2.202   2.246   3.061 -0.0518 -0.2410  0.3637
  373poe    c23 4473   2.299   2.334   3.011  0.1420 -0.4152  0.4308
  373poe    c23 4474   2.417   2.247   2.962  0.3467  0.1854 -0.1575
  373poe     o2 4475   2.437   2.148   3.060 -0.0297  0.0778 -0.1871
  373poe    c31 4476   2.556   2.080   3.026  0.0937  0.5329 -0.6787
  374poe    c31 4477   6.518   1.915   3.036 -0.1577 -0.4298 -0.7455
  374poe     o2 4478   6.544   1.782   3.074 -0.0755 -0.1408  0.2317
  374poe    c23 4479   6.639   1.761   3.177  0.7045 -0.2582 -0.5032
  374poe    c23 4480   6.594   1.634   3.252 -0.1290  0.4776  0.2513
  374poe     o2 4481   6.567   1.532   3.158  0.2978  0.3447  0.2718
  374poe    c23 4482   6.527   1.406   3.207  0.6452  0.0844 -0.1132
  374poe    c23 4483   6.532   1.314   3.084 -0.3250 -0.2227  0.0739
  374poe     o2 4484   6.482   1.365   2.963  0.3983  0.5752  0.1070
  374poe    c23 4485   6.417   1.279   2.872  0.3118 -0.0708  0.7697
  374poe    c23 4486   6.490   1.149   2.832 -0.0857 -0.0454 -0.0547
  374poe     o2 4487   6.524   1.040   2.913  0.2259  0.2214  0.1747
  374poe    c31 4488   6.599   0.940   2.847  0.3145 -0.1294  0.7941
  375poe    c31 4489   5.335   6.151   6.238  0.1709 -0.3382 -0.1783
  375poe     o2 4490   5.358   6.013   6.259  0.1566 -0.3056  0.0535
  375poe    c23 4491   5.472   5.982   6.334  0.1037 -0.1745  0.1896
  375poe    c23 4492   5.536   5.854   6.275  0.1632  0.0817 -0.3021
  375poe     o2 4493   5.438   5.752   6.280  0.3446 -0.0799 -0.0216
  375poe    c23 4494   5.476   5.640   6.204 -0.2247 -0.5014  0.3150
  375poe    c23 4495   5.352   5.549   6.206 -0.2258 -0.5028  0.1767
  375poe     o2 4496   5.254   5.647   6.179  0.0702 -0.3955 -0.5246
  375poe    c23 4497   5.120   5.602   6.187 -0.0853  0.0688 -0.4991
  375poe    c23 4498   5.045   5.717   6.118  0.3390  0.1934 -0.7589
  375poe     o2 4499   5.086   5.832   6.188  0.0338  0.0620 -0.3568
  375poe    c31 4500   4.983   5.927   6.181 -0.2620 -0.2789 -0.6109
  376poe    c31 4501   3.957   0.137   4.061  0.2387  0.2381  0.2581
  376poe     o2 4502   4.004   0.256   4.001  0.2109 -0.0850 -0.4036
  376poe    c23 4503   3.924   0.309   3.897 -0.0224  0.1531 -0.1032
  376poe    c23 4504   4.009   0.420   3.831  0.1863 -0.0052 -0.1015
  376poe     o2 4505   4.055   0.497   3.939 -0.2334  0.5621 -0.3257
  376poe    c23 4506   4.148   0.591   3.890  0.4383 -0.0030 -0.1463
  376poe    c23 4507   4.210   0.651   4.018  0.1689 -0.0530  0.0085
  376poe     o2 4508   4.258   0.537   4.086  0.8249  0.2651  0.0886
  376poe    c23 4509   4.278   0.558   4.224 -0.4946 -0.1882  0.3694
  376poe    c23 4510   4.306   0.424   4.293  0.5335 -0.2398 -0.1255
  376poe     o2 4511   4.205   0.339   4.243 -0.0616 -0.0865  0.7791
  376poe    c31 4512   4.219   0.218   4.315  0.1462 -0.2673  0.4423
  377poe    c31 4513   1.829   5.018   4.050 -0.0698  0.2819 -0.3596
  377poe     o2 4514   1.824   4.886   4.000  0.4753  0.0858  0.0835
  377poe    c23 4515   1.849   4.888   3.861 -0.4203 -0.1069 -0.0909
  377poe    c23 4516   1.783   4.761   3.804 -0.6094 -0.0751  0.0555
  377poe     o2 4517   1.798   4.664   3.906 -0.8781 -0.1345  0.0379
  377poe    c23 4518   1.709   4.556   3.890 -0.6698 -0.3003  0.0024
  377poe    c23 4519   1.762   4.444   3.982  0.2567  0.1360  0.0077
  377poe     o2 4520   1.774   4.513   4.104 -0.1955 -0.0682  0.1692
  377poe    c23 4521   1.897   4.478   4.164 -0.2149 -0.3771  0.0283
  377poe    c23 4522   1.927   4.580   4.275 -0.2473 -0.1337 -0.1858
  377poe     o2 4523   1.919   4.709   4.218 -0.3708 -0.1246 -0.1474
  377poe    c31 4524   1.998   4.793   4.298 -0.5010 -0.0149 -0.1334
  378poe    c31 4525   0.842   5.713   4.905 -0.2263  0.2764 -0.4713
  378poe     o2 4526   0.886   5.795   4.799  0.1277 -0.0263 -0.5604
  378poe    c23 4527   1.019   5.829   4.832  0.0034 -0.3925  0.3515
  378poe    c23 4528   1.106   5.887   4.719 -0.3229 -0.0850  0.2560
  378poe     o2 4529   1.038   6.000   4.669  0.2662  0.2218  0.1441
  378poe    c23 4530   1.059   6.013   4.530  0.2950 -0.4146  0.0865
  378poe    c23 4531   0.926   6.061   4.470  0.2793 -0.8415 -0.2221
  378poe     o2 4532   0.834   5.970   4.528 -0.4115 -0.0365 -0.0345
  378poe    c23 4533   0.702   5.992   4.483 -0.6743  0.4073  0.9249
  378poe    c23 4534   0.626   5.860   4.504 -0.5699  0.1549 -0.2224
  378poe     o2 4535   0.646   5.842   4.642 -0.3638 -0.1266 -0.2879
  378poe    c31 4536   0.538   5.777   4.706 -0.2961 -0.0652 -0.1109
  379poe    c31 4537   3.293   6.496   1.078  0.1076  0.1903  0.4674
  379poe     o2 4538   3.190   6.403   1.054  0.4328  0.0601 -0.4858
  379poe    c23 4539   3.089   6.446   0.967 -0.0140  0.2056  0.0969
  379poe    c23 4540   2.978   6.340   0.960 -0.0691  0.2645  0.0769
  379poe     o2 4541   3.046   6.221   0.928  0.1596  0.4158  0.0037
  379poe    c23 4542   2.964   6.107   0.924 -0.0096  0.5074  0.7092
  379poe    c23 4543   3.053   5.986   0.959 -0.0952  0.2727  0.1420
  379poe     o2 4544   3.146   6.034   1.054  0.2142  0.5190 -0.2846
  379poe    c23 4545   3.238   5.933   1.087 -0.9185 -0.3029  0.4210
  379poe    c23 4546   3.328   6.010   1.186  0.3586 -0.1372 -0.8188
  379poe     o2 4547   3.327   6.147   1.156 -0.1848 -0.0210 -0.2939
  379poe    c31 4548   3.425   6.207   1.239 -0.5152 -0.4910  0.4482
  380poe    c31 4549   3.525   4.447   0.800 -0.2691  0.2914  0.4657
  380poe     o2 4550   3.617   4.553   0.794 -0.4948  0.4437 -0.4239
  380poe    c23 4551   3.660   4.574   0.661 -0.1192  0.1523 -0.3480
  380poe    c23 4552   3.709   4.720   0.668  0.0116  0.1003 -0.1599
  380poe     o2 4553   3.786   4.733   0.786  0.1017 -0.1651 -0.1879
  380poe    c23 4554   3.815   4.869   0.810  0.0896 -0.1954 -0.0015
  380poe    c23 4555   3.909   4.856   0.931 -0.1238  0.5558  0.2511
  380poe     o2 4556   3.863   4.748   1.009 -0.1270  0.5436  0.2323
  380poe    c23 4557   3.804   4.790   1.130 -0.4466 -0.5777  0.4804
  380poe    c23 4558   3.725   4.670   1.185 -0.8239 -0.3549  0.4272
  380poe     o2 4559   3.641   4.632   1.079 -0.0727 -0.1321 -0.2573
  380poe    c31 4560   3.570   4.518   1.123  0.0780 -0.0773  0.1305
  381poe    c31 4561   3.224   4.989   5.464  0.2852  0.0086  0.0207
  381poe     o2 4562   3.183   5.002   5.598 -0.1544 -0.2589 -0.0823
  381poe    c23 4563   3.265   4.922   5.680  0.4863  0.1043 -0.3592
  381poe    c23 4564   3.217   4.944   5.825 -0.2409 -0.6736 -0.4747
  381poe     o2 4565   3.077   4.939   5.811 -0.2464 -0.1763 -0.6174
  381poe    c23 4566   3.011   4.970   5.931  0.0045  0.0160 -0.5294
  381poe    c23 4567   2.860   4.947   5.913 -0.0707  0.2062 -0.1564
  381poe     o2 4568   2.838   4.957   5.774 -0.0924  0.5237 -0.1307
  381poe    c23 4569   2.759   5.065   5.728 -0.3256  0.5365  0.2916
  381poe    c23 4570   2.763   5.066   5.574 -0.1135  0.2871  0.2943
  381poe     o2 4571   2.891   5.044   5.521 -0.3303 -0.0952 -0.0843
  381poe    c31 4572   2.866   5.059   5.383 -0.4092 -0.0920 -0.0693
  382poe    c31 4573   1.289   5.075   5.518 -0.2286 -0.4403  0.0311
  382poe     o2 4574   1.238   5.017   5.636 -0.0203  0.3341  0.5127
  382poe    c23 4575   1.311   4.901   5.667 -0.2266  0.0302 -0.1173
  382poe    c23 4576   1.248   4.821   5.782 -0.4958  0.0153 -0.2749
  382poe     o2 4577   1.212   4.910   5.885  0.2586 -0.5535  0.4990
  382poe    c23 4578   1.120   4.860   5.979 -0.2764  0.0917  0.3307
  382poe    c23 4579   1.090   4.982   6.068 -0.7692  0.2603 -0.0647
  382poe     o2 4580   1.038   5.089   5.992 -0.3471  0.2690 -0.3401
  382poe    c23 4581   1.017   5.213   6.056 -0.6003 -0.0002  0.1011
  382poe    c23 4582   0.974   5.296   5.934  0.0429 -0.0903 -0.1952
  382poe     o2 4583   1.050   5.257   5.822  0.1517 -0.0951 -0.1197
  382poe    c31 4584   1.034   5.347   5.715 -0.6347 -0.1746 -0.0766
  383poe    c31 4585   3.226   1.803   1.311  0.0491 -0.1374 -0.5327
  383poe     o2 4586   3.252   1.686   1.386  0.1648 -0.2980 -0.8218
  383poe    c23 4587   3.390   1.660   1.373  0.2968  0.1661 -0.3909
  383poe    c23 4588   3.415   1.523   1.439  0.1978  0.1979 -0.2877
  383poe     o2 4589   3.339   1.521   1.558  0.2914  0.2685 -0.2263
  383poe    c23 4590   3.350   1.403   1.634  1.0235  0.0418 -0.6721
  383poe    c23 4591   3.249   1.423   1.749  0.3025  0.1677 -1.3237
  383poe     o2 4592   3.137   1.496   1.703 -0.0795  0.4335 -0.0003
  383poe    c23 4593   3.016   1.452   1.760 -0.0234  0.3152  0.0290
  383poe    c23 4594   2.965   1.503   1.896  0.7505  0.5533  0.2357
  383poe     o2 4595   2.830   1.466   1.913  0.7448  0.3620 -0.2022
  383poe    c31 4596   2.789   1.444   2.046  0.7607 -0.0825 -0.2709
  384poe    c31 4597   6.186   4.226   0.821  0.3597  0.1015 -0.0477
  384poe     o2 4598   6.123   4.352   0.824 -0.0293 -0.0869 -0.2477
  384poe    c23 4599   6.057   4.389   0.704 -0.0263  0.0886 -0.1958
  384poe    c23 4600   5.979   4.521   0.702 -0.0726  0.0613 -0.1650
  384poe     o2 4601   5.886   4.518   0.808  0.3601  0.1681  0.2208
  384poe    c23 4602   5.785   4.616   0.797  0.1188 -0.0588  0.3976
  384poe    c23 4603   5.709   4.636   0.929 -0.1853  0.0801  0.2021
  384poe     o2 4604   5.798   4.626   1.038  0.1590 -0.5971 -0.1353
  384poe    c23 4605   5.742   4.632   1.168  0.1397 -0.4772 -0.1487
  384poe    c23 4606   5.855   4.591   1.264 -0.1781  0.0713  0.4628
  384poe     o2 4607   5.921   4.479   1.209  0.2348  0.4431  0.1918
  384poe    c31 4608   5.986   4.398   1.305 -0.6729 -0.4961  0.0324
  385poe    c31 4609   6.185   0.781   1.031 -0.0805 -0.1754  0.6899
  385poe     o2 4610   6.095   0.768   1.138 -0.3879  0.2277  0.4785
  385poe    c23 4611   6.004   0.875   1.152  0.1346  0.7637 -0.1845
  385poe    c23 4612   5.966   0.865   1.300  0.4784  0.1699 -0.1364
  385poe     o2 4613   6.074   0.835   1.386  0.3269 -0.2271 -0.0797
  385poe    c23 4614   6.041   0.805   1.519  0.0688 -0.0961 -0.1148
  385poe    c23 4615   6.146   0.706   1.571  0.4263  0.3657  0.0422
  385poe     o2 4616   6.171   0.624   1.459 -0.3323  0.0685  0.0904
  385poe    c23 4617   6.247   0.511   1.494 -0.3592  0.0429  0.0655
  385poe    c23 4618   6.223   0.421   1.371 -0.0325 -0.2508  0.2150
  385poe     o2 4619   6.218   0.507   1.259 -0.0904 -0.1635  0.2836
  385poe    c31 4620   6.200   0.425   1.145 -0.2581  0.5381 -0.1968
  386poe    c31 4621   0.024   5.424   1.662 -0.7762  0.2068 -0.4395
  386poe     o2 4622   0.149   5.401   1.601 -0.3688 -0.1163  0.5058
  386poe    c23 4623   0.154   5.275   1.538  0.4442  0.2467 -0.1694
  386poe    c23 4624   0.297   5.263   1.483  0.4394  0.3095 -0.1957
  386poe     o2 4625   0.331   5.383   1.416  0.0692  0.3778 -0.2610
  386poe    c23 4626   0.461   5.398   1.365  0.2801  0.0877  0.1752
  386poe    c23 4627   0.466   5.548   1.329 -0.4023  0.0387 -0.1476
  386poe     o2 4628   0.402   5.611   1.437 -0.4185  0.0148 -0.1434
  386poe    c23 4629   0.386   5.751   1.432 -0.5124  0.0366  0.6372
  386poe    c23 4630   0.340   5.801   1.570  0.1396  0.0735  0.8446
  386poe     o2 4631   0.240   5.710   1.607 -0.0595  0.0973  0.3701
  386poe    c31 4632   0.183   5.745   1.731 -0.0716  0.2897  0.3106
  387poe    c31 4633   2.772   5.755   2.866  0.1034 -0.1002 -0.2757
  387poe     o2 4634   2.670   5.675   2.809 -0.0763 -0.2786  0.2876
  387poe    c23 4635   2.696   5.541   2.842  0.4646 -0.2160  0.1261
  387poe    c23 4636   2.619   5.448   2.746  0.2195  0.0979  0.0175
  387poe     o2 4637   2.481   5.478   2.747  0.2061  0.0382 -0.0263
  387poe    c23 4638   2.401   5.406   2.656 -0.1537 -0.1689  0.4449
  387poe    c23 4639   2.270   5.481   2.624 -0.2884 -0.4535  0.3269
  387poe     o2 4640   2.302   5.616   2.601 -0.0905 -0.5137  0.2469
  387poe    c23 4641   2.220   5.682   2.506  0.3274 -0.2878  0.0370
  387poe    c23 4642   2.245   5.663   2.355  0.4212 -0.1778  0.0391
  387poe     o2 4643   2.234   5.525   2.329 -0.3533 -0.0531 -0.3048
  387poe    c31 4644   2.299   5.498   2.206  0.2087  0.0126 -0.0251
  388poe    c31 4645   1.623   0.256   3.803  0.4767 -0.0949  0.0236
  388poe     o2 4646   1.556   0.279   3.681  0.0212 -0.2178  0.2487
  388poe    c23 4647   1.434   0.208   3.684 -0.3822  0.4508 -0.1197
  388poe    c23 4648   1.358   0.234   3.553 -0.4083 -0.3363 -0.2653
  388poe     o2 4649   1.388   0.366   3.514 -0.1352 -0.5636 -0.8300
  388poe    c23 4650   1.341   0.402   3.385 -0.9428 -0.0871 -0.4124
  388poe    c23 4651   1.388   0.548   3.374  0.1287 -0.3717  0.2062
  388poe     o2 4652   1.523   0.545   3.413  0.2756 -0.2010 -0.2762
  388poe    c23 4653   1.580   0.669   3.450  0.0649 -0.1572 -0.0947
  388poe    c23 4654   1.708   0.653   3.534 -0.6686 -0.3381  1.0047
  388poe     o2 4655   1.684   0.561   3.638 -0.6071 -0.3665  0.9936
  388poe    c31 4656   1.807   0.549   3.707  0.0397 -0.2661 -0.1193
  389poe    c31 4657   5.143   2.482   4.404  0.2404 -0.0740 -0.0229
  389poe     o2 4658   5.217   2.425   4.298  0.1919 -0.1042 -0.0400
  389poe    c23 4659   5.353   2.429   4.333  0.1343  0.2453  0.1483
  389poe    c23 4660   5.429   2.325   4.248 -0.2342  0.1069 -0.0107
  389poe     o2 4661   5.387   2.351   4.116 -0.3069 -0.5625 -0.1273
  389poe    c23 4662   5.433   2.253   4.026  0.2769 -0.5479  0.1449
  389poe    c23 4663   5.347   2.295   3.905  0.0378 -0.1879  0.4368
  389poe     o2 4664   5.217   2.305   3.959  0.0237  0.2382  0.3198
  389poe    c23 4665   5.129   2.369   3.869 -0.0739 -0.0769  0.1928
  389poe    c23 4666   4.989   2.376   3.934 -0.0542  0.1631  0.2093
  389poe     o2 4667   5.007   2.455   4.049  0.1909 -0.2308  0.4443
  389poe    c31 4668   4.881   2.479   4.107 -0.1938 -0.2733 -0.3557
  390poe    c31 4669   6.206   2.609   5.284  0.2013  0.2951 -0.5765
  390poe     o2 4670   6.247   2.583   5.417 -0.3228  0.2079 -0.4267
  390poe    c23 4671   6.179   2.680   5.492  0.5006  0.4070  0.0756
  390poe    c23 4672   6.193   2.649   5.643 -0.4934  0.0760  0.1095
  390poe     o2 4673   6.332   2.634   5.659 -0.4719  0.4034  0.2392
  390poe    c23 4674   6.387   2.662   5.786 -0.2589 -0.1003  0.2600
  390poe    c23 4675   6.529   2.604   5.777  0.0866  0.7642  0.0379
  390poe     o2 4676   6.534   2.488   5.696  0.4577  0.7939  0.0153
  390poe    c23 4677   6.653   2.479   5.621  0.2748  0.2912 -0.2152
  390poe    c23 4678   6.636   2.384   5.501  0.1670 -0.2830  0.2486
  390poe     o2 4679   6.513   2.420   5.441  0.3981 -0.3175 -0.2479
  390poe    c31 4680   6.502   2.343   5.323  0.4506 -0.6431 -0.0401
  391poe    c31 4681   5.760   1.963   0.683 -0.0518  0.7997 -0.0469
  391poe     o2 4682   5.901   1.955   0.683 -0.0882  0.0738 -0.1455
  391poe    c23 4683   5.943   1.902   0.559  0.1816  0.3407 -0.1669
  391poe    c23 4684   6.096   1.894   0.545  0.1745  0.2024 -0.1630
  391poe     o2 4685   6.150   1.862   0.671 -0.1832 -0.3223 -0.1392
  391poe    c23 4686   6.290   1.877   0.683 -0.1924 -0.3808  0.0379
  391poe    c23 4687   6.321   2.014   0.748 -0.3499 -0.2238 -0.2170
  391poe     o2 4688   6.220   2.021   0.845 -0.6824  0.0394 -0.5778
  391poe    c23 4689   6.220   2.150   0.903  0.0050 -0.2708  0.1316
  391poe    c23 4690   6.091   2.165   0.985 -0.0696  0.2747 -0.0815
  391poe     o2 4691   5.990   2.115   0.899  0.0600  0.2325 -0.2095
  391poe    c31 4692   5.870   2.162   0.956 -0.2389  0.0451 -0.6837
  392poe    c31 4693   3.058   2.510   6.064 -0.3170 -0.1381 -0.3259
  392poe     o2 4694   3.040   2.371   6.078 -0.1952 -0.1180  0.0356
  392poe    c23 4695   3.053   2.297   5.959 -0.1506  0.2246 -0.1753
  392poe    c23 4696   2.990   2.159   5.987 -0.0484  0.2759  0.3116
  392poe     o2 4697   3.028   2.128   6.119 -0.0135  0.0395  0.2467
  392poe    c23 4698   3.014   1.990   6.147  0.1894 -0.1076 -0.3625
  392poe    c23 4699   3.122   1.951   6.249 -0.7901 -0.0684  0.7095
  392poe     o2 4700   3.105   2.032   6.363 -0.0996  0.3968  0.4877
  392poe    c23 4701   3.147   1.974   6.484  0.0477  0.5561  0.5139
  392poe    c23 4702   3.293   1.923   6.493 -0.1095 -0.0440 -0.1933
  392poe     o2 4703   3.378   2.032   6.518 -0.0045 -0.1677 -0.0117
  392poe    c31 4704   3.516   2.013   6.494 -0.1062  0.2754 -0.9826
  393poe    c31 4705   1.479   0.047   4.186 -0.2729 -0.1570 -0.1182
  393poe     o2 4706   1.458  -0.072   4.114  0.1709 -0.1472 -0.2667
  393poe    c23 4707   1.512  -0.047   3.986  0.1024 -0.6442 -0.3944
  393poe    c23 4708   1.447  -0.144   3.885 -0.4392 -0.1731 -0.5026
  393poe     o2 4709   1.469  -0.269   3.946 -0.2737 -0.1326 -0.4794
  393poe    c23 4710   1.410  -0.382   3.885  0.4066 -0.6242 -0.2405
  393poe    c23 4711   1.437  -0.485   3.996  0.8509 -0.2437  0.0077
  393poe     o2 4712   1.397  -0.422   4.116 -0.1668 -0.0327 -0.4289
  393poe    c23 4713   1.413  -0.501   4.232  0.6106  0.1505 -0.4051
  393poe    c23 4714   1.355  -0.421   4.350  0.6000 -0.0869 -0.2497
  393poe     o2 4715   1.403  -0.291   4.325 -0.2644  0.3832  0.4905
  393poe    c31 4716   1.334  -0.207   4.415  0.0172  0.5403  0.5583
  394poe    c31 4717   3.226   1.801   2.144 -0.2198 -0.3017  0.5226
  394poe     o2 4718   3.338   1.735   2.088 -0.1389  0.1054  0.1984
  394poe    c23 4719   3.318   1.601   2.127 -0.7449  0.0252 -0.3652
  394poe    c23 4720   3.441   1.512   2.102 -0.2362  0.6271 -0.0385
  394poe     o2 4721   3.558   1.539   2.176  0.0836 -0.1636 -0.2413
  394poe    c23 4722   3.667   1.465   2.126  0.3933 -0.3785  0.7253
  394poe    c23 4723   3.798   1.479   2.206  0.8917  0.2443 -0.1796
  394poe     o2 4724   3.784   1.402   2.322 -0.4680  0.0062 -0.4848
  394poe    c23 4725   3.910   1.390   2.384 -0.5771  0.0156 -0.2579
  394poe    c23 4726   3.921   1.270   2.480 -0.1166  0.2544 -0.0088
  394poe     o2 4727   3.796   1.257   2.545  0.1078 -0.0309  0.3709
  394poe    c31 4728   3.813   1.193   2.669  0.1318 -0.1407  0.3110
  395poe    c31 4729   5.148   1.458   5.423  0.1735 -0.0287 -0.1849
  395poe     o2 4730   5.111   1.474   5.288  0.2089  0.0305 -0.1877
  395poe    c23 4731   5.211   1.415   5.208 -0.1834 -0.6100 -0.2190
  395poe    c23 4732   5.177   1.446   5.061 -0.0153 -0.2898 -0.1915
  395poe     o2 4733   5.139   1.581   5.043 -0.1283 -0.2940  0.0099
  395poe    c23 4734   5.102   1.610   4.910  0.0055 -0.1553  0.0040
  395poe    c23 4735   5.053   1.756   4.924  0.6594  0.0816 -0.1293
  395poe     o2 4736   4.960   1.757   5.030  0.2467 -0.2755 -0.4884
  395poe    c23 4737   4.922   1.884   5.077 -0.2893 -0.5134 -0.2777
  395poe    c23 4738   4.843   1.861   5.208  0.3136 -0.2391  0.1363
  395poe     o2 4739   4.934   1.776   5.274  0.3106 -0.3660 -0.0208
  395poe    c31 4740   4.868   1.740   5.393  0.3737 -0.0923  0.0985
  396poe    c31 4741   6.466   6.236   4.251  0.0776  0.0565 -0.2658
  396poe     o2 4742   6.386   6.351   4.269  0.2842  0.1082  0.3476
  396poe    c23 4743   6.310   6.385   4.155  0.0233  0.3548  0.5954
  396poe    c23 4744   6.197   6.480   4.198 -0.3096  0.0443  0.4139
  396poe     o2 4745   6.264   6.580   4.272  0.2556  0.3327 -0.4820
  396poe    c23 4746   6.181   6.664   4.348  0.1999  0.0112 -0.1833
  396poe    c23 4747   6.275   6.729   4.451 -0.0840 -0.0280  0.1008
  396poe     o2 4748   6.341   6.618   4.508 -0.1603 -0.3578 -0.4455
  396poe    c23 4749   6.440   6.659   4.600 -0.1126 -0.3531 -0.4991
  396poe    c23 4750   6.514   6.536   4.654 -0.3365 -0.1160  0.3610
  396poe     o2 4751   6.547   6.452   4.546 -0.3964 -0.3382  0.5140
  396poe    c31 4752   6.669   6.382   4.559 -0.0979  0.1266  0.2491
  397poe    c31 4753   4.384   3.674   5.836  0.2399 -0.0112  0.1274
  397poe     o2 4754   4.330   3.689   5.965 -0.0307  0.2436 -0.0141
  397poe    c23 4755   4.259   3.811   5.973 -0.0717  0.2243 -0.0835
  397poe    c23 4756   4.234   3.833   6.123 -0.3100 -0.2787 -0.0453
  397poe     o2 4757   4.163   3.722   6.173 -0.2962 -0.3045 -0.0825
  397poe    c23 4758   4.145   3.714   6.313 -0.6295 -0.4510 -0.1324
  397poe    c23 4759   4.147   3.564   6.348  0.0449 -0.4398 -0.1137
  397poe     o2 4760   4.258   3.513   6.277  0.0448 -0.2217 -0.2729
  397poe    c23 4761   4.266   3.372   6.283  0.3190 -0.1780  0.5029
  397poe    c23 4762   4.389   3.335   6.198 -0.2261 -0.7171 -0.0581
  397poe     o2 4763   4.399   3.408   6.078  0.7097 -0.0844  0.3953
  397poe    c31 4764   4.507   3.355   6.004  0.3020  0.2684 -0.4631
  398poe    c31 4765   1.996   2.740   3.733  0.9775  0.1814 -0.0813
  398poe     o2 4766   2.058   2.791   3.617 -0.1190  0.2039 -0.6731
  398poe    c23 4767   2.123   2.686   3.549  0.9689  0.2906  0.2033
  398poe    c23 4768   2.160   2.736   3.408  0.7360 -0.2094 -0.0375
  398poe     o2 4769   2.235   2.854   3.425  0.2520  0.0697  0.1898
  398poe    c23 4770   2.278   2.918   3.307 -0.4493 -0.3944 -0.3274
  398poe    c23 4771   2.392   3.005   3.365 -0.7522 -0.1597 -0.0812
  398poe     o2 4772   2.336   3.073   3.475 -0.1977  0.5358 -0.2228
  398poe    c23 4773   2.436   3.123   3.560  0.3726 -0.1592 -0.4689
  398poe    c23 4774   2.360   3.139   3.693  1.0164  0.1066 -0.1255
  398poe     o2 4775   2.269   3.037   3.727  0.6066  0.5453  0.1078
  398poe    c31 4776   2.258   3.047   3.867  0.1212 -0.7569  0.1779
  399poe    c31 4777   3.099   2.501   4.395 -0.5679 -0.2119  0.0702
  399poe     o2 4778   3.086   2.524   4.534 -0.7199 -0.0944  0.0366
  399poe    c23 4779   3.122   2.659   4.551 -0.2952 -0.2129  0.0857
  399poe    c23 4780   3.131   2.689   4.701 -0.1397  0.0694  0.0205
  399poe     o2 4781   3.027   2.621   4.767 -0.1035  0.0774  0.0868
  399poe    c23 4782   3.033   2.610   4.908  0.1529  0.2537  0.0891
  399poe    c23 4783   2.916   2.522   4.956  0.0861  0.2892 -0.0095
  399poe     o2 4784   2.905   2.409   4.873  0.3989  0.1441  0.1467
  399poe    c23 4785   2.983   2.299   4.913  0.4435 -0.1856 -0.8266
  399poe    c23 4786   2.999   2.223   4.780 -0.5535 -0.5840 -0.7265
  399poe     o2 4787   3.057   2.295   4.673  0.3884 -0.1758  0.0486
  399poe    c31 4788   3.148   2.213   4.603 -0.2151 -0.6535 -0.1881
  400poe    c31 4789   5.783   2.421   3.197  0.0768  0.0688 -0.3257
  400poe     o2 4790   5.888   2.516   3.196 -0.4740  0.6872 -0.1810
  400poe    c23 4791   5.843   2.646   3.227 -0.3520  0.4871  0.8758
  400poe    c23 4792   5.975   2.721   3.249  0.6472 -0.7771 -0.5761
  400poe     o2 4793   6.051   2.702   3.132 -0.0945  0.5210 -1.2878
  400poe    c23 4794   6.180   2.757   3.144 -0.0016  0.0304  0.0792
  400poe    c23 4795   6.260   2.705   3.023 -0.3687 -0.0872 -0.1145
  400poe     o2 4796   6.232   2.567   3.026 -0.3509 -0.0833  0.2280
  400poe    c23 4797   6.281   2.486   2.922 -0.0925  0.4887 -0.1000
  400poe    c23 4798   6.154   2.440   2.848  0.1356 -0.0438 -0.1673
  400poe     o2 4799   6.053   2.413   2.942  0.4916 -0.2800  0.1503
  400poe    c31 4800   5.977   2.306   2.890  0.2184  0.1680 -0.3821
  401poe    c31 4801   5.564   4.639   5.547  0.1074  0.5282 -0.2280
  401poe     o2 4802   5.672   4.711   5.492  0.2733  0.2755 -0.2343
  401poe    c23 4803   5.745   4.734   5.611  0.5311 -0.3369 -0.2703
  401poe    c23 4804   5.880   4.791   5.566  0.2324  0.3520 -0.3100
  401poe     o2 4805   5.850   4.909   5.495 -0.0238  0.3618 -0.1840
  401poe    c23 4806   5.955   4.952   5.411 -0.1862 -0.0072 -0.5816
  401poe    c23 4807   5.888   5.018   5.289 -0.2302  0.4342 -0.3231
  401poe     o2 4808   5.779   4.943   5.241  0.3531 -0.2017 -0.6710
  401poe    c23 4809   5.700   5.002   5.141 -0.0326 -0.1572 -0.3413
  401poe    c23 4810   5.581   4.904   5.128 -0.2463  0.0731 -0.1380
  401poe     o2 4811   5.542   4.870   5.259 -0.6722  0.2267 -0.2256
  401poe    c31 4812   5.408   4.830   5.242 -0.5725 -0.2130  0.0371
  402poe    c31 4813   0.991   2.195   4.864 -0.0600 -0.2172  0.2509
  402poe     o2 4814   0.948   2.084   4.788 -0.3905 -0.0081  0.1280
  402poe    c23 4815   0.819   2.115   4.742 -0.1329 -0.1653 -0.7269
  402poe    c23 4816   0.752   1.992   4.679  0.1161 -0.7700  0.1631
  402poe     o2 4817   0.839   1.945   4.579 -0.0585 -0.2868 -0.2197
  402poe    c23 4818   0.837   1.806   4.556 -0.2396 -0.3439  0.1405
  402poe    c23 4819   0.978   1.773   4.503 -0.0826  0.1015  0.2807
  402poe     o2 4820   1.065   1.833   4.596  0.1178  0.2200  0.0170
  402poe    c23 4821   1.195   1.780   4.582 -0.0454 -0.2315  0.1800
  402poe    c23 4822   1.275   1.824   4.706  0.4152  0.0191 -0.2019
  402poe     o2 4823   1.219   1.947   4.746  0.1890 -0.1992  0.1536
  402poe    c31 4824   1.313   2.013   4.828  0.2528 -0.0748 -0.0191
  403poe    c31 4825   5.362   0.447   5.414  0.7381  0.0291  0.7603
  403poe     o2 4826   5.252   0.391   5.483  0.0389  0.1444 -0.2284
  403poe    c23 4827   5.305   0.308   5.584 -0.2930 -0.0938 -0.2485
  403poe    c23 4828   5.199   0.211   5.638 -0.2579 -0.0926 -0.1763
  403poe     o2 4829   5.126   0.177   5.522 -0.7937  0.0001  0.1273
  403poe    c23 4830   5.046   0.061   5.528 -0.0965 -0.4650  0.7003
  403poe    c23 4831   5.051   0.024   5.378 -0.2222  0.6639  0.4023
  403poe     o2 4832   5.034   0.148   5.314 -0.0518  0.5424  0.1215
  403poe    c23 4833   5.074   0.153   5.179  0.0140 -0.5577  0.0933
  403poe    c23 4834   5.058   0.295   5.121 -0.0103 -0.5448  0.1315
  403poe     o2 4835   5.111   0.375   5.224 -0.4979 -0.3467  0.2277
  403poe    c31 4836   5.090   0.514   5.217  0.3015 -0.2699 -0.7793
  404poe    c31 4837   1.021   3.411   2.564  0.2392  0.2659 -0.0268
  404poe     o2 4838   1.045   3.549   2.554  0.0220  0.3113  0.0646
  404poe    c23 4839   0.944   3.612   2.479 -0.1661 -0.0826 -0.0129
  404poe    c23 4840   0.988   3.757   2.455  0.0410 -0.0006  0.8258
  404poe     o2 4841   1.034   3.811   2.577  0.4370  0.1126  0.6321
  404poe    c23 4842   1.075   3.943   2.553 -0.0753  0.1518 -0.0558
  404poe    c23 4843   1.168   3.978   2.670  0.4991  0.7146 -0.6727
  404poe     o2 4844   1.254   3.869   2.645  0.0972  0.2231  0.0666
  404poe    c23 4845   1.358   3.867   2.740 -0.1294 -0.2489  0.3106
  404poe    c23 4846   1.425   3.729   2.732  0.0259 -0.1570  0.0179
  404poe     o2 4847   1.320   3.636   2.718 -0.3999  0.1871  0.9007
  404poe    c31 4848   1.349   3.509   2.772 -0.4170 -0.1519  0.1204
  405poe    c31 4849   2.879   6.154   4.739 -0.7960  0.4145 -0.4752
  405poe     o2 4850   2.967   6.244   4.803  0.0712 -0.4990 -0.3572
  405poe    c23 4851   2.968   6.209   4.939  0.1253  0.2846 -0.1525
  405poe    c23 4852   3.070   6.299   5.011  0.2804  0.0751 -0.1103
  405poe     o2 4853   3.076   6.426   4.950 -0.2417  0.2070  0.1055
  405poe    c23 4854   3.168   6.519   5.004  0.7319 -0.6991  0.0543
  405poe    c23 4855   3.204   6.606   4.882  0.2842 -0.3207  0.1883
  405poe     o2 4856   3.165   6.546   4.761 -0.0423  0.1126  0.0777
  405poe    c23 4857   3.154   6.636   4.653 -0.6952  0.0589  0.0962
  405poe    c23 4858   3.104   6.558   4.530  0.4924 -0.1746 -0.2488
  405poe     o2 4859   3.007   6.461   4.564 -0.3288  0.5588 -0.4427
  405poe    c31 4860   2.967   6.405   4.441  0.4305  0.5239 -0.6783
  406poe    c31 4861   1.594   2.107   3.054 -0.5903  0.1819 -0.5156
  406poe     o2 4862   1.621   1.974   3.018 -0.1291  0.1906 -0.1998
  406poe    c23 4863   1.642   1.967   2.879  0.2065  0.2952 -0.1561
  406poe    c23 4864   1.667   1.819   2.842  0.3917  0.1700  0.4576
  406poe     o2 4865   1.585   1.736   2.920  0.2980 -0.2381 -0.0682
  406poe    c23 4866   1.630   1.602   2.918 -0.3616 -0.4647  0.0660
  406poe    c23 4867   1.549   1.545   3.036 -1.0096  0.5932  0.1493
  406poe     o2 4868   1.567   1.630   3.148  0.2001  0.5280  0.0225
  406poe    c23 4869   1.477   1.616   3.256 -0.0198 -0.3448 -0.2649
  406poe    c23 4870   1.493   1.737   3.350 -0.7548  0.1676 -0.7916
  406poe     o2 4871   1.504   1.846   3.261  0.3662  0.5509 -0.2068
  406poe    c31 4872   1.535   1.958   3.340  0.1034  0.1536  0.4684
  407poe    c31 4873   3.308   0.343   2.577  0.1090  0.5289  0.1022
  407poe     o2 4874   3.372   0.363   2.701  0.0089  0.0228  0.2364
  407poe    c23 4875   3.287   0.421   2.797  0.0601  0.1889  0.1817
  407poe    c23 4876   3.369   0.490   2.908  0.3504 -0.4192  0.3519
  407poe     o2 4877   3.461   0.388   2.941  0.3275 -0.3435  0.6529
  407poe    c23 4878   3.567   0.447   3.014  0.2294  0.0953  0.4464
  407poe    c23 4879   3.689   0.353   3.015  0.1862  0.0383  0.2897
  407poe     o2 4880   3.708   0.318   2.879  0.3162 -0.1128  0.3471
  407poe    c23 4881   3.795   0.210   2.858  0.3865  0.0121  0.0009
  407poe    c23 4882   3.783   0.203   2.704 -0.2975 -0.0492  0.0570
  407poe     o2 4883   3.647   0.200   2.666 -0.2095  0.7991 -0.3542
  407poe    c31 4884   3.626   0.149   2.536 -0.2400  0.5507 -0.2540
  408poe    c31 4885   2.833   6.096   4.242 -0.0019 -0.1738  0.0454
  408poe     o2 4886   2.701   6.079   4.288  0.0369 -0.1105  0.1798
  408poe    c23 4887   2.690   5.951   4.346 -0.0235 -0.0647  0.2688
  408poe    c23 4888   2.551   5.948   4.412 -0.1391  0.1693  0.0332
  408poe     o2 4889   2.470   5.999   4.308 -0.1553  0.2511  0.0862
  408poe    c23 4890   2.334   5.991   4.342 -0.1225  0.3502  0.2394
  408poe    c23 4891   2.265   6.108   4.270 -0.5531 -0.0094  0.0559
  408poe     o2 4892   2.364   6.209   4.270 -0.5290 -0.0303  0.5599
  408poe    c23 4893   2.326   6.321   4.193  0.5473 -0.1587 -0.1786
  408poe    c23 4894   2.445   6.418   4.192 -0.0817  0.6209 -0.2267
  408poe     o2 4895   2.567   6.352   4.170 -0.2404  0.4177 -0.5005
  408poe    c31 4896   2.671   6.440   4.132  0.0672  0.1856 -0.2065
  409poe    c31 4897   1.028   5.580   3.256  0.0790  0.2478 -0.0868
  409poe     o2 4898   1.068   5.680   3.165  0.2620  0.1404 -0.1257
  409poe    c23 4899   0.957   5.706   3.083  0.0853  0.0858  0.0951
  409poe    c23 4900   0.996   5.819   2.986  0.2381 -0.0297  0.0218
  409poe     o2 4901   1.129   5.801   2.944  0.0800 -0.2199 -0.4001
  409poe    c23 4902   1.163   5.890   2.840 -0.5085 -0.1290 -0.5203
  409poe    c23 4903   1.316   5.879   2.823 -0.4007 -0.1217  0.4031
  409poe     o2 4904   1.367   5.870   2.954 -0.2075 -0.2799  0.3181
  409poe    c23 4905   1.498   5.820   2.951  0.0548  0.4351 -0.4433
  409poe    c23 4906   1.526   5.789   3.099 -0.0456  0.1296 -0.4870
  409poe     o2 4907   1.413   5.718   3.145  0.1738  0.2171  0.1995
  409poe    c31 4908   1.441   5.626   3.249  0.5127 -0.5772 -0.5850
  410poe    c31 4909   0.180   2.924   4.627  0.7383 -0.1664  0.1678
  410poe     o2 4910   0.246   2.984   4.736  0.3462  0.2590  0.1738
  410poe    c23 4911   0.385   2.978   4.719  0.1805 -0.6177 -0.9654
  410poe    c23 4912   0.437   3.119   4.687  0.2723 -0.3980  0.1156
  410poe     o2 4913   0.420   3.214   4.789  0.4500 -0.2478  0.0065
  410poe    c23 4914   0.531   3.301   4.785  0.0962  0.2071  0.0134
  410poe    c23 4915   0.480   3.428   4.856  0.3395  0.1796  0.2375
  410poe     o2 4916   0.406   3.398   4.973 -1.0890 -0.0500 -0.7063
  410poe    c23 4917   0.385   3.515   5.049 -0.3036 -0.6239  0.4136
  410poe    c23 4918   0.341   3.475   5.191 -0.1086  0.0288  0.6601
  410poe     o2 4919   0.208   3.429   5.183 -0.2951  0.6211  0.2046
  410poe    c31 4920   0.152   3.411   5.311 -0.4151 -0.4116  0.0154
  411poe    c31 4921   3.795   2.706   4.421  0.4767  0.3912 -0.5285
  411poe     o2 4922   3.738   2.784   4.319 -0.2143  0.4242 -0.1251
  411poe    c23 4923   3.706   2.697   4.213 -0.0977  0.4165 -0.1547
  411poe    c23 4924   3.609   2.758   4.110 -0.7232  0.1546  0.2740
  411poe     o2 4925   3.681   2.877   4.089  0.0667 -0.4507 -0.4905
  411poe    c23 4926   3.610   2.959   3.999  0.4723 -0.0057 -0.4070
  411poe    c23 4927   3.684   3.094   3.996 -0.3284  0.4605  0.2397
  411poe     o2 4928   3.702   3.130   4.131 -0.3338  0.0716  0.3423
  411poe    c23 4929   3.739   3.264   4.151  0.2604 -0.1221  0.5862
  411poe    c23 4930   3.725   3.321   4.293  0.0051  0.3355  0.3813
  411poe     o2 4931   3.823   3.286   4.388 -0.0250 -0.5046  0.1152
  411poe    c31 4932   3.780   3.336   4.513  0.0603 -0.2275  0.0355
  412poe    c31 4933   2.883   4.701   0.204 -0.3376 -0.4050  0.0030
  412poe     o2 4934   2.928   4.615   0.307 -0.3042 -0.3069  0.0703
  412poe    c23 4935   2.839   4.506   0.311 -0.1068 -0.4767 -0.2218
  412poe    c23 4936   2.834   4.456   0.457 -0.4461  0.1148 -0.0306
  412poe     o2 4937   2.957   4.482   0.519 -0.4220  0.6159 -0.2799
  412poe    c23 4938   2.961   4.486   0.660  0.5098  0.0602 -0.2796
  412poe    c23 4939   3.102   4.532   0.700  0.2942  0.0803  0.4916
  412poe     o2 4940   3.122   4.639   0.610 -0.3798  0.0881  0.3508
  412poe    c23 4941   3.260   4.664   0.596 -0.4552  0.1180 -0.3564
  412poe    c23 4942   3.266   4.758   0.474  0.8678  0.2663 -0.1901
  412poe     o2 4943   3.198   4.684   0.375  0.5758 -0.0444  0.2393
  412poe    c31 4944   3.247   4.718   0.247 -0.0089  0.1508  0.0618
  413poe    c31 4945   0.748   3.303   5.825  0.1474 -0.0930 -0.1181
  413poe     o2 4946   0.658   3.339   5.723  0.2593  0.2371 -0.1006
  413poe    c23 4947   0.705   3.311   5.593 -0.3171 -0.3566 -0.1880
  413poe    c23 4948   0.599   3.227   5.519 -0.1015 -0.1657 -0.7237
  413poe     o2 4949   0.476   3.269   5.573  0.2283  0.2036 -0.2474
  413poe    c23 4950   0.370   3.178   5.552  0.0899  0.2801  0.1008
  413poe    c23 4951   0.250   3.235   5.629  0.0958  0.2861  0.1058
  413poe     o2 4952   0.312   3.268   5.752  0.0492 -0.0456  0.2181
  413poe    c23 4953   0.225   3.321   5.848  0.2207  0.4338  0.1105
  413poe    c23 4954   0.309   3.322   5.977  0.3192 -0.1301  0.0514
  413poe     o2 4955   0.436   3.375   5.946  0.1443  0.3089  0.0765
  413poe    c31 4956   0.487   3.452   6.052  0.2270  0.3492  0.0072
  414poe    c31 4957   5.813   4.674   3.579 -0.0445  0.1079  0.0339
  414poe     o2 4958   5.879   4.586   3.491 -0.2745 -0.2602  0.2260
  414poe    c23 4959   5.996   4.542   3.557 -0.0778 -0.3218 -0.1560
  414poe    c23 4960   6.045   4.417   3.482  0.5801 -0.1136 -0.0802
  414poe     o2 4961   6.049   4.444   3.344  0.2389 -0.2282 -0.1148
  414poe    c23 4962   6.095   4.335   3.267  0.0376 -0.0451 -0.4995
  414poe    c23 4963   6.037   4.358   3.127 -0.2513 -0.3228 -0.4254
  414poe     o2 4964   5.919   4.433   3.149  0.1246  0.1173  0.1312
  414poe    c23 4965   5.806   4.349   3.140  0.3361 -0.1448 -0.1227
  414poe    c23 4966   5.686   4.445   3.155  0.3781 -0.1160  0.0279
  414poe     o2 4967   5.709   4.531   3.264  0.3270  0.2211 -0.2262
  414poe    c31 4968   5.587   4.587   3.307  0.1210 -0.3638 -0.0380
  415poe    c31 4969   2.450   0.651   2.874  0.2822  0.3728 -0.3373
  415poe     o2 4970   2.460   0.535   2.794  0.2255 -0.0417  0.2468
  415poe    c23 4971   2.511   0.559   2.665  0.3831  0.0791  0.3323
  415poe    c23 4972   2.562   0.424   2.611  0.6264  0.3287 -0.0666
  415poe     o2 4973   2.474   0.324   2.658  0.0953  0.4985 -0.6881
  415poe    c23 4974   2.522   0.196   2.627 -0.1436  0.1792  0.2378
  415poe    c23 4975   2.428   0.107   2.710 -0.3089  0.1587  0.0280
  415poe     o2 4976   2.422   0.166   2.838 -0.4985  0.3635 -0.0747
  415poe    c23 4977   2.330   0.111   2.929 -0.2360  0.1070  0.0358
  415poe    c23 4978   2.363   0.190   3.057 -0.3041 -0.0591  0.1564
  415poe     o2 4979   2.361   0.325   3.018  0.9609  0.0499  0.4250
  415poe    c31 4980   2.375   0.405   3.133 -0.2342  0.0304  0.5924
  416poe    c31 4981   0.972   2.625   5.268  0.5246 -0.7637  0.3025
  416poe     o2 4982   0.925   2.564   5.386 -0.1629 -0.1068  0.3796
  416poe    c23 4983   0.866   2.442   5.345 -0.0137 -0.0791  0.0771
  416poe    c23 4984   0.781   2.391   5.463  0.1008  0.7794  0.5387
  416poe     o2 4985   0.882   2.398   5.561  0.4055 -0.2385  0.3040
  416poe    c23 4986   0.833   2.385   5.693  0.1013 -0.1559  0.2000
  416poe    c23 4987   0.905   2.480   5.790 -0.2424 -0.2747  0.5724
  416poe     o2 4988   0.947   2.590   5.713 -0.9342 -0.1797  0.3217
  416poe    c23 4989   0.966   2.703   5.795  0.5401 -0.1791  0.0167
  416poe    c23 4990   1.058   2.799   5.719  0.2377 -0.2619 -0.4559
  416poe     o2 4991   0.999   2.795   5.591  0.2309  0.0489 -0.4638
  416poe    c31 4992   1.068   2.880   5.502  0.7337  0.3100  0.1667
  417poe    c31 4993   6.087   1.780   0.164 -0.5589 -0.4136  0.0299
  417poe     o2 4994   6.206   1.841   0.118 -0.4364 -0.5235  0.2040
  417poe    c23 4995   6.205   1.977   0.157 -0.0148 -0.6864  0.8062
  417poe    c23 4996   6.353   2.018   0.157 -0.0118 -0.6872  0.2091
  417poe     o2 4997   6.403   1.976   0.032 -0.4017  0.1600 -0.2344
  417poe    c23 4998   6.541   1.994   0.010 -0.3656 -0.0041 -0.1383
  417poe    c23 4999   6.571   1.903  -0.110  0.4684 -0.2924  0.2828
  417poe     o2 5000   6.524   1.774  -0.080  0.3445 -0.2808  0.1385
  417poe    c23 5001   6.594   1.653  -0.092  0.1609 -0.3576 -0.1738
  417poe    c23 5002   6.484   1.547  -0.110  0.1145 -0.3818  0.2409
  417poe     o2 5003   6.373   1.593  -0.037 -0.0618  0.1857 -0.3762
  417poe    c31 5004   6.275   1.494  -0.014  0.5029 -0.2651  0.1149
  418poe    c31 5005   2.001   3.561   1.557 -0.0700  0.1610 -0.2061
  418poe     o2 5006   1.922   3.481   1.642  1.0860 -0.8247 -0.0426
  418poe    c23 5007   1.828   3.413   1.562  0.4474  0.2847 -0.2543
  418poe    c23 5008   1.736   3.331   1.655 -0.2336  0.2555 -0.9488
  418poe     o2 5009   1.687   3.424   1.749  0.1765 -0.3305 -0.1443
  418poe    c23 5010   1.626   3.372   1.865 -0.3116  0.1796 -0.1671
  418poe    c23 5011   1.628   3.486   1.968 -0.1309 -0.4580  0.5461
  418poe     o2 5012   1.765   3.518   1.981 -0.2500 -0.0180  0.7698
  418poe    c23 5013   1.780   3.623   2.074  0.2462  0.0914  0.5700
  418poe    c23 5014   1.924   3.674   2.059  0.3072 -0.3422 -0.4260
  418poe     o2 5015   1.976   3.631   1.935  0.4395 -0.2198 -0.4135
  418poe    c31 5016   2.111   3.666   1.921  0.5866 -0.1801  0.9655
  419poe    c31 5017   5.985   0.413   2.513  0.1487 -0.5249 -0.2802
  419poe     o2 5018   6.098   0.485   2.468 -0.3861  0.5025 -0.0200
  419poe    c23 5019   6.204   0.469   2.561 -0.1049  0.2373 -0.3835
  419poe    c23 5020   6.327   0.551   2.518  0.2422 -0.1935 -0.2163
  419poe     o2 5021   6.270   0.666   2.460  0.0515 -0.2214 -0.0867
  419poe    c23 5022   6.368   0.746   2.397 -0.5302  0.6617  0.1043
  419poe    c23 5023   6.298   0.870   2.338 -0.7729  0.5490  0.1576
  419poe     o2 5024   6.182   0.810   2.285 -0.1630 -0.1131 -0.4569
  419poe    c23 5025   6.101   0.889   2.201 -0.2713  0.2732  0.0034
  419poe    c23 5026   6.007   0.795   2.123  0.0108 -0.0710  0.0742
  419poe     o2 5027   5.927   0.718   2.211 -0.0134 -0.1795 -0.0427
  419poe    c31 5028   5.823   0.647   2.149  0.0301 -0.3835  0.1182
  420poe    c31 5029   5.227   6.613   4.789 -0.3778 -0.3096  0.5873
  420poe     o2 5030   5.363   6.579   4.803 -0.2220  0.1169  0.1518
  420poe    c23 5031   5.437   6.688   4.754 -0.1889  0.0181 -0.0179
  420poe    c23 5032   5.586   6.657   4.778 -0.0878 -0.0651 -0.7453
  420poe     o2 5033   5.606   6.532   4.715  0.3633 -0.4170  0.0751
  420poe    c23 5034   5.738   6.485   4.732  0.6316  0.1752 -0.3505
  420poe    c23 5035   5.728   6.334   4.705 -0.2341  0.2007 -0.1968
  420poe     o2 5036   5.608   6.289   4.764  0.2724 -0.5136  0.2987
  420poe    c23 5037   5.549   6.168   4.721 -0.2288  0.1391 -0.8751
  420poe    c23 5038   5.439   6.214   4.623  0.1740  0.5495 -1.1387
  420poe     o2 5039   5.354   6.316   4.671  0.4602  0.1600  0.2652
  420poe    c31 5040   5.253   6.326   4.572 -0.0476 -0.7438  0.6841
  421poe    c31 5041   3.707   3.751   2.396 -0.6455  0.2950 -0.2200
  421poe     o2 5042   3.660   3.683   2.510 -0.0447  0.0502 -0.1118
  421poe    c23 5043   3.750   3.576   2.530  0.1234  0.1525 -0.3195
  421poe    c23 5044   3.760   3.523   2.674 -0.0325  0.7146 -0.0991
  421poe     o2 5045   3.623   3.522   2.707 -0.0581 -0.4901 -0.2196
  421poe    c23 5046   3.596   3.515   2.845  0.3612  0.2726 -0.0930
  421poe    c23 5047   3.442   3.518   2.838  0.3561  0.3819  0.0476
  421poe     o2 5048   3.411   3.632   2.762  0.1166  0.3343  0.0741
  421poe    c23 5049   3.279   3.682   2.769 -0.0364 -0.0438 -0.0753
  421poe    c23 5050   3.294   3.822   2.708  0.2698  0.1345  0.4011
  421poe     o2 5051   3.378   3.805   2.595  0.3111  0.2909  0.4079
  421poe    c31 5052   3.365   3.894   2.487 -0.4204 -0.2012  0.0846
  422poe    c31 5053   1.022   6.305   1.233 -0.2249  0.4787 -0.0149
  422poe     o2 5054   1.078   6.267   1.357  0.0639  0.4243 -0.1625
  422poe    c23 5055   1.171   6.370   1.387 -0.2348  0.6450  0.0134
  422poe    c23 5056   1.213   6.354   1.534 -0.8777 -0.1180  0.1252
  422poe     o2 5057   1.210   6.215   1.555  0.4603 -0.1781 -0.0393
  422poe    c23 5058   1.278   6.180   1.674  0.6087 -0.2259 -0.1368
  422poe    c23 5059   1.247   6.036   1.718  0.4771 -0.2780 -0.4015
  422poe     o2 5060   1.107   6.021   1.723  0.4790 -0.0947  0.1882
  422poe    c23 5061   1.053   5.907   1.660  0.2468  0.2392 -0.2224
  422poe    c23 5062   1.082   5.870   1.513  0.7773  0.3506 -0.1489
  422poe     o2 5063   1.043   5.970   1.422 -0.2380  0.0608 -0.0537
  422poe    c31 5064   1.071   5.927   1.291  0.3182 -0.6091  0.2743
  423poe    c31 5065   6.382   3.296   3.582 -0.1236 -0.0447  0.1859
  423poe     o2 5066   6.267   3.266   3.506  0.2181 -0.6710 -0.0948
  423poe    c23 5067   6.304   3.178   3.402  0.8227 -0.1833 -0.3000
  423poe    c23 5068   6.180   3.092   3.373  0.1848  0.4504  0.4773
  423poe     o2 5069   6.066   3.172   3.391  0.1060  0.5233 -0.2882
  423poe    c23 5070   5.943   3.104   3.392  0.2406  0.2685 -0.9841
  423poe    c23 5071   5.839   3.217   3.392  0.1123  0.1683  0.2916
  423poe     o2 5072   5.908   3.324   3.452  0.2072  0.1972  0.1315
  423poe    c23 5073   5.882   3.456   3.410  0.0364  0.1703  0.1524
  423poe    c23 5074   5.971   3.547   3.496  0.0600  0.4909 -0.2074
  423poe     o2 5075   6.104   3.505   3.477 -0.1900 -0.3814 -0.0436
  423poe    c31 5076   6.197   3.605   3.510 -0.0897 -0.6845  0.6132
  424poe    c31 5077   5.991   6.122   5.724 -0.3588  0.5379  0.3693
  424poe     o2 5078   6.085   6.028   5.771 -0.1893  0.2383 -0.5538
  424poe    c23 5079   6.215   6.069   5.808 -0.2923  0.0740 -0.0033
  424poe    c23 5080   6.294   5.943   5.849  0.1908  0.4507  0.2276
  424poe     o2 5081   6.263   5.859   5.740  0.2030  0.3089  0.3335
  424poe    c23 5082   6.297   5.730   5.786  0.0873  0.1897  0.0894
  424poe    c23 5083   6.219   5.622   5.710 -0.1661  0.2313  0.2886
  424poe     o2 5084   6.087   5.669   5.728 -0.1076  0.4433  0.1648
  424poe    c23 5085   5.983   5.583   5.689  0.2888  0.0926 -0.1258
  424poe    c23 5086   5.879   5.640   5.787 -0.0266  0.4926 -0.6829
  424poe     o2 5087   5.883   5.780   5.770 -0.2640  0.6114  0.2067
  424poe    c31 5088   5.770   5.848   5.821 -0.4184  0.1074  0.5456
  425poe    c31 5089   3.301   0.996   6.010  0.2809 -0.8034 -0.2372
  425poe     o2 5090   3.273   1.035   6.142  0.5431 -0.1140 -0.3803
  425poe    c23 5091   3.354   0.969   6.237  0.1390 -0.2618 -0.1351
  425poe    c23 5092   3.277   0.970   6.371  0.2738  0.1538 -0.0572
  425poe     o2 5093   3.206   1.091   6.373  0.2017  0.1016  0.6639
  425poe    c23 5094   3.134   1.123   6.490 -0.2301  0.2994  0.3463
  425poe    c23 5095   3.076   1.263   6.466  0.3061  0.3725 -0.5471
  425poe     o2 5096   3.040   1.266   6.329  0.0035 -0.2833 -0.4852
  425poe    c23 5097   3.043   1.396   6.274 -0.2102 -0.0095  0.1361
  425poe    c23 5098   3.042   1.386   6.121  0.7795  0.5361  0.0795
  425poe     o2 5099   3.147   1.301   6.082  0.5836  0.5626 -0.5223
  425poe    c31 5100   3.168   1.302   5.942  0.1822 -0.0361 -0.5870
  426poe    c31 5101   2.217   4.627   6.493 -0.2748  0.2878 -0.3658
  426poe     o2 5102   2.267   4.738   6.564  0.1026  0.1112 -0.3551
  426poe    c23 5103   2.263   4.699   6.700 -0.1516 -0.3682 -0.4959
  426poe    c23 5104   2.372   4.777   6.778 -0.3866 -0.2276 -0.3065
  426poe     o2 5105   2.361   4.910   6.733 -0.3968 -0.0652  0.1817
  426poe    c23 5106   2.459   5.004   6.770 -0.3991  0.1017 -0.2394
  426poe    c23 5107   2.417   5.129   6.689  0.0798  0.3799 -0.0625
  426poe     o2 5108   2.421   5.110   6.549 -0.3528 -0.1572 -0.0050
  426poe    c23 5109   2.322   5.195   6.495  0.1503  0.3121 -0.1896
  426poe    c23 5110   2.292   5.132   6.358  0.3922  0.1712 -0.1802
  426poe     o2 5111   2.264   5.001   6.402 -0.3117  0.4839  0.3348
  426poe    c31 5112   2.169   4.946   6.314 -0.1633 -0.1119  0.5456
  427poe    c31 5113   6.555   3.768   3.048 -0.1201  0.6335  0.3392
  427poe     o2 5114   6.423   3.813   3.028 -0.4099 -0.4613 -0.3177
  427poe    c23 5115   6.345   3.796   3.145 -0.0529  0.0902  0.0036
  427poe    c23 5116   6.212   3.866   3.115  0.2043  0.6477  0.1618
  427poe     o2 5117   6.182   3.849   2.978 -0.1824 -0.3338  0.3645
  427poe    c23 5118   6.071   3.926   2.937  0.1846 -0.2196 -0.4463
  427poe    c23 5119   6.057   3.909   2.785 -0.3221  0.1928 -0.4471
  427poe     o2 5120   6.192   3.890   2.747 -0.1994  0.2403 -0.0400
  427poe    c23 5121   6.209   3.844   2.615 -0.2224  0.5199 -0.1418
  427poe    c23 5122   6.362   3.836   2.593 -0.1827  0.6401  0.0856
  427poe     o2 5123   6.422   3.778   2.707  0.2621  0.1105 -0.4103
  427poe    c31 5124   6.526   3.691   2.668  0.3633 -0.1251  0.3720
  428poe    c31 5125   6.492   4.227   0.176  0.0164  0.2025 -0.4873
  428poe     o2 5126   6.487   4.324   0.278 -0.3567  0.0447 -0.3545
  428poe    c23 5127   6.372   4.403   0.260 -0.4292  0.0681  0.1832
  428poe    c23 5128   6.389   4.520   0.359  0.3373  0.0986  0.0198
  428poe     o2 5129   6.415   4.454   0.481  0.3801 -0.1035 -0.0972
  428poe    c23 5130   6.429   4.546   0.588  0.0044 -0.1396 -0.0129
  428poe    c23 5131   6.521   4.476   0.690  0.3140  0.4454  0.1154
  428poe     o2 5132   6.614   4.406   0.611 -0.4221 -0.1046 -0.2851
  428poe    c23 5133   6.746   4.456   0.604 -0.1610 -0.8018 -0.4765
  428poe    c23 5134   6.834   4.362   0.519 -0.0264 -1.3624  0.2778
  428poe     o2 5135   6.744   4.323   0.417 -0.1519  0.3392 -0.2961
  428poe    c31 5136   6.816   4.248   0.321 -0.1978  0.0275 -0.0911
  429poe    c31 5137   6.348   0.431   6.017  0.3193 -0.1008  0.2616
  429poe     o2 5138   6.342   0.555   5.951 -0.3246 -0.1969  0.1265
  429poe    c23 5139   6.376   0.661   6.038 -0.2601 -0.0739 -0.0476
  429poe    c23 5140   6.303   0.785   5.984 -0.0365  0.2845  0.4649
  429poe     o2 5141   6.295   0.762   5.845  0.6773  0.3921  0.4042
  429poe    c23 5142   6.280   0.865   5.750  0.4352 -0.0847 -0.0758
  429poe    c23 5143   6.353   0.823   5.621  0.1543 -0.2395 -0.1857
  429poe     o2 5144   6.343   0.682   5.624 -0.0966 -0.2137  0.3695
  429poe    c23 5145   6.448   0.616   5.557 -0.2175 -0.0233 -0.0115
  429poe    c23 5146   6.402   0.469   5.568  0.3725 -0.1905  0.2890
  429poe     o2 5147   6.352   0.434   5.695 -0.2318  0.2434  0.1776
  429poe    c31 5148   6.311   0.299   5.702 -0.0290  0.1628 -0.1510
  430poe    c31 5149   6.000   0.311   0.168  0.1143  0.4081 -0.2533
  430poe     o2 5150   6.088   0.408   0.115 -0.2932  0.4637 -0.8330
  430poe    c23 5151   6.157   0.458   0.227 -0.2530 -0.2773 -0.5212
  430poe    c23 5152   6.276   0.538   0.169  0.2127 -0.5065  0.0994
  430poe     o2 5153   6.226   0.598   0.051  0.0408 -0.5466  0.1501
  430poe    c23 5154   6.324   0.667  -0.025 -0.0859 -0.5421 -0.0101
  430poe    c23 5155   6.246   0.736  -0.137  0.0551  0.1432  0.3110
  430poe     o2 5156   6.154   0.639  -0.182  0.2561 -0.0983  0.4224
  430poe    c23 5157   6.043   0.701  -0.244  0.0506 -0.5298  0.3541
  430poe    c23 5158   5.953   0.580  -0.275  0.0032 -0.3972 -0.0346
  430poe     o2 5159   5.977   0.481  -0.178 -0.0739 -0.1993  0.1893
  430poe    c31 5160   5.912   0.361  -0.215 -0.8281  0.1269  0.4282
  431poe    c31 5161   5.873   2.578   6.021  0.2445 -0.0758 -0.3795
  431poe     o2 5162   5.798   2.621   6.132  0.4868 -0.3168 -0.1187
  431poe    c23 5163   5.888   2.675   6.227  0.7139  0.1065 -0.5661
  431poe    c23 5164   5.850   2.625   6.367 -0.2302 -0.0187 -0.8551
  431poe     o2 5165   5.710   2.642   6.367 -0.2637 -0.2881 -0.5774
  431poe    c23 5166   5.636   2.564   6.458  0.4670 -0.2856  0.0292
  431poe    c23 5167   5.485   2.588   6.437  0.5389 -0.2113 -0.4027
  431poe     o2 5168   5.467   2.581   6.298 -0.2054  0.0414 -0.3230
  431poe    c23 5169   5.368   2.660   6.235 -0.1991  0.3380  0.0415
  431poe    c23 5170   5.383   2.638   6.084 -0.0570  0.8914 -0.0262
  431poe     o2 5171   5.522   2.641   6.060 -0.0941 -0.1224 -0.4170
  431poe    c31 5172   5.528   2.664   5.922  0.1543  0.4682 -0.3111
  432poe    c31 5173   0.551   0.827   5.533  0.0943  0.1750  0.5153
  432poe     o2 5174   0.441   0.914   5.552 -0.1248 -0.0320  0.2022
  432poe    c23 5175   0.485   1.048   5.553 -0.0735 -0.0420 -0.3879
  432poe    c23 5176   0.391   1.146   5.626  0.2680 -0.0750  0.0982
  432poe     o2 5177   0.270   1.084   5.590  0.2240  0.0333  0.0615
  432poe    c23 5178   0.156   1.133   5.657  0.3142 -0.9461  0.9520
  432poe    c23 5179   0.044   1.095   5.557  0.5533 -0.3566  0.4532
  432poe     o2 5180   0.055   0.960   5.519  0.4778 -0.3266  0.3248
  432poe    c23 5181  -0.001   0.942   5.391  0.1827  0.3986  0.3485
  432poe    c23 5182   0.076   0.821   5.335 -0.2528  0.3582 -0.1684
  432poe     o2 5183   0.214   0.837   5.354 -0.2442 -0.0235  0.1163
  432poe    c31 5184   0.285   0.727   5.302 -0.5910 -0.1718 -0.0406
  433poe    c31 5185   5.265   0.538   3.188  0.0030  0.6565  0.0384
  433poe     o2 5186   5.247   0.554   3.049 -0.1598  0.0733 -0.0095
  433poe    c23 5187   5.369   0.571   2.982 -0.1989  0.1024 -0.0732
  433poe    c23 5188   5.328   0.561   2.834 -0.3010 -0.0672 -0.0333
  433poe     o2 5189   5.206   0.631   2.824 -0.0122  0.4736  0.1835
  433poe    c23 5190   5.149   0.635   2.695  0.4176  0.1731 -0.0174
  433poe    c23 5191   5.023   0.550   2.720  0.3212  0.3265  0.0196
  433poe     o2 5192   4.975   0.590   2.846  0.2740  0.5106 -0.0560
  433poe    c23 5193   4.889   0.490   2.898 -0.6104  1.0398 -0.4870
  433poe    c23 5194   4.820   0.558   3.018  0.0216  0.5724  0.1497
  433poe     o2 5195   4.932   0.592   3.097  0.0241 -0.4589  0.6079
  433poe    c31 5196   4.913   0.595   3.236 -0.5416 -0.1841  0.5274
  434poe    c31 5197   4.000   4.723   3.898  0.2395 -0.2404  0.7188
  434poe     o2 5198   3.979   4.623   3.996 -0.6085 -0.6416  0.1411
  434poe    c23 5199   4.033   4.502   3.948 -0.1487 -0.3339 -0.1243
  434poe    c23 5200   3.972   4.374   4.007 -0.1886 -0.1103  0.3250
  434poe     o2 5201   3.994   4.389   4.146 -0.1840  0.1410  0.2970
  434poe    c23 5202   3.962   4.277   4.226 -0.1326  0.0087  0.1327
  434poe    c23 5203   3.999   4.323   4.368 -0.2398 -0.2755  0.2535
  434poe     o2 5204   3.970   4.461   4.380  0.6191 -0.0437 -0.2427
  434poe    c23 5205   4.054   4.521   4.476  0.3429  0.0473 -0.0589
  434poe    c23 5206   4.082   4.661   4.420 -0.5477  0.1701 -0.2150
  434poe     o2 5207   4.117   4.664   4.283 -0.8290  0.7979 -0.2778
  434poe    c31 5208   4.168   4.792   4.254 -0.8139  0.8747  0.0798
  435poe    c31 5209   5.284   3.161   6.637 -0.2805 -0.0401  0.3817
  435poe     o2 5210   5.248   3.111   6.510  0.6471 -0.1418  0.1505
  435poe    c23 5211   5.161   3.000   6.511 -0.1333  0.4605  0.0094
  435poe    c23 5212   5.100   2.992   6.370 -0.4664  0.2537  0.1654
  435poe     o2 5213   5.046   3.113   6.321 -0.6135  0.2579  0.3384
  435poe    c23 5214   5.008   3.107   6.186  0.3280 -0.2958  0.0926
  435poe    c23 5215   4.991   3.250   6.130  0.0359 -0.4360 -0.1820
  435poe     o2 5216   5.113   3.303   6.178 -0.0797  0.2047 -0.5859
  435poe    c23 5217   5.135   3.441   6.164 -0.0945  0.2166 -0.4980
  435poe    c23 5218   5.256   3.488   6.248 -0.1373 -0.2891 -0.1559
  435poe     o2 5219   5.272   3.406   6.362  0.1586  0.1490  0.1212
  435poe    c31 5220   5.388   3.441   6.433 -0.0263  0.4756  0.2653
  436poe    c31 5221   3.408   2.216   0.158  0.2988  0.3588 -0.1850
  436poe     o2 5222   3.470   2.257   0.278 -0.2593  0.0789  0.2053
  436poe    c23 5223   3.426   2.381   0.327 -0.0034  0.1957  0.1401
  436poe    c23 5224   3.536   2.442   0.416  0.4385 -0.4877  0.0709
  436poe     o2 5225   3.556   2.346   0.518 -0.8275 -0.2740  0.5402
  436poe    c23 5226   3.664   2.376   0.604 -0.0063 -0.0487 -0.5416
  436poe    c23 5227   3.676   2.259   0.703 -0.0072  0.4689  0.0761
  436poe     o2 5228   3.674   2.155   0.608  0.0563  0.5494 -0.0137
  436poe    c23 5229   3.600   2.043   0.650  0.4073  0.2667 -0.1485
  436poe    c23 5230   3.607   1.934   0.542 -0.0776  0.3700 -0.2860
  436poe     o2 5231   3.575   2.010   0.428 -0.1523  0.2629 -0.3374
  436poe    c31 5232   3.555   1.920   0.321 -0.6624 -0.1093  0.0674
  437poe    c31 5233   2.275   5.095   4.487  0.1102  0.0865  0.3564
  437poe     o2 5234   2.295   5.098   4.626 -0.2236  0.2860  0.4000
  437poe    c23 5235   2.283   4.968   4.678 -0.2728 -0.0305 -0.3992
  437poe    c23 5236   2.320   4.960   4.827 -0.1428  0.1154 -0.4237
  437poe     o2 5237   2.406   5.070   4.847 -0.1496  0.0653 -0.1103
  437poe    c23 5238   2.450   5.099   4.978 -0.1245 -0.6435  0.0392
  437poe    c23 5239   2.595   5.145   4.955 -0.3096  0.0075  0.1607
  437poe     o2 5240   2.596   5.212   4.831  0.7213 -0.1003  0.1053
  437poe    c23 5241   2.695   5.149   4.753  0.4307 -0.3282 -0.0815
  437poe    c23 5242   2.685   5.199   4.608 -0.2259  0.8199  0.3546
  437poe     o2 5243   2.547   5.205   4.579 -0.1089  0.7018 -0.2361
  437poe    c31 5244   2.531   5.294   4.471 -0.2317  0.6619 -0.2501
  438poe    c31 5245   6.039   6.599   0.573 -0.6769 -0.1496 -0.1057
  438poe     o2 5246   5.991   6.485   0.641  0.5505 -0.4036  0.3633
  438poe    c23 5247   5.862   6.463   0.589  0.4991  0.2056  0.2261
  438poe    c23 5248   5.809   6.328   0.641  0.4860  0.1097 -0.0354
  438poe     o2 5249   5.834   6.329   0.780  0.6619 -0.0183 -0.0656
  438poe    c23 5250   5.828   6.205   0.846 -0.6270  0.0614 -0.0137
  438poe    c23 5251   5.903   6.225   0.979 -0.0141 -0.7508 -0.2274
  438poe     o2 5252   6.022   6.296   0.954  0.0433 -0.6547  0.3072
  438poe    c23 5253   6.101   6.342   1.062 -0.4844  0.4519  0.2272
  438poe    c23 5254   6.213   6.414   0.984 -0.2020  0.3974  0.5821
  438poe     o2 5255   6.153   6.491   0.882  0.3090  0.7311  0.5298
  438poe    c31 5256   6.253   6.582   0.844  0.5432  0.0907 -0.4207
  439poe    c31 5257   1.693   2.936   4.586  0.4178 -0.5144  0.7361
  439poe     o2 5258   1.591   2.983   4.670 -0.0550 -0.3627  0.0853
  439poe    c23 5259   1.643   3.090   4.746 -0.5304  0.1380 -0.2810
  439poe    c23 5260   1.528   3.169   4.812 -0.2618  0.1637  0.1608
  439poe     o2 5261   1.443   3.073   4.870 -0.3566  0.1636  0.0224
  439poe    c23 5262   1.327   3.126   4.931 -0.3453  0.2558 -0.0381
  439poe    c23 5263   1.258   2.995   4.971 -0.7007  0.3911 -0.1998
  439poe     o2 5264   1.257   2.920   4.852  0.0398 -0.3285  0.2306
  439poe    c23 5265   1.204   2.791   4.875 -0.0534 -0.2520  0.4515
  439poe    c23 5266   1.235   2.712   4.746  0.2797 -0.4140  0.6281
  439poe     o2 5267   1.365   2.731   4.694  0.0041  0.3760  0.2058
  439poe    c31 5268   1.398   2.633   4.598 -0.0104  0.8914 -0.3288
  440poe    c31 5269   5.374   4.205   5.059  0.0503 -0.1811 -0.4503
  440poe     o2 5270   5.312   4.328   5.030 -0.2832 -0.3719 -0.5569
  440poe    c23 5271   5.406   4.432   5.036 -0.7708  0.0127  0.6328
  440poe    c23 5272   5.349   4.543   4.946  0.5122  0.0392 -0.1735
  440poe     o2 5273   5.210   4.537   4.969  0.5444 -0.3435 -0.0773
  440poe    c23 5274   5.126   4.631   4.906  0.5008 -0.1049  0.3342
  440poe    c23 5275   4.984   4.580   4.933  0.2133  0.4101 -0.1973
  440poe     o2 5276   5.002   4.440   4.929 -0.1219  0.3466  0.4237
  440poe    c23 5277   4.883   4.368   4.949 -0.1452  0.2794  0.0504
  440poe    c23 5278   4.914   4.218   4.964  0.2787  0.3873  0.2546
  440poe     o2 5279   5.029   4.223   5.045  0.4794 -0.1859  0.0083
  440poe    c31 5280   5.030   4.102   5.117 -0.1196  0.0404  0.4013
  441poe    c31 5281   1.101   0.213   6.345 -0.6845  0.0824 -0.2030
  441poe     o2 5282   1.030   0.277   6.241 -0.7402  0.1964 -0.0951
  441poe    c23 5283   0.986   0.406   6.277 -0.0590  0.4084 -0.0215
  441poe    c23 5284   0.908   0.472   6.162 -0.8659  0.0730  0.3277
  441poe     o2 5285   0.828   0.367   6.111  0.1987 -0.5623 -0.0648
  441poe    c23 5286   0.714   0.407   6.038  0.1253 -0.5940  0.0330
  441poe    c23 5287   0.626   0.280   6.040 -0.5219 -0.1597 -0.3673
  441poe     o2 5288   0.719   0.174   6.027 -0.0343  0.1837  0.2315
  441poe    c23 5289   0.660   0.050   6.060  0.0851  0.1432  0.2911
  441poe    c23 5290   0.681   0.027   6.211  0.1787  0.2320  0.2923
  441poe     o2 5291   0.817   0.050   6.240  0.2663  0.1934 -0.0781
  441poe    c31 5292   0.868  -0.063   6.307  0.0101 -0.0663 -0.3204
  442poe    c31 5293   5.907   3.830   5.034 -0.0436  0.0513  0.3588
  442poe     o2 5294   5.967   3.715   4.979 -0.5320 -0.0987  0.1391
  442poe    c23 5295   5.872   3.656   4.893  0.1573  0.0334 -0.7174
  442poe    c23 5296   5.955   3.559   4.806  0.0754 -0.6375 -0.0653
  442poe     o2 5297   6.036   3.487   4.896  0.4097  0.0663  0.2124
  442poe    c23 5298   6.118   3.397   4.824 -0.2907  0.0148 -0.5465
  442poe    c23 5299   6.232   3.373   4.926 -0.4246  0.1688 -0.3594
  442poe     o2 5300   6.250   3.499   4.986 -0.4627 -0.0354  0.0789
  442poe    c23 5301   6.356   3.506   5.079 -0.7256  0.5932  0.3332
  442poe    c23 5302   6.349   3.657   5.110  0.1857  0.7630 -0.2540
  442poe     o2 5303   6.216   3.703   5.123  0.0609  0.2487  0.3451
  442poe    c31 5304   6.230   3.838   5.162 -0.2682  0.4103 -0.0952
  443poe    c31 5305   6.576   4.150   3.462  0.8033 -0.2757  0.7466
  443poe     o2 5306   6.508   4.240   3.547 -0.1552 -0.1605 -0.1242
  443poe    c23 5307   6.464   4.338   3.456  0.0171  0.0636  0.0337
  443poe    c23 5308   6.430   4.455   3.550 -0.2736  0.2064 -0.2504
  443poe     o2 5309   6.353   4.399   3.653  0.0275  0.0690 -0.0998
  443poe    c23 5310   6.324   4.488   3.759  0.0611  0.5776 -0.5161
  443poe    c23 5311   6.232   4.411   3.855  0.7524  0.5710  0.1553
  443poe     o2 5312   6.309   4.293   3.869 -0.5264 -0.2858  0.1626
  443poe    c23 5313   6.246   4.198   3.952  0.5716 -0.3383  0.9650
  443poe    c23 5314   6.318   4.066   3.917  0.0491 -0.3448 -0.1461
  443poe     o2 5315   6.361   4.071   3.783  0.2505 -0.6630 -0.0946
  443poe    c31 5316   6.391   3.945   3.727  0.4154 -0.6358 -0.0667
  444poe    c31 5317   1.578   3.733   3.412  0.3415  0.3944 -0.1334
  444poe     o2 5318   1.704   3.780   3.456  0.2880  0.3784  0.0340
  444poe    c23 5319   1.757   3.699   3.559  0.3600 -0.0546 -0.3408
  444poe    c23 5320   1.843   3.790   3.649 -0.3763  0.4777 -0.1678
  444poe     o2 5321   1.947   3.842   3.569 -0.0384 -0.4270 -0.3272
  444poe    c23 5322   1.984   3.976   3.595  0.3526 -0.5991  0.0063
  444poe    c23 5323   1.878   4.085   3.572  0.1020 -0.8725 -0.1376
  444poe     o2 5324   1.841   4.073   3.436 -0.0798 -0.0599 -0.1602
  444poe    c23 5325   1.773   4.190   3.396  0.3596  0.0869 -0.4908
  444poe    c23 5326   1.690   4.164   3.268 -0.0014  0.4201 -0.3261
  444poe     o2 5327   1.635   4.036   3.287  0.1671  0.3646 -0.2059
  444poe    c31 5328   1.553   3.999   3.178 -0.0969  0.5917 -0.0861
  445poe    c31 5329   2.785   0.363   5.761 -0.1798 -0.7276 -0.5802
  445poe     o2 5330   2.712   0.339   5.879 -0.4075  0.3437 -0.4862
  445poe    c23 5331   2.574   0.317   5.861 -0.5033  0.2188  0.3542
  445poe    c23 5332   2.520   0.273   5.998 -0.7346  0.1766  0.2502
  445poe     o2 5333   2.589   0.352   6.093 -0.2835 -0.0770  0.1377
  445poe    c23 5334   2.532   0.353   6.222  0.2517  0.1223  0.3750
  445poe    c23 5335   2.608   0.461   6.302 -0.0149  0.3787  0.2869
  445poe     o2 5336   2.744   0.432   6.279 -0.1630 -0.2899  0.2238
  445poe    c23 5337   2.834   0.521   6.341  0.0097  0.0255 -0.4776
  445poe    c23 5338   2.970   0.465   6.293 -0.1887 -0.5507 -0.3701
  445poe     o2 5339   2.951   0.427   6.159 -0.7254 -0.6324 -0.2755
  445poe    c31 5340   3.079   0.425   6.100 -0.1832  0.6758  0.7981
  446poe    c31 5341   0.092   4.192   0.987 -0.4005 -0.6632  0.5465
  446poe     o2 5342   0.209   4.221   1.059 -0.4870  0.3366  0.3016
  446poe    c23 5343   0.204   4.357   1.095 -0.0908  0.2392  0.7426
  446poe    c23 5344   0.306   4.377   1.208  0.4213  0.1931  0.2966
  446poe     o2 5345   0.419   4.298   1.179  0.3529  0.0709  0.3591
  446poe    c23 5346   0.505   4.282   1.289 -0.0728 -1.1378  0.5269
  446poe    c23 5347   0.621   4.197   1.234  0.2162 -0.4831  0.1145
  446poe     o2 5348   0.548   4.093   1.172 -0.5936  0.0768  0.1088
  446poe    c23 5349   0.614   4.013   1.076 -0.8548  0.3962 -0.3382
  446poe    c23 5350   0.516   3.921   1.001 -0.6950 -0.2129  0.1895
  446poe     o2 5351   0.413   4.002   0.949 -0.1734  0.3914  0.0834
  446poe    c31 5352   0.343   3.929   0.851 -0.0814  0.6374 -0.1692
  447poe    c31 5353   0.791   2.240   1.926 -0.1339  0.6748 -0.4216
  447poe     o2 5354   0.917   2.280   1.879  0.2957  0.1268  0.2586
  447poe    c23 5355   0.968   2.164   1.816  0.9320  0.1729  0.6779
  447poe    c23 5356   1.122   2.161   1.826  0.9657  0.1730  0.1915
  447poe     o2 5357   1.159   2.291   1.788  0.0846  0.5698  0.6642
  447poe    c23 5358   1.296   2.306   1.759 -0.1061  0.2444 -0.4206
  447poe    c23 5359   1.313   2.455   1.722  0.4829  0.2940  0.0350
  447poe     o2 5360   1.208   2.524   1.784  0.3025  0.2250 -0.1919
  447poe    c23 5361   1.143   2.614   1.697 -0.2288 -0.1637 -0.2001
  447poe    c23 5362   1.012   2.668   1.757 -0.0589  0.0525 -0.0253
  447poe     o2 5363   0.943   2.555   1.804  0.2247 -0.2840 -0.4113
  447poe    c31 5364   0.808   2.580   1.837  0.5534  0.6195  0.2798
  448poe    c31 5365   1.585   1.651   5.593 -0.0411 -0.0263 -0.0481
  448poe     o2 5366   1.498   1.730   5.672  0.2202  0.2577 -0.0426
  448poe    c23 5367   1.372   1.671   5.692  0.0864  0.1357 -1.1615
  448poe    c23 5368   1.271   1.673   5.575 -0.6381  0.1124 -0.5469
  448poe     o2 5369   1.241   1.807   5.547  0.3065  0.5209  0.3473
  448poe    c23 5370   1.197   1.805   5.413 -0.7964 -0.0162  0.7124
  448poe    c23 5371   1.107   1.931   5.408 -0.2571  0.3353 -0.2702
  448poe     o2 5372   1.179   2.033   5.473 -0.4113 -0.0430  0.5048
  448poe    c23 5373   1.105   2.152   5.484  0.1264  0.3188  0.2828
  448poe    c23 5374   1.213   2.261   5.497 -0.1527  0.5913  0.3375
  448poe     o2 5375   1.310   2.218   5.589  0.2857  0.5472 -0.1423
  448poe    c31 5376   1.418   2.303   5.620  0.8100 -0.1334 -0.0716
  449poe    c31 5377   4.327   2.077   4.799 -0.2338  0.3463  0.7771
  449poe     o2 5378   4.343   2.202   4.737 -0.1026 -0.0559 -0.0089
  449poe    c23 5379   4.240   2.296   4.758  0.1389  0.1616  0.2094
  449poe    c23 5380   4.277   2.436   4.706 -0.0950  0.2358  0.2421
  449poe     o2 5381   4.416   2.450   4.722 -0.0101  0.0013 -0.2587
  449poe    c23 5382   4.479   2.575   4.706  0.7624 -0.3637 -0.1293
  449poe    c23 5383   4.628   2.541   4.727  0.8684 -0.1202 -0.4800
  449poe     o2 5384   4.654   2.418   4.663  0.4842 -0.5319  0.1444
  449poe    c23 5385   4.784   2.366   4.681  0.3677 -0.6287  0.7286
  449poe    c23 5386   4.786   2.220   4.632 -0.1489 -0.4039  0.0338
  449poe     o2 5387   4.666   2.165   4.683 -0.1765 -0.1366  0.2577
  449poe    c31 5388   4.683   2.025   4.690 -0.5470 -0.1506  0.9453
  450poe    c31 5389   6.258   5.411   2.475  0.3140 -0.1075  0.5763
  450poe     o2 5390   6.335   5.311   2.538  0.4825 -0.1644  0.2801
  450poe    c23 5391   6.458   5.311   2.470  0.0838  0.1254 -0.4579
  450poe    c23 5392   6.533   5.192   2.534 -0.1344  0.1541 -0.1488
  450poe     o2 5393   6.487   5.191   2.667 -0.1471 -0.0047 -0.1551
  450poe    c23 5394   6.538   5.079   2.737  0.0564 -0.0133 -0.3155
  450poe    c23 5395   6.467   5.081   2.874  0.0092 -0.6994 -0.3296
  450poe     o2 5396   6.336   5.114   2.832  0.1485  0.4214  0.0834
  450poe    c23 5397   6.251   5.107   2.944 -0.0962 -0.4692 -0.1452
  450poe    c23 5398   6.115   5.133   2.876 -0.0781 -0.1309 -0.0586
  450poe     o2 5399   6.136   5.220   2.767 -0.3283 -0.3659 -0.2959
  450poe    c31 5400   6.017   5.273   2.713 -0.2475  0.5092  0.3659
  451poe    c31 5401   4.900   3.651   0.674  0.1017 -0.1133  0.0141
  451poe     o2 5402   4.805   3.714   0.591  0.0537 -0.0577  0.1114
  451poe    c23 5403   4.845   3.730   0.457 -0.3454  0.2238  0.0251
  451poe    c23 5404   4.727   3.788   0.377 -0.4476 -0.5191 -0.3674
  451poe     o2 5405   4.656   3.873   0.465  0.1620  0.1602 -0.5260
  451poe    c23 5406   4.540   3.931   0.410 -0.0724 -0.0975 -0.3092
  451poe    c23 5407   4.472   4.012   0.522 -0.2815 -0.4396 -0.1877
  451poe     o2 5408   4.470   3.927   0.634  0.0821  0.4144  0.4721
  451poe    c23 5409   4.473   4.011   0.748 -0.2847  0.5852  0.3580
  451poe    c23 5410   4.529   3.922   0.861  0.4384 -0.1178 -0.5303
  451poe     o2 5411   4.639   3.849   0.811  0.6150  0.2185 -0.6360
  451poe    c31 5412   4.749   3.858   0.899 -0.3052  0.8398  0.4818
  452poe    c31 5413   3.265   1.770   5.245 -0.0248 -0.5124 -0.6138
  452poe     o2 5414   3.158   1.698   5.302 -0.2688  0.3989  0.0964
  452poe    c23 5415   3.035   1.752   5.259 -0.2049  0.0584 -0.5265
  452poe    c23 5416   2.922   1.684   5.338  0.3527 -0.5573 -0.2500
  452poe     o2 5417   2.951   1.679   5.476 -0.0354 -0.1271 -0.1505
  452poe    c23 5418   2.856   1.624   5.564 -0.1209  0.3955  0.0919
  452poe    c23 5419   2.902   1.645   5.709  0.1223  0.5495 -0.0069
  452poe     o2 5420   3.041   1.627   5.692  0.0663  0.2330 -0.1336
  452poe    c23 5421   3.113   1.655   5.810 -0.2286  0.8145 -0.0894
  452poe    c23 5422   3.259   1.619   5.778 -0.4157 -0.4495  0.4317
  452poe     o2 5423   3.280   1.653   5.643 -0.2963 -0.3501  0.4748
  452poe    c31 5424   3.413   1.618   5.614 -0.1481  0.0149  0.7048
  453poe    c31 5425   5.907   1.355   2.308 -0.1925  0.0368  0.1327
  453poe     o2 5426   5.961   1.400   2.185  0.0553  0.8636  0.5443
  453poe    c23 5427   5.862   1.486   2.133 -0.2775  0.1118 -0.0831
  453poe    c23 5428   5.891   1.502   1.982 -0.1694 -0.0255 -0.0767
  453poe     o2 5429   6.016   1.565   1.967  0.1846 -0.6227  0.2923
  453poe    c23 5430   6.044   1.545   1.830 -0.2382 -0.3520  0.1649
  453poe    c23 5431   6.192   1.506   1.817 -0.2840 -0.5073  0.0944
  453poe     o2 5432   6.216   1.404   1.911  0.7937 -0.2736  0.0840
  453poe    c23 5433   6.349   1.415   1.959  0.7561 -0.0728  0.1443
  453poe    c23 5434   6.364   1.312   2.072  0.4760  0.0962  0.3340
  453poe     o2 5435   6.258   1.330   2.164  0.2043  0.1094  0.0216
  453poe    c31 5436   6.303   1.294   2.293 -0.0185  0.4243  0.1881
  454poe    c31 5437   5.807   0.095   3.430  0.2654 -0.8160  0.6025
  454poe     o2 5438   5.749   0.002   3.341 -0.4214  0.0589  0.1121
  454poe    c23 5439   5.800   0.017   3.211  0.5464 -0.6887  0.3879
  454poe    c23 5440   5.692  -0.042   3.118 -0.2272  0.3842  0.5898
  454poe     o2 5441   5.669  -0.175   3.158  0.1335  0.3464  0.6752
  454poe    c23 5442   5.565  -0.245   3.094  0.2061  0.4094  0.4882
  454poe    c23 5443   5.535  -0.356   3.196  0.2837  0.2613  0.3503
  454poe     o2 5444   5.509  -0.284   3.315 -0.1121  0.2725  0.2566
  454poe    c23 5445   5.473  -0.363   3.426 -0.1845 -0.4462 -0.2637
  454poe    c23 5446   5.478  -0.266   3.546 -0.0943 -0.0358 -0.5938
  454poe     o2 5447   5.597  -0.192   3.542 -0.0457 -0.1281 -0.8687
  454poe    c31 5448   5.605  -0.097   3.646  0.0184 -0.3134 -0.7044
  455poe    c31 5449   3.632   4.082   0.872  0.3405  0.0292  0.0332
  455poe     o2 5450   3.513   4.013   0.840  0.0318  0.4371  0.2948
  455poe    c23 5451   3.409   4.044   0.931 -0.3268  0.3216 -0.0702
  455poe    c23 5452   3.271   3.987   0.895  0.0301 -0.2409 -0.5776
  455poe     o2 5453   3.295   3.851   0.865 -0.7083 -0.5738  0.3015
  455poe    c23 5454   3.172   3.788   0.835 -0.7727  0.0544 -0.8029
  455poe    c23 5455   3.206   3.643   0.796  0.1150  0.0208  0.0530
  455poe     o2 5456   3.306   3.656   0.697  0.1954 -0.6476  0.0394
  455poe    c23 5457   3.407   3.560   0.677 -0.0588 -0.7565 -0.7587
  455poe    c23 5458   3.524   3.637   0.613 -0.5085  0.8868  0.3277
  455poe     o2 5459   3.565   3.732   0.709 -0.0833  0.5799  0.4529
  455poe    c31 5460   3.705   3.743   0.695 -0.1350  0.2570 -0.3716
  456poe    c31 5461   1.492   0.480   1.106  0.5310 -0.0251 -0.1191
  456poe     o2 5462   1.443   0.612   1.104 -0.3616 -0.3513  0.0716
  456poe    c23 5463   1.384   0.632   1.230 -0.2680 -0.3149  0.1090
  456poe    c23 5464   1.311   0.768   1.227 -0.3611 -0.3701 -0.0741
  456poe     o2 5465   1.392   0.847   1.143 -0.0486 -0.5938  0.0122
  456poe    c23 5466   1.340   0.978   1.137  0.3486 -0.4354 -0.0152
  456poe    c23 5467   1.439   1.064   1.057 -0.5027 -0.2036 -0.8356
  456poe     o2 5468   1.462   0.978   0.948  0.0606 -0.9603 -0.1291
  456poe    c23 5469   1.585   1.006   0.885 -0.0666  0.0015  0.0376
  456poe    c23 5470   1.624   0.875   0.814  0.0981  0.2030 -0.2434
  456poe     o2 5471   1.624   0.763   0.900  0.0987  0.6576  0.3526
  456poe    c31 5472   1.697   0.661   0.837 -0.2463  0.3395  0.4654
  457poe    c31 5473   3.879   5.753   2.623  0.1674  0.5153  0.0062
  457poe     o2 5474   3.981   5.730   2.718  0.0021  0.6830  0.2276
  457poe    c23 5475   4.046   5.605   2.709 -0.8272  0.2530  0.0691
  457poe    c23 5476   4.143   5.584   2.827 -0.3735 -0.4811 -0.4258
  457poe     o2 5477   4.056   5.611   2.934  0.0975 -0.2827 -0.0899
  457poe    c23 5478   4.120   5.610   3.060  0.3165  0.1445 -0.1982
  457poe    c23 5479   4.034   5.706   3.144 -0.2109 -0.4025 -0.1081
  457poe     o2 5480   3.991   5.818   3.069 -0.5220 -0.5787 -0.1965
  457poe    c23 5481   3.916   5.910   3.144  0.2055 -0.1129 -0.0254
  457poe    c23 5482   3.893   6.035   3.057  0.7931 -0.3922 -0.5960
  457poe     o2 5483   3.863   5.980   2.931 -0.2649 -0.0010 -0.5326
  457poe    c31 5484   3.830   6.075   2.833  0.6169 -0.1080 -0.9424
  458poe    c31 5485   0.920   1.274   5.117 -0.4585 -0.0870 -0.2020
  458poe     o2 5486   1.026   1.184   5.092 -0.2727  0.0682  0.0194
  458poe    c23 5487   0.967   1.058   5.073  0.1144 -0.1046 -0.0405
  458poe    c23 5488   1.081   0.955   5.079  0.0714 -0.1439  0.1122
  458poe     o2 5489   1.184   1.013   5.002  0.0939 -0.4198 -0.0675
  458poe    c23 5490   1.305   0.942   4.999  0.2717 -0.1097 -0.3992
  458poe    c23 5491   1.406   1.020   4.914  0.1562  0.4088 -0.0592
  458poe     o2 5492   1.382   1.153   4.955  0.0614  0.3127  0.1999
  458poe    c23 5493   1.461   1.246   4.884 -0.4512  0.7612  0.2103
  458poe    c23 5494   1.439   1.383   4.952  0.1634  1.1389 -0.3389
  458poe     o2 5495   1.301   1.402   4.975  0.0995 -0.1615  0.4597
  458poe    c31 5496   1.264   1.534   5.011  0.4174  0.0808 -0.0986
  459poe    c31 5497   1.442   2.678   3.825 -0.0756 -0.3149 -0.0667
  459poe     o2 5498   1.326   2.638   3.756 -0.1204 -0.3647  0.0375
  459poe    c23 5499   1.317   2.699   3.629  0.4537  0.1840  0.2589
  459poe    c23 5500   1.198   2.661   3.540  0.3526 -0.1713  0.5413
  459poe     o2 5501   1.167   2.529   3.578  0.1175 -0.3181 -0.1506
  459poe    c23 5502   1.059   2.484   3.500 -0.2291 -0.2437  0.2848
  459poe    c23 5503   1.089   2.333   3.486 -0.0112 -0.1962  0.2462
  459poe     o2 5504   1.132   2.298   3.616  0.3092 -0.6840  0.0119
  459poe    c23 5505   1.219   2.188   3.613  0.0087 -0.9163 -0.2389
  459poe    c23 5506   1.282   2.193   3.754 -0.2909 -0.3541 -0.1254
  459poe     o2 5507   1.324   2.319   3.800 -0.3504 -0.4776  0.2694
  459poe    c31 5508   1.403   2.301   3.916 -0.0847  0.0027  0.1661
  460poe    c31 5509   4.882   0.332   1.627  0.1597  0.2015  0.2651
  460poe     o2 5510   4.792   0.240   1.570  0.4506  0.3173 -0.3933
  460poe    c23 5511   4.809   0.121   1.644 -0.8874 -0.0732 -0.6981
  460poe    c23 5512   4.740   0.005   1.569  0.1846 -0.7026 -0.7198
  460poe     o2 5513   4.619   0.062   1.524  0.0355 -0.4456  0.0014
  460poe    c23 5514   4.554  -0.019   1.429 -0.1621  0.1221 -0.3487
  460poe    c23 5515   4.436   0.062   1.372 -0.1536  0.1654 -0.3036
  460poe     o2 5516   4.495   0.184   1.334  0.3144 -0.0655 -0.3183
  460poe    c23 5517   4.408   0.285   1.288  0.4266  0.1490 -0.0660
  460poe    c23 5518   4.499   0.409   1.292  0.1292  0.3541  0.3893
  460poe     o2 5519   4.602   0.412   1.388  0.3823 -0.0726  0.1364
  460poe    c31 5520   4.647   0.546   1.388 -0.2525  0.1471 -0.5404
  461poe    c31 5521   6.020   3.509   2.530  0.4181  0.2206 -0.3064
  461poe     o2 5522   5.954   3.531   2.408 -0.3943  0.8006  0.2248
  461poe    c23 5523   6.044   3.609   2.332  0.0585  0.2158  0.1575
  461poe    c23 5524   5.958   3.683   2.228  0.1769  0.1321 -0.0020
  461poe     o2 5525   5.868   3.594   2.165  0.1687 -0.0716  0.2965
  461poe    c23 5526   5.752   3.646   2.104  0.5485  0.4543  0.0132
  461poe    c23 5527   5.638   3.639   2.207  0.6830 -0.3496  0.1186
  461poe     o2 5528   5.657   3.515   2.270 -0.2449 -0.5495  0.0298
  461poe    c23 5529   5.541   3.475   2.339 -0.6840 -0.0822 -0.4251
  461poe    c23 5530   5.583   3.352   2.423 -0.0437  0.3530 -0.0921
  461poe     o2 5531   5.712   3.381   2.469  0.0911  0.2970 -0.4284
  461poe    c31 5532   5.717   3.297   2.583  0.1025  0.3560 -0.3853
  462poe    c31 5533   5.223   1.249   3.607  0.2350  0.2542 -0.1523
  462poe     o2 5534   5.189   1.342   3.506  0.2396  0.4864  0.0601
  462poe    c23 5535   5.260   1.461   3.531  0.2006  0.5958 -0.3405
  462poe    c23 5536   5.406   1.466   3.482  0.4281  0.3657  0.2924
  462poe     o2 5537   5.407   1.500   3.345  0.3075  0.0316  0.2094
  462poe    c23 5538   5.527   1.465   3.279  0.2115  0.0377  0.0297
  462poe    c23 5539   5.497   1.520   3.138 -0.3734  0.0649  0.1600
  462poe     o2 5540   5.521   1.659   3.141 -0.0289  0.0121 -0.1371
  462poe    c23 5541   5.525   1.726   3.017  0.0909  0.2651  0.0032
  462poe    c23 5542   5.592   1.862   3.045  0.1347  0.2261  0.0899
  462poe     o2 5543   5.522   1.910   3.158 -0.3646  0.2093 -0.2083
  462poe    c31 5544   5.576   2.039   3.176 -0.1302  0.0686  0.0903
  463poe    c31 5545   0.092   3.601   0.716 -0.1718  0.3619 -0.2247
  463poe     o2 5546   0.026   3.524   0.618  0.3340 -0.0513 -0.2458
  463poe    c23 5547   0.118   3.468   0.527  0.2511 -0.2373 -0.2152
  463poe    c23 5548   0.036   3.369   0.442  0.1684 -0.2659 -0.1026
  463poe     o2 5549  -0.082   3.429   0.392  0.0252 -0.2572  0.2472
  463poe    c23 5550  -0.168   3.347   0.316  0.0599 -0.1049  0.0441
  463poe    c23 5551  -0.308   3.412   0.321  0.0844 -0.0509  0.0238
  463poe     o2 5552  -0.291   3.469   0.448  0.3234 -0.3371  0.1231
  463poe    c23 5553  -0.415   3.521   0.491  0.0531 -0.7608 -0.1410
  463poe    c23 5554  -0.402   3.555   0.641  0.2304 -0.4740 -0.2207
  463poe     o2 5555  -0.270   3.592   0.671 -0.1195  0.4083  0.2602
  463poe    c31 5556  -0.252   3.628   0.807 -0.0857  0.2083  0.3088
  464poe    c31 5557   0.626   2.700   2.396  0.0369 -0.2308 -0.0089
  464poe     o2 5558   0.488   2.730   2.404 -0.0421 -0.6692  0.3764
  464poe    c23 5559   0.455   2.734   2.541 -0.5910 -0.2731  0.2377
  464poe    c23 5560   0.452   2.881   2.586 -0.1133 -0.1956  0.0248
  464poe     o2 5561   0.346   2.957   2.532  0.4382  0.2421 -0.4666
  464poe    c23 5562   0.383   3.078   2.472  0.6085  0.4065 -0.0365
  464poe    c23 5563   0.258   3.154   2.424  0.1090 -0.2081  0.2889
  464poe     o2 5564   0.168   3.187   2.527  0.1380  0.3346  0.1440
  464poe    c23 5565   0.048   3.246   2.483  0.0127  0.2197  0.3305
  464poe    c23 5566  -0.048   3.272   2.601 -0.1185 -0.1609  0.3095
  464poe     o2 5567  -0.045   3.161   2.688  0.5404 -0.1796  0.2747
  464poe    c31 5568  -0.180   3.133   2.720  0.3255  0.5313  0.0091
  465poe    c31 5569   6.408   4.073   1.198  0.5921 -0.0948 -0.2166
  465poe     o2 5570   6.418   4.007   1.322  0.5030  0.5112  0.1114
  465poe    c23 5571   6.390   3.869   1.322 -0.1568  0.6452  0.0783
  465poe    c23 5572   6.401   3.829   1.470 -0.2737 -0.5245 -0.2186
  465poe     o2 5573   6.506   3.902   1.530 -0.3433 -0.0106 -0.7098
  465poe    c23 5574   6.539   3.878   1.665 -0.3875 -0.0990 -0.7144
  465poe    c23 5575   6.656   3.977   1.685 -0.5109  0.0253 -0.6055
  465poe     o2 5576   6.623   4.090   1.608 -0.3014  0.0887 -0.6027
  465poe    c23 5577   6.726   4.185   1.602  0.1651 -0.3960 -0.3591
  465poe    c23 5578   6.677   4.313   1.531 -0.7369 -0.0659  0.8156
  465poe     o2 5579   6.598   4.262   1.425  0.4892  0.7082 -0.5038
  465poe    c31 5580   6.527   4.365   1.361 -0.2783  0.1711 -0.5253
  466poe    c31 5581   5.436   2.043   1.141  0.0172  0.6458 -0.4305
  466poe     o2 5582   5.338   2.011   1.237  0.4784  0.1212 -0.1316
  466poe    c23 5583   5.322   1.871   1.231 -0.1187  0.1930 -0.2870
  466poe    c23 5584   5.176   1.842   1.272 -0.0323  0.3956  0.1703
  466poe     o2 5585   5.140   1.953   1.351  0.1661  0.0754  0.7200
  466poe    c23 5586   5.001   1.948   1.372  0.0903 -0.1712  0.1787
  466poe    c23 5587   4.951   2.068   1.290  0.1476  0.1538  0.6139
  466poe     o2 5588   5.040   2.176   1.309  0.6023 -0.1233  0.0806
  466poe    c23 5589   5.045   2.260   1.196 -0.0658 -0.1595  0.0210
  466poe    c23 5590   5.152   2.365   1.229 -0.2166  0.0430 -0.1303
  466poe     o2 5591   5.258   2.299   1.294 -0.2322 -0.0623 -0.2121
  466poe    c31 5592   5.365   2.387   1.321 -0.1862 -0.1336 -0.1625
  467poe    c31 5593   3.657   3.073   2.716  0.3175  0.7628 -0.6683
  467poe     o2 5594   3.755   3.105   2.620  0.6566  0.7235 -0.3406
  467poe    c23 5595   3.696   3.078   2.495  0.0426  0.0425  0.0897
  467poe    c23 5596   3.795   3.060   2.378  0.2372  0.0039  0.2600
  467poe     o2 5597   3.885   2.952   2.380 -0.3845 -0.5399 -0.3810
  467poe    c23 5598   3.949   2.929   2.256 -0.3792 -0.2272 -0.4374
  467poe    c23 5599   4.015   2.790   2.256 -0.3580 -0.2215  0.4252
  467poe     o2 5600   4.096   2.781   2.372 -0.3602  0.3205  0.4721
  467poe    c23 5601   4.195   2.680   2.367 -0.1636  0.5058  0.6183
  467poe    c23 5602   4.315   2.720   2.455  0.2345  0.3772  0.1368
  467poe     o2 5603   4.287   2.708   2.593 -0.1790 -0.1928  0.0079
  467poe    c31 5604   4.353   2.596   2.648  1.3392  0.5744 -0.1930
  468poe    c31 5605   0.226   0.546   6.186 -0.4662  0.8579 -0.5873
  468poe     o2 5606   0.178   0.613   6.300  0.5587  0.4306  0.1154
  468poe    c23 5607   0.090   0.532   6.375 -0.1059  0.3519 -0.7266
  468poe    c23 5608   0.040   0.615   6.495  0.3966 -0.1528 -0.1595
  468poe     o2 5609   0.155   0.679   6.544  0.0789  0.1255  0.2291
  468poe    c23 5610   0.139   0.748   6.666  0.1674  0.3898  0.0913
  468poe    c23 5611   0.245   0.860   6.661  0.0648  0.4775 -0.1251
  468poe     o2 5612   0.227   0.901   6.527  0.0628 -0.1218 -0.3104
  468poe    c23 5613   0.315   1.002   6.484  0.3743 -0.2439  0.0333
  468poe    c23 5614   0.298   1.017   6.332 -0.4789  0.5402  0.2018
  468poe     o2 5615   0.302   0.889   6.273 -0.9498  0.5120  0.2314
  468poe    c31 5616   0.360   0.896   6.145 -0.0098 -0.4131  0.5978
  469poe    c31 5617   4.533   5.317   3.773 -0.7807  0.9585  0.1681
  469poe     o2 5618   4.468   5.328   3.649 -0.2931 -0.1269 -0.2010
  469poe    c23 5619   4.447   5.467   3.633  0.2058 -0.0574 -0.2938
  469poe    c23 5620   4.350   5.477   3.514 -0.0827  0.0624 -0.0526
  469poe     o2 5621   4.388   5.370   3.430  0.3629  0.1764 -0.0014
  469poe    c23 5622   4.296   5.344   3.326  0.1381 -0.0071  0.2410
  469poe    c23 5623   4.375   5.255   3.228 -0.2903 -0.3910  0.2384
  469poe     o2 5624   4.458   5.178   3.312  0.0481  0.1625  0.4219
  469poe    c23 5625   4.573   5.123   3.252  0.0503  0.4697  0.1427
  469poe    c23 5626   4.642   5.061   3.375  0.7229  0.4506 -0.2391
  469poe     o2 5627   4.654   5.148   3.485  0.2986 -0.2750  0.3913
  469poe    c31 5628   4.779   5.143   3.550  0.5645 -0.1140 -0.1041
  470poe    c31 5629   2.190   6.193   0.693 -0.4950  0.0463  0.1800
  470poe     o2 5630   2.065   6.185   0.759 -0.0744  0.2648  1.0211
  470poe    c23 5631   2.022   6.317   0.783  0.0743  0.4309  0.3871
  470poe    c23 5632   1.891   6.308   0.862  0.0980 -0.0482  0.3750
  470poe     o2 5633   1.917   6.213   0.963  0.1884  0.1769  0.5640
  470poe    c23 5634   1.814   6.194   1.059  0.4202  0.0847  0.7969
  470poe    c23 5635   1.847   6.060   1.126  0.2610 -0.3862 -0.0488
  470poe     o2 5636   1.879   5.968   1.023  0.2099 -0.4180 -0.0365
  470poe    c23 5637   1.957   5.863   1.075  0.4953 -0.1513  0.0795
  470poe    c23 5638   2.001   5.792   0.945 -0.0914 -0.0712 -0.1687
  470poe     o2 5639   2.048   5.891   0.856 -0.5718  0.0308 -0.3115
  470poe    c31 5640   2.112   5.833   0.744 -0.0148  0.0818 -0.0265
  471poe    c31 5641   0.021   6.617   1.941 -0.0574 -0.4201 -0.2113
  471poe     o2 5642   0.119   6.617   1.839 -0.0877 -0.6213 -0.2401
  471poe    c23 5643   0.200   6.730   1.863 -0.2046 -0.4866 -0.4746
  471poe    c23 5644   0.332   6.699   1.791  0.2898 -0.1015  0.2459
  471poe     o2 5645   0.302   6.644   1.664 -0.2370  0.4882  0.1108
  471poe    c23 5646   0.414   6.607   1.587 -0.1994  0.0474  0.3725
  471poe    c23 5647   0.357   6.500   1.491  0.6033 -0.2030  0.1684
  471poe     o2 5648   0.267   6.428   1.573 -0.1104  0.2122 -0.2393
  471poe    c23 5649   0.186   6.331   1.511  0.1026 -0.0871 -0.0518
  471poe    c23 5650   0.092   6.276   1.619  0.2735  0.2249  0.2583
  471poe     o2 5651   0.040   6.383   1.695 -0.0081  0.0201  0.3580
  471poe    c31 5652  -0.079   6.338   1.756 -0.3771  0.3022 -0.1448
  472poe    c31 5653   0.656   4.517   2.080  0.3060  0.1590 -0.3872
  472poe     o2 5654   0.724   4.393   2.083 -0.2014 -0.1082 -0.0199
  472poe    c23 5655   0.724   4.349   1.950 -0.2529  0.5020 -0.2273
  472poe    c23 5656   0.789   4.209   1.945  0.2645  0.7249  0.1712
  472poe     o2 5657   0.904   4.223   2.025  0.5857  0.3152 -0.2143
  472poe    c23 5658   0.971   4.103   2.055  0.1572  0.1330  0.0154
  472poe    c23 5659   1.030   4.141   2.192 -0.0963 -0.4172  0.2817
  472poe     o2 5660   0.933   4.201   2.275 -0.1412 -0.0962 -0.0004
  472poe    c23 5661   0.996   4.267   2.383  0.3310 -0.4322 -0.0649
  472poe    c23 5662   0.887   4.339   2.464  0.8194  0.4134 -0.1458
  472poe     o2 5663   0.802   4.404   2.372 -0.7982 -1.1832  0.1411
  472poe    c31 5664   0.691   4.455   2.441 -0.1484  0.5666 -0.0550
  473poe    c31 5665   1.284   1.553   1.130 -0.1101 -0.2443  0.0993
  473poe     o2 5666   1.311   1.492   1.006 -0.0307  0.1646 -0.0864
  473poe    c23 5667   1.221   1.393   0.962  0.2362 -0.0956 -0.0518
  473poe    c23 5668   1.245   1.353   0.815  0.1179  0.1154 -0.1298
  473poe     o2 5669   1.254   1.474   0.744 -0.5232  0.2708  0.0437
  473poe    c23 5670   1.285   1.449   0.609 -0.1815  0.2439  0.1246
  473poe    c23 5671   1.292   1.588   0.544  0.3159  0.0141 -0.3188
  473poe     o2 5672   1.342   1.677   0.642 -0.2842  0.0718 -0.0590
  473poe    c23 5673   1.335   1.814   0.609  0.1973  0.1228  0.0458
  473poe    c23 5674   1.424   1.879   0.717 -0.2847  0.4957  0.2180
  473poe     o2 5675   1.376   1.840   0.844 -0.5324  0.1727  0.0269
  473poe    c31 5676   1.447   1.911   0.943 -0.2280 -0.1074  0.0142
  474poe    c31 5677   3.903   2.495   6.400  0.0114 -0.0225  0.3629
  474poe     o2 5678   3.937   2.617   6.463  0.0258  0.0464  0.2221
  474poe    c23 5679   3.899   2.602   6.598  0.8789  0.0456  0.4668
  474poe    c23 5680   3.934   2.727   6.682 -0.0387  0.0656  0.8264
  474poe     o2 5681   3.869   2.822   6.600  0.5761  0.1951  0.4842
  474poe    c23 5682   3.871   2.957   6.638 -0.6520  0.2421  0.4394
  474poe    c23 5683   3.818   3.030   6.513 -0.6242  0.1362  0.3661
  474poe     o2 5684   3.877   2.964   6.403 -0.6426 -0.1425  0.5210
  474poe    c23 5685   3.844   3.020   6.278  0.2067  0.0134  0.3560
  474poe    c23 5686   3.915   2.926   6.179 -0.0501  0.0949  0.0937
  474poe     o2 5687   3.869   2.795   6.205  0.0762 -0.0219 -0.2609
  474poe    c31 5688   3.862   2.726   6.082  0.2276 -0.0281 -0.2670
  475poe    c31 5689   6.053   4.938   2.060 -0.1233 -0.2871  0.2839
  475poe     o2 5690   5.967   4.969   1.953  0.1723 -0.1616  0.0811
  475poe    c23 5691   5.867   4.869   1.951 -0.2961  0.3082 -0.2250
  475poe    c23 5692   5.767   4.915   1.842 -0.3217  0.2718 -0.2166
  475poe     o2 5693   5.834   4.916   1.718  0.2286 -0.2032  0.0689
  475poe    c23 5694   5.757   4.953   1.605  0.3230  0.1888  0.1324
  475poe    c23 5695   5.844   4.952   1.479  0.7314 -0.5022  0.4117
  475poe     o2 5696   5.949   5.047   1.489 -0.0245  0.4100 -0.1731
  475poe    c23 5697   6.020   5.044   1.367  0.3006  0.1588  0.0224
  475poe    c23 5698   6.053   5.184   1.310  0.1803  0.2651  0.2113
  475poe     o2 5699   6.145   5.240   1.401  0.1944 -0.2975  0.5513
  475poe    c31 5700   6.159   5.377   1.371 -0.0026 -0.4788 -0.3983
  476poe    c31 5701   1.820   3.801   0.774 -0.4376  0.6260  0.4496
  476poe     o2 5702   1.726   3.755   0.678  0.3445 -0.5528  0.2211
  476poe    c23 5703   1.789   3.655   0.602  0.3089 -0.7100  0.3972
  476poe    c23 5704   1.700   3.590   0.495 -0.3501  0.7881  0.0148
  476poe     o2 5705   1.573   3.567   0.551 -0.1767  0.1376  0.1469
  476poe    c23 5706   1.466   3.544   0.461  0.1089  0.0136 -0.1614
  476poe    c23 5707   1.337   3.567   0.542 -0.0090 -0.2123 -0.2832
  476poe     o2 5708   1.388   3.652   0.643  0.0048 -0.3475 -0.1756
  476poe    c23 5709   1.280   3.708   0.713 -0.7325 -0.6131 -1.0835
  476poe    c23 5710   1.333   3.840   0.770 -0.2661 -1.1846 -0.1648
  476poe     o2 5711   1.472   3.832   0.790 -0.1864  0.0348 -0.1569
  476poe    c31 5712   1.512   3.943   0.867 -0.5583  0.2195 -0.2278
  477poe    c31 5713   5.459   2.618   1.776 -0.2022  0.2158 -0.1085
  477poe     o2 5714   5.535   2.729   1.735 -0.0779  0.1398 -0.0824
  477poe    c23 5715   5.662   2.725   1.797 -0.0253 -0.0517 -0.2002
  477poe    c23 5716   5.700   2.869   1.759  0.1673 -0.1122 -0.2360
  477poe     o2 5717   5.594   2.955   1.793  0.1393 -0.3044  0.1616
  477poe    c23 5718   5.616   3.094   1.788  0.2595 -0.3359 -0.2588
  477poe    c23 5719   5.479   3.159   1.817  0.3494  0.0072 -0.5961
  477poe     o2 5720   5.390   3.096   1.727  0.2201 -0.6219 -0.0421
  477poe    c23 5721   5.254   3.108   1.760  0.2289  0.1209 -0.2480
  477poe    c23 5722   5.188   2.988   1.690  0.8093 -0.0373 -0.5248
  477poe     o2 5723   5.258   2.866   1.708  0.3697 -0.2477 -0.2237
  477poe    c31 5724   5.163   2.768   1.674 -0.1189  0.2143 -0.2022
  478poe    c31 5725   2.458   4.445   4.654 -0.8315  0.1186  0.0594
  478poe     o2 5726   2.402   4.337   4.725 -0.3272  0.0149  0.3044
  478poe    c23 5727   2.377   4.236   4.631 -0.5002  0.0715  0.2884
  478poe    c23 5728   2.278   4.144   4.706  0.0521 -0.4704  0.3596
  478poe     o2 5729   2.326   4.146   4.839  0.5297  0.3405  0.1806
  478poe    c23 5730   2.242   4.086   4.934  0.0653  0.2198 -0.3005
  478poe    c23 5731   2.301   4.105   5.075  0.0920 -0.4713 -0.2112
  478poe     o2 5732   2.367   4.230   5.066 -0.2463 -0.2902 -0.1962
  478poe    c23 5733   2.470   4.224   5.161 -0.1688  0.4386 -0.2328
  478poe    c23 5734   2.592   4.299   5.102  0.3389 -0.2608 -0.0878
  478poe     o2 5735   2.587   4.313   4.962 -0.4175  0.1010 -0.0336
  478poe    c31 5736   2.718   4.321   4.910 -0.3038 -0.1302  0.2133
  479poe    c31 5737   0.738   0.175   0.231 -0.1613 -0.0606 -1.0857
  479poe     o2 5738   0.597   0.169   0.239 -0.0859 -0.9115 -0.2530
  479poe    c23 5739   0.549   0.293   0.194  0.4845 -0.5340  0.1670
  479poe    c23 5740   0.404   0.285   0.247  0.5992 -0.1336  0.5567
  479poe     o2 5741   0.360   0.151   0.254 -0.0221  0.0016 -0.4844
  479poe    c23 5742   0.227   0.139   0.301  0.2431 -0.4001  0.1828
  479poe    c23 5743   0.224  -0.003   0.360  0.0634 -0.4331  0.0921
  479poe     o2 5744   0.340  -0.011   0.439  0.1693 -0.2471 -0.0444
  479poe    c23 5745   0.367  -0.144   0.475 -0.0312 -0.2142  0.2247
  479poe    c23 5746   0.512  -0.131   0.527 -0.1614  0.2542  0.4756
  479poe     o2 5747   0.591  -0.060   0.435 -0.0678 -0.2031  0.1961
  479poe    c31 5748   0.721  -0.113   0.437  0.0115 -0.0248 -0.2139
  480poe    c31 5749   6.162   3.157   6.181  0.4297  0.3891  0.3653
  480poe     o2 5750   6.100   3.238   6.083 -0.0435  0.1167  0.4362
  480poe    c23 5751   6.186   3.238   5.971 -0.2555  0.2745  0.2725
  480poe    c23 5752   6.110   3.298   5.852  0.5760  0.4023 -0.2031
  480poe     o2 5753   6.037   3.411   5.896 -0.2170 -0.3616  0.4878
  480poe    c23 5754   5.946   3.446   5.794  0.4556  0.0447  0.0168
  480poe    c23 5755   5.857   3.551   5.864  0.2928  0.2637 -0.5149
  480poe     o2 5756   5.840   3.490   5.989  0.3055  0.1496 -0.5695
  480poe    c23 5757   5.778   3.571   6.086  0.6328 -0.3721  0.0882
  480poe    c23 5758   5.756   3.493   6.217 -0.2591 -0.1113  0.1024
  480poe     o2 5759   5.881   3.439   6.253 -0.3679 -0.3696  0.0989
  480poe    c31 5760   5.848   3.347   6.355 -0.6185 -0.4542 -0.0559
  481poe    c31 5761   4.114   5.984   0.699  0.2489  0.1605 -0.3406
  481poe     o2 5762   4.017   5.883   0.679  0.3548  0.0895 -0.5049
  481poe    c23 5763   3.964   5.877   0.549 -0.4261  0.1337 -0.1929
  481poe    c23 5764   3.909   5.736   0.521 -0.5086  0.1451 -0.0876
  481poe     o2 5765   3.855   5.696   0.645 -0.0176 -0.3308 -0.0236
  481poe    c23 5766   3.769   5.584   0.646 -0.0962 -0.2692  0.1244
  481poe    c23 5767   3.677   5.617   0.765 -0.7576 -0.0831 -0.4309
  481poe     o2 5768   3.759   5.672   0.865 -0.4911 -0.2542 -0.5550
  481poe    c23 5769   3.685   5.737   0.966  0.5600  0.0622  0.0350
  481poe    c23 5770   3.788   5.828   1.035  0.1230  0.3097  0.3667
  481poe     o2 5771   3.880   5.885   0.946  0.0080 -0.4857 -0.2739
  481poe    c31 5772   3.925   6.009   0.996  0.2467 -0.6266 -0.1384
  482poe    c31 5773   2.495   6.182   0.470 -0.0713  0.5201  0.0130
  482poe     o2 5774   2.503   6.216   0.334  0.0745 -0.2257 -0.1659
  482poe    c23 5775   2.421   6.328   0.311  0.3586  0.0400  0.1010
  482poe    c23 5776   2.463   6.370   0.168 -0.1652  0.2627  0.0086
  482poe     o2 5777   2.446   6.257   0.086  0.8903  0.2035 -0.1444
  482poe    c23 5778   2.418   6.291  -0.048 -0.4988 -0.2968  0.0019
  482poe    c23 5779   2.403   6.176  -0.149  0.1054 -0.1454 -0.2598
  482poe     o2 5780   2.287   6.099  -0.129 -0.2518  0.2496 -0.7697
  482poe    c23 5781   2.171   6.154  -0.187 -0.2226  0.1189 -0.9514
  482poe    c23 5782   2.053   6.066  -0.144  0.3582 -0.2227 -0.0294
  482poe     o2 5783   2.091   5.930  -0.153  0.5106 -0.1700 -0.1871
  482poe    c31 5784   1.977   5.859  -0.109  0.6073 -0.0309  0.2974
  483poe    c31 5785   5.376   3.834   5.355 -0.1879  0.2425 -0.0484
  483poe     o2 5786   5.316   3.870   5.478 -0.3128 -0.1094 -0.0030
  483poe    c23 5787   5.197   3.796   5.491 -0.3328  0.0216  0.5822
  483poe    c23 5788   5.091   3.897   5.538 -0.2705  0.4372 -0.1565
  483poe     o2 5789   5.167   3.990   5.611  0.1021 -0.0858  0.1258
  483poe    c23 5790   5.074   4.075   5.676 -0.1031 -0.2160  0.0045
  483poe    c23 5791   5.148   4.208   5.699  0.1360 -0.4119  0.3914
  483poe     o2 5792   5.283   4.169   5.705  0.1794 -0.3387 -0.0973
  483poe    c23 5793   5.372   4.278   5.687  0.0053 -0.2235 -0.2737
  483poe    c23 5794   5.511   4.217   5.659  0.1456  0.1557 -0.3967
  483poe     o2 5795   5.503   4.105   5.574  0.0506 -0.3898  0.3307
  483poe    c31 5796   5.632   4.061   5.537  0.2900  0.5223  0.0629
  484poe    c31 5797   3.029   5.777   3.812 -0.1081 -0.0598 -0.0691
  484poe     o2 5798   2.924   5.835   3.739 -0.2219 -0.0730  0.0829
  484poe    c23 5799   2.878   5.740   3.645  0.2557 -0.7803  0.5594
  484poe    c23 5800   2.770   5.802   3.555  0.9640 -0.0472  0.1959
  484poe     o2 5801   2.795   5.938   3.527  0.2173 -0.0620 -0.5876
  484poe    c23 5802   2.677   6.013   3.539  0.5392  0.3218  0.2124
  484poe    c23 5803   2.713   6.158   3.579  0.7243  0.4337 -0.3497
  484poe     o2 5804   2.816   6.141   3.675 -0.3875 -0.0650  0.7772
  484poe    c23 5805   2.867   6.264   3.718 -0.0523  0.0024  0.1979
  484poe    c23 5806   2.959   6.229   3.837 -0.2346 -0.0797  0.3160
  484poe     o2 5807   3.042   6.117   3.813  0.1357  0.0921  0.7700
  484poe    c31 5808   3.140   6.111   3.914  0.5449 -0.3643  0.3547
  485poe    c31 5809   2.137   2.827   2.355  0.1112  0.4063  0.7624
  485poe     o2 5810   2.032   2.750   2.411 -0.0979 -0.0357 -0.2179
  485poe    c23 5811   1.914   2.787   2.344 -0.1770  0.0576 -0.0283
  485poe    c23 5812   1.802   2.778   2.448 -0.0825 -0.2194  0.0512
  485poe     o2 5813   1.833   2.661   2.520  0.3586  0.1012  0.3873
  485poe    c23 5814   1.746   2.627   2.626 -0.1134  0.4055  0.1056
  485poe    c23 5815   1.796   2.488   2.672  0.0301  0.1700 -0.7435
  485poe     o2 5816   1.936   2.482   2.669  0.0997  0.7158  0.5717
  485poe    c23 5817   1.986   2.351   2.654 -0.1479  0.6345  0.4563
  485poe    c23 5818   2.127   2.385   2.602  0.0315 -0.0630  0.4767
  485poe     o2 5819   2.115   2.471   2.491  0.0066  0.0753  0.5866
  485poe    c31 5820   2.214   2.431   2.398 -0.0677  0.7931  0.1882
  486poe    c31 5821   5.569   2.953   0.822 -0.0513 -0.2848  0.0351
  486poe     o2 5822   5.428   2.958   0.810 -0.0468 -0.0856  0.0562
  486poe    c23 5823   5.358   2.865   0.890  0.0974 -0.1474  0.1116
  486poe    c23 5824   5.205   2.886   0.887  0.1372  0.0722 -0.3303
  486poe     o2 5825   5.172   2.995   0.803  0.1780  0.0475 -0.3782
  486poe    c23 5826   5.039   2.996   0.756 -0.0760  0.4475  0.3517
  486poe    c23 5827   5.025   3.130   0.681  0.0171  0.2360 -0.0425
  486poe     o2 5828   5.134   3.135   0.592  0.0095  0.0874 -0.0608
  486poe    c23 5829   5.157   3.269   0.555  0.5011 -0.0411 -0.2309
  486poe    c23 5830   5.290   3.253   0.479  0.3910  0.2107 -0.4819
  486poe     o2 5831   5.372   3.158   0.544 -0.0606  0.0315 -0.1702
  486poe    c31 5832   5.509   3.186   0.526 -0.0214  0.0654  0.1634
  487poe    c31 5833   0.576   2.090   0.726  0.1607  0.1914 -0.3567
  487poe     o2 5834   0.484   2.026   0.641 -0.0716 -0.3196  0.2714
  487poe    c23 5835   0.469   1.892   0.681 -0.2270 -0.4957 -0.3710
  487poe    c23 5836   0.356   1.840   0.589 -0.4010 -0.0190 -0.4321
  487poe     o2 5837   0.388   1.892   0.462  0.3781 -0.0271 -0.2482
  487poe    c23 5838   0.290   1.855   0.367  0.6257 -0.4915 -0.3279
  487poe    c23 5839   0.343   1.925   0.241  0.8006 -0.2996 -0.1499
  487poe     o2 5840   0.387   2.051   0.284  0.1245 -0.2422  0.3746
  487poe    c23 5841   0.503   2.081   0.211 -0.0323  0.2751  0.3353
  487poe    c23 5842   0.557   2.210   0.276 -0.7198  0.6269  0.2201
  487poe     o2 5843   0.574   2.190   0.414  0.5044 -0.1872 -0.0353
  487poe    c31 5844   0.595   2.312   0.481  0.5420 -0.3843  0.3140
  488poe    c31 5845   5.711   5.300   0.854 -0.7023 -0.2683 -0.3241
  488poe     o2 5846   5.656   5.420   0.904  0.1270  0.1179 -0.3197
  488poe    c23 5847   5.520   5.410   0.868  0.0942 -0.3575 -0.0774
  488poe    c23 5848   5.479   5.548   0.814 -0.1890 -0.3569  0.1371
  488poe     o2 5849   5.539   5.642   0.900 -0.6230 -0.0670  0.1291
  488poe    c23 5850   5.501   5.773   0.863 -0.1217  0.0436 -0.0029
  488poe    c23 5851   5.549   5.850   0.987 -0.1015 -0.1243  0.0938
  488poe     o2 5852   5.679   5.799   1.007  0.1395  0.5360  0.2244
  488poe    c23 5853   5.710   5.810   1.144  0.2971  0.8568  0.1651
  488poe    c23 5854   5.844   5.733   1.156 -0.0946  0.1191 -0.1167
  488poe     o2 5855   5.831   5.620   1.073  0.2463  0.3911 -0.5446
  488poe    c31 5856   5.954   5.552   1.064 -0.0161 -0.1283 -0.2245
  489poe    c31 5857   3.796   4.352   5.492  0.7877  0.1256 -0.3362
  489poe     o2 5858   3.777   4.401   5.362  0.1179  0.1045 -0.2509
  489poe    c23 5859   3.898   4.398   5.290  0.2652  0.7326 -0.0271
  489poe    c23 5860   3.875   4.380   5.139 -0.2709 -0.5131  0.1935
  489poe     o2 5861   3.774   4.477   5.126 -0.1076 -0.3331  0.2523
  489poe    c23 5862   3.719   4.467   4.997  0.1730  0.0101  0.1079
  489poe    c23 5863   3.596   4.559   5.010 -0.1287 -0.3742 -0.0116
  489poe     o2 5864   3.521   4.514   5.120 -0.1559  0.3299  0.2605
  489poe    c23 5865   3.444   4.626   5.158  0.2823  0.6948  0.0803
  489poe    c23 5866   3.400   4.605   5.304  0.4918  0.5177  0.1187
  489poe     o2 5867   3.517   4.558   5.366  0.2842 -0.3826 -0.1575
  489poe    c31 5868   3.513   4.594   5.502 -0.4953  0.0347 -0.2890
  490poe    c31 5869   5.818   0.833   3.109  0.1465  0.3123  0.3450
  490poe     o2 5870   5.942   0.776   3.075 -0.1051 -0.2275  0.3083
  490poe    c23 5871   6.052   0.865   3.084 -0.0590 -0.2102 -0.3945
  490poe    c23 5872   6.160   0.844   2.976  0.2472  0.4137 -0.2108
  490poe     o2 5873   6.194   0.709   2.998  0.4057  0.4658 -0.1315
  490poe    c23 5874   6.294   0.643   2.923  0.0459  0.2314 -0.4079
  490poe    c23 5875   6.264   0.496   2.956  0.3395  0.3274  0.3059
  490poe     o2 5876   6.128   0.475   2.929  0.4303 -0.4492  0.4083
  490poe    c23 5877   6.071   0.354   2.974 -0.2223 -0.4901 -0.4991
  490poe    c23 5878   5.919   0.369   2.991 -0.1792 -0.4839 -0.1071
  490poe     o2 5879   5.898   0.497   3.045 -0.1640 -0.3214 -0.4850
  490poe    c31 5880   5.778   0.491   3.119  0.1160  0.4613  0.0471
  491poe    c31 5881   6.005   1.431   4.963 -0.1065  0.7657  0.4226
  491poe     o2 5882   6.132   1.393   5.012  0.1702  0.4017 -0.5507
  491poe    c23 5883   6.180   1.272   4.956  0.0169 -0.0625  0.2943
  491poe    c23 5884   6.334   1.275   4.961  0.0466 -0.4060 -0.3204
  491poe     o2 5885   6.371   1.285   5.096 -0.8751  0.2183 -0.1068
  491poe    c23 5886   6.468   1.383   5.128 -0.6112 -0.0081 -0.2167
  491poe    c23 5887   6.434   1.531   5.100 -0.1590  0.1623  0.1359
  491poe     o2 5888   6.313   1.558   5.166 -0.6043 -0.2932 -0.4871
  491poe    c23 5889   6.245   1.675   5.125  0.4451  0.4995 -0.0095
  491poe    c23 5890   6.114   1.673   5.206  0.1648 -0.3370 -0.4648
  491poe     o2 5891   6.077   1.541   5.239  0.4622 -0.3064  0.0156
  491poe    c31 5892   5.978   1.542   5.339  0.0508  0.6287 -0.3865
  492poe    c31 5893   0.970   0.762   2.303 -0.0518  0.1497  0.6649
  492poe     o2 5894   0.942   0.632   2.349 -0.1860 -0.0578  0.0106
  492poe    c23 5895   0.839   0.631   2.446 -0.2829  0.4330 -0.0872
  492poe    c23 5896   0.899   0.595   2.583  0.1675  0.2907 -0.3201
  492poe     o2 5897   0.972   0.479   2.548 -0.0455 -0.1539  0.6855
  492poe    c23 5898   1.035   0.432   2.665  0.2726  0.4645  0.7679
  492poe    c23 5899   1.098   0.298   2.622 -0.1249  0.3488  0.5450
  492poe     o2 5900   1.161   0.320   2.498 -0.1048 -0.0561  0.4827
  492poe    c23 5901   1.148   0.224   2.395 -0.4182  0.4702  0.0245
  492poe    c23 5902   1.172   0.289   2.258 -0.1116 -0.0567 -0.1775
  492poe     o2 5903   1.085   0.400   2.244  0.1252  0.1478 -0.0270
  492poe    c31 5904   1.065   0.431   2.108 -0.4288 -0.3238 -0.0573
  493poe    c31 5905   2.368   4.660   4.312 -0.6074 -0.1576  0.4126
  493poe     o2 5906   2.473   4.577   4.268 -0.5556 -0.0226  0.2783
  493poe    c23 5907   2.428   4.451   4.225 -0.1220 -0.0902  0.0106
  493poe    c23 5908   2.543   4.354   4.190  0.3994  0.3835  0.4058
  493poe     o2 5909   2.640   4.429   4.121 -0.0572  0.1861 -0.4614
  493poe    c23 5910   2.758   4.367   4.077  0.2078  0.1621  0.2665
  493poe    c23 5911   2.823   4.493   4.017 -0.5519  0.3462 -0.1841
  493poe     o2 5912   2.818   4.597   4.112 -0.2529  0.1846  0.0114
  493poe    c23 5913   2.817   4.727   4.058 -0.9313  0.0888 -0.2245
  493poe    c23 5914   2.776   4.831   4.164 -0.0175  0.1655  0.0671
  493poe     o2 5915   2.652   4.790   4.218 -0.0084 -0.0578 -0.0842
  493poe    c31 5916   2.621   4.886   4.316  0.2804 -0.3224  0.2681
  494poe    c31 5917   2.089   4.606   2.772  0.3574  0.1068 -0.0856
  494poe     o2 5918   2.100   4.690   2.885  0.0188  0.1019 -0.0488
  494poe    c23 5919   1.971   4.687   2.942 -0.0556  0.2933 -0.2090
  494poe    c23 5920   1.968   4.758   3.079 -0.3998 -0.0787 -0.0233
  494poe     o2 5921   2.025   4.883   3.047 -0.4361 -0.0104  0.1770
  494poe    c23 5922   2.058   4.963   3.158 -0.2284  0.2216 -0.0487
  494poe    c23 5923   2.135   5.081   3.098 -0.3225 -0.0199 -0.6524
  494poe     o2 5924   2.217   5.013   3.005  0.2978 -0.2329  0.0353
  494poe    c23 5925   2.290   5.091   2.914 -0.3645  0.1236 -0.2001
  494poe    c23 5926   2.377   4.992   2.834  0.0363  0.8327 -0.6511
  494poe     o2 5927   2.299   4.891   2.774  0.0891  0.2533  0.2389
  494poe    c31 5928   2.370   4.821   2.675 -0.4582 -0.3118  0.2377
  495poe    c31 5929   2.676   4.044   1.202  0.4005  0.0357 -0.1377
  495poe     o2 5930   2.576   4.124   1.143 -0.4910 -0.2537  0.9466
  495poe    c23 5931   2.479   4.026   1.113 -0.4779 -0.1769  0.6457
  495poe    c23 5932   2.356   4.116   1.091 -0.3221 -0.1033  0.0591
  495poe     o2 5933   2.393   4.208   0.991 -0.4043 -0.2809 -0.1340
  495poe    c23 5934   2.286   4.293   0.957  0.2596  0.4199 -0.5194
  495poe    c23 5935   2.343   4.424   0.900  0.1446  0.6336 -0.1445
  495poe     o2 5936   2.459   4.439   0.979  0.2650 -0.4782 -0.0865
  495poe    c23 5937   2.525   4.559   0.944 -0.3210 -0.0235  0.3359
  495poe    c23 5938   2.662   4.555   1.016 -0.2320 -0.1066  0.1631
  495poe     o2 5939   2.703   4.421   1.004  0.4083  0.1700 -0.8820
  495poe    c31 5940   2.837   4.398   1.041  0.0819 -0.5748 -0.1161
  496poe    c31 5941   1.790   4.433   5.713 -0.4889  0.3486  0.3141
  496poe     o2 5942   1.680   4.360   5.663 -0.0961 -0.1759  0.2010
  496poe    c23 5943   1.571   4.449   5.649  0.4944  0.4790 -0.3232
  496poe    c23 5944   1.444   4.369   5.615  0.2206  0.2777  1.0823
  496poe     o2 5945   1.455   4.264   5.709  0.3443 -0.0456  0.7116
  496poe    c23 5946   1.347   4.175   5.696  0.3522  0.0865 -0.3321
  496poe    c23 5947   1.388   4.045   5.767  0.3179  0.2893  0.0607
  496poe     o2 5948   1.511   4.013   5.705 -0.2529 -0.4474 -0.7182
  496poe    c23 5949   1.583   3.923   5.786  0.0177 -0.0973 -0.5655
  496poe    c23 5950   1.730   3.928   5.743  0.1571  0.4606 -0.0352
  496poe     o2 5951   1.771   4.057   5.784  0.1530  0.4192  0.0997
  496poe    c31 5952   1.911   4.058   5.804  0.1379  0.3207  0.2077
  497poe    c31 5953   3.261   0.867   5.215  0.5184 -0.2678  1.1661
  497poe     o2 5954   3.364   0.942   5.155 -0.3187 -0.1979 -0.2300
  497poe    c23 5955   3.493   0.891   5.177 -0.3656 -0.2656 -0.1089
  497poe    c23 5956   3.601   0.985   5.120  0.2348 -0.1002  1.2540
  497poe     o2 5957   3.577   1.106   5.187 -0.0726  0.5046  0.0905
  497poe    c23 5958   3.642   1.221   5.137  0.1556  0.5361  0.4509
  497poe    c23 5959   3.555   1.340   5.183 -0.1691  0.4535  0.0592
  497poe     o2 5960   3.422   1.303   5.155 -0.1802  0.2032  0.4386
  497poe    c23 5961   3.327   1.406   5.147  0.1100  0.4462  0.0420
  497poe    c23 5962   3.228   1.348   5.044  0.2138 -0.2065  0.3005
  497poe     o2 5963   3.223   1.212   5.081 -0.2481 -0.1024  0.6289
  497poe    c31 5964   3.151   1.133   4.988  0.5000  0.0518 -0.0887
  498poe    c31 5965   1.765   4.993   4.971 -0.3093  0.0570 -0.1110
  498poe     o2 5966   1.679   5.045   5.069 -0.2738 -0.4978  0.2236
  498poe    c23 5967   1.546   5.030   5.025 -0.2854 -0.0922  0.1188
  498poe    c23 5968   1.459   5.124   5.110 -0.1485  0.1550 -0.0123
  498poe     o2 5969   1.511   5.105   5.240 -0.3552 -0.2022  0.0195
  498poe    c23 5970   1.503   5.229   5.307 -0.1763 -0.2087  0.0526
  498poe    c23 5971   1.628   5.244   5.396 -0.1000 -0.1262 -0.0674
  498poe     o2 5972   1.731   5.186   5.319  0.1843  0.2721  0.0109
  498poe    c23 5973   1.846   5.218   5.394  0.5332 -0.6758 -0.1063
  498poe    c23 5974   1.972   5.170   5.319  0.8902 -0.1666  0.1642
  498poe     o2 5975   1.941   5.048   5.256  0.0272  0.1156  0.0342
  498poe    c31 5976   2.061   4.991   5.212  0.0266 -0.4717  0.7811
  499poe    c31 5977   0.515   5.579   0.870  0.7823 -0.0407 -0.3582
  499poe     o2 5978   0.639   5.603   0.933  0.5335 -0.0441  0.1440
  499poe    c23 5979   0.649   5.735   0.982  0.1696 -0.1449  0.4871
  499poe    c23 5980   0.792   5.750   1.036  0.4683 -0.3115 -0.2459
  499poe     o2 5981   0.873   5.666   0.957  0.4633 -0.1452 -0.4266
  499poe    c23 5982   0.938   5.733   0.851  0.5112  0.2618 -0.1423
  499poe    c23 5983   1.003   5.619   0.770  0.2754 -0.0679  0.1290
  499poe     o2 5984   0.909   5.514   0.774  0.2913 -0.0804  0.1683
  499poe    c23 5985   0.933   5.392   0.709  0.2269  0.0396 -0.0803
  499poe    c23 5986   0.797   5.320   0.716  0.1096  0.3218  0.5599
  499poe     o2 5987   0.745   5.332   0.847 -0.4916  0.0009  0.3559
  499poe    c31 5988   0.696   5.203   0.877 -0.0785 -0.0847  0.6640
  500poe    c31 5989   5.448   0.100   6.622 -0.2961 -0.4865 -0.4458
  500poe     o2 5990   5.405  -0.027   6.664 -0.3717 -0.2808  0.1088
  500poe    c23 5991   5.380  -0.120   6.561  0.1838  0.0870 -0.3643
  500poe    c23 5992   5.301  -0.238   6.621  0.3171  0.2152  0.0723
  500poe     o2 5993   5.366  -0.276   6.740  0.5855  0.2882 -0.0518
  500poe    c23 5994   5.300  -0.364   6.828 -0.2755  0.6354 -0.3420
  500poe    c23 5995   5.360  -0.340   6.968 -0.3830  0.6521 -0.2989
  500poe     o2 5996   5.374  -0.200   6.975  0.8963  0.5714 -0.9059
  500poe    c23 5997   5.421  -0.151   7.098 -0.4528  0.2149 -0.2261
  500poe    c23 5998   5.426   0.003   7.108 -0.2955  0.2070 -0.1853
  500poe     o2 5999   5.483   0.059   6.992  0.0998 -0.2947 -0.2390
  500poe    c31 6000   5.487   0.199   7.012 -0.4194 -0.1652 -0.9891
  501poe    c31 6001   4.800   3.683   1.350  0.0243 -0.3791  0.9595
  501poe     o2 6002   4.878   3.566   1.337  0.4571  0.0226 -0.1456
  501poe    c23 6003   4.982   3.565   1.431 -0.0908 -1.2327  0.4647
  501poe    c23 6004   5.086   3.458   1.395  0.5747 -0.4833  0.1278
  501poe     o2 6005   5.009   3.349   1.349  0.3292 -0.1122 -0.3454
  501poe    c23 6006   5.083   3.241   1.297  0.0716 -0.3486 -0.2262
  501poe    c23 6007   4.981   3.168   1.207 -0.3441  0.0544 -0.0856
  501poe     o2 6008   4.896   3.268   1.154  0.1506  0.1538 -0.7088
  501poe    c23 6009   4.821   3.235   1.039 -0.1529 -0.0692 -0.4476
  501poe    c23 6010   4.752   3.370   1.013  0.4066  0.4679  0.7477
  501poe     o2 6011   4.721   3.419   1.141  0.0786  0.7341  0.5681
  501poe    c31 6012   4.610   3.506   1.134 -0.1113  0.4405 -0.1763
  502poe    c31 6013   2.942   1.910   3.167  0.0328  0.0227  0.0587
  502poe     o2 6014   3.024   1.985   3.254 -0.2466  0.8771 -0.4029
  502poe    c23 6015   2.963   1.986   3.381  0.2940 -0.4823 -0.1095
  502poe    c23 6016   3.016   2.117   3.444  0.1649 -0.2341 -0.5133
  502poe     o2 6017   3.156   2.106   3.435  0.1814 -0.1335 -0.3761
  502poe    c23 6018   3.225   2.208   3.504  0.3807 -0.4213 -0.1474
  502poe    c23 6019   3.371   2.190   3.460  0.4343 -0.4646  0.0458
  502poe     o2 6020   3.369   2.167   3.321 -0.2912 -0.0563 -0.0218
  502poe    c23 6021   3.387   2.278   3.236 -0.5337  0.3081  0.4072
  502poe    c23 6022   3.347   2.222   3.099 -0.1201  0.1015  0.3693
  502poe     o2 6023   3.226   2.157   3.130  0.1312 -0.5262  0.0446
  502poe    c31 6024   3.179   2.109   3.006  0.1361 -0.0237 -0.1527
  503poe    c31 6025   3.196   0.177   0.007  0.3105 -0.1289 -0.1479
  503poe     o2 6026   3.151   0.221   0.133  0.3971  0.6977 -0.4000
  503poe    c23 6027   3.269   0.238   0.208  0.1286 -0.8086  0.3985
  503poe    c23 6028   3.227   0.274   0.352  0.6757 -0.1619  0.4026
  503poe     o2 6029   3.127   0.370   0.329  0.4094 -0.4379  0.3986
  503poe    c23 6030   3.062   0.426   0.441  0.2333  0.0781  0.0412
  503poe    c23 6031   2.928   0.486   0.395  0.0922 -0.2115  0.0746
  503poe     o2 6032   2.890   0.387   0.302 -0.0657 -0.2172  0.1447
  503poe    c23 6033   2.760   0.410   0.251  0.0244 -0.3218 -0.1318
  503poe    c23 6034   2.736   0.289   0.158 -0.2233 -0.4996  0.1619
  503poe     o2 6035   2.851   0.293   0.076 -0.1699  0.2868  0.2592
  503poe    c31 6036   2.823   0.194  -0.021  0.3416 -0.0725  0.4697
  504poe    c31 6037   4.787   1.004   3.234 -0.4636 -0.4212  0.0228
  504poe     o2 6038   4.661   1.064   3.249 -0.0890  0.4033 -0.0560
  504poe    c23 6039   4.646   1.161   3.148  0.1691 -0.0536 -0.5355
  504poe    c23 6040   4.500   1.209   3.151  0.3493  0.4872 -0.3376
  504poe     o2 6041   4.472   1.224   3.288 -0.2762 -0.5597 -0.3357
  504poe    c23 6042   4.339   1.257   3.321 -0.0061  0.1953  0.0354
  504poe    c23 6043   4.336   1.216   3.469 -0.2630 -0.2520 -0.0926
  504poe     o2 6044   4.400   1.092   3.492  0.5720  0.2446  0.2894
  504poe    c23 6045   4.420   1.056   3.626  0.3693 -0.2152  0.1960
  504poe    c23 6046   4.489   0.919   3.613  0.1603 -0.2723 -0.3020
  504poe     o2 6047   4.594   0.912   3.519  0.4500  0.2090 -0.0128
  504poe    c31 6048   4.690   0.813   3.549  0.3474  0.0143 -0.3310
  505poe    c31 6049   2.786   3.895   3.497  0.2281 -0.2042  0.0106
  505poe     o2 6050   2.709   3.819   3.586  0.3394 -0.5033 -0.1467
  505poe    c23 6051   2.745   3.867   3.714 -0.3000 -0.2588 -0.0519
  505poe    c23 6052   2.676   3.773   3.815 -0.4574  0.1704  0.2406
  505poe     o2 6053   2.546   3.750   3.766 -0.1511 -0.0497 -0.4901
  505poe    c23 6054   2.478   3.656   3.847  0.8492  0.0496  0.4888
  505poe    c23 6055   2.358   3.624   3.756  0.3996  0.5915  0.8776
  505poe     o2 6056   2.411   3.638   3.626 -0.0807 -0.2142  0.5853
  505poe    c23 6057   2.302   3.676   3.546  0.2129  0.2714  0.4072
  505poe    c23 6058   2.349   3.718   3.406  0.2579 -0.3301  0.2389
  505poe     o2 6059   2.457   3.803   3.437 -0.0898  0.2249 -0.0570
  505poe    c31 6060   2.477   3.877   3.318  0.7361 -0.1035 -0.1301
  506poe    c31 6061   1.773   0.179   5.270  0.1745  0.2937 -0.1290
  506poe     o2 6062   1.710   0.261   5.366  0.3448  0.0635  0.1801
  506poe    c23 6063   1.774   0.247   5.491 -0.3607  0.3654  0.5802
  506poe    c23 6064   1.695   0.329   5.595 -0.4906  0.6839  0.2332
  506poe     o2 6065   1.558   0.316   5.565 -0.3436 -0.1568 -0.0937
  506poe    c23 6066   1.486   0.416   5.633  0.4800  0.3009  0.1185
  506poe    c23 6067   1.365   0.442   5.541  0.2390 -0.1430  0.3068
  506poe     o2 6068   1.416   0.448   5.410 -0.1048 -0.0458  0.1756
  506poe    c23 6069   1.320   0.446   5.307  0.4245 -0.0314 -0.3244
  506poe    c23 6070   1.389   0.440   5.169  0.4980 -0.1923 -0.2807
  506poe     o2 6071   1.484   0.337   5.187 -0.1245 -0.7534 -0.1449
  506poe    c31 6072   1.545   0.315   5.062 -0.3148  0.1464 -0.4055
  507poe    c31 6073   2.190   0.569   1.729 -0.6366 -0.4356 -0.1210
  507poe     o2 6074   2.127   0.578   1.855 -0.4846 -0.3705 -0.0490
  507poe    c23 6075   2.010   0.654   1.832 -0.2914 -0.0053  0.1774
  507poe    c23 6076   1.912   0.625   1.948 -0.1156  0.0677  0.3457
  507poe     o2 6077   2.001   0.616   2.057  0.1024  0.0488  0.1673
  507poe    c23 6078   1.946   0.598   2.185  0.0922 -0.3422  0.1077
  507poe    c23 6079   2.056   0.542   2.277  0.1986  0.0165  0.1998
  507poe     o2 6080   2.128   0.457   2.190  0.3675  0.1940  0.1661
  507poe    c23 6081   2.239   0.402   2.258  0.5958  0.0233 -0.3458
  507poe    c23 6082   2.319   0.319   2.156  0.7041  0.0701 -0.2992
  507poe     o2 6083   2.317   0.388   2.033 -0.6525  0.2112 -0.2103
  507poe    c31 6084   2.353   0.312   1.920 -0.7840 -0.2346  0.0439
  508poe    c31 6085   2.447   1.110   5.832 -0.0414 -0.1131 -0.0452
  508poe     o2 6086   2.412   0.974   5.845 -0.4071 -0.0208 -0.0389
  508poe    c23 6087   2.302   0.976   5.933 -0.2542  0.4799  0.1422
  508poe    c23 6088   2.251   0.831   5.935  0.2539  0.2984  0.1469
  508poe     o2 6089   2.366   0.750   5.936  0.3063  0.3753  0.4031
  508poe    c23 6090   2.336   0.613   5.918 -0.8236  0.7095 -0.3549
  508poe    c23 6091   2.337   0.578   5.768  0.1358  0.3186 -0.2672
  508poe     o2 6092   2.455   0.644   5.728  0.3909 -0.1227 -0.2479
  508poe    c23 6093   2.448   0.677   5.591 -0.1588  0.4543 -0.0889
  508poe    c23 6094   2.574   0.760   5.560  0.1783  0.0405  0.1645
  508poe     o2 6095   2.575   0.861   5.658 -0.1546  0.4563 -0.2548
  508poe    c31 6096   2.670   0.954   5.610 -0.1096  0.8384  0.5603
  509poe    c31 6097   5.363   3.172   5.009  0.1515  0.5922  0.1930
  509poe     o2 6098   5.238   3.151   4.949  0.2656 -0.0476  0.1801
  509poe    c23 6099   5.176   3.276   4.934  0.0060 -0.2232 -0.2365
  509poe    c23 6100   5.077   3.278   4.815  0.0004  0.3020 -0.2288
  509poe     o2 6101   5.141   3.193   4.722 -0.0770 -0.2337  0.2027
  509poe    c23 6102   5.080   3.191   4.595 -0.4630  0.7950  0.3671
  509poe    c23 6103   5.179   3.128   4.495 -0.6326  0.0348  0.6710
  509poe     o2 6104   5.243   3.027   4.570  0.2260 -0.0402 -0.1434
  509poe    c23 6105   5.378   3.001   4.539  0.2729 -0.4651  0.4167
  509poe    c23 6106   5.421   2.893   4.640 -0.0109 -0.7299  0.2555
  509poe     o2 6107   5.391   2.921   4.775  0.0996 -0.2315  0.1791
  509poe    c31 6108   5.480   2.842   4.852  0.0504 -0.2664  0.2006
  510poe    c31 6109   5.740   3.214   5.580  0.0860 -0.4734  0.1741
  510poe     o2 6110   5.838   3.156   5.497  0.3820  0.5138 -0.1728
  510poe    c23 6111   5.917   3.067   5.571  0.0017  0.4231  0.1310
  510poe    c23 6112   6.036   3.015   5.487 -0.2785 -0.4417  0.2559
  510poe     o2 6113   5.991   3.005   5.353  0.7071  1.0690 -0.2197
  510poe    c23 6114   6.096   2.980   5.262  0.3096  0.1525 -0.4410
  510poe    c23 6115   6.027   2.997   5.126 -0.2872  0.2031 -0.1386
  510poe     o2 6116   5.962   3.123   5.131 -0.2248  0.2311 -0.0312
  510poe    c23 6117   5.867   3.143   5.029 -0.0648  0.0896 -0.2104
  510poe    c23 6118   5.774   3.253   5.084 -0.2460 -0.0945 -0.1471
  510poe     o2 6119   5.741   3.212   5.215  0.3580  0.6157  0.2339
  510poe    c31 6120   5.623   3.286   5.232 -0.0402  0.0804 -0.1977
  511poe    c31 6121   1.072   1.394   6.294 -0.4666  0.0625 -0.1064
  511poe     o2 6122   1.039   1.269   6.349 -0.5131  0.0923 -0.0672
  511poe    c23 6123   0.991   1.282   6.481 -0.3282  0.3402 -0.0233
  511poe    c23 6124   1.026   1.159   6.567 -0.2090  0.2303 -0.2293
  511poe     o2 6125   0.981   1.049   6.490  0.3502  0.2503 -0.5908
  511poe    c23 6126   0.848   1.004   6.506  0.5413 -0.0982  0.0775
  511poe    c23 6127   0.817   0.945   6.367  0.4486 -0.1174  0.1062
  511poe     o2 6128   0.867   1.030   6.266  0.8594 -0.1580  0.2753
  511poe    c23 6129   0.822   0.997   6.136 -0.0419  0.1170  0.5122
  511poe    c23 6130   0.871   1.112   6.046 -0.0233 -0.9807 -0.9038
  511poe     o2 6131   1.001   1.140   6.092 -0.4775 -0.1055 -0.1232
  511poe    c31 6132   1.073   1.195   5.983  0.9066 -0.6647  0.4848
  512poe    c31 6133   3.940   2.050   3.027 -0.2248 -0.0330 -0.2519
  512poe     o2 6134   3.939   1.919   2.976 -0.7291 -0.0726 -0.1448
  512poe    c23 6135   3.836   1.912   2.880 -0.2564 -0.1742 -0.6472
  512poe    c23 6136   3.829   1.772   2.817 -0.4574 -0.4351 -0.0544
  512poe     o2 6137   3.838   1.674   2.917 -0.6053 -0.6022 -0.2051
  512poe    c23 6138   3.833   1.539   2.875  1.1543 -0.7874  0.0936
  512poe    c23 6139   3.785   1.461   2.998 -0.4116  0.5700  0.3812
  512poe     o2 6140   3.877   1.497   3.099  0.3457 -0.2359 -0.0040
  512poe    c23 6141   3.818   1.488   3.227  0.2729  0.0632 -0.0157
  512poe    c23 6142   3.908   1.569   3.323  0.2917 -0.2104  0.1986
  512poe     o2 6143   3.913   1.693   3.255 -0.7825 -0.0658  0.3714
  512poe    c31 6144   3.948   1.804   3.335  0.2507 -0.0147 -0.1438
  513poe    c31 6145   0.353   2.317   3.945  0.0676 -0.3173 -0.2852
  513poe     o2 6146   0.339   2.383   3.820 -0.2121  0.1773  0.0025
  513poe    c23 6147   0.422   2.322   3.724 -0.2710  0.3228 -0.1392
  513poe    c23 6148   0.460   2.429   3.620 -0.1924  0.4397  0.0095
  513poe     o2 6149   0.341   2.487   3.570 -0.4559  0.2042  0.3599
  513poe    c23 6150   0.272   2.433   3.460 -0.1063  0.0268  0.2252
  513poe    c23 6151   0.120   2.453   3.480 -0.0873  0.1964  0.2041
  513poe     o2 6152   0.103   2.433   3.619  0.0279  0.2953  0.2326
  513poe    c23 6153  -0.026   2.465   3.668 -0.1565  0.0993 -0.1206
  513poe    c23 6154  -0.034   2.432   3.818  0.4000 -0.6539 -0.2511
  513poe     o2 6155   0.074   2.500   3.878  0.2059 -0.4606 -0.1198
  513poe    c31 6156   0.048   2.511   4.016  0.4172 -0.4301 -0.0827
  514poe    c31 6157   3.269   0.537   5.680  0.2391  0.3414 -0.0698
  514poe     o2 6158   3.199   0.496   5.565  0.3362  0.1273 -0.0516
  514poe    c23 6159   3.098   0.594   5.562 -0.1567 -0.3797 -0.2254
  514poe    c23 6160   3.052   0.607   5.416 -0.1719  0.1924 -0.1738
  514poe     o2 6161   3.042   0.472   5.374  0.5137 -0.1559  0.7489
  514poe    c23 6162   2.922   0.423   5.319  0.5481  0.4604  0.1088
  514poe    c23 6163   2.954   0.275   5.291  0.4426  0.4951 -0.2004
  514poe     o2 6164   3.029   0.232   5.403 -0.4122 -0.1315  0.1432
  514poe    c23 6165   3.079   0.101   5.387  0.0473  0.0809 -0.1593
  514poe    c23 6166   3.188   0.090   5.495 -0.0282 -0.1261 -0.1040
  514poe     o2 6167   3.230   0.223   5.515  0.0950 -0.1289 -0.3489
  514poe    c31 6168   3.358   0.227   5.575 -0.0814  0.1700  0.0131
  515poe    c31 6169   2.332   3.058   5.061 -0.4920 -0.1942  0.0288
  515poe     o2 6170   2.454   3.118   5.098 -0.1650 -0.6701 -0.2770
  515poe    c23 6171   2.462   3.239   5.027 -0.2136 -0.1290  0.6228
  515poe    c23 6172   2.594   3.304   5.072 -0.1975  0.4777 -0.2825
  515poe     o2 6173   2.609   3.300   5.212  0.2863 -0.1262 -0.3479
  515poe    c23 6174   2.731   3.345   5.266  0.0540 -0.0833  0.1471
  515poe    c23 6175   2.725   3.309   5.415 -0.2899 -0.3896  0.0613
  515poe     o2 6176   2.686   3.173   5.420 -0.5855 -0.2958  0.3999
  515poe    c23 6177   2.657   3.122   5.548  0.3922 -0.2075  0.6642
  515poe    c23 6178   2.586   2.986   5.541  0.5389 -0.2559 -0.0126
  515poe     o2 6179   2.472   2.978   5.460  0.6781 -0.6768 -0.1722
  515poe    c31 6180   2.397   2.861   5.482  0.1148 -0.2341  0.3211
  516poe    c31 6181   4.733   2.349   3.239 -0.7034  0.2860  0.3641
  516poe     o2 6182   4.770   2.410   3.360 -0.7144  0.1740  0.4240
  516poe    c23 6183   4.885   2.346   3.411 -0.4208  0.2810 -0.0938
  516poe    c23 6184   4.932   2.460   3.503  0.1028  0.0089 -0.0222
  516poe     o2 6185   4.825   2.492   3.588  0.3038 -0.1206  0.2814
  516poe    c23 6186   4.870   2.612   3.648 -0.1713  0.1346  0.1323
  516poe    c23 6187   4.742   2.692   3.678 -0.4663 -0.2982  0.0426
  516poe     o2 6188   4.660   2.694   3.563  0.1077  0.2084 -0.3683
  516poe    c23 6189   4.521   2.698   3.588  0.1448 -0.1256 -0.0917
  516poe    c23 6190   4.466   2.686   3.444 -0.1113  0.1499 -0.0197
  516poe     o2 6191   4.536   2.587   3.372  0.0696  0.5558 -0.4010
  516poe    c31 6192   4.466   2.556   3.253 -0.1580  0.2739 -0.1940
  517poe    c31 6193   4.009   0.812   2.460 -0.0919  0.5787  0.0277
  517poe     o2 6194   4.108   0.811   2.360 -0.0340 -0.1534  0.0845
  517poe    c23 6195   4.084   0.699   2.278  0.7342 -0.2477 -0.0237
  517poe    c23 6196   4.205   0.668   2.188  0.3081 -1.1606 -0.2915
  517poe     o2 6197   4.317   0.672   2.273  0.0741  0.3187 -0.0359
  517poe    c23 6198   4.441   0.635   2.218 -0.1987 -1.5972  0.5845
  517poe    c23 6199   4.536   0.642   2.340 -0.0628 -0.4217  0.4206
  517poe     o2 6200   4.514   0.764   2.407  0.0549 -0.2513  0.1507
  517poe    c23 6201   4.564   0.767   2.538  0.0935 -0.1598  0.1341
  517poe    c23 6202   4.509   0.898   2.599 -0.0453 -0.1498 -0.0153
  517poe     o2 6203   4.374   0.916   2.562 -0.1358 -0.7120  0.0303
  517poe    c31 6204   4.314   1.026   2.626  0.3698 -0.2277 -0.3282
  518poe    c31 6205   5.605   1.639   0.756 -0.5253 -0.5586  0.0882
  518poe     o2 6206   5.629   1.549   0.862 -0.2455 -0.1181  0.4037
  518poe    c23 6207   5.552   1.594   0.971 -0.2558 -0.2246  0.4401
  518poe    c23 6208   5.557   1.508   1.099  0.1462  0.2464  0.7447
  518poe     o2 6209   5.666   1.424   1.065 -0.2390 -0.0438  0.2198
  518poe    c23 6210   5.707   1.331   1.162 -0.0567 -0.1904  0.0040
  518poe    c23 6211   5.852   1.302   1.120 -0.0483  0.0021 -0.1014
  518poe     o2 6212   5.848   1.281   0.980  0.3387  0.1077 -0.1310
  518poe    c23 6213   5.980   1.270   0.932  0.3810 -0.1692  0.0477
  518poe    c23 6214   5.986   1.313   0.785  0.5485 -0.1488  0.0609
  518poe     o2 6215   5.895   1.419   0.765 -0.0189 -0.6986 -0.2948
  518poe    c31 6216   5.916   1.454   0.630 -0.1742 -0.3966 -0.2414
  519poe    c31 6217   6.385   5.904   2.015  0.1135  0.0931 -0.0529
  519poe     o2 6218   6.337   5.830   1.905  0.0283 -0.1386  0.1379
  519poe    c23 6219   6.417   5.831   1.789  0.3585 -0.0525  0.3640
  519poe    c23 6220   6.378   5.715   1.696  0.2534 -0.3779  0.8124
  519poe     o2 6221   6.238   5.731   1.689  0.3211 -0.0529  0.1936
  519poe    c23 6222   6.169   5.625   1.626 -0.2443  0.8439 -0.7344
  519poe    c23 6223   6.019   5.646   1.654 -0.2072  0.3120 -0.1133
  519poe     o2 6224   6.005   5.671   1.792 -0.3063  0.6117 -0.1764
  519poe    c23 6225   5.907   5.765   1.831 -0.5375  0.1660  0.3326
  519poe    c23 6226   5.950   5.909   1.799  0.4696 -0.2348 -0.1825
  519poe     o2 6227   6.077   5.934   1.855  0.1628  0.2820  0.2927
  519poe    c31 6228   6.103   6.073   1.859 -0.2138  0.3601  0.1235
  520poe    c31 6229   6.561   3.306   3.153  0.1576  0.3860  0.0904
  520poe     o2 6230   6.672   3.258   3.226 -0.0033 -0.1091  0.0109
  520poe    c23 6231   6.761   3.356   3.275  0.1509 -0.1403 -0.2069
  520poe    c23 6232   6.864   3.305   3.377  0.1619  0.1776 -0.0601
  520poe     o2 6233   6.955   3.208   3.330  0.1239  0.1579 -0.0934
  520poe    c23 6234   7.061   3.208   3.423 -0.3037 -0.4800  0.4023
  520poe    c23 6235   7.160   3.098   3.379  0.5145  0.3456  0.1428
  520poe     o2 6236   7.078   2.992   3.337  0.5657  0.3580  0.0104
  520poe    c23 6237   7.156   2.878   3.307  0.2889  0.1435  0.0989
  520poe    c23 6238   7.059   2.771   3.254  0.0818  0.4384 -0.1221
  520poe     o2 6239   6.970   2.834   3.165  0.2778  0.3408 -0.3873
  520poe    c31 6240   6.905   2.728   3.097 -0.5632  0.0573  0.8289
  521poe    c31 6241   0.163   6.126   1.127 -0.0012 -0.0541  0.0366
  521poe     o2 6242   0.069   6.063   1.043  0.1943  0.3817 -0.5176
  521poe    c23 6243  -0.040   6.040   1.130  0.5037  0.1675 -0.1844
  521poe    c23 6244  -0.138   5.950   1.053  0.1892 -0.1743  0.6020
  521poe     o2 6245  -0.059   5.852   0.990 -0.0427  0.0463 -0.0457
  521poe    c23 6246  -0.130   5.765   0.906 -0.1683  0.4059 -0.3132
  521poe    c23 6247  -0.023   5.703   0.814 -0.3571 -0.1307 -0.1792
  521poe     o2 6248   0.058   5.810   0.770 -0.0986 -0.1785  0.1816
  521poe    c23 6249   0.188   5.758   0.749 -0.0122  0.0980  0.0389
  521poe    c23 6250   0.290   5.871   0.723  0.2385 -0.1650 -0.1206
  521poe     o2 6251   0.312   5.927   0.850  0.0421  0.3985 -0.3309
  521poe    c31 6252   0.404   6.034   0.837  0.1571  0.3683  0.2130
  522poe    c31 6253   1.527   1.661   2.098  0.2635  0.2445 -0.0346
  522poe     o2 6254   1.526   1.536   2.033 -0.2239  0.0663  0.3085
  522poe    c23 6255   1.643   1.511   1.958 -0.3792  0.2056  0.0200
  522poe    c23 6256   1.649   1.370   1.896  0.1914  0.4294 -0.4452
  522poe     o2 6257   1.698   1.279   1.992 -0.4722  0.0555 -0.4509
  522poe    c23 6258   1.732   1.153   1.939  0.3482 -0.0645  0.3422
  522poe    c23 6259   1.877   1.142   1.887  0.2569  0.1795  0.0336
  522poe     o2 6260   1.978   1.149   1.986 -0.2728 -0.2251  0.6087
  522poe    c23 6261   2.092   1.080   1.940 -0.3597 -0.0440  0.1113
  522poe    c23 6262   2.197   1.088   2.053 -0.3800  0.0044  0.1269
  522poe     o2 6263   2.208   1.225   2.084 -0.3827  0.0472 -0.0578
  522poe    c31 6264   2.327   1.236   2.158 -0.1352 -0.1926 -0.4166
  523poe    c31 6265   1.821   0.188   6.464 -0.5316  0.8418 -0.0398
  523poe     o2 6266   1.777   0.221   6.594 -0.0406 -0.2459  0.4144
  523poe    c23 6267   1.831   0.350   6.610  0.1380 -0.2307 -0.3042
  523poe    c23 6268   1.814   0.399   6.755  0.7531 -0.0607 -0.2884
  523poe     o2 6269   1.834   0.281   6.829 -0.0193  0.1011  0.1890
  523poe    c23 6270   1.820   0.293   6.968 -0.3184  0.5044  0.1242
  523poe    c23 6271   1.840   0.148   7.015  0.0765  0.5087 -0.0245
  523poe     o2 6272   1.758   0.079   6.923 -0.2010  0.4033  0.2949
  523poe    c23 6273   1.733  -0.056   6.954  0.6794  0.0941 -0.2890
  523poe    c23 6274   1.658  -0.114   6.832 -0.0476  0.3667  0.0226
  523poe     o2 6275   1.726  -0.060   6.721  0.2281 -0.2384 -0.1090
  523poe    c31 6276   1.660  -0.105   6.604 -0.2346 -0.1418  0.1102
  524poe    c31 6277   3.126   5.915   6.086 -0.4734  0.2477 -0.0510
  524poe     o2 6278   3.189   6.032   6.040 -0.8007  0.4195 -0.0653
  524poe    c23 6279   3.225   6.119   6.145  0.9035 -0.3504  0.0182
  524poe    c23 6280   3.279   6.243   6.072 -0.5048 -0.0894 -0.6047
  524poe     o2 6281   3.359   6.213   5.960  0.0197 -0.6850 -0.0780
  524poe    c23 6282   3.411   6.327   5.895 -0.0190 -0.5655  0.0981
  524poe    c23 6283   3.515   6.262   5.801 -0.0184 -0.3473 -0.0535
  524poe     o2 6284   3.450   6.154   5.737 -0.4804  0.3651 -0.8028
  524poe    c23 6285   3.535   6.052   5.688 -0.5506 -0.3823  0.5749
  524poe    c23 6286   3.448   5.935   5.639  0.2646 -0.7841  0.0705
  524poe     o2 6287   3.357   5.916   5.746  0.2992 -0.0774  0.2277
  524poe    c31 6288   3.315   5.782   5.745  0.0561 -0.0010 -0.0691
  525poe    c31 6289   3.962   5.189   2.887 -0.0144  0.5405  0.7325
  525poe     o2 6290   3.965   5.057   2.936 -0.3398  0.2475 -0.0222
  525poe    c23 6291   3.978   5.060   3.076  0.2196 -0.2474 -0.0588
  525poe    c23 6292   3.884   4.953   3.134  0.0465  0.5073  1.0848
  525poe     o2 6293   3.750   4.979   3.097  0.1111 -0.3958  0.1874
  525poe    c23 6294   3.660   4.885   3.150 -0.5309  0.0129 -0.1686
  525poe    c23 6295   3.514   4.915   3.109 -0.6315  0.4833  0.5273
  525poe     o2 6296   3.523   4.950   2.973 -0.0815 -0.4989  0.3039
  525poe    c23 6297   3.404   5.003   2.920  0.0913 -0.1838  0.2331
  525poe    c23 6298   3.425   5.019   2.768  0.0339 -0.6248  0.1792
  525poe     o2 6299   3.555   5.073   2.757 -0.3313  0.2345 -0.0137
  525poe    c31 6300   3.574   5.128   2.629 -0.1731  0.3308  0.0517
  526poe    c31 6301   3.424   6.228   2.345 -0.0917 -0.9566 -0.4587
  526poe     o2 6302   3.384   6.249   2.211 -0.3569 -0.7557 -0.3501
  526poe    c23 6303   3.265   6.324   2.204  0.0929  0.0090  0.0916
  526poe    c23 6304   3.219   6.355   2.060 -0.2976 -0.6470  0.0719
  526poe     o2 6305   3.220   6.235   1.987  0.8776 -0.3408 -0.4387
  526poe    c23 6306   3.182   6.255   1.852  0.4919  0.3106 -0.2341
  526poe    c23 6307   3.266   6.155   1.771  0.0731  0.1129 -0.4250
  526poe     o2 6308   3.283   6.039   1.849  0.3466  0.3125 -0.1878
  526poe    c23 6309   3.383   5.958   1.791  0.2174  0.3230 -0.4264
  526poe    c23 6310   3.460   5.893   1.907 -0.3271 -0.2012 -0.3526
  526poe     o2 6311   3.478   6.005   1.991  0.0864 -0.0214 -0.6749
  526poe    c31 6312   3.587   5.976   2.076 -0.0583  0.0775 -0.4543
  527poe    c31 6313   0.817   0.064   5.097  0.9897  0.3134 -0.1052
  527poe     o2 6314   0.816   0.082   4.957  0.5785  0.3452 -0.0998
  527poe    c23 6315   0.708   0.009   4.903  0.4586  0.1631  0.3802
  527poe    c23 6316   0.688   0.086   4.771  0.0806  0.0771  0.3865
  527poe     o2 6317   0.814   0.087   4.708 -0.0088 -0.3093  0.2035
  527poe    c23 6318   0.814   0.132   4.575  0.3939 -0.2479  0.2216
  527poe    c23 6319   0.961   0.157   4.535  0.2208  0.2361 -0.1245
  527poe     o2 6320   1.024   0.197   4.655 -0.2893 -0.4098  0.3684
  527poe    c23 6321   1.164   0.193   4.639 -0.3256 -0.2262  0.0021
  527poe    c23 6322   1.202   0.203   4.788  0.6002 -0.5186 -0.2085
  527poe     o2 6323   1.120   0.124   4.871  0.3934 -0.2401 -0.1473
  527poe    c31 6324   1.160   0.147   5.004  0.6471  0.3435 -0.3232
  528poe    c31 6325   4.643   4.794   0.117  0.1656 -0.2473  0.2926
  528poe     o2 6326   4.781   4.820   0.114  0.0933  0.0861 -0.3724
  528poe    c23 6327   4.828   4.747   0.225 -0.6617  0.0809 -0.0505
  528poe    c23 6328   4.979   4.778   0.217 -0.7994  0.6844 -0.3751
  528poe     o2 6329   4.995   4.915   0.191  0.0201  0.5176 -0.7890
  528poe    c23 6330   5.133   4.932   0.168  0.1707 -0.0466 -0.2987
  528poe    c23 6331   5.149   5.059   0.084  0.4856 -0.2491 -0.5459
  528poe     o2 6332   5.027   5.064   0.013  0.2096  0.2542 -0.0461
  528poe    c23 6333   5.023   5.174  -0.076  0.4422  0.3298  0.0347
  528poe    c23 6334   4.921   5.108  -0.172  0.3494  0.4209  0.0707
  528poe     o2 6335   4.819   5.036  -0.107  0.4471 -0.2552 -0.5165
  528poe    c31 6336   4.749   4.962  -0.205  0.0611 -0.6085  0.0141
  529poe    c31 6337   0.657   2.873   1.392 -0.4977 -0.0527 -0.2737
  529poe     o2 6338   0.571   2.775   1.446  0.1362 -0.3776  0.1636
  529poe    c23 6339   0.523   2.814   1.573 -0.3934 -0.1377 -0.1049
  529poe    c23 6340   0.443   2.694   1.627  0.0369 -0.2471  0.2946
  529poe     o2 6341   0.360   2.656   1.520  0.1477  0.2267  0.0359
  529poe    c23 6342   0.312   2.526   1.549 -0.3167  0.4214  0.1542
  529poe    c23 6343   0.245   2.476   1.420  0.0497  0.3088  0.0037
  529poe     o2 6344   0.335   2.508   1.317 -0.0179  0.0930 -0.1240
  529poe    c23 6345   0.358   2.401   1.229  0.0500  0.3418 -0.4118
  529poe    c23 6346   0.454   2.470   1.131  0.4458 -0.2915 -0.4799
  529poe     o2 6347   0.533   2.579   1.176 -0.0986  0.0149 -0.2507
  529poe    c31 6348   0.638   2.595   1.083  0.5495 -0.5165  0.3744
  530poe    c31 6349   0.096   5.730   2.161  0.5294 -0.2041  0.1535
  530poe     o2 6350   0.058   5.785   2.285  0.0789  0.3892 -0.2448
  530poe    c23 6351  -0.080   5.776   2.314  0.1051  0.3550 -0.1333
  530poe    c23 6352  -0.108   5.856   2.442 -0.2058  0.1027 -0.0406
  530poe     o2 6353  -0.038   5.979   2.435  0.0429 -0.0037  0.5282
  530poe    c23 6354  -0.032   6.048   2.558 -0.4371  0.0388  0.5261
  530poe    c23 6355   0.057   6.174   2.548 -0.7656  0.2138 -0.3605
  530poe     o2 6356   0.176   6.149   2.478 -0.6393 -0.0485 -0.0568
  530poe    c23 6357   0.281   6.091   2.553 -0.5460 -0.3540 -0.4177
  530poe    c23 6358   0.373   6.021   2.452  0.1625 -0.4169  0.2626
  530poe     o2 6359   0.301   5.906   2.411 -0.0771 -0.0568 -0.3336
  530poe    c31 6360   0.390   5.820   2.343  0.2732 -0.3956  0.5398
  531poe    c31 6361   3.713   5.203   0.042 -0.2598 -0.4085 -1.0974
  531poe     o2 6362   3.687   5.320  -0.033  0.4672  0.4372 -0.0730
  531poe    c23 6363   3.723   5.285  -0.165  0.1968  0.3658 -0.1291
  531poe    c23 6364   3.650   5.390  -0.251  0.4447  0.4380 -0.2529
  531poe     o2 6365   3.541   5.443  -0.179 -0.0101 -0.2339 -0.4346
  531poe    c23 6366   3.546   5.583  -0.193 -0.2506 -0.1626  0.2084
  531poe    c23 6367   3.619   5.653  -0.076 -0.0100 -0.3903  0.1942
  531poe     o2 6368   3.567   5.594   0.041 -0.4042 -0.0070  0.2169
  531poe    c23 6369   3.626   5.658   0.152  0.3850 -0.3511  0.0072
  531poe    c23 6370   3.562   5.601   0.280 -0.2005 -0.0716 -0.1525
  531poe     o2 6371   3.585   5.465   0.251 -0.1773 -0.1034  0.0141
  531poe    c31 6372   3.533   5.394   0.362 -0.4282  0.2466  0.1214
  532poe    c31 6373   5.189   1.427   0.502  0.7953 -0.2053  0.0643
  532poe     o2 6374   5.127   1.448   0.377  0.1690  0.0781  0.4217
  532poe    c23 6375   5.120   1.325   0.308  0.8882 -0.0498  0.5780
  532poe    c23 6376   5.021   1.336   0.191  0.7952 -0.1720  0.6454
  532poe     o2 6377   5.056   1.453   0.121 -0.0543 -0.2042  0.1594
  532poe    c23 6378   4.939   1.515   0.073  0.3230  0.4193  0.0326
  532poe    c23 6379   4.985   1.662   0.064  0.3734  0.3911 -0.1905
  532poe     o2 6380   5.038   1.701   0.189 -0.3666 -0.0562  0.2736
  532poe    c23 6381   5.111   1.819   0.164 -0.1168 -0.2449  0.1145
  532poe    c23 6382   5.196   1.846   0.289  0.1042  0.3634 -0.1640
  532poe     o2 6383   5.262   1.729   0.332 -0.2455  0.3480  0.3367
  532poe    c31 6384   5.355   1.767   0.431  0.4405 -0.4275 -0.0016
  533poe    c31 6385   3.940   3.859   4.989 -0.0144  0.4564 -0.0330
  533poe     o2 6386   3.864   3.762   4.920  0.3904  0.0970  0.0221
  533poe    c23 6387   3.912   3.734   4.790 -0.0296  0.2500 -0.1664
  533poe    c23 6388   3.791   3.675   4.716 -0.1822  0.2650  0.0702
  533poe     o2 6389   3.717   3.589   4.801 -0.1419  0.4332  0.2760
  533poe    c23 6390   3.594   3.547   4.747  0.0662  0.0433  0.1005
  533poe    c23 6391   3.517   3.470   4.857 -0.1766 -0.1707 -0.2183
  533poe     o2 6392   3.539   3.553   4.969 -0.4026 -0.4366  0.0229
  533poe    c23 6393   3.512   3.490   5.092 -0.4959 -0.0281  0.2130
  533poe    c23 6394   3.577   3.590   5.189 -0.3562 -0.0284  0.1200
  533poe     o2 6395   3.703   3.617   5.132 -0.1865 -0.5705  0.2373
  533poe    c31 6396   3.807   3.613   5.227 -0.2101 -0.4051  0.2686
  534poe    c31 6397   4.540   5.829   0.815  0.1930 -0.1235 -0.3155
  534poe     o2 6398   4.624   5.810   0.703  0.4543  0.2569 -0.1893
  534poe    c23 6399   4.544   5.756   0.599 -0.0596 -0.3678  0.5148
  534poe    c23 6400   4.633   5.669   0.509 -0.4891  0.2543 -0.5354
  534poe     o2 6401   4.750   5.743   0.484 -0.0436 -0.0959  0.4463
  534poe    c23 6402   4.843   5.665   0.410 -0.1090  0.1441  0.1061
  534poe    c23 6403   4.950   5.760   0.353 -0.0863  0.1116  0.0946
  534poe     o2 6404   4.985   5.842   0.462 -0.0915  0.1059  0.1006
  534poe    c23 6405   4.951   5.976   0.436  0.2935  0.1359 -0.2502
  534poe    c23 6406   4.947   6.046   0.573 -0.4448  0.1811 -0.2921
  534poe     o2 6407   4.848   5.998   0.661  0.5531 -0.4482  0.5043
  534poe    c31 6408   4.840   6.091   0.767  0.3102  0.2326 -0.0983
  535poe    c31 6409   0.767   2.833   2.918  0.3114 -0.4643  0.3547
  535poe     o2 6410   0.900   2.810   2.957  0.5205  0.0047 -0.0747
  535poe    c23 6411   0.942   2.905   3.053  0.2149  0.3334 -0.2638
  535poe    c23 6412   1.080   2.873   3.114 -0.0167  0.3575  0.2841
  535poe     o2 6413   1.085   2.733   3.095  0.2548  0.4459 -0.3348
  535poe    c23 6414   1.214   2.681   3.118  0.0134  0.0006  0.0232
  535poe    c23 6415   1.213   2.547   3.044  0.2815 -0.1839  0.3539
  535poe     o2 6416   1.142   2.562   2.923  0.3953  0.0975  0.3227
  535poe    c23 6417   1.146   2.445   2.846 -0.4705  0.3856 -0.1731
  535poe    c23 6418   1.062   2.481   2.722  0.1356  0.8025 -0.4685
  535poe     o2 6419   0.943   2.539   2.771  0.0362 -0.1297  0.4267
  535poe    c31 6420   0.840   2.538   2.675  0.0307  0.4755  0.4220
  536poe    c31 6421   6.130   6.520   3.100 -0.1933  0.2048 -0.0706
  536poe     o2 6422   6.070   6.393   3.103 -0.2016  0.2126  0.1022
  536poe    c23 6423   5.991   6.366   2.989 -0.3170  0.2647  0.1694
  536poe    c23 6424   5.987   6.212   2.986  0.0900  0.2596 -0.1704
  536poe     o2 6425   6.114   6.162   3.022 -0.2458 -0.3934  0.1098
  536poe    c23 6426   6.129   6.023   3.002  0.2657 -0.2835 -0.2813
  536poe    c23 6427   6.252   5.985   3.086  0.2249 -0.8047 -0.4518
  536poe     o2 6428   6.254   6.058   3.207  0.5342 -0.4777 -0.6538
  536poe    c23 6429   6.378   6.058   3.274 -0.0284  0.1456  0.4148
  536poe    c23 6430   6.359   6.162   3.386 -0.2010  0.1231  0.4063
  536poe     o2 6431   6.297   6.279   3.336 -0.5264 -0.1547  0.1495
  536poe    c31 6432   6.330   6.388   3.420 -0.5560 -0.0297  0.0001
  537poe    c31 6433   5.834   1.823   1.693 -0.6210 -0.3045 -0.9808
  537poe     o2 6434   5.739   1.907   1.755  0.1299 -0.1011 -0.0845
  537poe    c23 6435   5.807   1.976   1.857 -0.2598  0.4157 -0.1655
  537poe    c23 6436   5.693   2.053   1.926 -0.2225  0.0516  0.3068
  537poe     o2 6437   5.602   1.952   1.962 -0.4466  0.0675 -0.2164
  537poe    c23 6438   5.482   2.004   2.015 -0.4218  0.0045 -0.0995
  537poe    c23 6439   5.375   1.894   2.010  0.0662 -0.4905  0.2124
  537poe     o2 6440   5.390   1.822   1.890  0.2222 -0.0776 -0.0162
  537poe    c23 6441   5.419   1.687   1.921  0.8688  0.0237 -0.1755
  537poe    c23 6442   5.451   1.609   1.792  0.1531 -0.2238 -0.2067
  537poe     o2 6443   5.528   1.694   1.709 -0.5257  0.1953 -0.4186
  537poe    c31 6444   5.542   1.635   1.582  0.4440  0.0498 -0.2535
  538poe    c31 6445   0.554   5.947   4.089 -0.8356  0.0270 -0.6660
  538poe     o2 6446   0.675   5.950   4.018  0.0514  0.1817  0.8139
  538poe    c23 6447   0.708   6.085   3.993  0.1284  0.0007 -0.0876
  538poe    c23 6448   0.854   6.093   3.943 -0.0112  0.2317 -0.4645
  538poe     o2 6449   0.862   5.999   3.838  0.1884 -0.4997  0.1971
  538poe    c23 6450   0.988   5.994   3.775 -0.0831  0.2074 -0.4076
  538poe    c23 6451   0.995   5.855   3.709  0.3595  0.0436 -0.0172
  538poe     o2 6452   0.926   5.764   3.792 -0.5130  0.5677 -0.1576
  538poe    c23 6453   0.916   5.642   3.723  0.2221  0.1979  0.3796
  538poe    c23 6454   0.829   5.561   3.820  0.2996  0.0432  0.3215
  538poe     o2 6455   0.737   5.649   3.880  0.5644  0.0381  0.7375
  538poe    c31 6456   0.647   5.580   3.964  0.7593 -0.5234  0.4903
  539poe    c31 6457   0.728   1.916   5.633 -0.2335  0.3714  0.0343
  539poe     o2 6458   0.727   1.784   5.583 -0.4615  0.1350  0.6520
  539poe    c23 6459   0.827   1.704   5.642 -0.4922 -0.4356 -0.0557
  539poe    c23 6460   0.856   1.583   5.551 -0.2288 -0.9333  0.6843
  539poe     o2 6461   0.722   1.554   5.515 -0.1841  0.1144 -0.3739
  539poe    c23 6462   0.718   1.441   5.432  0.3143  0.0777 -0.3557
  539poe    c23 6463   0.581   1.436   5.361  0.1059  0.3994  0.0198
  539poe     o2 6464   0.543   1.561   5.307  0.0279  0.2499 -0.2715
  539poe    c23 6465   0.402   1.564   5.306  0.0145 -0.1369  0.1663
  539poe    c23 6466   0.356   1.709   5.330  0.3125  0.0126 -0.1508
  539poe     o2 6467   0.424   1.761   5.442 -0.1556  0.1761  0.0603
  539poe    c31 6468   0.369   1.879   5.497 -0.3603  0.1998 -0.1920
  540poe    c31 6469   3.653   1.254   3.478 -0.2171  0.1183 -0.1421
  540poe     o2 6470   3.531   1.286   3.415 -0.3483 -0.1274 -0.0115
  540poe    c23 6471   3.495   1.222   3.294 -0.0741 -0.6565  0.1828
  540poe    c23 6472   3.385   1.313   3.237  0.2792 -0.4261 -0.1403
  540poe     o2 6473   3.305   1.340   3.350  0.1213 -0.5334 -0.2262
  540poe    c23 6474   3.184   1.403   3.315 -0.1537 -0.4628  0.8150
  540poe    c23 6475   3.125   1.450   3.449 -0.3613  0.7481  0.3094
  540poe     o2 6476   3.223   1.474   3.548  0.5294  0.1027 -0.4093
  540poe    c23 6477   3.261   1.608   3.568  0.0828  0.2091 -0.2857
  540poe    c23 6478   3.395   1.603   3.644 -0.0887 -0.4062 -0.0194
  540poe     o2 6479   3.480   1.506   3.588  0.1890 -0.2865  0.1948
  540poe    c31 6480   3.596   1.517   3.667  0.1199  0.0080  0.2553
  541lim     li 6481   0.537   4.248   4.375 -0.6163 -0.4493 -0.2418
  542lim     li 6482   0.904   3.546   3.469 -1.0112  1.0065 -0.5503
  543lim     li 6483   0.382   1.533   4.746  0.5461 -0.3666  0.0368
  544lim     li 6484   4.120   1.942   0.494  0.1967 -0.2492  0.1845
  545lim     li 6485   2.394   5.628   5.027  0.9885  0.9519 -0.6498
  546lim     li 6486   5.730   5.151   3.683 -0.0758 -1.4505 -0.3041
  547lim     li 6487   1.307   1.362   4.087  0.3776  0.7346  0.1924
  548lim     li 6488   0.765   3.147   0.716 -0.1042  0.4515  0.8623
  549lim     li 6489   4.049   4.595   6.134 -0.1226 -0.0157  1.0819
  550lim     li 6490   2.465   5.654   2.725 -0.4184  0.5285 -0.1445
  551lim     li 6491   5.768   6.504   5.440  0.5097  0.1991  1.0212
  552lim     li 6492   1.481   5.339   1.006 -0.2829  0.2159 -0.0659
  553lim     li 6493   6.129   5.313   3.411  0.1989  0.0087 -0.7383
  554lim     li 6494   6.509   1.557   2.993  0.0302  0.0190  0.1521
  555lim     li 6495   0.928   3.418   1.332  0.3062 -0.4687 -0.7445
  556lim     li 6496   4.861   6.251   3.393 -1.0012 -0.1408 -0.0126
  557lim     li 6497   5.033   5.073   2.779  0.5667 -0.4784 -0.6001
  558lim     li 6498   0.822   5.268   4.445  0.5681 -0.2464 -0.1247
  559lim     li 6499   5.720   3.688   1.434  0.0875  0.6379 -0.0192
  560lim     li 6500   0.358   4.845   0.142 -0.1940  0.6027  1.2668
  561lim     li 6501   5.640   2.589   6.197  1.7959  0.2665 -0.3452
  562lim     li 6502   6.286   0.596   5.773 -0.5448  0.8787  0.6667
  563lim     li 6503   0.913   2.643   5.546  0.6230  0.1094 -0.3604
  564lim     li 6504   1.680   4.461   2.197  0.2830 -0.5414 -0.5172
  565lim     li 6505   6.396   6.476   4.407  0.5190  0.0909  0.5189
  566lim     li 6506   2.861   4.429   2.221 -0.7020  0.0215  0.4234
  567lim     li 6507   0.274   3.016   3.258  0.2077 -0.1963  0.1688
  568lim     li 6508   3.029   3.772   0.175 -0.3524 -0.8989  0.1970
  569lim     li 6509   4.378   0.842   6.248  1.0669 -0.4091  0.5864
  570lim     li 6510   1.548   3.256   0.011 -2.1795 -0.2669 -0.5709
  571lim     li 6511   4.587   4.324   3.627 -0.3967 -0.5492 -0.2093
  572lim     li 6512   0.832   1.926   6.205 -0.9402 -0.8687  0.8650
  573lim     li 6513   4.707   4.615   4.240 -0.9076 -0.6045 -0.2307
  574lim     li 6514   5.641   0.568   0.824 -0.1594 -0.5868  0.1820
  575lim     li 6515   3.118   1.665   5.538  0.2974 -0.1358 -0.4307
  576lim     li 6516   3.101   4.366   6.327  0.5043 -0.1245 -0.6791
  577lim     li 6517   0.438   2.075   0.475  0.3684  0.3410 -0.5662
  578lim     li 6518   1.475   6.394   4.148  1.3138  0.2057 -0.5467
  579lim     li 6519   3.360   5.715   2.693  0.9360 -1.3370  0.7477
  580lim     li 6520   0.490   1.688   3.870 -0.2657  0.4754  0.3348
  581lim     li 6521   3.868   1.167   5.723 -0.1676  0.2061  0.4904
  582lim     li 6522   4.140   0.380   4.069  0.5289 -0.2453 -0.1812
  583lim     li 6523   5.888   3.144   5.299 -0.0583  0.9011  0.3183
  584lim     li 6524   1.071   0.503   2.384 -0.3132  0.5450  1.4302
  585lim     li 6525   5.070   6.589   1.088 -0.3501 -0.2566 -0.7884
  586lim     li 6526   0.063   5.957   0.904  0.9811 -0.4219 -1.1974
  587lim     li 6527   2.649   3.570   4.568  0.7206  0.3709  0.6796
  588lim     li 6528   2.734   5.732   1.622  0.2935 -0.3782 -1.1887
  589lim     li 6529   4.735   1.831   0.684  1.0652 -1.0707  0.6461
  590lim     li 6530   3.720   2.954   4.253  0.0672  0.3950 -0.8354
  591lim     li 6531   3.157   0.353   5.425  0.4443 -1.0228  0.2547
  592lim     li 6532   3.673   2.110   5.002  0.2837 -0.1032 -0.5602
  593lim     li 6533   2.517   1.525   6.351 -0.2268  0.6510 -0.5163
  594lim     li 6534   4.478   5.221   3.509 -0.0939 -0.3103 -0.9106
  595lim     li 6535   3.160   0.493   1.127  0.2218 -0.0644  0.5907
  596lim     li 6536   1.640   2.928   5.717 -0.3846  0.5702 -0.9433
  597lim     li 6537   6.541   4.060   1.461  0.3166 -0.4062 -0.4861
  598lim     li 6538   0.918   0.881   4.393  0.2579 -1.0227 -0.1387
  599lim     li 6539   2.029   6.079   0.890 -0.2457  0.1651  0.1919
  600lim     li 6540   4.489   2.658   6.130  0.5135 -0.9022  0.4426
  601lim     li 6541   5.074   4.560   3.232 -0.6914  0.7486  0.1823
  602lim     li 6542   6.344   6.014   0.284  0.0158  1.7381 -0.0669
  603lim     li 6543   0.461   2.655   1.355 -0.0969  0.3816 -0.6564
  604lim     li 6544   3.745   4.630   0.924  0.0267  0.3764  0.0656
  605lim     li 6545   6.068   2.161   3.598 -0.6855  0.8145  0.0361
  606lim     li 6546   3.984   0.786   3.170  0.1624 -0.5819 -0.5514
  607lim     li 6547   5.046   5.773   2.259  1.3223 -0.1765  0.3583
  608lim     li 6548   6.403   4.228   3.730 -0.0180 -1.3629  0.6080
  609lim     li 6549   4.312   6.068   2.428  0.5206 -0.0328  0.0359
  610lim     li 6550   1.881   3.475   2.679  1.5414 -0.1241 -0.4909
  611lim     li 6551   6.403   2.536   5.523 -0.5136  0.7129  0.3010
  612lim     li 6552   3.312   1.302   0.452  0.5011 -0.4602 -0.2630
  613lim     li 6553   2.462   1.931   2.279  0.5503 -0.8564  0.2010
  614lim     li 6554   1.079   1.110   3.272 -0.9613  0.7536 -1.1185
  615lim     li 6555   6.188   1.419   5.189  0.4378  0.2501 -0.7712
  616lim     li 6556   3.904   6.595   1.259 -0.3349  0.0479  0.5206
  617lim     li 6557   5.227   2.457   0.557  0.1139  0.0561  0.6933
  618lim     li 6558   5.644   1.258   6.634 -0.3676 -0.6569  1.4783
  619lim     li 6559   5.985   1.749   2.576 -0.3501 -0.7812 -0.1455
  620lim     li 6560   3.681   5.005   2.917  0.1386 -0.5159 -0.1788
  621lim     li 6561   3.577   0.789   0.745 -0.6436  0.5840  0.1139
  622lim     li 6562   1.724   1.490   2.586 -0.7413  0.8056 -0.3226
  623lim     li 6563   3.962   2.157   4.055 -0.0873 -0.1106 -0.5311
  624lim     li 6564   5.706   5.621   0.941  0.1868  0.2301 -0.6004
  625lim     li 6565   2.492   5.123   2.074  0.6389  0.3044  0.3527
  626lim     li 6566   4.496   3.119   0.271 -0.6923 -0.5565 -0.4429
  627lim     li 6567   2.341   0.889   0.144 -0.1222  1.4750 -0.2983
  628lim     li 6568   3.185   1.601   1.535 -0.1929 -0.4052 -0.9670
  629lim     li 6569   4.883   4.515   6.127  0.2211 -0.0750 -0.0036
  630lim     li 6570   1.946   3.409   4.085  0.2721  0.6845  0.3204
  631lim     li 6571   4.189   6.331   4.368 -1.1122 -0.1565 -0.5037
  632lim     li 6572   3.499   3.679   2.587  0.7211  0.1186 -0.3956
  633lim     li 6573   1.886   2.441   1.635 -0.0308  0.2488  0.7805
  634lim     li 6574   1.134   5.302   0.165  0.0232 -0.2943  0.0261
  635lim     li 6575   2.012   2.611   2.524 -0.4832  0.3087  0.3088
  636lim     li 6576   1.253   5.760   3.076  0.1708 -0.0533  0.0206
  637lim     li 6577   3.130   4.475   1.806 -0.9780 -0.0781  0.5753
  638lim     li 6578   3.028   3.588   1.501  0.4793  0.2344 -0.0334
  639lim     li 6579   3.871   3.334   1.902  0.0448 -0.9790  1.7196
  640lim     li 6580   4.567   1.250   5.290  0.6207  0.6717 -1.1485
  641lim     li 6581   2.320   3.203   1.237 -0.0278 -0.0120 -0.0693
  642lim     li 6582   6.081   0.521   6.612 -0.1076 -0.4513  0.0232
  643lim     li 6583   4.903   6.006   4.175  0.5791  0.4004 -0.1164
  644lim     li 6584   1.802   0.118   0.114 -0.2033 -0.6198 -0.2130
  645lim     li 6585   1.793   4.708   4.082 -0.3905 -0.5559 -0.8885
  646lim     li 6586   4.555   1.068   3.392  1.0676  0.3273 -0.7051
  647lim     li 6587   4.487   2.492   1.508  0.7175 -0.4485  1.0126
  648lim     li 6588   1.570   0.425   3.563 -0.7526  0.4479  1.7880
  649lim     li 6589   1.614   5.188   1.838 -0.2889  0.3164 -0.3440
  650lim     li 6590   6.068   5.854   5.729 -0.4077  0.3234 -0.5663
  651lim     li 6591   0.993   1.055   1.893 -0.7506 -1.0603  0.7873
  652lim     li 6592   0.223   0.178   0.988  0.7684 -0.0481  0.5597
  653lim     li 6593   4.658   3.157   3.142 -0.0362 -0.0237  0.3284
  654lim     li 6594   6.091   3.313   3.505  0.2456 -0.4118  1.2418
  655lim     li 6595   2.875   3.847   5.718  1.2084 -0.3189  0.4575
  656lim     li 6596   3.580   0.347   1.993 -0.3272 -0.7927  0.3648
  657lim     li 6597   2.576   6.352   2.180 -0.4195  0.3050 -0.1136
  658lim     li 6598   4.432   3.154   5.069 -0.6188  0.6026 -0.0665
  659lim     li 6599   6.500   5.545   4.506 -0.7668  0.3949 -0.4075
  660lim     li 6600   0.888   0.193   6.110  1.4099 -1.2314 -0.1627
  661lim     li 6601   0.529   0.870   3.165 -0.0999 -0.6546  0.2055
  662lim     li 6602   5.558   1.857   1.788 -0.0793  0.6694 -0.4774
  663lim     li 6603   3.924   1.684   3.062  0.5450 -0.9207 -0.9369
  664lim     li 6604   6.159   4.333   5.219 -0.1920  0.2013 -0.2937
  665lim     li 6605   4.227   6.578   3.122  0.0291  0.0076 -0.5254
  666lim     li 6606   6.260   1.540   5.876  0.9596 -0.0620 -0.1865
  667lim     li 6607   4.869   4.981   0.069 -0.7603  0.3626 -0.1086
  668lim     li 6608   3.695   5.420   5.756  0.2195  0.1220 -0.1847
  669lim     li 6609   5.053   3.776   2.050  0.2064  1.0633 -0.9607
  670lim     li 6610   0.278   5.525   1.549 -0.4781 -0.1528 -0.5990
  671lim     li 6611   2.093   1.797   4.625  0.5115  0.4231 -0.0124
  672lim     li 6612   4.166   0.323   0.724 -0.2342  0.2217 -0.0385
  673lim     li 6613   5.846   3.860   0.335  1.0753 -0.0145 -0.4897
  674lim     li 6614   4.510   2.857   4.204 -0.3856  0.2285 -0.6337
  675lim     li 6615   4.091   5.843   1.539 -0.0124  1.0820 -0.1036
  676lim     li 6616   2.750   2.266   5.442 -0.3230 -0.1612 -1.0673
  677lim     li 6617   6.063   2.929   0.145 -0.9939  0.1549  0.6418
  678lim     li 6618   4.853   6.456   6.077 -0.7741 -0.8417  0.7982
  679lim     li 6619   0.108   3.092   2.658 -0.5403  1.3429 -1.0245
  680lim     li 6620   2.650   3.486   2.094 -0.5150 -1.2820  0.4979
  681lim     li 6621   1.160   2.472   0.225 -1.2212 -0.7080 -0.1496
  682lim     li 6622   4.230   2.965   0.903 -1.5532  1.2827  0.0020
  683lim     li 6623   2.084   3.586   5.349 -1.3690 -0.3738 -0.8915
  684lim     li 6624   2.300   2.703   6.139  0.7753 -0.5522  0.3066
  685lim     li 6625   1.228   4.503   0.068 -0.1247  0.1907 -0.2689
  686lim     li 6626   1.314   1.976   5.576 -0.5863 -0.4875  0.0214
  687lim     li 6627   4.341   3.694   4.341  0.8072  0.5204  0.1877
  688lim     li 6628   3.189   3.971   4.859 -1.2947 -0.4453 -0.2857
  689lim     li 6629   1.113   3.250   4.093 -0.4959 -0.2842  0.2013
  690lim     li 6630   0.195   0.967   4.044  0.3283 -0.0296  0.0691
  691lim     li 6631   3.384   1.372   3.501 -0.4635  0.0007 -0.6393
  692lim     li 6632   4.376   3.880   5.327 -0.9371 -1.1623 -0.1929
  693lim     li 6633   3.045   5.322   6.375  0.4183 -0.1959  0.7596
  694lim     li 6634   1.253   4.335   0.976 -0.7584 -0.1275 -0.4368
  695lim     li 6635   1.202   6.405   3.127  0.4434  0.3152 -0.5447
  696lim     li 6636   1.378   6.006   6.458 -0.6725  0.2750 -0.6077
  697lim     li 6637   5.881   4.719   0.062 -1.8673  0.2505  0.3860
  698lim     li 6638   1.534   0.299   5.375 -0.3851  0.1748  0.4638
  699lim     li 6639   4.723   1.757   3.826 -0.3245  0.1709  1.1222
  700lim     li 6640   4.269   3.566   6.066  0.1168 -0.2158  0.3508
  701lim     li 6641   2.701   2.933   4.299  1.1335  0.6017  1.0919
  702lim     li 6642   2.555   3.716   3.582 -0.2120  0.4177  0.7329
  703lim     li 6643   2.112   5.612   6.049  0.7603 -1.0344 -1.0751
  704lim     li 6644   4.842   3.404   1.267  0.3968  0.4750 -0.0948
  705lim     li 6645   0.432   0.136   2.686 -0.3789 -0.1560  0.5741
  706lim     li 6646   0.813   5.919   4.696  0.7169  0.1446  1.0177
  707lim     li 6647   5.000   4.299   2.544 -0.3869 -0.2128 -0.1668
  708lim     li 6648   2.492   0.805   5.809 -0.5752  0.5798 -0.6523
  709lim     li 6649   0.217   2.494   3.774 -1.0162 -0.1959  0.0800
  710lim     li 6650   0.719   4.210   3.449 -0.1206  0.7086  0.1486
  711lim     li 6651   0.149   6.530   1.681  0.2725 -0.5500 -0.2543
  712lim     li 6652   3.446   3.857   0.766  1.9695 -0.4494 -0.2725
  713lim     li 6653   4.352   0.835   2.395 -1.3815  0.5549  0.1760
  714lim     li 6654   0.573   3.486   2.047  0.4497  0.2177  0.0563
  715lim     li 6655   1.260   0.437   0.443 -0.3347 -0.5770  0.1350
  716lim     li 6656   1.783   1.668   3.892  0.7700 -0.5204 -0.7995
  717lim     li 6657   0.846   6.000   2.194 -0.1470  0.0712 -0.2975
  718lim     li 6658   1.463   4.395   4.986  0.4248 -1.3040  0.9607
  719lim     li 6659   5.649   2.574   2.453  0.3341  0.5243 -0.3278
  720lim     li 6660   4.772   2.069   2.268 -0.3574 -0.7819 -0.7055
  721lim     li 6661   6.574   3.250   1.313  0.4104 -0.3119  1.3082
  722lim     li 6662   1.695   0.539   6.121  0.9798  0.9879 -0.8079
  723lim     li 6663   3.783   2.774   3.449 -0.5067 -0.4509  0.4628
  724lim     li 6664   5.580   4.862   2.655 -0.0042  0.5410  0.2113
  725lim     li 6665   2.557   3.129   5.286  0.0756 -0.4665  0.3671
  726lim     li 6666   6.044   1.968   0.797  1.1945 -0.4058  0.0440
  727lim     li 6667   3.148   3.043   6.494 -0.9068 -0.8330  0.6536
  728lim     li 6668   6.603   0.903   1.667  0.8845 -0.8748 -0.2802
  729lim     li 6669   1.940   6.365   2.828 -0.0637 -0.2467 -0.1002
  730lim     li 6670   1.637   4.192   5.718 -1.2225  0.0218 -0.1142
  731lim     li 6671   5.873   5.916   2.574 -0.3699  0.4101  0.1172
  732lim     li 6672   1.147   5.086   5.806 -0.4836  0.6351 -0.3252
  733lim     li 6673   0.992   0.260   1.426  0.3595  0.1452 -0.5722
  734lim     li 6674   2.991   2.480   4.669 -1.1664  1.2211  1.3685
  735lim     li 6675   1.250   2.977   2.189 -0.9863  0.7620 -0.4143
  736lim     li 6676   2.009   2.399   4.145  0.2114 -0.7155  0.7114
  737lim     li 6677   5.128   6.506   2.547  0.7989  1.0148  0.6034
  738lim     li 6678   2.501   1.235   3.999 -0.8339 -0.4122  1.5278
  739lim     li 6679   6.434   1.794   4.340 -0.1074  0.2152 -0.0285
  740lim     li 6680   0.302   4.749   1.877  0.0997  0.3681  0.3366
  741lim     li 6681   1.954   5.294   0.515  0.0003 -0.2635 -0.9141
  742lim     li 6682   4.577   4.760   5.459  0.8809  0.7512  0.0757
  743lim     li 6683   0.800   5.883   0.130  0.0465  0.4541 -0.3942
  744lim     li 6684   2.767   1.264   2.783 -0.4915  0.2578 -1.2722
  745lim     li 6685   5.074   1.320   3.369  0.0211 -0.2130 -0.3523
  746lim     li 6686   5.923   2.029   6.272 -0.7446  0.9130 -0.8785
  747lim     li 6687   1.972   0.203   1.294  0.4390 -0.7958  0.2963
  748lim     li 6688   1.053   6.133   1.476 -0.4358  0.6329 -1.8899
  749lim     li 6689   5.435   2.888   1.706  0.5919 -0.4702 -0.5083
  750lim     li 6690   4.761   6.576   0.331  0.3727 -0.6606 -1.4984
  751lim     li 6691   4.304   4.672   1.538 -0.8091 -0.2311  0.1778
  752lim     li 6692   2.289   2.104   3.152 -0.3317  0.4534 -0.5770
  753lim     li 6693   3.014   5.206   3.460  0.3673 -0.3767 -0.3149
  754lim     li 6694   0.221   5.183   3.810 -0.9730  0.0535 -1.4901
  755lim     li 6695   2.927   3.445   2.932  0.2797  0.4054 -0.1765
  756lim     li 6696   0.276   4.442   5.642 -0.3490  0.1954 -0.0104
  757lim     li 6697   6.116   2.560   4.715 -0.7647 -0.1718 -0.3241
  758lim     li 6698   0.401   1.564   2.169 -0.1070  1.0286  0.4238
  759lim     li 6699   4.352   1.018   0.391  0.7578 -0.3219 -0.3914
  760lim     li 6700   5.241   3.039   4.763  0.1012 -0.5354  0.4131
  761lim     li 6701   5.462   1.775   3.258  0.7133  0.0923 -0.0423
  762lim     li 6702   3.769   2.214   1.496  0.9126 -0.1608  1.6565
  763lim     li 6703   0.312   4.156   5.057 -0.3462  0.4266 -0.6589
  764lim     li 6704   5.685   0.705   3.871 -0.4843 -0.2850  1.7625
  765lim     li 6705   0.192   4.034   6.270  0.3463 -0.4345 -0.0608
  766lim     li 6706   2.687   5.586   0.536 -0.4298 -0.8718  0.3821
  767lim     li 6707   6.167   3.992   6.088  0.1148 -0.7724  1.2708
  768lim     li 6708   1.687   5.050   5.237  0.0296 -0.9145 -0.4179
  769lim     li 6709   4.140   1.845   2.007 -0.0577  0.5544  0.1438
  770lim     li 6710   5.104   0.638   2.971  0.0145  0.0875 -0.7514
  771lim     li 6711   4.332   5.795   6.312 -0.0789  0.4308  0.7121
  772lim     li 6712   2.278   3.790   6.289 -0.7201 -0.0133 -0.2255
  773lim     li 6713   5.873   6.375   6.234 -0.7642  0.2617 -0.3137
  774lim     li 6714   4.545   1.436   4.396  0.8564 -0.1525  0.6714
  775lim     li 6715   3.214   2.056   3.278 -0.8204  0.0402  0.5232
  776lim     li 6716   0.172   3.042   4.021 -0.0287 -0.1863  0.7022
  777lim     li 6717   2.283   1.903   5.788  1.5213 -0.3391 -0.7789
  778lim     li 6718   5.283   3.078   5.524  0.5139 -0.6668  0.2317
  779lim     li 6719   6.297   5.201   2.686 -0.1768 -1.0316 -0.0328
  780lim     li 6720   2.548   4.284   1.045 -0.3040 -0.6915 -0.6852
  781lim     li 6721   5.122   0.494   6.204 -0.0656  0.2902 -0.1845
  782lim     li 6722   5.170   3.260   6.357  0.4272  0.5540  0.5708
  783lim     li 6723   2.316   4.498   5.726 -0.8895  0.3854  0.1114
  784lim     li 6724   2.085   1.195   5.276 -0.2349  0.0518  0.8366
  785lim     li 6725   4.465   1.887   2.855  0.3418  0.3425 -1.1096
  786lim     li 6726   4.596   1.114   1.894 -0.9639 -0.0332  0.1769
  787lim     li 6727   4.900   1.383   6.054 -0.0714  0.7473  0.9289
  788lim     li 6728   2.350   4.700   3.580 -0.1426  0.5971  0.3579
  789lim     li 6729   2.171   0.642   4.918 -0.0064 -0.9774 -0.5998
  790lim     li 6730   3.677   1.291   2.420  0.1830 -0.2945 -0.2672
  791lim     li 6731   1.445   2.921   4.751  0.2498  1.0480  1.0050
  792lim     li 6732   2.997   4.956   5.655  0.2459  0.3919 -0.2743
  793lim     li 6733   2.827   2.546   2.450  1.2185  0.3347 -0.4275
  794lim     li 6734   0.822   4.859   1.370 -1.5778 -1.6805 -0.7979
  795lim     li 6735   5.292   3.045   0.657 -0.0602  0.3782 -0.0294
  796lim     li 6736   3.635   4.447   5.256 -0.4153  0.6615  0.9245
  797lim     li 6737   6.342   3.835   2.866 -0.2501  0.4431 -0.2532
  798lim     li 6738   0.321   0.604   2.321  0.5855  1.9138 -0.3832
  799lim     li 6739   3.725   6.165   4.518  0.8376  0.5694 -0.2473
  800lim     li 6740   3.087   2.243   6.259 -0.3437  0.5010  0.3959
  801lim     li 6741   5.353   4.212   3.636  0.1168  0.4373 -0.4831
  802lim     li 6742   0.825   0.326   3.798  0.6496  0.5065  0.0855
  803lim     li 6743   3.768   0.988   1.570  0.4661 -0.8077 -1.5136
  804lim     li 6744   1.889   4.272   0.346 -0.3467  0.3003  0.4064
  805lim     li 6745   4.305   3.959   2.112 -0.3851  0.3721 -1.0765
  806lim     li 6746   5.097   3.891   4.351 -0.1834 -0.6038 -1.1754
  807lim     li 6747   2.327   4.908   6.542 -1.1203  1.5310  0.4506
  808lim     li 6748   1.872   2.211   0.077 -0.5844 -0.3090 -0.3565
  809lim     li 6749   1.034   3.790   5.417  0.5096  0.1797 -0.3188
  810lim     li 6750   4.670   6.256   4.850 -1.0374 -0.4106 -0.2676
  811lim     li 6751   5.879   6.551   1.629 -0.2607 -0.4423  1.8837
  812lim     li 6752   0.756   6.285   5.571 -0.0250  0.3322  0.3984
  813lim     li 6753   3.908   5.310   3.763 -0.4061  0.7850  0.6789
  814lim     li 6754   0.372   2.736   2.271 -1.4257  0.7082  0.0202
  815lim     li 6755   3.735   4.414   2.316 -0.4809  0.4240  0.0512
  816lim     li 6756   3.159   1.185   6.226  1.2133  1.0010  0.3800
  817lim     li 6757   6.480   1.695   1.308  0.0668 -0.4642 -0.2935
  818lim     li 6758   0.124   2.968   6.328 -0.0774  0.4421 -0.9580
  819lim     li 6759   0.382   4.154   1.067  0.6809  0.5596  0.8932
  820lim     li 6760   0.265   0.927   5.508 -0.3360  0.6210  1.0802
  821lim     li 6761   1.550   3.660   0.709  0.2059 -0.2169  0.1168
  822lim     li 6762   3.491   0.683   3.975  0.1195  0.8244 -0.4040
  823lim     li 6763   5.209   2.391   4.120 -0.4103 -0.0835  0.9190
  824lim     li 6764   1.361   0.927   5.699  0.9325 -0.5712  1.1306
  825lim     li 6765   0.796   4.295   2.214 -0.0742 -0.9878  0.1904
  826lim     li 6766   5.957   0.459   4.949 -0.1372 -1.0944 -0.5975
  827lim     li 6767   0.608   1.695   5.492  0.1109  0.5034  0.2332
  828lim     li 6768   4.149   6.494   5.873  0.1545 -0.2529 -0.2738
  829lim     li 6769   0.510   5.164   3.062 -0.4986  0.2474 -0.2596
  830lim     li 6770   0.399   6.542   4.306  0.0821 -0.4604  0.1795
  831lim     li 6771   1.814   5.902   2.109 -0.1508 -0.1019 -0.6714
  832lim     li 6772   3.230   6.120   0.339  0.4417 -1.2038 -0.4732
  833lim     li 6773   3.340   4.390   3.126 -0.1744 -0.4988 -0.1619
  834lim     li 6774   5.425   6.542   0.191 -0.1199  0.7843  0.6075
  835lim     li 6775   3.009   0.693   3.388 -0.3958  0.2830 -0.0140
  836lim     li 6776   2.148   4.863   2.912 -0.0368 -0.1124 -0.5673
  837lim     li 6777   6.048   5.281   0.231 -0.5032  0.9302 -0.0638
  838lim     li 6778   3.551   0.301   2.787 -0.0831 -0.0292  0.6420
  839lim     li 6779   1.795   5.579   4.485  0.1453  0.9608  0.7619
  840lim     li 6780   1.230   2.462   3.735  0.1898  0.3659 -0.5795
  841lim     li 6781   0.286   5.864   6.084  0.0556 -0.0144 -0.1279
  842lim     li 6782   2.156   1.080   3.274  0.4426 -0.4181 -0.0118
  843lim     li 6783   4.395   5.620   5.497  0.7630  0.7479  0.6482
  844lim     li 6784   0.134   5.932   2.356  0.7642  0.8087 -0.1314
  845lim     li 6785   0.060   4.610   2.968 -0.7032  0.1801 -0.1830
  846lim     li 6786   2.655   4.599   4.214  0.6968 -0.2188 -0.0091
  847lim     li 6787   2.253   5.508   5.578 -0.2838  0.0763  0.8176
  848lim     li 6788   0.962   3.794   6.224 -0.2502 -0.2539 -0.3669
  849lim     li 6789   5.349   4.010   5.617  0.5481 -0.6427 -0.2482
  850lim     li 6790   2.471   0.283   3.778  1.3369 -0.4062  1.0358
  851lim     li 6791   0.891   5.121   2.310 -0.3908 -0.1152  0.6506
  852lim     li 6792   0.996   2.659   2.954  0.0768 -0.4042 -1.1054
  853lim     li 6793   3.031   6.405   4.759 -0.2937  0.2751 -0.2666
  854lim     li 6794   5.458   0.273   2.023 -0.8972  0.2189  0.1156
  855lim     li 6795   5.314   5.968   1.675  0.4842  1.0077  0.1742
  856lim     li 6796   1.537   2.047   6.098  0.2548  0.3909  0.0037
  857lim     li 6797   6.163   1.221   3.693 -0.0306 -0.3001  0.0406
  858lim     li 6798   1.038   1.999   4.667  0.8852 -1.0291  1.2137
  859lim     li 6799   6.004   4.979   1.780 -0.2390 -1.5978 -1.3458
  860lim     li 6800   1.167   5.764   5.347 -1.0796 -0.3101 -0.4494
  861lim     li 6801   4.758   3.882   6.402  0.3908  0.3974  0.4512
  862lim     li 6802   3.414   0.458   4.548 -0.0799  0.8579 -0.2377
  863lim     li 6803   0.724   1.102   1.277 -0.3025  0.6686 -0.4898
  864lim     li 6804   3.702   3.671   4.960  0.3651 -0.5524  0.0174
  865lim     li 6805   5.136   2.503   2.793  0.4376 -1.1069  0.1551
  866lim     li 6806   1.166   3.700   2.641 -2.0672  0.4942  1.1441
  867lim     li 6807   4.397   3.680   2.962  0.5011 -0.0972 -0.2683
  868lim     li 6808   3.390   2.906   5.592  0.4241  0.8507  1.5781
  869lim     li 6809   4.251   4.537   2.998  0.4375  0.0166 -0.3495
  870lim     li 6810   0.015   0.198   3.528  0.0241  0.7883  0.4991
  871lim     li 6811   5.604   2.190   4.872  0.7432  0.9545 -0.4173
  872lim     li 6812   6.544   5.122   0.881  0.4415 -0.1550  0.4568
  873lim     li 6813   5.901   4.539   3.284  0.6304  0.1325  0.5909
  874lim     li 6814   0.042   0.660   4.756 -0.2351  0.4825 -0.4386
  875lim     li 6815   1.701   1.816   1.526  1.3638 -0.0972  0.1394
  876lim     li 6816   2.048   1.286   2.087 -0.0200  0.1523 -0.7968
  877lim     li 6817   0.054   6.176   5.131 -0.4242  0.9951  1.5826
  878lim     li 6818   4.134   1.749   6.250  0.5755 -1.3193  0.2516
  879lim     li 6819   3.856   2.775   6.419 -0.3452  0.1404 -0.2482
  880lim     li 6820   4.004   2.892   2.488  0.5606 -0.4915 -0.3770
  881lim     li 6821   5.890   5.757   5.183  1.0128 -0.5066 -0.0576
  882lim     li 6822   3.279   5.031   1.404 -0.2043 -0.3647  1.2959
  883lim     li 6823   5.996   6.429   0.834  0.7515  0.2175  1.0888
  884lim     li 6824   3.190   6.219   1.048  0.1169  0.5407 -0.7160
  885lim     li 6825   1.686   4.000   4.548 -0.4101 -0.3538 -0.0556
  886lim     li 6826   6.491   1.072   0.433  0.5679  0.0369 -0.9724
  887lim     li 6827   5.203   4.202   1.068  0.0616 -0.8329 -0.8426
  888lim     li 6828   0.604   4.876   5.962  0.7787  0.5527 -0.9128
  889lim     li 6829   2.598   0.190   4.724  0.6254 -0.5821  0.0043
  890lim     li 6830   3.414   4.425   4.116  0.2974  0.2741  0.4903
  891lim     li 6831   5.124   3.224   3.879 -0.5303  1.4144  0.2896
  892lim     li 6832   1.541   1.810   3.093  0.0393  0.1593 -0.1178
  893lim     li 6833   2.126   2.078   0.709  0.4842  0.3598 -0.1447
  894lim     li 6834   2.218   2.970   3.562  0.0438 -0.4938  0.6286
  895lim     li 6835   5.416   5.054   5.928  1.1451  0.2927 -0.1950
  896lim     li 6836   3.822   6.330   5.242 -0.0727  0.4604  0.2694
  897lim     li 6837   2.986   6.577   2.998  0.2821  1.1771 -1.4338
  898lim     li 6838   5.025   1.655   5.165  0.3608 -0.6834 -1.0440
  899lim     li 6839   1.039   3.542   4.611  0.8878  0.0336 -0.3891
  900lim     li 6840   3.532   5.282   2.037  0.4077 -1.2929  0.1006
  901lim     li 6841   0.679   1.829   3.300  0.0580  1.3515  0.0814
  902lim     li 6842   0.217   0.129   5.532 -0.4660  0.2252  0.5083
  903lim     li 6843   5.110   0.297   5.400  1.0749 -1.0597  0.3040
  904lim     li 6844   2.420   2.922   0.318  0.3480  0.1863  0.9399
  905lim     li 6845   1.877   6.233   4.978 -0.3668 -0.1919 -0.4718
  906lim     li 6846   5.761   1.414   0.900  0.1549 -0.1614  0.3424
  907lim     li 6847   4.113   5.007   4.861 -1.3026  0.0280  1.2169
  908lim     li 6848   1.399   5.230   3.731 -0.7922  0.2334 -0.9419
  909lim     li 6849   2.345   5.497   3.893  0.0881 -0.8024  0.0132
  910lim     li 6850   3.744   2.956   4.976  0.6016  0.3062 -0.2584
  911lim     li 6851   3.324   6.094   2.017 -0.7591 -0.2589  0.3728
  912lim     li 6852   3.012   0.333   0.179  0.5541  0.4177  0.2258
  913lim     li 6853   6.164   0.688   1.298  0.6100 -0.0463 -0.2928
  914lim     li 6854   2.574   6.147   0.179 -1.0073  0.8332  0.2895
  915lim     li 6855   2.824   1.144   4.624 -0.4070 -0.7919  0.1954
  916lim     li 6856   0.505   1.945   1.365 -0.1609 -0.5811  0.7155
  917lim     li 6857   1.323   1.619   0.822 -0.3010  0.0774  0.9941
  918lim     li 6858   0.802   1.907   2.629 -1.1337 -1.0888  0.0730
  919lim     li 6859   5.827   2.877   3.959  0.3149  0.2604  0.4282
  920lim     li 6860   0.263   2.429   4.911  0.2349  0.0789  1.2547
  921lim     li 6861   1.029   1.100   6.281  0.0764 -0.5133 -0.4282
  922lim     li 6862   5.138   4.386   5.030  0.4439 -0.1800  0.0426
  923lim     li 6863   4.026   4.915   0.364 -0.3577  0.8903 -0.0535
  924lim     li 6864   6.362   1.780   0.008 -0.2080  0.1573  0.4178
  925lim     li 6865   0.513   0.039   0.308  0.6647 -0.0895 -0.2114
  926lim     li 6866   6.500   3.531   0.530  1.2767 -0.1305 -1.4916
  927lim     li 6867   2.787   0.394   6.103  0.4340 -0.1471  0.3086
  928lim     li 6868   2.824   2.619   1.612 -0.7535  0.3485  0.2989
  929lim     li 6869   2.280   5.925   6.500 -0.5817  0.1872 -0.0803
  930lim     li 6870   2.848   2.709   3.291  1.2908 -0.4565 -0.7990
  931lim     li 6871   5.699   4.873   5.378  0.3546  0.5660  0.7462
  932lim     li 6872   1.491   5.237   2.819  0.0743 -0.2863 -1.3835
  933lim     li 6873   4.570   5.512   1.537  0.1941 -0.1260  0.1215
  934lim     li 6874   3.955   1.914   5.642  0.6299  0.9708 -0.2760
  935lim     li 6875   3.965   4.560   4.212 -0.0188 -0.1971 -1.3413
  936lim     li 6876   4.633   3.051   2.289 -0.3459  0.5402  0.1551
  937lim     li 6877   1.355   6.177   0.677  0.3244  0.1333  0.4537
  938lim     li 6878   5.599   0.917   5.754  0.1502  0.3901  0.7540
  939lim     li 6879   3.329   6.076   5.850 -1.7103 -0.8350 -0.2426
  940lim     li 6880   2.129   5.993   3.607  0.3302  0.2285 -0.6106
  941lim     li 6881   2.431   3.690   0.640 -0.2444  0.8088  1.2545
  942lim     li 6882   3.269   5.575   5.131  0.1458 -0.2308  0.1836
  943lim     li 6883   2.426   5.190   4.716 -1.1512  0.6469 -0.0966
  944lim     li 6884   3.335   5.635   4.267  0.5076  1.0486 -0.2280
  945lim     li 6885   2.924   6.004   3.663 -0.3333 -0.8306  0.3743
  946lim     li 6886   3.601   3.796   6.005 -0.3025  1.1590 -0.2355
  947lim     li 6887   4.442   5.486   4.488 -0.1017 -1.0737  0.1219
  948lim     li 6888   6.172   6.224   3.203 -0.3005  0.4173 -0.5162
  949lim     li 6889   3.128   3.390   3.822  0.1095  0.0160  0.0039
  950lim     li 6890   1.058   2.419   1.847  0.8789 -0.3942 -0.1732
  951lim     li 6891   5.927   4.494   1.014 -0.5989  0.4712 -0.6724
  952lim     li 6892   3.350   1.122   5.184 -0.2683 -0.8022 -0.0762
  953lim     li 6893   5.255   1.246   2.524 -0.3705  0.3458  0.1698
  954lim     li 6894   1.866   0.609   4.246 -0.0268 -0.2743  0.1460
  955lim     li 6895   4.081   0.359   5.468  0.6110  0.4969 -0.2736
  956lim     li 6896   4.906   0.353   3.878  0.2191 -0.2568  0.1777
  957lim     li 6897   4.613   3.808   0.632  0.0641 -0.0868  0.3769
  958lim     li 6898   3.546   5.419   0.005 -0.5306 -0.1870  0.2262
  959lim     li 6899   0.935   2.323   4.258 -0.2929 -0.6263 -0.7486
  960lim     li 6900   4.261   1.277   1.022 -0.2749 -0.4204  0.1285
  961lim     li 6901   1.863   3.510   1.825 -0.0864  1.1859 -0.6206
  962lim     li 6902   6.337   4.630   4.411  0.1661  0.9346 -0.4115
  963lim     li 6903   5.882   4.013   4.314  0.1792 -0.5565 -1.0895
  964lim     li 6904   4.543   2.531   5.490 -0.2027 -0.8716 -0.2478
  965lim     li 6905   1.753   3.934   3.377  0.1598 -0.3498 -0.8116
  966lim     li 6906   3.248   3.066   2.057  0.1312  0.1189  0.2588
  967lim     li 6907   4.396   6.640   2.006 -0.4036 -0.2416 -0.8057
  968lim     li 6908   1.369   3.984   1.499  0.1434  0.0301 -1.2659
  969lim     li 6909   1.653   2.908   0.872  0.8512  0.0273 -0.7674
  970lim     li 6910   0.365   6.045   3.205 -0.7910 -0.4645 -0.3002
  971lim     li 6911   0.095   2.570   0.579  0.0247 -0.6182 -0.2001
  972lim     li 6912   5.081   0.824   4.596 -0.5257  0.5628 -0.9135
  973lim     li 6913   5.932   2.914   1.144 -0.4056  0.2906  0.6759
  974lim     li 6914   6.618   6.625   6.326 -0.1709 -0.6836 -0.3389
  975lim     li 6915   2.384   0.365   2.801  0.1257 -0.1736 -0.7003
  976lim     li 6916   6.301   2.909   1.924  0.4792 -0.5926  0.5417
  977lim     li 6917   5.087   0.824   0.489  1.1186 -0.3665  0.4731
  978lim     li 6918   1.896   2.486   4.983 -1.4702  1.1554 -0.4611
  979lim     li 6919   1.469   0.775   0.994  0.5774  1.2579  0.3911
  980lim     li 6920   2.307   4.163   2.863 -0.0094 -0.3251 -0.0583
  981lim     li 6921   5.539   4.914   4.388  0.3180 -0.5913 -0.8566
  982lim     li 6922   1.304   6.260   5.846  0.1852  0.9148  0.2934
  983lim     li 6923   2.196   4.262   1.719  0.0606 -0.2560  0.8345
  984lim     li 6924   4.502   2.282   4.706 -0.9112 -0.5690  0.6529
  985lim     li 6925   2.047   1.194   0.748  0.2413  0.9589 -0.9977
  986lim     li 6926   3.090   5.196   0.587  0.3389  0.6928  0.3099
  987lim     li 6927   6.430   6.587   2.469 -0.3610 -0.7138  0.7640
  988lim     li 6928   6.562   4.343   0.447  0.1168  0.0065 -0.6913
  989lim     li 6929   4.042   1.272   4.577  0.3712 -0.2042 -0.3308
  990lim     li 6930   4.698   2.561   3.426  0.6355  0.0056 -0.0824
  991lim     li 6931   3.690   2.421   2.529  0.3074  0.2155  0.2279
  992lim     li 6932   2.801   2.056   4.115  0.0706  0.6063 -0.0806
  993lim     li 6933   5.221   2.119   1.329  0.1302  0.0784  0.2565
  994lim     li 6934   2.397   4.919   1.227 -0.1238  0.0503 -0.1567
  995lim     li 6935   2.512   2.024   1.364 -0.7018  0.4351  0.4604
  996lim     li 6936   5.263   5.825   6.226 -0.8948 -0.6204 -0.4572
  997lim     li 6937   6.583   3.568   4.257 -0.8297  0.0481  0.6727
  998lim     li 6938   3.473   2.903   0.851 -0.3403 -1.5702  0.0936
  999lim     li 6939   3.927   3.860   1.495  0.7158 -0.2520  0.0039
 1000lim     li 6940   6.171   5.777   1.849  0.4325  0.6427  0.7711
 1001lim     li 6941   3.531   1.549   4.347  1.2326 -0.0089 -0.5871
 1002lim     li 6942   5.827   0.917   4.439 -0.0510 -0.2732  1.0264
 1003lim     li 6943   5.455   6.431   4.759  0.1149  0.2512 -0.7194
 1004lim     li 6944   2.419   4.316   4.900  0.5570 -0.0268  0.0999
 1005lim     li 6945   0.234   0.764   6.412 -0.4622  0.3021 -0.1064
 1006lim     li 6946   4.636   0.239   1.452  0.2734 -0.2557 -0.4278
 1007lim     li 6947   1.691   6.581   2.059  0.0211 -0.3866 -0.0387
 1008lim     li 6948   6.026   0.627   3.010  0.5049  0.4032  0.2618
 1009lim     li 6949   4.796   5.818   0.642  1.1068  0.1716  0.2073
 1010lim     li 6950   5.791   5.986   3.998 -0.5416 -0.1114 -0.5882
 1011lim     li 6951   3.037   4.617   0.445  0.5428 -0.6993  0.7384
 1012lim     li 6952   5.966   3.371   6.072 -0.3122 -1.0603 -0.7087
 1013lim     li 6953   5.008   4.681   1.896 -0.6857  1.0964  0.4493
 1014lim     li 6954   0.658   3.850   0.279 -0.0173 -0.2644  0.1338
 1015lim     li 6955   1.200   4.627   4.200 -0.3237 -0.5690 -0.1555
 1016lim     li 6956   5.810   3.455   2.302 -0.8775  0.2522  0.0771
 1017lim     li 6957   3.045   4.918   4.768 -1.1180 -0.0156 -0.6371
 1018lim     li 6958   1.050   2.102   1.068 -0.1575  0.3216  1.7565
 1019lim     li 6959   4.730   4.987   0.681 -0.1295  0.6491  0.4379
 1020lim     li 6960   5.953   0.278   4.081  0.4067  0.2372 -0.6244
 1021lim     li 6961   1.205   1.188   5.023  0.3131  1.6089  0.6421
 1022lim     li 6962   0.470   3.343   5.747  0.0774 -1.1211  0.5843
 1023lim     li 6963   5.157   0.963   1.517 -0.1799  1.2608  0.1863
 1024lim     li 6964   1.683   1.440   6.531  0.3831  0.2422  0.9854
 1025lim     li 6965   0.223   4.099   2.454 -0.6126  1.2364  0.7165
 1026lim     li 6966   6.603   5.170   5.207  0.2111  0.6140 -0.0626
 1027lim     li 6967   2.539   6.158   4.260  0.3659 -0.4302  0.1427
 1028lim     li 6968   5.218   5.124   1.259 -0.6163  0.3932 -0.2688
 1029lim     li 6969   0.781   4.987   5.109  1.0688 -0.8206 -0.0940
 1030lim     li 6970   6.124   1.426   2.083  0.3660 -0.5683 -0.2895
 1031lim     li 6971   6.029   4.199   2.248  0.8678 -0.1203  0.1068
 1032lim     li 6972   0.785   5.507   0.917  0.2637 -0.8742 -0.1728
 1033lim     li 6973   1.187   4.486   3.206 -0.4415 -0.6354  0.5376
 1034lim     li 6974   3.591   2.192   0.413  1.1610  0.6558 -0.3742
 1035lim     li 6975   3.846   4.080   0.325  0.4279 -0.4099 -0.4734
 1036lim     li 6976   5.458   3.602   3.029  1.1725  0.5772  0.7889
 1037lim     li 6977   5.578   1.700   4.011 -0.7340 -0.3950 -0.2206
 1038lim     li 6978   2.843   2.449   0.603  0.1661  0.5848  1.5743
 1039lim     li 6979   1.626   0.578   2.647 -0.4963  0.0304 -0.4504
 1040lim     li 6980   6.064   2.511   3.098 -0.5494  0.9679 -0.4786
 1041lim     li 6981   2.159   6.552   6.040  0.0202 -0.0470  0.0258
 1042lim     li 6982   3.770   0.412   6.457  0.7203 -1.1274  0.0033
 1043lim     li 6983   0.760   2.888   6.428  0.1648  0.3981 -0.7027
 1044lim     li 6984   5.155   1.571   0.262 -0.6388 -0.9303 -0.0178
 1045lim     li 6985   2.768   6.111   5.711 -0.0045  0.3163 -0.1235
 1046lim     li 6986   2.169   0.532   2.027  0.6827 -1.2808  0.7734
 1047lim     li 6987   4.083   6.392   0.147 -0.0826  0.0823  0.3141
 1048lim     li 6988   0.343   3.228   4.946 -0.5074  0.0684  1.7142
 1049lim     li 6989   3.946   5.769   2.896  0.5604 -0.4180  0.2138
 1050lim     li 6990   4.144   5.192   2.173 -0.2692  0.0457  0.7214
 1051lim     li 6991   5.366   4.203   0.256  1.2969  1.8220  0.9304
 1052lim     li 6992   1.619   4.986   6.103  0.3922  0.0843 -0.3519
 1053lim     li 6993   2.045   1.996   5.253  0.8176  0.3735 -1.1032
 1054lim     li 6994   3.605   6.362   3.637  1.1821 -0.6474 -0.0388
 1055lim     li 6995   4.459   0.464   4.867  0.1829  0.8354 -0.1227
 1056lim     li 6996   3.690   3.778   3.539 -0.7993 -0.2707 -0.2459
 1057lim     li 6997   5.062   2.185   6.417  0.3570 -1.3436 -0.1144
 1058lim     li 6998   0.771   5.844   3.874 -0.0407  0.1362 -0.0604
 1059lim     li 6999   3.462   1.829   1.997 -0.1946  0.0204 -0.5881
 1060lim     li 7000   6.097   3.611   5.017  0.8463  0.8922 -0.5076
 1061lim     li 7001   5.646   6.494   3.374 -0.7685 -0.1937  0.5642
 1062lim     li 7002   0.959   0.088   4.795  0.2016 -0.4610 -0.3995
 1063lim     li 7003   5.375   5.334   4.745 -0.5502  0.5706  0.1995
 1064lim     li 7004   2.898   0.828   2.242 -0.6130  1.1582 -0.4620
 1065lim     li 7005   0.047   2.129   6.001 -0.1445  0.1498  0.6739
 1066lim     li 7006   0.693   1.363   0.237 -0.4342  0.0552 -0.5108
 1067lim     li 7007   6.524   2.193   2.054 -0.6655 -0.2073  0.6353
 1068lim     li 7008   6.348   5.104   6.020  0.0194 -1.1533 -0.6741
 1069lim     li 7009   2.912   0.057   1.540 -0.2468 -0.6387 -0.1399
 1070lim     li 7010   2.329   0.203   0.835  1.1768 -0.2527 -1.0609
 1071lim     li 7011   1.625   3.150   3.290  0.7503  0.1156  0.9761
 1072lim     li 7012   5.040   5.721   5.510  0.3650 -0.2333  0.9484
 1073lim     li 7013   2.832   1.656   0.652  0.9585  1.7012  0.1927
 1074lim     li 7014   3.907   5.761   0.806 -0.3693 -0.1829  0.1058
 1075lim     li 7015   4.934   5.652   3.400 -0.7081 -0.1727 -0.8733
 1076lim     li 7016   0.477   0.712   0.843 -0.4172  0.5271 -0.0192
 1077lim     li 7017   5.446   1.982   5.541  0.1121 -0.3826  0.0113
 1078lim     li 7018   6.124   0.646   2.365  0.8234 -0.4493  0.5119
 1079lim     li 7019   5.442   5.682   0.189  0.4376  0.1504 -0.6353
 1080lim     li 7020   2.713   1.238   1.429 -0.0234 -0.4934 -1.0606
 1081ntf    cn1 7021   5.326   2.413   3.490  0.2065 -0.0455 -0.3319
 1081ntf    sn2 7022   5.474   2.455   3.394 -0.0073  0.3864 -0.4759
 1081ntf    nn3 7023   5.432   2.592   3.329 -0.3769  0.2580 -0.5107
 1081ntf    sn2 7024   5.467   2.728   3.398 -0.1900 -0.0425 -0.0086
 1081ntf    cn1 7025   5.328   2.829   3.339 -0.2075 -0.0964 -0.0588
 1081ntf    fn4 7026   5.301   2.488   3.597  0.6742  0.1945 -0.3891
 1081ntf    fn4 7027   5.216   2.411   3.417 -0.1028  0.3283  0.1109
 1081ntf    fn4 7028   5.344   2.290   3.535  0.4493 -0.0438 -0.4265
 1081ntf    on5 7029   5.579   2.457   3.493 -0.4353 -0.2438 -0.0035
 1081ntf    on5 7030   5.477   2.345   3.301 -0.3079  0.1763 -0.2392
 1081ntf    on5 7031   5.439   2.733   3.540  0.0588 -0.0777  0.0425
 1081ntf    on5 7032   5.584   2.798   3.350  0.1006 -0.1792  0.4843
 1081ntf    fn4 7033   5.215   2.801   3.402  0.0543 -0.5722  0.2106
 1081ntf    fn4 7034   5.307   2.807   3.211 -0.0548 -0.1093 -0.0818
 1081ntf    fn4 7035   5.353   2.958   3.356 -0.4633 -0.0151 -0.3089
 1082ntf    cn1 7036   2.458   0.838   2.322 -0.1907  0.0923 -0.1631
 1082ntf    sn2 7037   2.582   0.744   2.228 -0.1708  0.0452 -0.0889
 1082ntf    nn3 7038   2.554   0.808   2.087 -0.1974  0.1406 -0.0407
 1082ntf    sn2 7039   2.438   0.764   1.992 -0.2023  0.2210 -0.0721
 1082ntf    cn1 7040   2.551   0.679   1.877 -0.0907  0.0861  0.1380
 1082ntf    fn4 7041   2.433   0.786   2.441 -0.3337  0.4642 -0.0287
 1082ntf    fn4 7042   2.507   0.959   2.343  0.0092  0.0231 -0.2323
 1082ntf    fn4 7043   2.342   0.852   2.259 -0.1823  0.9673  0.0064
 1082ntf    on5 7044   2.711   0.786   2.279 -0.0634 -0.1259 -0.2198
 1082ntf    on5 7045   2.552   0.605   2.247 -0.1254  0.1846  1.1186
 1082ntf    on5 7046   2.342   0.666   2.035 -0.0010  0.0983  0.1031
 1082ntf    on5 7047   2.390   0.870   1.907 -0.2874 -0.3355 -0.7351
 1082ntf    fn4 7048   2.614   0.586   1.947  0.1508  0.2550  0.1427
 1082ntf    fn4 7049   2.644   0.766   1.843  0.2961 -0.3560  0.0506
 1082ntf    fn4 7050   2.491   0.634   1.768 -0.0011  0.5583 -0.1093
 1083ntf    cn1 7051   5.359   5.146   5.509  0.0484  0.5598  0.0391
 1083ntf    sn2 7052   5.516   5.108   5.593  0.0969 -0.2255 -0.3991
 1083ntf    nn3 7053   5.567   5.256   5.604 -0.1578 -0.1321 -0.4686
 1083ntf    sn2 7054   5.690   5.325   5.536 -0.1689  0.0968 -0.2598
 1083ntf    cn1 7055   5.835   5.261   5.626 -0.1582  0.2755 -0.1481
 1083ntf    fn4 7056   5.389   5.214   5.399 -0.0591  0.0651 -0.2994
 1083ntf    fn4 7057   5.285   5.042   5.476  0.3551  0.3391  0.0417
 1083ntf    fn4 7058   5.275   5.220   5.580 -0.3105  0.0190  0.1791
 1083ntf    on5 7059   5.475   5.040   5.713 -0.1249 -0.3366 -0.5371
 1083ntf    on5 7060   5.590   5.024   5.502  0.2788  0.2525 -0.6969
 1083ntf    on5 7061   5.714   5.277   5.402  0.1923  0.2151 -0.2386
 1083ntf    on5 7062   5.693   5.467   5.564  0.0691  0.0525 -0.0659
 1083ntf    fn4 7063   5.949   5.325   5.606 -0.1933  0.4116  0.0844
 1083ntf    fn4 7064   5.854   5.136   5.589 -0.4064  0.0653  0.4402
 1083ntf    fn4 7065   5.806   5.265   5.755 -0.5639 -0.2244 -0.2221
 1084ntf    cn1 7066   1.740   3.874   5.144  0.2893  0.3035 -0.2788
 1084ntf    sn2 7067   1.901   3.924   5.212  0.1623  0.0812  0.1938
 1084ntf    nn3 7068   1.849   4.047   5.293  0.0860  0.2305 -0.0796
 1084ntf    sn2 7069   1.898   4.106   5.431  0.2154  0.2413 -0.1292
 1084ntf    cn1 7070   1.953   4.275   5.392 -0.3457  0.4665  0.0442
 1084ntf    fn4 7071   1.694   3.972   5.068  0.0270  0.7227  0.4030
 1084ntf    fn4 7072   1.729   3.762   5.076 -0.3104  0.0239  0.2608
 1084ntf    fn4 7073   1.656   3.855   5.245  0.4203 -0.1558 -0.2559
 1084ntf    on5 7074   1.936   3.813   5.297  0.2360  0.2401  0.3719
 1084ntf    on5 7075   1.975   3.957   5.092 -0.0717  0.3535  0.1247
 1084ntf    on5 7076   1.780   4.126   5.511 -0.0691  0.2140 -0.5357
 1084ntf    on5 7077   2.007   4.038   5.495 -0.5043  0.0750  0.9445
 1084ntf    fn4 7078   1.854   4.361   5.379 -0.3448  0.3232 -0.9632
 1084ntf    fn4 7079   2.018   4.281   5.277 -0.3003  0.4817  0.0702
 1084ntf    fn4 7080   2.031   4.319   5.489  0.3911 -0.2891 -0.1990
 1085ntf    cn1 7081   5.719   3.355   0.153 -0.0095  0.4859  0.7282
 1085ntf    sn2 7082   5.870   3.366   0.255  0.4467 -0.1909  0.1338
 1085ntf    nn3 7083   5.834   3.262   0.366  0.0965 -0.1135  0.0948
 1085ntf    sn2 7084   5.891   3.117   0.388  0.2655 -0.0662 -0.0312
 1085ntf    cn1 7085   6.004   3.154   0.527  0.0702  0.2584  0.0431
 1085ntf    fn4 7086   5.615   3.378   0.231 -0.4362  0.3379  0.2089
 1085ntf    fn4 7087   5.723   3.444   0.055 -0.2637  0.0694  0.3379
 1085ntf    fn4 7088   5.716   3.234   0.102  0.1644  0.8796 -0.2406
 1085ntf    on5 7089   5.970   3.338   0.155  0.4044 -0.0981  0.0647
 1085ntf    on5 7090   5.868   3.501   0.306  0.0955  0.1267 -0.6919
 1085ntf    on5 7091   5.798   3.029   0.454  0.1060  0.0317 -0.1250
 1085ntf    on5 7092   5.979   3.065   0.286  0.0607 -0.0263 -0.2282
 1085ntf    fn4 7093   6.084   3.252   0.489  0.3792 -0.0858 -0.1999
 1085ntf    fn4 7094   6.082   3.056   0.567  0.0438  0.0787 -0.3331
 1085ntf    fn4 7095   5.934   3.198   0.630 -0.0977 -0.6732  0.3311
 1086ntf    cn1 7096   4.438   5.870   3.033  0.3704 -0.3460  0.2627
 1086ntf    sn2 7097   4.355   5.907   2.875  0.2352 -0.2101  0.3652
 1086ntf    nn3 7098   4.427   5.797   2.790  0.8096  0.2115  0.3005
 1086ntf    sn2 7099   4.473   5.814   2.640  0.2003 -0.1405  0.0716
 1086ntf    cn1 7100   4.632   5.897   2.667  0.0459  0.1514  0.0805
 1086ntf    fn4 7101   4.415   5.748   3.078 -0.0155 -0.4892 -0.3090
 1086ntf    fn4 7102   4.564   5.907   3.040  0.1636  0.5883 -0.7283
 1086ntf    fn4 7103   4.381   5.943   3.128 -0.0983  0.2057 -0.4295
 1086ntf    on5 7104   4.214   5.880   2.891  0.0157  0.6281 -0.0836
 1086ntf    on5 7105   4.391   6.045   2.852 -0.0231 -0.1469  0.3378
 1086ntf    on5 7106   4.507   5.683   2.589 -0.4078 -0.1937 -0.2166
 1086ntf    on5 7107   4.388   5.903   2.565 -0.4475 -0.3194  0.5776
 1086ntf    fn4 7108   4.621   6.019   2.716 -0.3500  0.1636 -0.0329
 1086ntf    fn4 7109   4.702   5.899   2.554 -0.0395 -0.3962  0.0167
 1086ntf    fn4 7110   4.708   5.832   2.753  0.3223  0.0809 -0.2121
 1087ntf    cn1 7111   0.938   1.646   5.134 -0.3579  0.1198 -0.0648
 1087ntf    sn2 7112   0.952   1.815   5.067 -0.2198  0.0671 -0.1682
 1087ntf    nn3 7113   0.886   1.898   5.182 -0.0196  0.3843 -0.2814
 1087ntf    sn2 7114   0.734   1.933   5.207  0.0184  0.4175 -0.0895
 1087ntf    cn1 7115   0.758   2.097   5.280  0.5474  0.3993 -0.2180
 1087ntf    fn4 7116   0.986   1.639   5.257 -0.2677 -0.3366 -0.1271
 1087ntf    fn4 7117   0.818   1.590   5.140 -0.2466 -0.1304 -0.1669
 1087ntf    fn4 7118   1.009   1.569   5.054 -0.2722 -0.1314  0.2524
 1087ntf    on5 7119   1.094   1.841   5.069 -0.1134 -0.5008 -0.2673
 1087ntf    on5 7120   0.882   1.792   4.943 -0.2290 -0.6262 -0.0419
 1087ntf    on5 7121   0.654   1.962   5.091 -0.2131 -0.3216 -0.1245
 1087ntf    on5 7122   0.670   1.857   5.311  0.3504 -0.2421 -0.3521
 1087ntf    fn4 7123   0.830   2.176   5.202  0.6817 -0.0168 -0.5182
 1087ntf    fn4 7124   0.824   2.095   5.395  0.0340  0.1353  0.0721
 1087ntf    fn4 7125   0.642   2.158   5.296  0.1436 -0.5397  0.5266
 1088ntf    cn1 7126   4.744   3.677   4.190  0.0538 -0.0779 -0.0966
 1088ntf    sn2 7127   4.658   3.530   4.255  0.6560 -0.3866  0.0017
 1088ntf    nn3 7128   4.754   3.467   4.362  0.4375 -0.2308  0.2909
 1088ntf    sn2 7129   4.747   3.482   4.518 -0.1582 -0.3579  0.2767
 1088ntf    cn1 7130   4.634   3.343   4.549 -0.4437 -0.0862  0.4519
 1088ntf    fn4 7131   4.804   3.739   4.290  0.3996  0.3567 -0.5709
 1088ntf    fn4 7132   4.843   3.646   4.109 -0.2918 -0.0969 -0.5184
 1088ntf    fn4 7133   4.664   3.759   4.123 -0.1235 -0.2995 -0.1596
 1088ntf    on5 7134   4.542   3.591   4.314  0.5056 -0.6085 -0.0633
 1088ntf    on5 7135   4.638   3.448   4.138 -0.2641 -0.6044  0.3057
 1088ntf    on5 7136   4.871   3.440   4.578  0.2227  0.3026 -0.0307
 1088ntf    on5 7137   4.694   3.608   4.565  0.1264 -0.3736  0.6393
 1088ntf    fn4 7138   4.548   3.332   4.449  0.0269 -0.1332  0.0472
 1088ntf    fn4 7139   4.567   3.364   4.661  0.0444  0.4404  0.6492
 1088ntf    fn4 7140   4.688   3.223   4.548 -0.4962 -0.1100  0.5587
 1089ntf    cn1 7141   5.451   0.991   1.018  0.0933  0.4914  0.0576
 1089ntf    sn2 7142   5.571   0.962   0.885 -0.0718  0.2490 -0.0391
 1089ntf    nn3 7143   5.516   1.049   0.766  0.1436 -0.1092 -0.4043
 1089ntf    sn2 7144   5.582   1.180   0.711 -0.2855  0.3813  0.2315
 1089ntf    cn1 7145   5.708   1.107   0.601 -0.0494  0.2711  0.5731
 1089ntf    fn4 7146   5.329   0.970   0.971  0.2012 -0.2840  0.1140
 1089ntf    fn4 7147   5.472   0.911   1.121  0.6371  0.0833 -0.3683
 1089ntf    fn4 7148   5.455   1.117   1.060 -0.1998  0.5161  0.0169
 1089ntf    on5 7149   5.699   0.985   0.947 -0.0238 -0.1445  0.0091
 1089ntf    on5 7150   5.546   0.823   0.857  0.5700  0.2447 -0.6063
 1089ntf    on5 7151   5.491   1.247   0.621 -0.2904 -0.0571 -0.0899
 1089ntf    on5 7152   5.652   1.258   0.810  0.7060 -0.0094 -0.1472
 1089ntf    fn4 7153   5.764   1.198   0.523 -0.4633 -0.2377 -0.3325
 1089ntf    fn4 7154   5.666   1.015   0.516  0.3790  0.1471  0.4940
 1089ntf    fn4 7155   5.804   1.049   0.671 -0.0271 -0.2138  0.1440
 1090ntf    cn1 7156   5.697   1.381   5.617  0.1048  0.0260 -0.1842
 1090ntf    sn2 7157   5.556   1.328   5.719  0.0240  0.2090 -0.2005
 1090ntf    nn3 7158   5.559   1.438   5.831  0.1982 -0.0751  0.0756
 1090ntf    sn2 7159   5.570   1.445   5.988 -0.2919  0.2530  0.1002
 1090ntf    cn1 7160   5.504   1.612   6.017 -0.0426  0.3897 -0.1206
 1090ntf    fn4 7161   5.696   1.507   5.575  0.0543  0.1193  0.0922
 1090ntf    fn4 7162   5.814   1.376   5.677  0.2998 -0.0936 -0.5708
 1090ntf    fn4 7163   5.710   1.311   5.505 -0.2690 -0.1416 -0.1256
 1090ntf    on5 7164   5.443   1.351   5.633  0.1114 -0.2830 -0.4477
 1090ntf    on5 7165   5.594   1.196   5.763  0.2053  0.3433  0.0500
 1090ntf    on5 7166   5.476   1.361   6.059  0.2399  0.4582  1.0663
 1090ntf    on5 7167   5.703   1.459   6.041 -0.2371 -0.0032  0.0314
 1090ntf    fn4 7168   5.487   1.628   6.147  0.4891  0.1471 -0.0172
 1090ntf    fn4 7169   5.387   1.641   5.962 -0.1024 -0.0572 -0.2309
 1090ntf    fn4 7170   5.591   1.703   5.977 -0.1008  0.5867  0.1978
 1091ntf    cn1 7171   4.469   5.292   0.495 -0.2013 -0.1522  0.0460
 1091ntf    sn2 7172   4.594   5.187   0.416  0.0302 -0.0818  0.3170
 1091ntf    nn3 7173   4.677   5.299   0.343  0.3250 -0.1023  0.6155
 1091ntf    sn2 7174   4.759   5.289   0.210 -0.2654  0.0980  0.2291
 1091ntf    cn1 7175   4.658   5.379   0.090 -0.1016 -0.2319 -0.1597
 1091ntf    fn4 7176   4.525   5.389   0.566  0.0169 -0.3000  0.0756
 1091ntf    fn4 7177   4.387   5.344   0.405 -0.2104  0.1206  0.2100
 1091ntf    fn4 7178   4.406   5.220   0.586 -0.8195  0.4061  0.0611
 1091ntf    on5 7179   4.665   5.126   0.526  0.5717  0.1156  0.0798
 1091ntf    on5 7180   4.520   5.096   0.333 -0.2352  0.5422 -0.1371
 1091ntf    on5 7181   4.875   5.374   0.213 -0.1647 -0.0094 -0.3534
 1091ntf    on5 7182   4.780   5.154   0.161 -0.5862  0.0028  0.3554
 1091ntf    fn4 7183   4.546   5.316   0.058  0.0615 -0.6224  0.0396
 1091ntf    fn4 7184   4.723   5.410  -0.021  0.1645 -0.0587  0.0429
 1091ntf    fn4 7185   4.625   5.493   0.148 -0.6916 -0.3129 -0.3269
 1092ntf    cn1 7186   3.643   5.312   3.198  0.0699  0.1705  0.5514
 1092ntf    sn2 7187   3.603   5.326   3.021 -0.1554  0.1082  0.5974
 1092ntf    nn3 7188   3.687   5.454   2.987 -0.0559 -0.0779  0.1280
 1092ntf    sn2 7189   3.637   5.599   2.954 -0.1098 -0.0480  0.3353
 1092ntf    cn1 7190   3.566   5.646   3.114 -0.2400  0.4328  0.1386
 1092ntf    fn4 7191   3.603   5.198   3.251 -0.3843 -0.1520 -0.4563
 1092ntf    fn4 7192   3.774   5.327   3.213  0.0507  0.6780  0.2499
 1092ntf    fn4 7193   3.594   5.409   3.273  0.0537  0.5548  0.0515
 1092ntf    on5 7194   3.656   5.202   2.969  0.0899  0.1979  0.6339
 1092ntf    on5 7195   3.460   5.343   3.025 -0.2063 -0.1675  0.1042
 1092ntf    on5 7196   3.747   5.692   2.944  0.0705 -0.2909  0.0368
 1092ntf    on5 7197   3.537   5.603   2.850  0.1223  0.6348  0.1316
 1092ntf    fn4 7198   3.649   5.613   3.211 -0.5153  0.2226  0.3046
 1092ntf    fn4 7199   3.452   5.583   3.138  0.0186 -0.0343  0.1476
 1092ntf    fn4 7200   3.535   5.774   3.121  0.3504  0.5542  0.5995
 1093ntf    cn1 7201   0.735   2.529   3.267 -0.3309  0.2530 -0.3750
 1093ntf    sn2 7202   0.811   2.429   3.136 -0.0612  0.3515 -0.2939
 1093ntf    nn3 7203   0.674   2.371   3.086 -0.1201  0.1227  0.1285
 1093ntf    sn2 7204   0.579   2.434   2.978 -0.2688 -0.3157  0.0036
 1093ntf    cn1 7205   0.417   2.422   3.060 -0.1084 -0.1861  0.3425
 1093ntf    fn4 7206   0.710   2.463   3.378  0.1351  0.2633 -0.2622
 1093ntf    fn4 7207   0.817   2.623   3.310  0.0192 -0.0529 -0.3739
 1093ntf    fn4 7208   0.621   2.586   3.231 -0.5125  0.1191 -0.0174
 1093ntf    on5 7209   0.879   2.527   3.054  0.7986  0.2326  0.2559
 1093ntf    on5 7210   0.898   2.338   3.206 -0.6684  0.1879  0.2531
 1093ntf    on5 7211   0.591   2.572   2.940 -0.1278 -0.2902  0.1415
 1093ntf    on5 7212   0.560   2.335   2.875  0.0824 -0.7855  0.3838
 1093ntf    fn4 7213   0.406   2.491   3.173  0.3007  0.1670  0.1662
 1093ntf    fn4 7214   0.385   2.296   3.087  0.3467 -0.5031 -0.5697
 1093ntf    fn4 7215   0.323   2.473   2.982  0.6494 -0.0063 -0.4610
 1094ntf    cn1 7216   2.372   1.803   0.174  0.3544 -0.0483  0.5106
 1094ntf    sn2 7217   2.225   1.698   0.199  0.0316  0.3503  0.2943
 1094ntf    nn3 7218   2.251   1.586   0.093 -0.2668 -0.1975  0.7942
 1094ntf    sn2 7219   2.315   1.443   0.106  0.0232 -0.1471 -0.0353
 1094ntf    cn1 7220   2.168   1.340   0.076 -0.3071  0.2362  0.2446
 1094ntf    fn4 7221   2.485   1.736   0.193  0.6086  0.2893  0.1947
 1094ntf    fn4 7222   2.386   1.842   0.048 -0.3558 -0.2870  0.3507
 1094ntf    fn4 7223   2.367   1.915   0.244  0.1955  0.0826  0.2924
 1094ntf    on5 7224   2.214   1.653   0.336  0.1956 -0.4609  0.0434
 1094ntf    on5 7225   2.120   1.789   0.159  0.0159 -0.1462 -0.8000
 1094ntf    on5 7226   2.399   1.412  -0.007 -0.1152 -0.5880 -0.0177
 1094ntf    on5 7227   2.368   1.416   0.237  0.2211 -0.2321 -0.1326
 1094ntf    fn4 7228   2.091   1.392  -0.018  0.0332  0.7913  0.2661
 1094ntf    fn4 7229   2.091   1.315   0.180  0.5034  0.1530  0.8394
 1094ntf    fn4 7230   2.208   1.222   0.030 -0.3707  0.2162  0.2400
 1095ntf    cn1 7231   2.399   4.093   5.523 -0.1193 -0.1636  0.1354
 1095ntf    sn2 7232   2.393   4.171   5.687  0.3569  0.0622  0.0476
 1095ntf    nn3 7233   2.543   4.143   5.726  0.3927 -0.0560 -0.1752
 1095ntf    sn2 7234   2.591   4.017   5.806 -0.1039 -0.1905 -0.0825
 1095ntf    cn1 7235   2.617   4.097   5.967 -0.2992  0.1931 -0.2410
 1095ntf    fn4 7236   2.450   3.972   5.532  0.0267 -0.0871  0.3362
 1095ntf    fn4 7237   2.278   4.073   5.472  0.1119 -0.1552 -0.4244
 1095ntf    fn4 7238   2.478   4.152   5.435 -0.1537  0.4182  0.4829
 1095ntf    on5 7239   2.370   4.310   5.659  0.1141 -0.0002 -0.0618
 1095ntf    on5 7240   2.293   4.098   5.762 -0.1049  0.1480 -0.4833
 1095ntf    on5 7241   2.509   3.902   5.834 -0.7155  0.4688  0.9075
 1095ntf    on5 7242   2.725   3.979   5.767 -0.0585 -0.1638  0.0477
 1095ntf    fn4 7243   2.712   4.188   5.956 -0.0975 -0.0368 -0.4039
 1095ntf    fn4 7244   2.658   4.013   6.060 -0.0303  0.4302 -0.1421
 1095ntf    fn4 7245   2.506   4.156   6.008 -0.3295  0.3930 -0.6053
 1096ntf    cn1 7246   5.335   1.167   2.073  0.0322  0.0707 -0.0771
 1096ntf    sn2 7247   5.264   1.333   2.055 -0.0665  0.0202 -0.1523
 1096ntf    nn3 7248   5.378   1.417   2.123  0.0359 -0.2072 -0.0436
 1096ntf    sn2 7249   5.415   1.435   2.275 -0.4205 -0.1895  0.0663
 1096ntf    cn1 7250   5.350   1.603   2.298  0.2282  0.0923 -0.1461
 1096ntf    fn4 7251   5.364   1.129   2.196 -0.2878 -0.1790 -0.0783
 1096ntf    fn4 7252   5.256   1.077   2.017  0.1850  0.0213 -0.2165
 1096ntf    fn4 7253   5.455   1.160   2.016 -0.0150 -0.4600 -0.1121
 1096ntf    on5 7254   5.266   1.346   1.912  0.0061  0.2160 -0.1336
 1096ntf    on5 7255   5.133   1.322   2.115  0.0239  0.3004  0.0968
 1096ntf    on5 7256   5.343   1.355   2.371 -0.0821 -0.6601 -0.0698
 1096ntf    on5 7257   5.556   1.454   2.293 -0.3363 -0.0607 -0.7053
 1096ntf    fn4 7258   5.419   1.697   2.236  0.1892  0.2331  0.0212
 1096ntf    fn4 7259   5.343   1.637   2.426  0.4031 -0.5397  0.0329
 1096ntf    fn4 7260   5.228   1.616   2.249  0.2588 -0.8420 -0.4854
 1097ntf    cn1 7261   5.348   1.580   4.451  0.2614 -0.1395  0.5224
 1097ntf    sn2 7262   5.406   1.418   4.393  0.2687  0.1060 -0.1613
 1097ntf    nn3 7263   5.389   1.337   4.526 -0.2170  0.3484 -0.0723
 1097ntf    sn2 7264   5.489   1.291   4.638 -0.2738 -0.3126 -0.2838
 1097ntf    cn1 7265   5.484   1.432   4.753 -0.2769 -0.6833  0.1747
 1097ntf    fn4 7266   5.334   1.682   4.368 -0.7412 -0.0992  0.7289
 1097ntf    fn4 7267   5.228   1.570   4.507  0.1952 -0.0425  0.3977
 1097ntf    fn4 7268   5.424   1.635   4.544 -0.0827  0.7558  0.2910
 1097ntf    on5 7269   5.310   1.381   4.291 -0.0413 -0.1436  0.2195
 1097ntf    on5 7270   5.540   1.445   4.347  0.1947  0.2550 -0.2943
 1097ntf    on5 7271   5.442   1.178   4.715 -0.3862  0.1729  0.3743
 1097ntf    on5 7272   5.629   1.290   4.602 -0.0926  0.2168  0.3820
 1097ntf    fn4 7273   5.360   1.475   4.771 -0.1615 -0.1748 -0.2321
 1097ntf    fn4 7274   5.564   1.527   4.707 -0.3137 -0.4339  0.6167
 1097ntf    fn4 7275   5.528   1.409   4.875  0.5207  0.7281  0.1767
 1098ntf    cn1 7276   0.146   5.789   4.144  0.3152 -0.4018  0.2282
 1098ntf    sn2 7277   0.244   5.700   4.269  0.6546  0.1785  0.3788
 1098ntf    nn3 7278   0.216   5.788   4.396 -0.1594  0.3408  0.0932
 1098ntf    sn2 7279   0.114   5.769   4.515 -0.1436  0.3256  0.1037
 1098ntf    cn1 7280   0.022   5.925   4.520 -0.2405  0.2813 -0.2492
 1098ntf    fn4 7281   0.124   5.731   4.027  0.1940 -0.1579  0.1298
 1098ntf    fn4 7282   0.028   5.819   4.197  0.2283  0.0968 -0.2435
 1098ntf    fn4 7283   0.210   5.901   4.115  1.0102 -0.7789  0.2883
 1098ntf    on5 7284   0.195   5.564   4.265  0.2529  0.3259  0.2084
 1098ntf    on5 7285   0.378   5.718   4.222  0.3593 -0.1493 -0.6092
 1098ntf    on5 7286   0.016   5.665   4.495 -0.0479  0.2590 -0.0279
 1098ntf    on5 7287   0.174   5.780   4.645  0.0063  0.4516  0.0249
 1098ntf    fn4 7288  -0.083   5.914   4.600 -0.2447  0.0959 -0.2816
 1098ntf    fn4 7289  -0.015   5.975   4.403  0.4099 -0.1819 -0.6557
 1098ntf    fn4 7290   0.086   6.027   4.577  0.0284 -0.0661  0.0737
 1099ntf    cn1 7291   3.725   5.892   4.854 -0.0196 -0.4477 -0.1959
 1099ntf    sn2 7292   3.846   6.020   4.809 -0.1350 -0.2705 -0.0042
 1099ntf    nn3 7293   3.973   5.933   4.780  0.1982  0.2993 -0.2799
 1099ntf    sn2 7294   4.107   5.935   4.863  0.0251 -0.0425  0.0112
 1099ntf    cn1 7295   4.054   5.806   4.980 -0.1837 -0.0233 -0.0625
 1099ntf    fn4 7296   3.614   5.945   4.903  0.4165  0.1954  0.1202
 1099ntf    fn4 7297   3.692   5.829   4.743  0.3384 -0.3880 -0.3376
 1099ntf    fn4 7298   3.777   5.803   4.937 -0.0306 -0.1194  0.1661
 1099ntf    on5 7299   3.796   6.079   4.687  0.3907 -0.4404 -0.3046
 1099ntf    on5 7300   3.842   6.103   4.927 -0.3821 -0.9819  0.4965
 1099ntf    on5 7301   4.211   5.869   4.788  0.0099 -0.1681  0.0978
 1099ntf    on5 7302   4.133   6.058   4.933 -0.4164 -0.1680  0.4008
 1099ntf    fn4 7303   4.147   5.762   5.064 -0.5497 -0.3295  0.1867
 1099ntf    fn4 7304   4.002   5.702   4.917 -0.3692  0.3109 -0.4665
 1099ntf    fn4 7305   3.961   5.860   5.057 -0.2774 -0.3502  0.0531
 1100ntf    cn1 7306   5.694   0.523   5.910  0.2982  0.2194  0.6150
 1100ntf    sn2 7307   5.695   0.601   5.745  0.1556 -0.2145  0.4091
 1100ntf    nn3 7308   5.850   0.625   5.737  0.0615  0.2878  0.0549
 1100ntf    sn2 7309   5.969   0.539   5.681 -0.1331 -0.0561  0.1623
 1100ntf    cn1 7310   6.003   0.642   5.534 -0.1501 -0.3015 -0.0141
 1100ntf    fn4 7311   5.733   0.397   5.906 -0.1581  0.0915  0.1682
 1100ntf    fn4 7312   5.762   0.583   6.007  0.7459  0.3140  0.2465
 1100ntf    fn4 7313   5.571   0.516   5.956 -0.0770 -0.7602 -0.5078
 1100ntf    on5 7314   5.640   0.499   5.659  0.1861 -0.0325  0.1725
 1100ntf    on5 7315   5.619   0.723   5.757  0.3662 -0.0183 -0.2666
 1100ntf    on5 7316   6.087   0.555   5.762 -0.0356 -0.2578  0.0611
 1100ntf    on5 7317   5.948   0.412   5.617 -0.3169  0.0606 -0.0123
 1100ntf    fn4 7318   5.905   0.642   5.445 -0.0734 -0.4130 -0.0981
 1100ntf    fn4 7319   6.107   0.596   5.468 -0.0840 -0.5400  0.2508
 1100ntf    fn4 7320   6.025   0.769   5.563  0.3399 -0.4927  0.4637
 1101ntf    cn1 7321   2.093   0.097   2.497  0.2317  0.0510  0.3467
 1101ntf    sn2 7322   1.996   0.092   2.650 -0.3416  0.1466 -0.0111
 1101ntf    nn3 7323   2.072   0.187   2.750  0.4232 -0.2651 -0.1979
 1101ntf    sn2 7324   2.061   0.343   2.768  0.3631 -0.3128  0.1882
 1101ntf    cn1 7325   1.993   0.344   2.936  0.2593  0.5072  0.1443
 1101ntf    fn4 7326   2.212   0.041   2.508  0.0619 -0.3704  0.0515
 1101ntf    fn4 7327   2.032   0.040   2.395  0.6621 -0.4506  0.3643
 1101ntf    fn4 7328   2.120   0.220   2.454 -0.1111 -0.1877 -0.5745
 1101ntf    on5 7329   1.868   0.131   2.596 -0.6405 -0.2928  0.3724
 1101ntf    on5 7330   2.008  -0.046   2.687  0.6129  0.2669  0.1509
 1101ntf    on5 7331   2.196   0.392   2.783  0.3585 -0.1903 -0.1451
 1101ntf    on5 7332   1.973   0.420   2.684  1.1001  0.1057 -0.2188
 1101ntf    fn4 7333   1.870   0.294   2.936  0.3811  0.2054  0.4506
 1101ntf    fn4 7334   1.977   0.464   2.989 -0.1496  0.5114  0.0147
 1101ntf    fn4 7335   2.055   0.266   3.023 -0.2308  0.1691  0.1973
 1102ntf    cn1 7336   1.527   2.004   4.401 -0.1748 -0.3451 -0.0996
 1102ntf    sn2 7337   1.384   2.051   4.299 -0.2021  0.1493  0.1628
 1102ntf    nn3 7338   1.275   2.076   4.409 -0.3113 -0.1178  0.1189
 1102ntf    sn2 7339   1.176   2.194   4.438 -0.4655 -0.1782 -0.1613
 1102ntf    cn1 7340   1.282   2.327   4.503 -0.0010 -0.2950 -0.6739
 1102ntf    fn4 7341   1.642   2.057   4.365 -0.4937  0.2622 -0.2374
 1102ntf    fn4 7342   1.514   2.050   4.524 -0.3378  0.8168 -0.5406
 1102ntf    fn4 7343   1.543   1.873   4.407  0.1581 -0.2929  0.1514
 1102ntf    on5 7344   1.435   2.167   4.230  0.0210 -0.0661 -0.0353
 1102ntf    on5 7345   1.364   1.927   4.228  0.6359 -0.4530  0.9604
 1102ntf    on5 7346   1.105   2.250   4.326  0.0025 -0.1138 -0.4291
 1102ntf    on5 7347   1.093   2.164   4.553  0.1939 -0.2286  0.3093
 1102ntf    fn4 7348   1.202   2.431   4.523  0.0108 -0.3484 -0.3342
 1102ntf    fn4 7349   1.377   2.372   4.424  0.2023  0.0394 -0.2434
 1102ntf    fn4 7350   1.330   2.301   4.623 -0.2812  0.1217 -0.4669
 1103ntf    cn1 7351   5.871   0.346   1.850  0.4193  0.0656 -0.0414
 1103ntf    sn2 7352   5.734   0.265   1.762  0.4512 -0.0822  0.0450
 1103ntf    nn3 7353   5.684   0.388   1.679 -0.4818 -0.3360  0.2200
 1103ntf    sn2 7354   5.704   0.427   1.529 -0.1035  0.1380  0.3871
 1103ntf    cn1 7355   5.550   0.376   1.445  0.0625  0.3805 -0.0686
 1103ntf    fn4 7356   5.943   0.260   1.920 -0.7499 -0.3621  0.6540
 1103ntf    fn4 7357   5.956   0.408   1.769  0.2031 -0.0496 -0.3593
 1103ntf    fn4 7358   5.817   0.429   1.938  0.0523  0.0389 -0.2377
 1103ntf    on5 7359   5.815   0.173   1.686  0.1308  0.3296 -0.8036
 1103ntf    on5 7360   5.642   0.222   1.865  0.4224  0.1051  0.0969
 1103ntf    on5 7361   5.704   0.570   1.513 -0.1991  0.0889 -0.0885
 1103ntf    on5 7362   5.800   0.355   1.449 -0.2063  0.8753 -0.4094
 1103ntf    fn4 7363   5.442   0.440   1.486  0.2300  0.5354  0.1357
 1103ntf    fn4 7364   5.530   0.245   1.443  0.0029  0.3788  0.4824
 1103ntf    fn4 7365   5.563   0.414   1.319  0.3765  0.4888 -0.0037
 1104ntf    cn1 7366   1.373   0.736   3.828 -0.0116  0.1540 -0.2344
 1104ntf    sn2 7367   1.210   0.661   3.800  0.0801 -0.1806  0.1042
 1104ntf    nn3 7368   1.207   0.572   3.929  0.4172  0.0883  0.2999
 1104ntf    sn2 7369   1.208   0.415   3.933 -0.0860  0.0803  0.1926
 1104ntf    cn1 7370   1.124   0.381   4.090 -0.4818  0.3881  0.0484
 1104ntf    fn4 7371   1.386   0.804   3.941  0.7978 -0.2027 -0.0994
 1104ntf    fn4 7372   1.476   0.652   3.818  0.1833  0.3929 -0.2514
 1104ntf    fn4 7373   1.387   0.833   3.739  0.0901  0.6478  0.3135
 1104ntf    on5 7374   1.115   0.770   3.801 -0.3363 -0.5448  0.2955
 1104ntf    on5 7375   1.243   0.601   3.673  0.1592  0.2448 -0.0797
 1104ntf    on5 7376   1.128   0.346   3.835  0.1677 -0.3868  0.3123
 1104ntf    on5 7377   1.345   0.373   3.955  0.3098  1.0278 -0.4041
 1104ntf    fn4 7378   1.122   0.251   4.115 -0.3563  0.3748 -0.0119
 1104ntf    fn4 7379   1.001   0.429   4.079 -0.5934 -0.0427 -0.6318
 1104ntf    fn4 7380   1.179   0.444   4.193 -0.7375  0.5065  0.1128
 1105ntf    cn1 7381   6.224   5.803   3.498  0.1641 -0.2064  0.0250
 1105ntf    sn2 7382   6.363   5.691   3.534  0.3703  0.0777  0.1171
 1105ntf    nn3 7383   6.403   5.730   3.681  0.9950  0.4119 -0.1394
 1105ntf    sn2 7384   6.372   5.649   3.812  0.0936  0.1336 -0.5175
 1105ntf    cn1 7385   6.505   5.712   3.919 -0.2481  0.0470 -0.0431
 1105ntf    fn4 7386   6.253   5.926   3.536 -0.1717  0.0507 -0.5404
 1105ntf    fn4 7387   6.187   5.806   3.371  0.5860  0.1785 -0.0878
 1105ntf    fn4 7388   6.115   5.773   3.567 -0.0356  0.2341 -0.0937
 1105ntf    on5 7389   6.306   5.563   3.500 -0.9043  0.5384  0.4379
 1105ntf    on5 7390   6.469   5.738   3.449 -0.0605  0.0551 -0.4433
 1105ntf    on5 7391   6.253   5.686   3.885  0.5285 -0.0187  0.2781
 1105ntf    on5 7392   6.407   5.509   3.809 -0.3208  0.0169  0.1036
 1105ntf    fn4 7393   6.622   5.701   3.858 -0.5140 -0.2619 -0.5087
 1105ntf    fn4 7394   6.514   5.649   4.035  0.1690 -0.2227 -0.2207
 1105ntf    fn4 7395   6.495   5.842   3.941  0.4526  0.0697  0.1383
 1106ntf    cn1 7396   5.977   0.182   1.005  0.1425 -0.1522 -0.2631
 1106ntf    sn2 7397   5.842   0.081   0.938 -0.1460  0.0667 -0.0145
 1106ntf    nn3 7398   5.851   0.152   0.798  0.0177  0.1683  0.0469
 1106ntf    sn2 7399   5.739   0.242   0.735 -0.0727  0.3069  0.4058
 1106ntf    cn1 7400   5.821   0.302   0.584 -0.1769  0.0558  0.2488
 1106ntf    fn4 7401   6.016   0.139   1.124  0.0618 -0.0377 -0.1946
 1106ntf    fn4 7402   6.088   0.189   0.933  0.1405  0.1472 -0.2381
 1106ntf    fn4 7403   5.941   0.308   1.022 -0.3392 -0.3736  0.3834
 1106ntf    on5 7404   5.901  -0.050   0.931 -0.3149  0.0031 -0.2566
 1106ntf    on5 7405   5.726   0.109   1.019  0.2091 -0.1280  0.5677
 1106ntf    on5 7406   5.628   0.161   0.692 -0.3694  0.7930  0.2479
 1106ntf    on5 7407   5.722   0.370   0.800  0.3520  0.6783 -0.2049
 1106ntf    fn4 7408   5.734   0.373   0.514 -0.4455 -0.4109  0.1027
 1106ntf    fn4 7409   5.856   0.199   0.509 -0.0545  0.1918  0.1203
 1106ntf    fn4 7410   5.927   0.380   0.594  0.1663 -0.3773 -0.0018
 1107ntf    cn1 7411   4.825   1.319   4.980  0.2105 -0.0822  0.0096
 1107ntf    sn2 7412   4.746   1.448   5.081  0.1338 -0.0845 -0.0470
 1107ntf    nn3 7413   4.694   1.551   4.975  0.2039  0.2779  0.2679
 1107ntf    sn2 7414   4.546   1.580   4.931  0.1256 -0.3106  0.1375
 1107ntf    cn1 7415   4.491   1.696   5.060  0.1134  0.1606 -0.2884
 1107ntf    fn4 7416   4.889   1.222   5.044  0.6240  0.1746 -0.0137
 1107ntf    fn4 7417   4.738   1.252   4.906 -0.0735 -0.3783  0.6016
 1107ntf    fn4 7418   4.920   1.369   4.904  0.3103  0.2885  0.3711
 1107ntf    on5 7419   4.647   1.373   5.153  0.0012  0.3517  0.2304
 1107ntf    on5 7420   4.854   1.510   5.154  0.2305 -0.2482 -0.0498
 1107ntf    on5 7421   4.541   1.662   4.812  0.1583 -0.2600  0.1714
 1107ntf    on5 7422   4.457   1.467   4.943 -0.0149 -0.2660 -0.4317
 1107ntf    fn4 7423   4.386   1.768   5.024  0.0299  0.2304  0.0948
 1107ntf    fn4 7424   4.588   1.782   5.085  0.2122 -0.1152  0.2830
 1107ntf    fn4 7425   4.457   1.636   5.172 -0.2832  0.6193 -0.1605
 1108ntf    cn1 7426   3.059   3.181   5.024 -0.2451  0.3746 -0.1963
 1108ntf    sn2 7427   2.990   3.016   4.989 -0.0779  0.2411  0.0978
 1108ntf    nn3 7428   2.853   3.029   5.065 -0.7706 -0.0603 -1.0825
 1108ntf    sn2 7429   2.759   2.919   5.126 -0.0159  0.0234  0.2670
 1108ntf    cn1 7430   2.644   2.888   4.989 -0.1818  0.2081  0.3627
 1108ntf    fn4 7431   3.056   3.199   5.155 -0.0887  0.2604 -0.1754
 1108ntf    fn4 7432   3.183   3.194   4.979 -0.1292  0.0682  0.0239
 1108ntf    fn4 7433   2.990   3.278   4.968 -0.2891  0.3186 -0.2384
 1108ntf    on5 7434   2.964   3.017   4.847  0.3885  0.0895  0.0100
 1108ntf    on5 7435   3.087   2.924   5.043  0.2925  0.3579 -0.3631
 1108ntf    on5 7436   2.819   2.793   5.159  0.1346  0.1557  0.5006
 1108ntf    on5 7437   2.667   2.983   5.218  0.0401  0.5349 -0.0289
 1108ntf    fn4 7438   2.590   2.997   4.938  0.2489  0.5170  0.5635
 1108ntf    fn4 7439   2.539   2.817   5.027 -0.2984 -0.1267 -0.5461
 1108ntf    fn4 7440   2.704   2.819   4.893 -0.2874  0.7014 -0.0656
 1109ntf    cn1 7441   0.848   3.817   0.673 -0.3811  0.1473  0.0255
 1109ntf    sn2 7442   0.789   3.690   0.558 -0.2366  0.0926  0.0114
 1109ntf    nn3 7443   0.668   3.634   0.641 -0.1253 -0.0589  0.0736
 1109ntf    sn2 7444   0.668   3.497   0.718  0.0559  0.0844  0.3323
 1109ntf    cn1 7445   0.511   3.508   0.809 -0.1575  0.4512 -0.0725
 1109ntf    fn4 7446   0.850   3.773   0.798  0.3196 -0.2180 -0.1084
 1109ntf    fn4 7447   0.970   3.857   0.641 -0.3003 -0.1229 -0.0071
 1109ntf    fn4 7448   0.782   3.931   0.668 -0.1658  0.2846  0.2733
 1109ntf    on5 7449   0.749   3.770   0.445 -1.2517 -0.0715  0.2480
 1109ntf    on5 7450   0.900   3.599   0.542 -0.2645 -0.0366  0.5133
 1109ntf    on5 7451   0.649   3.375   0.643  0.4750  0.3043 -0.1369
 1109ntf    on5 7452   0.767   3.489   0.822  0.5570 -0.4645 -0.1781
 1109ntf    fn4 7453   0.482   3.399   0.879 -0.3608  0.1827 -0.5778
 1109ntf    fn4 7454   0.409   3.527   0.728 -0.0519 -0.0617 -0.3296
 1109ntf    fn4 7455   0.509   3.613   0.890 -0.9572  0.1875  0.2586
 1110ntf    cn1 7456   3.573   4.791   4.231  0.0440 -0.2365 -0.2119
 1110ntf    sn2 7457   3.658   4.637   4.276 -0.1794 -0.1770  0.4313
 1110ntf    nn3 7458   3.658   4.639   4.433  0.6226  0.2069  0.4321
 1110ntf    sn2 7459   3.564   4.576   4.542 -0.0530 -0.0811 -0.2989
 1110ntf    cn1 7460   3.668   4.434   4.587  0.2370  0.2391  0.0546
 1110ntf    fn4 7461   3.519   4.790   4.111  0.1501 -0.0868 -0.2609
 1110ntf    fn4 7462   3.471   4.821   4.310 -0.3068 -0.3904 -0.6078
 1110ntf    fn4 7463   3.652   4.898   4.226 -0.7213  0.3409 -0.1909
 1110ntf    on5 7464   3.574   4.537   4.213 -0.7612  0.2356  0.5454
 1110ntf    on5 7465   3.793   4.662   4.230 -0.1815 -0.5547  0.2138
 1110ntf    on5 7466   3.568   4.653   4.665 -0.2539 -0.3931 -0.0959
 1110ntf    on5 7467   3.440   4.517   4.500 -0.0444 -0.5291  0.2939
 1110ntf    fn4 7468   3.779   4.460   4.654  0.3099 -0.4698  0.2154
 1110ntf    fn4 7469   3.711   4.376   4.476  0.2660  0.7677 -0.2143
 1110ntf    fn4 7470   3.603   4.340   4.653  0.4465  0.3999  0.4930
 1111ntf    cn1 7471   4.713   1.464   3.422  0.2475 -0.0456 -0.0297
 1111ntf    sn2 7472   4.771   1.316   3.510  0.2807 -0.0697 -0.0918
 1111ntf    nn3 7473   4.759   1.369   3.657  0.1120  0.0565 -0.1503
 1111ntf    sn2 7474   4.862   1.438   3.754 -0.0457 -0.0016  0.0594
 1111ntf    cn1 7475   4.891   1.316   3.885 -0.0639 -0.0241  0.0429
 1111ntf    fn4 7476   4.790   1.571   3.439 -0.1160  0.2338 -0.1172
 1111ntf    fn4 7477   4.699   1.443   3.292 -0.4747 -0.0403  0.0424
 1111ntf    fn4 7478   4.592   1.494   3.466  0.0991  0.0802 -0.5136
 1111ntf    on5 7479   4.673   1.214   3.481  0.3226 -0.2397  0.3620
 1111ntf    on5 7480   4.901   1.292   3.453  0.2198 -0.3895 -0.0973
 1111ntf    on5 7481   4.990   1.472   3.699 -0.2841  0.0640 -0.4646
 1111ntf    on5 7482   4.792   1.547   3.818  0.2067  0.2167 -0.0345
 1111ntf    fn4 7483   4.946   1.203   3.843 -0.5238 -0.1579 -0.1994
 1111ntf    fn4 7484   4.780   1.287   3.951 -0.3667  0.1928 -0.3680
 1111ntf    fn4 7485   4.983   1.359   3.970 -0.0679 -0.1011  0.0858
 1112ntf    cn1 7486   0.410   2.892   3.734 -0.0924 -0.5045 -0.2472
 1112ntf    sn2 7487   0.239   2.831   3.749 -0.2683  0.1172  0.3313
 1112ntf    nn3 7488   0.195   2.847   3.599 -1.0698 -0.5394  0.4907
 1112ntf    sn2 7489   0.096   2.951   3.534 -0.1494  0.0760  0.0520
 1112ntf    cn1 7490  -0.059   2.855   3.530  0.0201 -0.2177  0.3588
 1112ntf    fn4 7491   0.481   2.917   3.842 -0.0890 -0.1737 -0.3246
 1112ntf    fn4 7492   0.484   2.812   3.659 -0.2942 -0.7582 -0.1772
 1112ntf    fn4 7493   0.411   3.001   3.659 -0.1078  0.1316  0.6740
 1112ntf    on5 7494   0.256   2.691   3.782 -0.4072 -0.0658 -0.3436
 1112ntf    on5 7495   0.182   2.918   3.848  0.0934  0.0782  0.5781
 1112ntf    on5 7496   0.067   3.065   3.617  0.2144  0.1612  0.0620
 1112ntf    on5 7497   0.139   2.973   3.399 -0.0108  0.2161  0.1182
 1112ntf    fn4 7498  -0.079   2.798   3.647 -0.0316 -0.0438  0.4355
 1112ntf    fn4 7499  -0.043   2.757   3.442 -0.2885  0.1942 -0.1641
 1112ntf    fn4 7500  -0.162   2.927   3.489  0.3378  0.1809  0.2523
 1113ntf    cn1 7501   3.528   4.307   6.385 -0.1411  0.0293 -0.0651
 1113ntf    sn2 7502   3.408   4.174   6.354 -0.1421 -0.0389  0.2301
 1113ntf    nn3 7503   3.475   4.107   6.229 -0.5105  0.2573 -0.1256
 1113ntf    sn2 7504   3.408   4.048   6.100 -0.0717 -0.2221 -0.1377
 1113ntf    cn1 7505   3.476   4.162   5.976 -0.0486  0.1295  0.1966
 1113ntf    fn4 7506   3.498   4.371   6.497 -0.1921  0.5569 -0.3751
 1113ntf    fn4 7507   3.654   4.265   6.388 -0.1748 -0.1369 -0.7501
 1113ntf    fn4 7508   3.530   4.396   6.288  0.2165 -0.0311 -0.1153
 1113ntf    on5 7509   3.405   4.097   6.476  0.3860 -0.1440  0.1783
 1113ntf    on5 7510   3.290   4.254   6.333 -0.1444 -0.3365 -0.9578
 1113ntf    on5 7511   3.468   3.922   6.067  0.0024 -0.2230  0.0019
 1113ntf    on5 7512   3.264   4.063   6.092 -0.0507  0.1807  0.2151
 1113ntf    fn4 7513   3.441   4.125   5.854 -0.2808 -0.2842  0.3849
 1113ntf    fn4 7514   3.608   4.174   5.984 -0.0558  0.2287  0.1735
 1113ntf    fn4 7515   3.431   4.284   6.002 -0.2961  0.0550  0.1245
 1114ntf    cn1 7516   2.663   3.982   4.687  0.2614 -0.0653  0.2105
 1114ntf    sn2 7517   2.742   3.843   4.772 -0.0398 -0.3023  0.1043
 1114ntf    nn3 7518   2.718   3.878   4.923 -0.5246 -0.2039  0.0030
 1114ntf    sn2 7519   2.594   3.849   5.015 -0.2975 -0.3822  0.2543
 1114ntf    cn1 7520   2.638   3.687   5.083 -0.1102 -0.4666 -0.0643
 1114ntf    fn4 7521   2.704   3.985   4.561  0.3786 -0.0780  0.2482
 1114ntf    fn4 7522   2.531   3.981   4.695  0.2252  0.1473 -0.3002
 1114ntf    fn4 7523   2.698   4.097   4.744 -0.0922 -0.0350  0.3715
 1114ntf    on5 7524   2.674   3.725   4.725 -0.1102 -0.1274 -0.2308
 1114ntf    on5 7525   2.879   3.856   4.727 -0.0734  0.1219  0.1263
 1114ntf    on5 7526   2.595   3.933   5.132 -0.4250 -0.4881  0.3315
 1114ntf    on5 7527   2.469   3.828   4.945 -0.2491  0.4158 -0.0796
 1114ntf    fn4 7528   2.549   3.643   5.171  0.1776 -0.0231  0.4536
 1114ntf    fn4 7529   2.754   3.682   5.147 -0.1337  0.4727  0.0574
 1114ntf    fn4 7530   2.653   3.600   4.984  0.2091  0.0524 -0.4779
 1115ntf    cn1 7531   0.661   3.089   1.866  0.0927 -0.6115  0.1653
 1115ntf    sn2 7532   0.610   3.140   2.033  0.4068  0.0810  0.0532
 1115ntf    nn3 7533   0.457   3.123   2.007  0.3218  0.1842  0.4693
 1115ntf    sn2 7534   0.355   3.024   2.073  0.3171 -0.0985  0.0433
 1115ntf    cn1 7535   0.309   2.930   1.924  0.1088 -0.0287  0.0626
 1115ntf    fn4 7536   0.792   3.101   1.857 -0.0364  0.4313 -0.4549
 1115ntf    fn4 7537   0.623   2.964   1.848  0.6249 -0.6662 -0.5768
 1115ntf    fn4 7538   0.613   3.167   1.771  0.0521 -0.4498  0.3170
 1115ntf    on5 7539   0.680   3.057   2.128  0.1165  0.0641  0.2545
 1115ntf    on5 7540   0.647   3.280   2.033  0.7170  0.0009 -0.3768
 1115ntf    on5 7541   0.414   2.922   2.156  0.4500 -0.0990 -0.0518
 1115ntf    on5 7542   0.225   3.071   2.114  0.2894 -0.0360 -0.1144
 1115ntf    fn4 7543   0.398   2.844   1.877 -0.2030 -0.0660 -0.4686
 1115ntf    fn4 7544   0.280   3.007   1.821  0.0270  0.2310  0.2789
 1115ntf    fn4 7545   0.198   2.862   1.949  0.0119  0.0634 -0.1187
 1116ntf    cn1 7546   4.404   4.276   4.245 -0.0633 -0.4606 -0.2390
 1116ntf    sn2 7547   4.505   4.346   4.111 -0.0766 -0.0155 -0.0159
 1116ntf    nn3 7548   4.590   4.222   4.068  0.5856  0.2591  0.4790
 1116ntf    sn2 7549   4.670   4.189   3.937  0.0862  0.0989  0.2117
 1116ntf    cn1 7550   4.594   4.029   3.899  0.4816 -0.0224 -0.0798
 1116ntf    fn4 7551   4.477   4.212   4.335 -0.0878  0.0456  0.1448
 1116ntf    fn4 7552   4.342   4.381   4.297 -0.0984 -0.3793 -0.4442
 1116ntf    fn4 7553   4.312   4.192   4.199 -0.4714 -0.1660  0.0277
 1116ntf    on5 7554   4.406   4.385   4.015 -0.4935 -0.5282  0.2017
 1116ntf    on5 7555   4.582   4.448   4.178 -0.1948 -0.1375  0.3052
 1116ntf    on5 7556   4.628   4.266   3.822  0.4101  0.0681  0.0695
 1116ntf    on5 7557   4.811   4.163   3.956  0.2082  0.1602 -0.5432
 1116ntf    fn4 7558   4.592   3.953   4.007  0.4356  0.7237  0.4460
 1116ntf    fn4 7559   4.652   3.970   3.795  0.0388  0.0870 -0.3907
 1116ntf    fn4 7560   4.466   4.051   3.872  0.5527  0.0170 -0.3936
 1117ntf    cn1 7561   1.025   1.226   5.609  0.2792 -0.3305 -0.0829
 1117ntf    sn2 7562   1.204   1.198   5.621  0.2761 -0.3802 -0.1561
 1117ntf    nn3 7563   1.248   1.167   5.473  0.6891  0.1657 -0.1506
 1117ntf    sn2 7564   1.292   1.262   5.356  0.1736  0.2598 -0.2681
 1117ntf    cn1 7565   1.472   1.269   5.378  0.0888  0.2447  0.4607
 1117ntf    fn4 7566   0.999   1.312   5.512  0.6908 -0.1047  0.0036
 1117ntf    fn4 7567   0.951   1.118   5.591 -0.3453  0.0014  0.4474
 1117ntf    fn4 7568   0.971   1.284   5.716 -0.1023 -0.2348 -0.3236
 1117ntf    on5 7569   1.235   1.324   5.685  0.2079 -0.1874 -0.5005
 1117ntf    on5 7570   1.219   1.084   5.708  0.4048 -0.1727  0.0942
 1117ntf    on5 7571   1.288   1.203   5.224  0.4888 -0.2166 -0.0647
 1117ntf    on5 7572   1.256   1.400   5.374  0.0702  0.1081  0.7170
 1117ntf    fn4 7573   1.529   1.353   5.293 -0.1443 -0.1679 -0.1180
 1117ntf    fn4 7574   1.536   1.154   5.370 -0.0793  0.1652  0.2124
 1117ntf    fn4 7575   1.507   1.308   5.499 -0.8694  0.5872  0.6385
 1118ntf    cn1 7576   5.170   6.011   2.965 -0.0470  0.3348  0.0371
 1118ntf    sn2 7577   5.193   6.124   2.825 -0.3221  0.1967 -0.1206
 1118ntf    nn3 7578   5.042   6.132   2.783 -0.5131  0.9941  0.6776
 1118ntf    sn2 7579   4.986   6.206   2.657  0.1903 -0.1311 -0.3184
 1118ntf    cn1 7580   4.834   6.271   2.732  0.2852  0.0971 -0.3221
 1118ntf    fn4 7581   5.147   5.887   2.924  0.2822  0.4609 -0.5325
 1118ntf    fn4 7582   5.276   6.002   3.044 -0.1446 -0.2746  0.1047
 1118ntf    fn4 7583   5.062   6.042   3.035 -0.5246 -0.2831 -0.4250
 1118ntf    on5 7584   5.240   6.247   2.886 -0.2027  0.0217  0.1425
 1118ntf    on5 7585   5.277   6.054   2.731  0.4644  0.2656  0.5226
 1118ntf    on5 7586   5.053   6.324   2.607  0.1416  0.0558  0.0556
 1118ntf    on5 7587   4.945   6.112   2.555 -0.4266 -0.2791  0.0642
 1118ntf    fn4 7588   4.766   6.191   2.813  0.0100  0.6252 -0.0297
 1118ntf    fn4 7589   4.744   6.321   2.649 -0.0023  0.0012 -0.0700
 1118ntf    fn4 7590   4.865   6.367   2.817  0.4112  0.0224 -0.2838
 1119ntf    cn1 7591   5.851   1.735   3.703  0.3855 -0.3398 -0.2360
 1119ntf    sn2 7592   5.736   1.862   3.762  0.3286 -0.4467 -0.1140
 1119ntf    nn3 7593   5.652   1.901   3.635 -0.1802 -0.2589  0.2789
 1119ntf    sn2 7594   5.507   1.865   3.587 -0.1589 -0.0868  0.0873
 1119ntf    cn1 7595   5.438   2.033   3.577  0.1750  0.0415 -0.0595
 1119ntf    fn4 7596   5.781   1.627   3.670 -0.1657 -0.0475 -0.0339
 1119ntf    fn4 7597   5.909   1.766   3.588 -0.4551 -0.3245 -0.6638
 1119ntf    fn4 7598   5.940   1.706   3.796  0.4487 -0.3624 -0.3032
 1119ntf    on5 7599   5.656   1.801   3.865 -0.2295  0.1212 -0.2051
 1119ntf    on5 7600   5.827   1.964   3.811  0.2734 -0.5685  0.2425
 1119ntf    on5 7601   5.504   1.824   3.449  0.0325  0.2486 -0.0187
 1119ntf    on5 7602   5.422   1.799   3.682 -0.2835  0.2804  0.2350
 1119ntf    fn4 7603   5.476   2.091   3.464 -0.2032  0.1495 -0.1309
 1119ntf    fn4 7604   5.466   2.122   3.671  0.3451  0.1691 -0.2280
 1119ntf    fn4 7605   5.306   2.027   3.573  0.2129 -0.4864 -0.6333
 1120ntf    cn1 7606   6.299   4.845   2.404 -0.0571 -0.1762  0.0084
 1120ntf    sn2 7607   6.167   4.912   2.510 -0.0375  0.0793 -0.1290
 1120ntf    nn3 7608   6.057   4.935   2.400 -0.1906  0.2186  0.0520
 1120ntf    sn2 7609   5.901   4.940   2.414 -0.2028 -0.0162  0.0060
 1120ntf    cn1 7610   5.862   5.112   2.371  0.2842  0.1362  0.1637
 1120ntf    fn4 7611   6.415   4.839   2.467  0.3363  0.3762 -0.6495
 1120ntf    fn4 7612   6.274   4.721   2.365 -0.0506 -0.0865 -0.2865
 1120ntf    fn4 7613   6.312   4.919   2.295  0.1397 -0.0244  0.1358
 1120ntf    on5 7614   6.137   4.811   2.608  0.1377  0.4018  0.2619
 1120ntf    on5 7615   6.226   5.036   2.553  0.0941 -0.2700  0.7095
 1120ntf    on5 7616   5.836   4.856   2.317  0.0175 -0.0778 -0.0881
 1120ntf    on5 7617   5.845   4.948   2.547 -0.7386  0.1360 -0.2273
 1120ntf    fn4 7618   5.738   5.145   2.403  0.1784 -0.0674 -0.0275
 1120ntf    fn4 7619   5.883   5.141   2.244 -0.2097 -0.2409 -0.0066
 1120ntf    fn4 7620   5.926   5.202   2.444 -0.4358  0.3766  0.5144
 1121ntf    cn1 7621   4.375   0.979   4.245  0.0278 -0.8380 -0.3885
 1121ntf    sn2 7622   4.443   0.951   4.411 -0.1635 -0.1174 -0.1881
 1121ntf    nn3 7623   4.482   1.097   4.454 -0.1508  0.0628 -0.8136
 1121ntf    sn2 7624   4.399   1.197   4.542  0.1186 -0.1390 -0.3273
 1121ntf    cn1 7625   4.454   1.151   4.709 -0.3765  0.3418 -0.0276
 1121ntf    fn4 7626   4.332   0.864   4.196 -0.4409 -0.5676 -0.6141
 1121ntf    fn4 7627   4.270   1.059   4.245  0.3717 -0.3862 -0.2181
 1121ntf    fn4 7628   4.464   1.034   4.164 -0.5252  0.4698 -0.1203
 1121ntf    on5 7629   4.339   0.883   4.483 -0.4852  0.5561 -0.0076
 1121ntf    on5 7630   4.565   0.876   4.393 -0.0231  0.1290 -0.2616
 1121ntf    on5 7631   4.435   1.336   4.529 -0.1111 -0.0193  0.2864
 1121ntf    on5 7632   4.257   1.176   4.556  0.1118  0.3261  0.3547
 1121ntf    fn4 7633   4.583   1.173   4.729 -0.3273 -0.0009  0.0275
 1121ntf    fn4 7634   4.432   1.025   4.740  0.1820  0.0679 -0.7151
 1121ntf    fn4 7635   4.391   1.213   4.807 -0.1324 -0.0792  0.3994
 1122ntf    cn1 7636   4.099   6.322   2.058 -0.0323 -0.0894  0.7561
 1122ntf    sn2 7637   4.193   6.387   2.199  0.1388  0.5022  0.3724
 1122ntf    nn3 7638   4.084   6.484   2.258  0.2174  0.9929 -0.2850
 1122ntf    sn2 7639   4.066   6.517   2.410 -0.5635  0.1227 -0.1798
 1122ntf    cn1 7640   3.936   6.398   2.454 -0.1402 -0.1815  0.2550
 1122ntf    fn4 7641   4.057   6.420   1.979  0.3393 -0.0032  0.6638
 1122ntf    fn4 7642   4.175   6.248   1.980 -0.2817  0.2134  0.2198
 1122ntf    fn4 7643   3.995   6.247   2.089  0.1621 -0.5316  0.3492
 1122ntf    on5 7644   4.222   6.271   2.279 -0.0245 -0.1773 -0.5394
 1122ntf    on5 7645   4.301   6.461   2.139 -0.0242  0.4545  0.0141
 1122ntf    on5 7646   4.171   6.478   2.501 -0.2017  0.3949 -0.4766
 1122ntf    on5 7647   3.996   6.640   2.439 -0.2410  0.2033  0.2712
 1122ntf    fn4 7648   3.969   6.270   2.446 -0.1632 -0.1811  0.1501
 1122ntf    fn4 7649   3.829   6.400   2.376  0.1123  0.3228 -0.0828
 1122ntf    fn4 7650   3.895   6.406   2.579  0.3684 -0.1159  0.4183
 1123ntf    cn1 7651   6.227   0.165   3.307 -0.2726 -0.0777  0.1683
 1123ntf    sn2 7652   6.296   0.268   3.440  0.3335  0.0346 -0.2330
 1123ntf    nn3 7653   6.270   0.414   3.391 -0.4569 -0.2486 -0.6685
 1123ntf    sn2 7654   6.133   0.490   3.388 -0.4544 -0.2289 -0.2474
 1123ntf    cn1 7655   6.177   0.642   3.479  0.1243 -0.5394 -0.0036
 1123ntf    fn4 7656   6.096   0.182   3.291 -0.2405  0.1408  0.1293
 1123ntf    fn4 7657   6.271   0.200   3.188  0.3993 -0.3056  0.3467
 1123ntf    fn4 7658   6.251   0.036   3.321  0.4854  0.0743  0.3138
 1123ntf    on5 7659   6.225   0.224   3.558  0.5129 -0.3171 -0.2522
 1123ntf    on5 7660   6.437   0.235   3.432  0.2443 -0.3414 -0.2879
 1123ntf    on5 7661   6.099   0.544   3.259 -0.6394  0.1758 -0.0332
 1123ntf    on5 7662   6.027   0.432   3.468 -0.2607 -0.1793  0.0485
 1123ntf    fn4 7663   6.268   0.710   3.411 -0.5225  0.0599 -0.2818
 1123ntf    fn4 7664   6.221   0.612   3.600 -0.8910 -0.2416  0.4539
 1123ntf    fn4 7665   6.071   0.720   3.491  0.4413 -0.0413 -0.4415
 1124ntf    cn1 7666   2.150   3.951   4.349 -0.0294  0.0990  0.1718
 1124ntf    sn2 7667   2.245   4.093   4.287  0.0568  0.0168  0.1137
 1124ntf    nn3 7668   2.264   4.043   4.140 -0.1892  0.0314  0.0757
 1124ntf    sn2 7669   2.180   4.060   4.008  0.0624 -0.2681 -0.1246
 1124ntf    cn1 7670   2.246   4.217   3.944  0.0702 -0.2304 -0.0238
 1124ntf    fn4 7671   2.218   3.837   4.346 -0.2270 -0.0104 -0.2507
 1124ntf    fn4 7672   2.115   3.961   4.476  0.3290  0.3812  0.2484
 1124ntf    fn4 7673   2.040   3.929   4.278  0.1591 -0.6508  0.0988
 1124ntf    on5 7674   2.160   4.209   4.299  0.3291  0.1876  0.4155
 1124ntf    on5 7675   2.367   4.097   4.363 -0.0293  0.3046  0.2384
 1124ntf    on5 7676   2.221   3.967   3.906 -0.0789 -0.2243 -0.2203
 1124ntf    on5 7677   2.041   4.091   4.028  0.0876 -0.2241 -0.0197
 1124ntf    fn4 7678   2.143   4.286   3.900 -0.2377 -0.7206 -0.0826
 1124ntf    fn4 7679   2.335   4.202   3.848  0.5235  0.1684  0.3263
 1124ntf    fn4 7680   2.299   4.290   4.041  0.0684 -0.0438 -0.1638
 1125ntf    cn1 7681   4.680   1.959   5.790 -0.1146 -0.1066  0.1632
 1125ntf    sn2 7682   4.649   1.789   5.846  0.1339 -0.2567 -0.1512
 1125ntf    nn3 7683   4.760   1.725   5.754  0.0672 -0.2887 -0.2099
 1125ntf    sn2 7684   4.873   1.630   5.806  0.2553 -0.1066 -0.2839
 1125ntf    cn1 7685   4.978   1.758   5.880 -0.3534  0.2691 -0.0621
 1125ntf    fn4 7686   4.651   1.968   5.661 -0.0621 -0.4376  0.1271
 1125ntf    fn4 7687   4.610   2.043   5.864  0.1873  0.1285  0.1861
 1125ntf    fn4 7688   4.808   1.991   5.800 -0.1387  0.0778 -0.1044
 1125ntf    on5 7689   4.666   1.787   5.989  0.3394  0.6950 -0.1600
 1125ntf    on5 7690   4.518   1.756   5.793 -0.0602  0.0534  0.1341
 1125ntf    on5 7691   4.840   1.539   5.913 -0.2001  0.1300 -0.2221
 1125ntf    on5 7692   4.956   1.577   5.700  0.0462 -1.1832  0.0736
 1125ntf    fn4 7693   5.086   1.696   5.926 -0.0644  0.5412 -0.3741
 1125ntf    fn4 7694   4.928   1.843   5.968 -0.6837 -0.1265  0.1362
 1125ntf    fn4 7695   5.029   1.827   5.779  0.2148  0.1940  0.1684
 1126ntf    cn1 7696   4.079   1.970   4.480  0.2439 -0.4920  0.2034
 1126ntf    sn2 7697   4.151   2.026   4.322  0.3563 -0.2604  0.3364
 1126ntf    nn3 7698   4.242   2.140   4.381  0.3736  0.1362 -0.4433
 1126ntf    sn2 7699   4.398   2.143   4.395  0.3438  0.2115 -0.1059
 1126ntf    cn1 7700   4.462   2.192   4.232 -0.0504  0.0820 -0.3010
 1126ntf    fn4 7701   4.173   1.920   4.558  0.0022  0.0326  0.8458
 1126ntf    fn4 7702   4.029   2.077   4.539  0.4975 -0.3171  0.1018
 1126ntf    fn4 7703   3.983   1.879   4.474 -0.3118  0.1011 -0.1996
 1126ntf    on5 7704   4.225   1.917   4.264 -0.4573 -0.3707 -0.5144
 1126ntf    on5 7705   4.043   2.081   4.244  1.2612  0.3733 -0.4926
 1126ntf    on5 7706   4.440   2.253   4.479 -0.1626  0.6195 -0.3813
 1126ntf    on5 7707   4.458   2.013   4.413  0.2532  0.1588 -0.1856
 1126ntf    fn4 7708   4.592   2.217   4.234 -0.0928  0.3430 -0.7524
 1126ntf    fn4 7709   4.400   2.298   4.185 -0.1986  0.4256  0.6378
 1126ntf    fn4 7710   4.446   2.088   4.151 -0.0119  0.2040 -0.4644
 1127ntf    cn1 7711   5.414   3.696   5.914  0.1463  0.0881  0.0780
 1127ntf    sn2 7712   5.376   3.874   5.906 -0.1390  0.0223 -0.0224
 1127ntf    nn3 7713   5.483   3.930   6.005 -0.2954 -0.1215  0.2289
 1127ntf    sn2 7714   5.467   4.015   6.137 -0.1540  0.0200  0.1556
 1127ntf    cn1 7715   5.508   3.884   6.256 -0.0021 -0.2319 -0.1705
 1127ntf    fn4 7716   5.324   3.633   5.841 -0.4333  0.7080  0.2549
 1127ntf    fn4 7717   5.534   3.668   5.864 -0.0450 -0.1015 -0.2818
 1127ntf    fn4 7718   5.407   3.647   6.036  0.0518  0.2549  0.1394
 1127ntf    on5 7719   5.413   3.903   5.770  0.5780  0.1240  0.1933
 1127ntf    on5 7720   5.239   3.877   5.952 -0.1046  0.0353  0.0795
 1127ntf    on5 7721   5.572   4.113   6.146  0.1498 -0.2968  0.1185
 1127ntf    on5 7722   5.339   4.053   6.189 -0.0879  0.0678  0.2816
 1127ntf    fn4 7723   5.617   3.816   6.224 -0.2075 -0.4987 -0.3071
 1127ntf    fn4 7724   5.420   3.786   6.261  0.4316 -0.5998  0.3881
 1127ntf    fn4 7725   5.517   3.939   6.376  0.1770  0.0355 -0.3034
 1128ntf    cn1 7726   2.897   2.991   2.342 -0.3241 -0.1384  0.0263
 1128ntf    sn2 7727   3.041   2.926   2.252 -0.2930 -0.1333  0.0726
 1128ntf    nn3 7728   3.119   2.865   2.374 -0.0204  0.2431  0.0876
 1128ntf    sn2 7729   3.105   2.726   2.444  0.2803  0.0465 -0.2401
 1128ntf    cn1 7730   3.140   2.779   2.615  0.3118 -0.2175 -0.1629
 1128ntf    fn4 7731   2.869   2.918   2.448  0.1279 -0.5725 -0.1491
 1128ntf    fn4 7732   2.918   3.112   2.393 -0.1221 -0.2642  0.2435
 1128ntf    fn4 7733   2.784   2.999   2.273 -0.4669 -0.1867  0.2544
 1128ntf    on5 7734   2.981   2.829   2.165  0.1891  0.0684 -0.4868
 1128ntf    on5 7735   3.106   3.034   2.182  0.1484 -0.3871  0.0833
 1128ntf    on5 7736   2.976   2.663   2.456  0.2281  0.2021  0.0240
 1128ntf    on5 7737   3.209   2.635   2.403  0.6925  0.4597 -0.1053
 1128ntf    fn4 7738   3.268   2.798   2.640  0.1978 -0.1836  0.4071
 1128ntf    fn4 7739   3.097   2.689   2.702  0.4845 -0.0801  0.0655
 1128ntf    fn4 7740   3.071   2.887   2.649  0.1850 -0.3598  0.0309
 1129ntf    cn1 7741   0.711   4.964   0.018 -0.2164  0.2362 -0.0815
 1129ntf    sn2 7742   0.843   4.843   0.048 -0.3553  0.1680  0.2554
 1129ntf    nn3 7743   0.923   4.867  -0.085 -0.1947 -0.1203  0.2988
 1129ntf    sn2 7744   1.078   4.877  -0.107 -0.2765 -0.0325 -0.2546
 1129ntf    cn1 7745   1.092   5.057  -0.093 -0.5145 -0.0581  0.4018
 1129ntf    fn4 7746   0.603   4.946   0.092 -0.4013 -0.5627 -0.5414
 1129ntf    fn4 7747   0.758   5.088   0.027  0.3094  0.0559 -0.3401
 1129ntf    fn4 7748   0.674   4.947  -0.107 -0.0953 -0.0529 -0.0769
 1129ntf    on5 7749   0.903   4.883   0.173  0.0089  0.0799  0.1111
 1129ntf    on5 7750   0.768   4.720   0.055 -0.1391 -0.0181 -0.5569
 1129ntf    on5 7751   1.154   4.829   0.006 -0.6873 -0.2174 -0.0532
 1129ntf    on5 7752   1.132   4.853  -0.238  0.3623 -1.2432  0.2094
 1129ntf    fn4 7753   1.019   5.121  -0.183  0.1794 -0.0801 -0.1892
 1129ntf    fn4 7754   1.218   5.095  -0.110 -0.4804 -0.4114 -0.1900
 1129ntf    fn4 7755   1.064   5.105   0.026 -0.2511 -0.1761  0.5132
 1130ntf    cn1 7756   6.082   1.095   2.627 -0.1072 -0.1693  0.0146
 1130ntf    sn2 7757   5.903   1.070   2.612 -0.0871  0.0011 -0.5133
 1130ntf    nn3 7758   5.879   0.941   2.699  0.1209  0.1634 -0.2134
 1130ntf    sn2 7759   5.892   0.790   2.659  0.3399  0.1790 -0.1973
 1130ntf    cn1 7760   5.721   0.743   2.619  0.3417 -0.3420  0.3907
 1130ntf    fn4 7761   6.122   1.118   2.751  0.2507  0.4045 -0.2018
 1130ntf    fn4 7762   6.155   0.991   2.593  0.4892  0.0736  0.5278
 1130ntf    fn4 7763   6.123   1.206   2.567  0.2050 -0.2414  0.0950
 1130ntf    on5 7764   5.849   1.187   2.676 -0.1301 -0.2613 -0.0684
 1130ntf    on5 7765   5.878   1.057   2.470  0.2141  0.0583 -0.5721
 1130ntf    on5 7766   5.963   0.774   2.534  0.2704  0.2164 -0.2416
 1130ntf    on5 7767   5.926   0.710   2.774  0.4592  0.2043 -0.2146
 1130ntf    fn4 7768   5.682   0.818   2.517 -0.1044 -0.3564  0.5496
 1130ntf    fn4 7769   5.641   0.769   2.721 -0.4312 -0.5765 -0.1542
 1130ntf    fn4 7770   5.713   0.618   2.579  0.1796  0.0426 -0.8039
 1131ntf    cn1 7771   3.288   2.037   1.636 -0.2355 -0.2688 -0.1497
 1131ntf    sn2 7772   3.227   1.900   1.739  0.0640 -0.2305  0.0796
 1131ntf    nn3 7773   3.100   1.966   1.803  0.1999  0.1640 -0.0527
 1131ntf    sn2 7774   2.955   1.994   1.749  0.2116 -0.0248 -0.1821
 1131ntf    cn1 7775   2.863   1.850   1.812 -0.0643  0.1704 -0.1370
 1131ntf    fn4 7776   3.285   2.150   1.706  0.3976 -0.1514 -0.3004
 1131ntf    fn4 7777   3.410   2.014   1.591 -0.1583 -0.2738  0.0597
 1131ntf    fn4 7778   3.211   2.063   1.531 -0.2479 -0.1630 -0.1143
 1131ntf    on5 7779   3.213   1.788   1.650 -0.0433  0.0119 -0.2099
 1131ntf    on5 7780   3.335   1.879   1.832 -0.1184  0.1369  0.3766
 1131ntf    on5 7781   2.880   2.101   1.809  0.0588 -0.3779  0.2653
 1131ntf    on5 7782   2.941   1.978   1.606 -0.5162 -0.3254 -0.0845
 1131ntf    fn4 7783   2.870   1.828   1.942 -0.1510  0.4981 -0.0756
 1131ntf    fn4 7784   2.920   1.746   1.754 -0.1812 -0.0159  0.0820
 1131ntf    fn4 7785   2.735   1.848   1.781 -0.0601 -0.0058 -0.1419
 1132ntf    cn1 7786   3.473   6.413   0.745 -0.1432 -0.0815 -0.0450
 1132ntf    sn2 7787   3.469   6.237   0.791  0.1213  0.0040  0.3045
 1132ntf    nn3 7788   3.464   6.176   0.647  1.0821 -0.1253  0.3196
 1132ntf    sn2 7789   3.443   6.027   0.605 -0.2276  0.1798 -0.1368
 1132ntf    cn1 7790   3.610   5.958   0.583 -0.2749  0.0642 -0.1383
 1132ntf    fn4 7791   3.370   6.454   0.674  0.0592  0.0607 -0.2603
 1132ntf    fn4 7792   3.507   6.493   0.845  0.3858 -0.2856 -0.0543
 1132ntf    fn4 7793   3.576   6.425   0.662 -0.4222  0.7689 -0.2851
 1132ntf    on5 7794   3.594   6.225   0.862  0.5358 -0.4403 -0.4939
 1132ntf    on5 7795   3.347   6.217   0.866 -0.2835 -0.3179 -0.4376
 1132ntf    on5 7796   3.390   5.931   0.698  0.1690  0.1674  0.0750
 1132ntf    on5 7797   3.391   6.030   0.470  0.0265 -0.5355 -0.2555
 1132ntf    fn4 7798   3.597   5.835   0.536 -0.2468 -0.0050  0.0329
 1132ntf    fn4 7799   3.671   5.949   0.700 -0.5261  0.2357  0.0083
 1132ntf    fn4 7800   3.689   6.022   0.498 -0.0735  0.5714  0.4274
 1133ntf    cn1 7801   0.834   3.729   2.937  0.2598  0.1177 -0.2240
 1133ntf    sn2 7802   1.001   3.659   2.944  0.3084  0.2439 -0.1179
 1133ntf    nn3 7803   1.066   3.755   3.050 -0.2207  0.3114  0.1455
 1133ntf    sn2 7804   1.088   3.755   3.205  0.1134  0.0243  0.0978
 1133ntf    cn1 7805   1.252   3.680   3.228  0.2346  0.2096 -0.1664
 1133ntf    fn4 7806   0.760   3.669   2.845  0.6892 -0.6282 -0.0845
 1133ntf    fn4 7807   0.777   3.715   3.056 -0.2114 -0.1335 -0.4735
 1133ntf    fn4 7808   0.832   3.859   2.913 -0.4388  0.0336 -0.6532
 1133ntf    on5 7809   0.979   3.519   2.973 -0.0345  0.2359 -0.4078
 1133ntf    on5 7810   1.053   3.689   2.813 -0.4089  0.1181 -0.4322
 1133ntf    on5 7811   1.121   3.883   3.265 -0.1064  0.1566 -0.0654
 1133ntf    on5 7812   1.002   3.673   3.286 -0.2361  0.1683 -0.1293
 1133ntf    fn4 7813   1.280   3.656   3.355  0.0618  0.0488 -0.1599
 1133ntf    fn4 7814   1.356   3.751   3.185  0.3093  0.2025  0.0012
 1133ntf    fn4 7815   1.262   3.566   3.161  0.1622  0.1891 -0.1418
 1134ntf    cn1 7816   2.345   5.468   1.818  0.2244 -0.1143  0.3487
 1134ntf    sn2 7817   2.497   5.387   1.877  0.4689  0.0379 -0.0717
 1134ntf    nn3 7818   2.557   5.339   1.740  0.3618 -0.2030 -0.0347
 1134ntf    sn2 7819   2.674   5.397   1.652  0.1347  0.2134 -0.0631
 1134ntf    cn1 7820   2.814   5.321   1.740 -0.1485  0.3200  0.4847
 1134ntf    fn4 7821   2.278   5.530   1.914  0.3210  0.2068  0.2080
 1134ntf    fn4 7822   2.370   5.556   1.723 -0.0922 -0.0331  0.3410
 1134ntf    fn4 7823   2.263   5.373   1.777 -0.0271  0.0681  0.4284
 1134ntf    on5 7824   2.565   5.494   1.947 -0.0053  0.0400  0.3922
 1134ntf    on5 7825   2.446   5.271   1.945 -0.3118  0.2874 -0.2288
 1134ntf    on5 7826   2.678   5.345   1.518  0.3028 -0.4672  0.2038
 1134ntf    on5 7827   2.697   5.539   1.664 -0.1043  0.1956  0.6530
 1134ntf    fn4 7828   2.791   5.192   1.756 -0.5688  0.3349  0.0295
 1134ntf    fn4 7829   2.836   5.363   1.864 -0.4673  0.5844  0.4541
 1134ntf    fn4 7830   2.929   5.335   1.676 -0.4488 -0.2157 -0.1886
 1135ntf    cn1 7831   6.172   4.058   3.502  0.4168  0.0092  0.1051
 1135ntf    sn2 7832   6.007   4.017   3.567  0.3735  0.1065  0.0578
 1135ntf    nn3 7833   5.961   3.908   3.464  0.9704  0.0864 -0.1949
 1135ntf    sn2 7834   5.881   3.921   3.329 -0.1424 -0.3111  0.4057
 1135ntf    cn1 7835   5.710   3.873   3.368 -0.2711 -0.2492 -0.0782
 1135ntf    fn4 7836   6.234   4.155   3.567  0.0818  0.4038 -0.1557
 1135ntf    fn4 7837   6.255   3.956   3.511  0.0023 -0.3371  0.0190
 1135ntf    fn4 7838   6.165   4.094   3.374  0.4787  0.6001  0.2643
 1135ntf    on5 7839   6.038   3.963   3.697  0.1862  0.1415  0.1177
 1135ntf    on5 7840   5.941   4.145   3.566  0.0752 -0.0464  0.2323
 1135ntf    on5 7841   5.872   4.055   3.276 -0.4948 -0.5930 -0.2631
 1135ntf    on5 7842   5.913   3.815   3.237  0.2931 -0.1180  0.3288
 1135ntf    fn4 7843   5.638   3.844   3.261 -0.6145 -0.0320  0.0907
 1135ntf    fn4 7844   5.647   3.977   3.421  0.1794 -0.1523  0.2821
 1135ntf    fn4 7845   5.706   3.770   3.450  0.4079 -0.5036 -0.3568
 1136ntf    cn1 7846   6.577   2.685   2.287 -0.0357  0.0115  0.3850
 1136ntf    sn2 7847   6.698   2.782   2.382  0.0139  0.3473 -0.0157
 1136ntf    nn3 7848   6.708   2.695   2.513  1.3380  0.4440 -0.0392
 1136ntf    sn2 7849   6.730   2.746   2.660  0.1179 -0.3672  0.4454
 1136ntf    cn1 7850   6.567   2.719   2.736 -0.2032 -0.5091 -0.2864
 1136ntf    fn4 7851   6.459   2.689   2.347 -0.2210  0.1290  0.0138
 1136ntf    fn4 7852   6.564   2.739   2.167  0.2133  0.2238  0.4530
 1136ntf    fn4 7853   6.612   2.558   2.287 -0.6063 -0.1480  0.4304
 1136ntf    on5 7854   6.815   2.756   2.303 -0.1456 -0.8768  0.1255
 1136ntf    on5 7855   6.650   2.917   2.396  1.0170  0.6822  0.2696
 1136ntf    on5 7856   6.817   2.662   2.739  0.7367  0.0442  0.2151
 1136ntf    on5 7857   6.742   2.889   2.675  0.0902 -0.3450  0.2598
 1136ntf    fn4 7858   6.524   2.595   2.723 -0.1205 -0.5439 -0.2312
 1136ntf    fn4 7859   6.475   2.797   2.681  0.1721  0.1710  0.0355
 1136ntf    fn4 7860   6.570   2.744   2.865 -0.1870  0.1907 -0.4187
 1137ntf    cn1 7861   4.765   5.257   5.135  0.1519  0.1436  0.5372
 1137ntf    sn2 7862   4.628   5.360   5.195 -0.1609  0.0240  0.0314
 1137ntf    nn3 7863   4.704   5.497   5.207  0.6153 -0.4468  0.5880
 1137ntf    sn2 7864   4.673   5.619   5.300 -0.0485  0.0203 -0.2345
 1137ntf    cn1 7865   4.657   5.746   5.171  0.3014  0.1348 -0.1691
 1137ntf    fn4 7866   4.746   5.126   5.138 -0.0533  0.1635  0.1673
 1137ntf    fn4 7867   4.786   5.284   5.008  0.3618  0.5745  0.6621
 1137ntf    fn4 7868   4.876   5.270   5.207  0.1918 -0.0282  0.5092
 1137ntf    on5 7869   4.529   5.349   5.091  0.1318  0.1703 -0.2622
 1137ntf    on5 7870   4.593   5.303   5.323 -0.3008 -0.1573 -0.0872
 1137ntf    on5 7871   4.545   5.611   5.366 -0.1449 -0.1686 -0.4473
 1137ntf    on5 7872   4.788   5.661   5.378 -0.0701 -0.0404 -0.1701
 1137ntf    fn4 7873   4.559   5.726   5.084  0.4545 -0.0819 -0.2923
 1137ntf    fn4 7874   4.772   5.758   5.107  0.4733  0.1252  0.1390
 1137ntf    fn4 7875   4.638   5.868   5.218 -0.0893  0.1340 -0.3216
 1138ntf    cn1 7876   3.587   6.530   5.486  0.3099 -0.0085 -0.0460
 1138ntf    sn2 7877   3.764   6.501   5.517  0.2634 -0.0572  0.1733
 1138ntf    nn3 7878   3.827   6.645   5.513  0.6586 -0.2376 -0.1473
 1138ntf    sn2 7879   3.909   6.709   5.630  0.0720 -0.3006  0.3021
 1138ntf    cn1 7880   3.780   6.766   5.745 -0.0044 -0.0389  0.0869
 1138ntf    fn4 7881   3.528   6.619   5.565 -0.1336 -0.6401  0.3443
 1138ntf    fn4 7882   3.576   6.576   5.362  0.1312 -0.7031 -0.2919
 1138ntf    fn4 7883   3.511   6.423   5.503  0.0982  0.0615 -0.5476
 1138ntf    on5 7884   3.760   6.430   5.643 -0.2596  0.0078  0.1953
 1138ntf    on5 7885   3.808   6.415   5.410  0.0340 -0.6355  0.5352
 1138ntf    on5 7886   4.001   6.633   5.710 -0.0278 -0.0328  0.6746
 1138ntf    on5 7887   3.961   6.837   5.588 -0.1219 -0.2299  0.2730
 1138ntf    fn4 7888   3.725   6.666   5.811 -0.4592  0.2239  0.1170
 1138ntf    fn4 7889   3.688   6.836   5.679 -0.1377 -0.5397 -0.2616
 1138ntf    fn4 7890   3.837   6.840   5.839  0.1963  0.0070 -0.0702
 1139ntf    cn1 7891   6.302   0.257   6.444 -0.1272 -0.2745  0.2580
 1139ntf    sn2 7892   6.454   0.202   6.527 -0.0180 -0.4347 -0.0418
 1139ntf    nn3 7893   6.394   0.186   6.671  0.1849 -0.0230  0.0906
 1139ntf    sn2 7894   6.362   0.060   6.760  0.0009 -0.1000 -0.0851
 1139ntf    cn1 7895   6.442   0.115   6.913  0.1073 -0.2277 -0.0947
 1139ntf    fn4 7896   6.320   0.313   6.325 -0.3311 -0.4301  0.1539
 1139ntf    fn4 7897   6.206   0.167   6.426 -0.2662 -0.0929  0.0855
 1139ntf    fn4 7898   6.249   0.356   6.513  0.1849 -0.0828  0.2242
 1139ntf    on5 7899   6.497   0.086   6.452  0.2224 -0.0611 -0.4874
 1139ntf    on5 7900   6.545   0.314   6.519  0.6869 -1.0126 -0.2288
 1139ntf    on5 7901   6.226   0.047   6.805  0.0240  0.2326  0.0832
 1139ntf    on5 7902   6.438  -0.057   6.722 -0.0482 -0.1920  0.1038
 1139ntf    fn4 7903   6.388   0.223   6.966 -0.1798 -0.5180  0.2151
 1139ntf    fn4 7904   6.572   0.133   6.896  0.2018 -0.0640  0.7437
 1139ntf    fn4 7905   6.431   0.020   7.005  0.4097 -0.1957 -0.0219
 1140ntf    cn1 7906   6.501   2.797   4.863 -0.3145 -0.0803  0.3045
 1140ntf    sn2 7907   6.331   2.822   4.804 -0.3348 -0.3322  0.2538
 1140ntf    nn3 7908   6.352   2.867   4.655 -0.4026  0.1925  0.4007
 1140ntf    sn2 7909   6.388   3.006   4.592 -0.0857 -0.1210 -0.1201
 1140ntf    cn1 7910   6.239   3.048   4.496 -0.1698 -0.3232 -0.0763
 1140ntf    fn4 7911   6.509   2.756   4.989 -0.0713 -0.4288  0.1775
 1140ntf    fn4 7912   6.570   2.720   4.781 -0.4599  0.1507 -0.0357
 1140ntf    fn4 7913   6.569   2.910   4.870  0.0165 -0.2515 -0.1134
 1140ntf    on5 7914   6.264   2.694   4.802  0.1330 -0.5790  0.2630
 1140ntf    on5 7915   6.286   2.923   4.896 -0.4470  0.2270 -0.4107
 1140ntf    on5 7916   6.400   3.118   4.683  0.2122 -0.6792  0.5358
 1140ntf    on5 7917   6.495   2.991   4.496  0.2536  0.2903  0.1940
 1140ntf    fn4 7918   6.128   3.041   4.568 -0.1634  0.2551 -0.0065
 1140ntf    fn4 7919   6.223   2.970   4.391  0.0400 -0.0710 -0.2960
 1140ntf    fn4 7920   6.237   3.170   4.447  0.4424 -0.2415  0.0934
 1141ntf    cn1 7921   5.237   4.926   3.348  0.1646 -0.0902  0.6473
 1141ntf    sn2 7922   5.090   4.835   3.405 -0.1325 -0.1237 -0.1623
 1141ntf    nn3 7923   5.110   4.857   3.559 -0.7734 -0.1258 -0.0776
 1141ntf    sn2 7924   5.166   4.761   3.671 -0.0887  0.3365 -0.0214
 1141ntf    cn1 7925   5.200   4.884   3.801  0.0247  0.0923  0.1797
 1141ntf    fn4 7926   5.349   4.865   3.383  0.3030 -0.2038  0.0208
 1141ntf    fn4 7927   5.246   4.933   3.216 -0.2973  0.2319  0.6302
 1141ntf    fn4 7928   5.239   5.051   3.393  0.0369  0.1036  0.1185
 1141ntf    on5 7929   4.976   4.908   3.355 -0.3172 -0.2724  0.0427
 1141ntf    on5 7930   5.097   4.700   3.356  0.2693 -0.4166  0.6710
 1141ntf    on5 7931   5.065   4.673   3.723 -0.0610  0.1477 -0.2838
 1141ntf    on5 7932   5.304   4.719   3.658 -0.1721 -0.1380  0.6189
 1141ntf    fn4 7933   5.197   4.841   3.926  0.0378  0.0060  0.1508
 1141ntf    fn4 7934   5.117   4.987   3.793 -0.3258 -0.2361 -0.5959
 1141ntf    fn4 7935   5.315   4.945   3.781  0.2476 -0.2250  0.4748
 1142ntf    cn1 7936   2.023   0.493   0.934  0.5404 -0.2736 -0.1838
 1142ntf    sn2 7937   2.009   0.315   0.969  0.1144 -0.2047  0.0048
 1142ntf    nn3 7938   1.909   0.276   0.855 -0.4219  0.0838  0.3672
 1142ntf    sn2 7939   1.857   0.133   0.815  0.0592 -0.0203  0.0915
 1142ntf    cn1 7940   1.699   0.145   0.905  0.0114  0.2346 -0.0243
 1142ntf    fn4 7941   2.025   0.520   0.805 -0.0337  0.2284 -0.0923
 1142ntf    fn4 7942   1.915   0.558   0.976  0.5840 -0.2364 -0.1293
 1142ntf    fn4 7943   2.127   0.557   0.985  0.0604  0.2017  0.2218
 1142ntf    on5 7944   2.145   0.271   0.947  0.5028  0.7072  0.5136
 1142ntf    on5 7945   1.960   0.311   1.105 -0.3382 -0.1350 -0.1546
 1142ntf    on5 7946   1.822   0.129   0.676 -0.0636 -0.7026  0.1392
 1142ntf    on5 7947   1.920   0.017   0.873  0.1136 -0.1789 -0.2820
 1142ntf    fn4 7948   1.644   0.027   0.929  0.0857  0.1214 -0.4100
 1142ntf    fn4 7949   1.612   0.224   0.843  0.2388  0.2892 -0.2761
 1142ntf    fn4 7950   1.709   0.195   1.027  0.8951  0.1412 -0.0535
 1143ntf    cn1 7951   6.348   4.678   1.013  0.3492 -0.0564 -0.0159
 1143ntf    sn2 7952   6.171   4.715   0.998  0.3642  0.1237  0.2242
 1143ntf    nn3 7953   6.159   4.738   0.843 -0.5680  0.5275  0.3480
 1143ntf    sn2 7954   6.201   4.866   0.762  0.2843  0.1701  0.2135
 1143ntf    cn1 7955   6.056   4.968   0.803 -0.0713 -0.2912  0.1135
 1143ntf    fn4 7956   6.390   4.597   0.917  0.8527 -0.2509  0.3642
 1143ntf    fn4 7957   6.417   4.790   1.006  0.3637 -0.0506  0.2120
 1143ntf    fn4 7958   6.383   4.615   1.124  0.5105 -0.0102 -0.0399
 1143ntf    on5 7959   6.093   4.596   1.025  0.2155  0.1705  0.0113
 1143ntf    on5 7960   6.133   4.829   1.078 -0.3933 -0.0451  0.1157
 1143ntf    on5 7961   6.320   4.938   0.802  0.1694  0.3742  0.1917
 1143ntf    on5 7962   6.189   4.841   0.620  0.2985  0.0633  0.2311
 1143ntf    fn4 7963   5.942   4.901   0.810 -0.3808  0.2698  0.5214
 1143ntf    fn4 7964   6.032   5.065   0.717  0.0405 -0.3540  0.0116
 1143ntf    fn4 7965   6.073   5.025   0.921  0.4391  0.3072 -0.2401
 1144ntf    cn1 7966   4.237   2.824   6.503  0.3504  0.0765 -0.5032
 1144ntf    sn2 7967   4.366   2.881   6.388  0.3135  0.3188 -0.4237
 1144ntf    nn3 7968   4.466   2.909   6.505 -0.6522  0.2010  0.4409
 1144ntf    sn2 7969   4.527   3.046   6.553 -0.2993  0.2002  0.0006
 1144ntf    cn1 7970   4.698   3.035   6.493 -0.3052  0.1435 -0.0043
 1144ntf    fn4 7971   4.128   2.791   6.437  0.0770 -0.5566  0.2432
 1144ntf    fn4 7972   4.283   2.713   6.560  0.2825  0.4225  0.2399
 1144ntf    fn4 7973   4.203   2.910   6.597  0.3130  0.2520 -0.6773
 1144ntf    on5 7974   4.405   2.760   6.320  0.4434  0.3666 -0.4344
 1144ntf    on5 7975   4.304   2.990   6.317  0.1109  0.0369 -0.6850
 1144ntf    on5 7976   4.478   3.165   6.487  0.2459  0.5847  0.2820
 1144ntf    on5 7977   4.544   3.044   6.696  0.3435  0.0883 -0.0741
 1144ntf    fn4 7978   4.769   2.938   6.547  0.0806  0.7526  0.5959
 1144ntf    fn4 7979   4.755   3.153   6.512  0.0862 -0.0923  0.2878
 1144ntf    fn4 7980   4.703   3.031   6.361  0.1382  0.3674  0.0041
 1145ntf    cn1 7981   1.498   4.484   2.693 -0.3998  0.3255  0.0739
 1145ntf    sn2 7982   1.392   4.411   2.564 -0.1178 -0.0769  0.0670
 1145ntf    nn3 7983   1.352   4.540   2.485  0.5179 -0.0312 -0.1924
 1145ntf    sn2 7984   1.393   4.597   2.345  0.4172 -0.0569 -0.2325
 1145ntf    cn1 7985   1.252   4.534   2.248  0.1285  0.0667  0.1048
 1145ntf    fn4 7986   1.532   4.394   2.784 -0.1513  0.4640  0.1214
 1145ntf    fn4 7987   1.608   4.537   2.639 -0.2026  0.1352  0.2877
 1145ntf    fn4 7988   1.440   4.588   2.752 -0.2708 -0.0858  0.9349
 1145ntf    on5 7989   1.478   4.314   2.502 -0.1535 -0.3517  0.4455
 1145ntf    on5 7990   1.285   4.360   2.646  0.3480  0.2486  0.9002
 1145ntf    on5 7991   1.375   4.739   2.329 -0.0517 -0.1145 -0.2345
 1145ntf    on5 7992   1.511   4.541   2.283  0.6247  0.2675 -0.1335
 1145ntf    fn4 7993   1.135   4.575   2.294  0.0662  0.1471 -0.1267
 1145ntf    fn4 7994   1.258   4.402   2.256  0.3319  0.0784  0.1748
 1145ntf    fn4 7995   1.260   4.561   2.119 -0.0288 -0.3109  0.0178
 1146ntf    cn1 7996   1.093   2.994   1.220 -0.3051 -0.0931  0.2797
 1146ntf    sn2 7997   1.066   3.097   1.367 -0.1621 -0.0972  0.3087
 1146ntf    nn3 7998   1.213   3.135   1.407 -0.0959 -0.1462  0.1121
 1146ntf    sn2 7999   1.317   3.070   1.505  0.0492  0.0452  0.0874
 1146ntf    cn1 8000   1.342   3.214   1.612  0.3234  0.2658 -0.2701
 1146ntf    fn4 8001   1.127   2.873   1.261  0.7770  0.1899  0.2444
 1146ntf    fn4 8002   0.984   2.976   1.147 -0.0435  0.5029 -0.2756
 1146ntf    fn4 8003   1.191   3.039   1.143 -0.3836 -0.1807  0.1279
 1146ntf    on5 8004   0.993   3.208   1.312  0.8828  0.2010 -0.5127
 1146ntf    on5 8005   0.988   3.012   1.453 -0.3287 -0.3973 -0.1374
 1146ntf    on5 8006   1.263   2.963   1.585  0.1376  0.1998  0.3534
 1146ntf    on5 8007   1.445   3.049   1.443  0.0332 -0.5731  0.2566
 1146ntf    fn4 8008   1.408   3.313   1.554  0.7332 -0.1100 -0.4464
 1146ntf    fn4 8009   1.417   3.189   1.718 -0.6259  0.2152  0.4070
 1146ntf    fn4 8010   1.226   3.262   1.655  0.2636  0.2342 -0.3982
 1147ntf    cn1 8011   3.990   4.771   2.709 -0.1523 -0.5064  0.1244
 1147ntf    sn2 8012   3.826   4.738   2.780 -0.3109  0.1380  0.0581
 1147ntf    nn3 8013   3.760   4.638   2.679  0.2960  0.1653 -0.3711
 1147ntf    sn2 8014   3.685   4.666   2.544  0.1610 -0.2374 -0.3793
 1147ntf    cn1 8015   3.515   4.637   2.602  0.0671  0.3071 -0.3832
 1147ntf    fn4 8016   3.987   4.813   2.584 -0.0713 -0.2788  0.1987
 1147ntf    fn4 8017   4.057   4.861   2.778 -0.0294 -0.5276  0.0345
 1147ntf    fn4 8018   4.071   4.667   2.703  0.0582 -0.3262 -0.1381
 1147ntf    on5 8019   3.859   4.674   2.905  0.6581  0.7237  0.1084
 1147ntf    on5 8020   3.767   4.869   2.797  0.2234  0.4107 -0.1771
 1147ntf    on5 8021   3.677   4.802   2.497 -0.3826 -0.1903 -0.1600
 1147ntf    on5 8022   3.706   4.562   2.445  0.2505 -0.5434 -0.0399
 1147ntf    fn4 8023   3.488   4.712   2.708  0.3029 -0.5086  0.2635
 1147ntf    fn4 8024   3.488   4.514   2.640 -0.2334  0.2680 -0.7180
 1147ntf    fn4 8025   3.424   4.669   2.511 -0.2998  0.4938  0.0464
 1148ntf    cn1 8026   0.026   0.269   1.598 -0.0754 -0.1321  0.0564
 1148ntf    sn2 8027  -0.059   0.129   1.517  0.1266 -0.1450 -0.1353
 1148ntf    nn3 8028  -0.008   0.135   1.369 -0.0457 -0.0232 -0.1905
 1148ntf    sn2 8029  -0.003   0.019   1.263  0.0181  0.0442 -0.2617
 1148ntf    cn1 8030  -0.164   0.023   1.179 -0.1976 -0.2917  0.1296
 1148ntf    fn4 8031   0.158   0.263   1.590 -0.0533  0.0917  0.2523
 1148ntf    fn4 8032  -0.008   0.388   1.551  0.0584 -0.0583  0.1478
 1148ntf    fn4 8033   0.004   0.274   1.728  0.1760  0.2775  0.0838
 1148ntf    on5 8034  -0.001   0.018   1.588  0.5187  0.2133  0.1150
 1148ntf    on5 8035  -0.197   0.166   1.535  0.2180  0.2217 -0.1703
 1148ntf    on5 8036   0.076   0.050   1.147  0.2812  0.4103  0.0103
 1148ntf    on5 8037   0.008  -0.114   1.318  0.1123 -0.0385 -0.4812
 1148ntf    fn4 8038  -0.267  -0.019   1.251 -0.2778 -0.0469  0.1613
 1148ntf    fn4 8039  -0.165  -0.046   1.067  0.5637 -0.7316  0.3864
 1148ntf    fn4 8040  -0.198   0.144   1.138  0.9541 -0.1420 -0.4111
 1149ntf    cn1 8041   2.081   5.341   4.892 -0.3582  0.1372  0.1260
 1149ntf    sn2 8042   2.211   5.442   4.814 -0.1177 -0.2427  0.0320
 1149ntf    nn3 8043   2.129   5.526   4.710  0.2798  0.1806  0.0565
 1149ntf    sn2 8044   2.123   5.523   4.553 -0.1042  0.2045  0.0694
 1149ntf    cn1 8045   2.233   5.660   4.506 -0.0423  0.0920 -0.1110
 1149ntf    fn4 8046   2.120   5.223   4.936 -0.1912  0.1709  0.0698
 1149ntf    fn4 8047   2.014   5.405   4.986  0.0807  0.6864  0.0693
 1149ntf    fn4 8048   1.989   5.318   4.799 -0.0430  0.3480 -0.2412
 1149ntf    on5 8049   2.262   5.525   4.920  0.0547 -0.3117  0.0036
 1149ntf    on5 8050   2.297   5.343   4.755  0.0981  0.3542 -0.6609
 1149ntf    on5 8051   2.192   5.414   4.489 -0.1317  0.1895  0.0650
 1149ntf    on5 8052   1.990   5.556   4.507 -0.0643  0.0591 -0.1487
 1149ntf    fn4 8053   2.233   5.684   4.376  0.1472  0.3742 -0.0601
 1149ntf    fn4 8054   2.360   5.638   4.537 -0.0215 -0.0185 -0.2743
 1149ntf    fn4 8055   2.207   5.779   4.557  0.3074  0.0237  0.2287
 1150ntf    cn1 8056   6.060   6.088   5.371 -0.3300 -0.3952 -0.2767
 1150ntf    sn2 8057   6.100   5.911   5.384 -0.2208 -0.3505  0.0126
 1150ntf    nn3 8058   6.257   5.910   5.378 -0.2274  0.2254 -0.4374
 1150ntf    sn2 8059   6.350   5.788   5.343 -0.2181  0.0416  0.2177
 1150ntf    cn1 8060   6.401   5.833   5.175  0.1462 -0.5292  0.1724
 1150ntf    fn4 8061   5.946   6.105   5.436  0.2425 -0.3764  0.7475
 1150ntf    fn4 8062   6.149   6.161   5.436 -0.3050 -0.1359 -0.5986
 1150ntf    fn4 8063   6.057   6.133   5.247  0.4084 -0.1755 -0.2191
 1150ntf    on5 8064   6.050   5.876   5.514 -0.5550 -0.0171 -0.0217
 1150ntf    on5 8065   6.022   5.852   5.277 -0.1958 -0.6394  0.1559
 1150ntf    on5 8066   6.476   5.783   5.414 -0.0213  0.2469 -0.1141
 1150ntf    on5 8067   6.290   5.660   5.315 -0.1865  0.0995 -0.1182
 1150ntf    fn4 8068   6.477   5.742   5.116  0.5787 -0.4219  0.5580
 1150ntf    fn4 8069   6.467   5.948   5.177  0.1105 -0.4999 -0.2472
 1150ntf    fn4 8070   6.296   5.841   5.095 -0.1939  0.0328  0.6651
 1151ntf    cn1 8071   1.943   4.898   1.688  0.3300 -0.0056 -0.1572
 1151ntf    sn2 8072   1.843   5.035   1.622 -0.0229 -0.0539  0.2704
 1151ntf    nn3 8073   1.769   4.953   1.510  0.0589 -0.1207  0.2650
 1151ntf    sn2 8074   1.632   4.876   1.509 -0.1278  0.2120  0.0368
 1151ntf    cn1 8075   1.664   4.733   1.401 -0.1890  0.0275  0.2606
 1151ntf    fn4 8076   2.020   4.835   1.601  0.5114 -0.1312  0.0928
 1151ntf    fn4 8077   2.023   4.928   1.789 -0.1886  0.3255  0.1615
 1151ntf    fn4 8078   1.865   4.803   1.736  0.3121 -0.2353 -0.6443
 1151ntf    on5 8079   1.759   5.065   1.735  0.3324 -0.3722  0.6218
 1151ntf    on5 8080   1.940   5.130   1.574 -0.3100  0.2227  0.2339
 1151ntf    on5 8081   1.597   4.820   1.637 -0.5149 -0.5768 -0.4094
 1151ntf    on5 8082   1.526   4.944   1.439  0.0353 -0.0500 -0.4695
 1151ntf    fn4 8083   1.758   4.657   1.456  0.1133  0.1659 -0.0597
 1151ntf    fn4 8084   1.709   4.774   1.283 -0.2362 -0.0674  0.2100
 1151ntf    fn4 8085   1.564   4.650   1.381 -0.1302 -0.0740  0.3870
 1152ntf    cn1 8086   3.766   2.956   1.722  0.0031  0.2386  0.1737
 1152ntf    sn2 8087   3.748   2.986   1.901 -0.2396 -0.0584  0.1996
 1152ntf    nn3 8088   3.592   2.970   1.911 -0.2634 -0.2748 -0.4647
 1152ntf    sn2 8089   3.510   2.891   2.019 -0.1331  0.1067 -0.0817
 1152ntf    cn1 8090   3.521   2.723   1.950 -0.3400  0.1208 -0.1480
 1152ntf    fn4 8091   3.729   2.835   1.684  0.0975  0.2597  0.0160
 1152ntf    fn4 8092   3.692   3.042   1.654  0.2073  0.0699 -0.2597
 1152ntf    fn4 8093   3.888   2.975   1.676 -0.0713 -0.1001 -0.1690
 1152ntf    on5 8094   3.835   2.893   1.970  0.0954  0.4920  0.5205
 1152ntf    on5 8095   3.787   3.124   1.909  0.5540 -0.2571 -0.1705
 1152ntf    on5 8096   3.567   2.889   2.151 -0.0829 -0.1196 -0.1062
 1152ntf    on5 8097   3.372   2.928   2.005 -0.2372  0.0662  0.8256
 1152ntf    fn4 8098   3.476   2.718   1.826  0.4255  0.1217 -0.4284
 1152ntf    fn4 8099   3.460   2.635   2.028  0.1360 -0.1454 -0.0711
 1152ntf    fn4 8100   3.642   2.672   1.938 -0.4020 -0.1846  0.4646
 1153ntf    cn1 8101   4.013   2.590   0.896 -0.0128 -0.1230 -0.2175
 1153ntf    sn2 8102   4.017   2.732   1.010  0.0631 -0.3936  0.1216
 1153ntf    nn3 8103   3.888   2.819   0.984  0.1697 -0.3027 -0.1069
 1153ntf    sn2 8104   3.746   2.800   1.047  0.1397  0.1450 -0.0382
 1153ntf    cn1 8105   3.745   2.897   1.201  0.0709  0.0361  0.0301
 1153ntf    fn4 8106   4.033   2.625   0.770  0.7727 -0.1670 -0.1143
 1153ntf    fn4 8107   4.098   2.496   0.935  0.0432  0.1936  0.4402
 1153ntf    fn4 8108   3.894   2.533   0.891 -0.0918  0.0246 -0.0468
 1153ntf    on5 8109   4.024   2.681   1.144  0.3785  0.2941  0.3706
 1153ntf    on5 8110   4.135   2.801   0.963  0.0529 -0.4708 -0.0201
 1153ntf    on5 8111   3.644   2.862   0.965 -0.0596  0.2915  0.3173
 1153ntf    on5 8112   3.715   2.666   1.091  0.0433  0.1203 -0.1803
 1153ntf    fn4 8113   3.753   3.028   1.183 -0.9046  0.2213  0.8398
 1153ntf    fn4 8114   3.841   2.867   1.286 -0.3492 -0.3585  0.3710
 1153ntf    fn4 8115   3.636   2.870   1.271  0.4595  0.1253  0.6815
 1154ntf    cn1 8116   4.498   3.532   3.631  0.1300 -0.0820 -0.4168
 1154ntf    sn2 8117   4.470   3.581   3.458  0.0664  0.2823 -0.3044
 1154ntf    nn3 8118   4.568   3.479   3.388  0.0798  0.0274  0.0785
 1154ntf    sn2 8119   4.591   3.485   3.233 -0.0900  0.2375  0.0592
 1154ntf    cn1 8120   4.746   3.581   3.235 -0.1136  0.2704  0.4154
 1154ntf    fn4 8121   4.628   3.550   3.649  0.0523  0.1064 -0.0264
 1154ntf    fn4 8122   4.439   3.608   3.722 -0.2909 -0.0347 -0.7280
 1154ntf    fn4 8123   4.472   3.406   3.662  0.0638 -0.0153 -0.2003
 1154ntf    on5 8124   4.330   3.554   3.435  0.2448 -0.9191 -0.0389
 1154ntf    on5 8125   4.509   3.720   3.461  0.3036  0.2012  0.7388
 1154ntf    on5 8126   4.630   3.357   3.177  0.1826  0.1228  0.5042
 1154ntf    on5 8127   4.511   3.572   3.151 -0.0526 -0.2578 -0.5096
 1154ntf    fn4 8128   4.850   3.505   3.264  0.0054  0.2178 -0.1280
 1154ntf    fn4 8129   4.748   3.681   3.321 -0.1469  0.4549  0.2039
 1154ntf    fn4 8130   4.771   3.624   3.112 -0.2804 -0.3325  0.1620
 1155ntf    cn1 8131   4.577   0.076   5.425  0.0621  0.1544 -0.0845
 1155ntf    sn2 8132   4.584  -0.075   5.324  0.1156  0.2300 -0.1925
 1155ntf    nn3 8133   4.614  -0.181   5.435 -0.6960 -0.1602 -0.3355
 1155ntf    sn2 8134   4.669  -0.326   5.409  0.2803  0.1388 -0.0179
 1155ntf    cn1 8135   4.584  -0.422   5.538  0.1261  0.0646 -0.1731
 1155ntf    fn4 8136   4.700   0.104   5.466  0.1300 -0.5389  0.1962
 1155ntf    fn4 8137   4.526   0.184   5.369 -0.0313 -0.0140 -0.3251
 1155ntf    fn4 8138   4.498   0.052   5.529 -0.0721  0.4556 -0.1149
 1155ntf    on5 8139   4.448  -0.089   5.277  0.1808 -0.1119 -0.2803
 1155ntf    on5 8140   4.691  -0.046   5.231  0.8586  0.0753  0.6015
 1155ntf    on5 8141   4.616  -0.383   5.287  0.0911  0.2583  0.0080
 1155ntf    on5 8142   4.809  -0.345   5.438  0.2712  0.3311  0.1590
 1155ntf    fn4 8143   4.574  -0.360   5.655  0.0247 -0.1416 -0.0724
 1155ntf    fn4 8144   4.638  -0.541   5.558  0.3069  0.1707 -0.0272
 1155ntf    fn4 8145   4.460  -0.448   5.500  0.0840 -0.0289  0.0243
 1156ntf    cn1 8146   3.242   1.140   3.867  0.0154  0.1876  0.3318
 1156ntf    sn2 8147   3.353   1.117   3.725 -0.3545  0.1817  0.0426
 1156ntf    nn3 8148   3.302   0.983   3.662  0.2438  0.0110 -0.0901
 1156ntf    sn2 8149   3.358   0.837   3.681 -0.0158 -0.0762  0.0158
 1156ntf    cn1 8150   3.496   0.847   3.564 -0.0141 -0.1450  0.0128
 1156ntf    fn4 8151   3.116   1.120   3.833 -0.0421  1.5295 -0.2954
 1156ntf    fn4 8152   3.257   1.056   3.968 -0.1471 -0.0694  0.1428
 1156ntf    fn4 8153   3.251   1.263   3.914 -0.5660  0.2493  0.2856
 1156ntf    on5 8154   3.323   1.220   3.628  0.0771 -0.1121 -0.4114
 1156ntf    on5 8155   3.483   1.124   3.787 -0.4787  0.5474  0.2650
 1156ntf    on5 8156   3.425   0.810   3.805  0.0262  0.4952  0.1220
 1156ntf    on5 8157   3.262   0.741   3.633  0.2768 -0.2672 -0.1955
 1156ntf    fn4 8158   3.490   0.768   3.457  0.3531  0.5120 -0.5044
 1156ntf    fn4 8159   3.608   0.815   3.628  0.1605  0.1711 -0.1312
 1156ntf    fn4 8160   3.517   0.967   3.512 -0.0224 -0.1749 -0.0603
 1157ntf    cn1 8161   4.313   5.909   3.886 -0.2313  0.0816  0.5752
 1157ntf    sn2 8162   4.379   5.875   3.720 -0.5385  0.0258  0.4630
 1157ntf    nn3 8163   4.250   5.827   3.645  0.2204 -0.9093 -0.2503
 1157ntf    sn2 8164   4.221   5.837   3.491  0.0790  0.3975 -0.1496
 1157ntf    cn1 8165   4.096   5.969   3.494 -0.3138  0.0237  0.1736
 1157ntf    fn4 8166   4.197   5.974   3.885 -0.1742  0.1843 -0.1337
 1157ntf    fn4 8167   4.289   5.799   3.955  0.2007 -0.0380  0.5326
 1157ntf    fn4 8168   4.393   5.982   3.961 -0.1062  0.2420  0.2866
 1157ntf    on5 8169   4.437   6.002   3.682 -0.0444 -0.2820  0.1843
 1157ntf    on5 8170   4.470   5.766   3.746  0.3742  0.6822  0.0771
 1157ntf    on5 8171   4.329   5.883   3.408 -0.2131  0.3972 -0.5345
 1157ntf    on5 8172   4.161   5.715   3.443  0.7528  0.0633 -0.1533
 1157ntf    fn4 8173   4.077   6.028   3.377 -0.0875  0.1091  0.1779
 1157ntf    fn4 8174   4.126   6.067   3.578  0.3009 -0.2093  0.2388
 1157ntf    fn4 8175   3.974   5.923   3.516 -0.4584 -0.0035 -0.6568
 1158ntf    cn1 8176   2.450   3.053   2.641  0.1697  0.0141 -0.0400
 1158ntf    sn2 8177   2.385   2.980   2.794  0.1624  0.1830  0.0387
 1158ntf    nn3 8178   2.302   2.863   2.730  0.7680 -0.1751 -0.0922
 1158ntf    sn2 8179   2.175   2.793   2.790  0.3746  0.2843 -0.3811
 1158ntf    cn1 8180   2.258   2.654   2.873 -0.2147  0.0728 -0.1446
 1158ntf    fn4 8181   2.556   2.987   2.598 -0.0976  0.0449 -0.7505
 1158ntf    fn4 8182   2.360   3.040   2.545 -0.0050  0.3052  0.0821
 1158ntf    fn4 8183   2.495   3.178   2.642  0.3511 -0.0523  0.1205
 1158ntf    on5 8184   2.497   2.932   2.870  0.0367 -0.2023 -0.0169
 1158ntf    on5 8185   2.296   3.078   2.851 -0.0266  0.0749 -0.0691
 1158ntf    on5 8186   2.104   2.854   2.899  0.0939 -0.4082 -0.1677
 1158ntf    on5 8187   2.103   2.733   2.681 -0.7722 -0.2222  0.6373
 1158ntf    fn4 8188   2.354   2.592   2.805 -0.1322  0.2108 -0.1527
 1158ntf    fn4 8189   2.172   2.556   2.896  0.0400 -0.1583 -0.1757
 1158ntf    fn4 8190   2.304   2.677   2.995 -0.6231 -0.0571  0.0365
 1159ntf    cn1 8191   5.388   4.840   1.797  0.1230  0.1433 -0.1333
 1159ntf    sn2 8192   5.325   4.672   1.773 -0.3238  0.2697  0.1372
 1159ntf    nn3 8193   5.441   4.588   1.838 -0.2436  0.1586 -0.1456
 1159ntf    sn2 8194   5.443   4.511   1.975 -0.2434 -0.3583 -0.4319
 1159ntf    cn1 8195   5.376   4.346   1.942 -0.3565 -0.3366 -0.3137
 1159ntf    fn4 8196   5.510   4.855   1.748  0.2412 -0.0870  0.0904
 1159ntf    fn4 8197   5.313   4.927   1.731  0.4898  0.4592 -0.1436
 1159ntf    fn4 8198   5.405   4.882   1.921  0.1277  0.4167 -0.2238
 1159ntf    on5 8199   5.195   4.658   1.834 -0.5531 -0.3370 -0.4726
 1159ntf    on5 8200   5.323   4.649   1.630 -0.1755 -0.1547  0.2005
 1159ntf    on5 8201   5.575   4.468   2.014 -0.1369  0.0808 -0.3012
 1159ntf    on5 8202   5.364   4.564   2.084  0.2668 -0.2407 -0.1140
 1159ntf    fn4 8203   5.251   4.353   1.901 -0.3183  0.6040 -0.2797
 1159ntf    fn4 8204   5.371   4.277   2.055  0.2623  0.1700  0.0325
 1159ntf    fn4 8205   5.438   4.281   1.844  0.8173 -0.0039  0.1892
 1160ntf    cn1 8206   2.527   4.266   0.140 -0.2257 -0.7583 -0.2687
 1160ntf    sn2 8207   2.347   4.246   0.153 -0.3512  0.2915 -0.2806
 1160ntf    nn3 8208   2.332   4.260   0.308 -0.1421 -0.0188 -0.2322
 1160ntf    sn2 8209   2.215   4.311   0.400 -0.1448 -0.3043 -0.0767
 1160ntf    cn1 8210   2.285   4.471   0.451 -0.2326 -0.2826 -0.0251
 1160ntf    fn4 8211   2.596   4.177   0.210  0.0788 -0.6531 -0.4338
 1160ntf    fn4 8212   2.562   4.258   0.013 -0.2963 -0.1887 -0.3284
 1160ntf    fn4 8213   2.566   4.387   0.177 -0.2838 -0.7765 -0.1447
 1160ntf    on5 8214   2.293   4.348   0.065 -0.2464  0.2968 -0.3388
 1160ntf    on5 8215   2.330   4.109   0.113  0.3886  0.1021  0.0448
 1160ntf    on5 8216   2.088   4.345   0.341  0.4585  0.4853 -0.9503
 1160ntf    on5 8217   2.213   4.246   0.529 -0.4287  0.0006  0.0734
 1160ntf    fn4 8218   2.406   4.457   0.503 -0.2945 -0.5199  0.0569
 1160ntf    fn4 8219   2.209   4.527   0.544 -0.1019  0.3580 -0.3006
 1160ntf    fn4 8220   2.290   4.562   0.356 -0.1556  0.0413  0.2870
 1161ntf    cn1 8221   2.912   6.383   0.161  0.1408 -0.0442  0.3900
 1161ntf    sn2 8222   2.905   6.201   0.159 -0.2804 -0.0250  0.1910
 1161ntf    nn3 8223   2.899   6.172   0.005 -0.0382 -0.1459  0.2042
 1161ntf    sn2 8224   2.855   6.036  -0.061 -0.1030  0.0005 -0.0565
 1161ntf    cn1 8225   2.913   6.072  -0.229  0.1680  0.0793  0.0528
 1161ntf    fn4 8226   2.809   6.430   0.094  0.2945 -0.3337 -0.0500
 1161ntf    fn4 8227   2.903   6.430   0.284 -0.3924 -0.5029  0.5281
 1161ntf    fn4 8228   3.019   6.437   0.104 -0.1370 -0.1784 -0.2594
 1161ntf    on5 8229   3.033   6.171   0.217 -0.2962 -1.0841 -0.3017
 1161ntf    on5 8230   2.779   6.164   0.219  0.1257 -0.6323  0.6759
 1161ntf    on5 8231   2.925   5.919  -0.015 -0.1835  0.0852  0.2866
 1161ntf    on5 8232   2.713   6.025  -0.080 -0.0885  0.5443 -0.4998
 1161ntf    fn4 8233   2.844   6.005  -0.320  0.0325  0.5712 -0.2076
 1161ntf    fn4 8234   3.042   6.044  -0.243  0.1702  0.2198 -0.2072
 1161ntf    fn4 8235   2.900   6.199  -0.262  0.0841  0.0268 -0.1161
 1162ntf    cn1 8236   4.143   3.783   2.747 -0.1912 -0.2204  0.3415
 1162ntf    sn2 8237   4.038   3.909   2.669 -0.0453 -0.2265  0.1337
 1162ntf    nn3 8238   3.915   3.879   2.761 -0.0614 -0.0709  0.1639
 1162ntf    sn2 8239   3.825   3.981   2.839  0.0699  0.1368  0.0435
 1162ntf    cn1 8240   3.668   3.908   2.784  0.2078 -0.1875  0.0787
 1162ntf    fn4 8241   4.148   3.804   2.877 -0.2253  0.4098  0.2466
 1162ntf    fn4 8242   4.093   3.663   2.723 -0.3264 -0.1575  0.3117
 1162ntf    fn4 8243   4.266   3.778   2.697 -0.1616  0.7210  0.2975
 1162ntf    on5 8244   4.110   4.032   2.695 -0.0971 -0.0751 -0.4117
 1162ntf    on5 8245   4.033   3.871   2.530  0.2775  0.0003  0.0572
 1162ntf    on5 8246   3.829   3.955   2.981 -0.0546 -0.1097  0.0015
 1162ntf    on5 8247   3.818   4.119   2.796 -0.2513 -0.0849 -0.6118
 1162ntf    fn4 8248   3.556   3.964   2.826  0.2837 -0.1622  0.2485
 1162ntf    fn4 8249   3.662   3.778   2.809 -0.2188 -0.2285 -0.2215
 1162ntf    fn4 8250   3.662   3.905   2.652 -0.1360  0.2738  0.0824
 1163ntf    cn1 8251   5.188   5.940   3.379  0.2344  0.4422  0.3433
 1163ntf    sn2 8252   5.037   5.962   3.478 -0.2347 -0.2795 -0.2042
 1163ntf    nn3 8253   5.104   5.973   3.619  0.3620  0.0464 -0.5123
 1163ntf    sn2 8254   5.126   6.097   3.714 -0.2225 -0.1291 -0.1423
 1163ntf    cn1 8255   5.179   6.012   3.866  0.1538  0.2855 -0.0415
 1163ntf    fn4 8256   5.277   6.037   3.383  0.5294  0.1928 -0.0606
 1163ntf    fn4 8257   5.258   5.833   3.411  0.0831  0.1423 -0.3192
 1163ntf    fn4 8258   5.144   5.932   3.254  0.1932 -0.1826  0.3953
 1163ntf    on5 8259   4.981   6.082   3.423  0.1998 -0.1662 -0.3992
 1163ntf    on5 8260   4.972   5.833   3.469  0.5561 -0.7043  0.1028
 1163ntf    on5 8261   5.242   6.178   3.685 -0.7966  0.7496  0.0020
 1163ntf    on5 8262   5.004   6.161   3.756  0.2244  0.7935 -0.2415
 1163ntf    fn4 8263   5.213   6.098   3.961  0.3627  0.1512  0.0072
 1163ntf    fn4 8264   5.286   5.935   3.853 -0.0591 -0.0060 -0.0667
 1163ntf    fn4 8265   5.079   5.942   3.915  0.0941  0.7508  0.5101
 1164ntf    cn1 8266   2.563   2.316   0.303 -0.0974  0.2461  0.1866
 1164ntf    sn2 8267   2.581   2.476   0.386  0.2757  0.3409 -0.0760
 1164ntf    nn3 8268   2.637   2.562   0.267  0.3970  0.2808 -0.0633
 1164ntf    sn2 8269   2.545   2.653   0.178 -0.0974  0.0472  0.2023
 1164ntf    cn1 8270   2.651   2.687   0.034 -0.2029  0.1112  0.1395
 1164ntf    fn4 8271   2.459   2.315   0.221 -0.0321 -0.4368  0.1080
 1164ntf    fn4 8272   2.662   2.289   0.220 -0.2388 -0.3275  0.1987
 1164ntf    fn4 8273   2.555   2.217   0.391  0.2655 -0.1450 -0.2130
 1164ntf    on5 8274   2.446   2.489   0.434  0.1720 -0.0642 -0.2584
 1164ntf    on5 8275   2.676   2.442   0.489 -0.6084 -0.9340  0.3383
 1164ntf    on5 8276   2.431   2.588   0.119 -0.1693  0.4664 -0.1285
 1164ntf    on5 8277   2.525   2.783   0.237  0.0442  0.0026  0.3483
 1164ntf    fn4 8278   2.583   2.747  -0.062 -0.2900 -0.5128 -0.1892
 1164ntf    fn4 8279   2.693   2.573  -0.019 -0.1125  0.0055  0.4349
 1164ntf    fn4 8280   2.757   2.762   0.060 -0.1105  0.1382 -0.3070
 1165ntf    cn1 8281   0.764   0.709   0.146  0.0160  0.0725  0.0986
 1165ntf    sn2 8282   0.609   0.723   0.052  0.1233 -0.0550 -0.0997
 1165ntf    nn3 8283   0.658   0.674  -0.089  0.4285  0.0132 -0.0194
 1165ntf    sn2 8284   0.572   0.629  -0.212  0.1859 -0.0827  0.1822
 1165ntf    cn1 8285   0.561   0.449  -0.190 -0.3069 -0.1184 -0.3356
 1165ntf    fn4 8286   0.859   0.784   0.092 -0.1947  0.7557  0.6652
 1165ntf    fn4 8287   0.760   0.732   0.276  0.4451 -0.5905  0.2352
 1165ntf    fn4 8288   0.817   0.588   0.145  0.0865  0.1020  0.2785
 1165ntf    on5 8289   0.519   0.639   0.127 -0.5940  0.3063 -0.5447
 1165ntf    on5 8290   0.579   0.864   0.056 -0.6501 -0.2168 -0.1468
 1165ntf    on5 8291   0.438   0.683  -0.201 -0.0619 -0.6572 -0.0001
 1165ntf    on5 8292   0.640   0.647  -0.338 -0.4147 -0.2221 -0.1654
 1165ntf    fn4 8293   0.520   0.420  -0.068 -0.3604  0.1149 -0.2980
 1165ntf    fn4 8294   0.681   0.396  -0.207 -0.0876  0.3708 -0.3499
 1165ntf    fn4 8295   0.481   0.394  -0.280 -0.3118  0.2710 -0.5708
 1166ntf    cn1 8296   2.583   1.836   0.929 -0.0838  0.1167 -0.1025
 1166ntf    sn2 8297   2.458   1.711   0.972 -0.1007  0.2201  0.1509
 1166ntf    nn3 8298   2.345   1.796   1.041 -0.2393  0.1648 -0.0073
 1166ntf    sn2 8299   2.311   1.796   1.194 -0.2634  0.1620 -0.0126
 1166ntf    cn1 8300   2.137   1.844   1.170 -0.2428  0.0089 -0.4927
 1166ntf    fn4 8301   2.645   1.899   1.027  0.5718 -0.5010 -0.1091
 1166ntf    fn4 8302   2.679   1.780   0.857  0.0468  0.4104 -0.1601
 1166ntf    fn4 8303   2.536   1.939   0.861 -0.0470  0.2399  0.0578
 1166ntf    on5 8304   2.422   1.665   0.840 -0.2779 -0.0428  0.2899
 1166ntf    on5 8305   2.522   1.618   1.061 -0.2016 -0.4247 -0.4440
 1166ntf    on5 8306   2.305   1.666   1.257 -0.3119  0.0179 -0.3120
 1166ntf    on5 8307   2.380   1.905   1.259  0.6119 -0.4186  0.0530
 1166ntf    fn4 8308   2.136   1.944   1.084 -0.0334 -0.0497 -0.5646
 1166ntf    fn4 8309   2.076   1.882   1.281 -0.0837 -0.1540 -0.3487
 1166ntf    fn4 8310   2.059   1.750   1.120 -0.1625 -0.5495  0.4048
 1167ntf    cn1 8311   5.540   5.854   3.125  0.0063 -0.0960 -0.1644
 1167ntf    sn2 8312   5.674   5.734   3.100  0.0713 -0.0721  0.0695
 1167ntf    nn3 8313   5.627   5.663   2.968 -0.5106  0.3284  0.0606
 1167ntf    sn2 8314   5.564   5.521   2.950 -0.1749  0.1758  0.0821
 1167ntf    cn1 8315   5.721   5.435   2.923 -0.1756  0.0991  0.3257
 1167ntf    fn4 8316   5.535   5.935   3.020  0.2801 -0.1009 -0.1809
 1167ntf    fn4 8317   5.418   5.801   3.132  0.0533 -0.2223 -0.2851
 1167ntf    fn4 8318   5.560   5.929   3.232  0.0759 -0.0347 -0.2202
 1167ntf    on5 8319   5.793   5.814   3.084  0.0184  0.0590  0.3149
 1167ntf    on5 8320   5.673   5.656   3.222  0.3149 -0.8249 -0.4004
 1167ntf    on5 8321   5.502   5.457   3.063  0.4225 -0.2165  0.1925
 1167ntf    on5 8322   5.496   5.517   2.822 -0.0020 -0.1648 -0.0012
 1167ntf    fn4 8323   5.785   5.481   2.817  0.0043 -0.8949 -0.0138
 1167ntf    fn4 8324   5.691   5.307   2.902 -0.9154  0.3808 -0.3790
 1167ntf    fn4 8325   5.803   5.433   3.027  0.3957 -0.1037 -0.1206
 1168ntf    cn1 8326   4.730   4.150   2.210  0.9975  0.0859  0.1354
 1168ntf    sn2 8327   4.777   4.103   2.379  0.2794  0.2283  0.3787
 1168ntf    nn3 8328   4.860   3.977   2.338 -0.4310 -0.0639 -0.1853
 1168ntf    sn2 8329   4.817   3.827   2.319  0.0286 -0.2140 -0.0648
 1168ntf    cn1 8330   4.834   3.758   2.486 -0.0365  0.2413  0.1306
 1168ntf    fn4 8331   4.832   4.192   2.137  0.6642 -0.0506 -0.4155
 1168ntf    fn4 8332   4.669   4.050   2.149 -0.1543  0.5616  0.4559
 1168ntf    fn4 8333   4.648   4.254   2.222  0.4850 -0.2823 -0.1322
 1168ntf    on5 8334   4.859   4.209   2.432  0.2248  0.3851  0.1536
 1168ntf    on5 8335   4.657   4.064   2.448  0.1930  0.5322  0.4040
 1168ntf    on5 8336   4.677   3.799   2.296 -0.0384 -0.0053  0.0898
 1168ntf    on5 8337   4.917   3.758   2.241 -0.0855 -0.5133  0.0548
 1168ntf    fn4 8338   4.958   3.720   2.510  0.0876  0.3814 -0.2793
 1168ntf    fn4 8339   4.758   3.652   2.505 -0.1892  0.3445  0.0970
 1168ntf    fn4 8340   4.810   3.847   2.581  0.3429  0.7205 -0.2205
 1169ntf    cn1 8341   4.057   3.284   2.654  0.1391 -0.1070  0.1614
 1169ntf    sn2 8342   4.180   3.151   2.640  0.0877 -0.1255 -0.1133
 1169ntf    nn3 8343   4.284   3.221   2.545  0.2538 -0.5132 -0.2230
 1169ntf    sn2 8344   4.324   3.203   2.394  0.2120 -0.4129 -0.2465
 1169ntf    cn1 8345   4.360   3.376   2.352 -0.4017 -0.2450 -0.0978
 1169ntf    fn4 8346   3.977   3.269   2.758  0.0481  0.4855  0.1790
 1169ntf    fn4 8347   4.124   3.397   2.668  0.7838 -0.3716 -0.6369
 1169ntf    fn4 8348   3.988   3.298   2.542  0.2753 -0.5520  0.0173
 1169ntf    on5 8349   4.242   3.131   2.769 -0.2438  0.3969  0.1270
 1169ntf    on5 8350   4.108   3.043   2.577 -1.0789  0.7554 -0.3159
 1169ntf    on5 8351   4.445   3.128   2.370  0.4891 -0.2148  0.5050
 1169ntf    on5 8352   4.213   3.167   2.309 -0.0201  0.2717 -0.2390
 1169ntf    fn4 8353   4.373   3.390   2.221 -0.3245 -0.6318 -0.1332
 1169ntf    fn4 8354   4.468   3.423   2.411 -0.4685 -0.2055 -0.0073
 1169ntf    fn4 8355   4.265   3.455   2.399 -0.3625 -0.1650 -0.1530
 1170ntf    cn1 8356   6.397   1.345   5.451  0.0157 -0.2707 -0.3263
 1170ntf    sn2 8357   6.292   1.237   5.553  0.4862 -0.3143  0.1128
 1170ntf    nn3 8358   6.243   1.125   5.454  0.0035  0.0429 -0.0538
 1170ntf    sn2 8359   6.132   1.123   5.344 -0.0782 -0.0682  0.0304
 1170ntf    cn1 8360   5.975   1.097   5.432 -0.2621 -0.1635 -0.3213
 1170ntf    fn4 8361   6.480   1.282   5.370  0.1147  0.1944 -0.5905
 1170ntf    fn4 8362   6.327   1.427   5.374 -0.0274 -0.0003 -0.0043
 1170ntf    fn4 8363   6.473   1.418   5.531 -0.5182 -0.2045  0.1327
 1170ntf    on5 8364   6.382   1.195   5.658  0.3182  0.0987  0.4235
 1170ntf    on5 8365   6.191   1.329   5.599  0.4845 -0.1238 -0.2736
 1170ntf    on5 8366   6.131   1.253   5.281  0.0761 -0.1315 -0.1015
 1170ntf    on5 8367   6.140   1.006   5.261  0.5288  0.1529 -0.2229
 1170ntf    fn4 8368   5.869   1.097   5.354 -0.3579  0.4862 -0.1994
 1170ntf    fn4 8369   5.959   1.195   5.521  0.1358 -0.1656 -0.2459
 1170ntf    fn4 8370   5.978   0.982   5.497 -0.4472  0.1930  0.3371
 1171ntf    cn1 8371   6.034   1.270   1.499  0.5160  0.3699  0.7493
 1171ntf    sn2 8372   5.869   1.222   1.558  0.3805 -0.1748 -0.0541
 1171ntf    nn3 8373   5.893   1.249   1.711 -0.1123 -0.1018  0.0097
 1171ntf    sn2 8374   5.935   1.138   1.813  0.0109 -0.0699 -0.0068
 1171ntf    cn1 8375   5.773   1.105   1.889 -0.1362  0.0458 -0.2687
 1171ntf    fn4 8376   6.142   1.220   1.556  0.5909 -0.2132  0.1215
 1171ntf    fn4 8377   6.060   1.238   1.373 -0.4273 -0.0191  0.6444
 1171ntf    fn4 8378   6.049   1.401   1.507  0.0430  0.5224 -0.5882
 1171ntf    on5 8379   5.776   1.314   1.498  0.5883  0.0227 -0.0715
 1171ntf    on5 8380   5.852   1.087   1.510  0.3046 -0.1214 -0.1797
 1171ntf    on5 8381   5.982   1.010   1.767  0.4462 -0.0446  0.3568
 1171ntf    on5 8382   6.013   1.195   1.920  0.3668 -0.0691 -0.2634
 1171ntf    fn4 8383   5.683   1.064   1.801 -0.3945 -0.6785  0.3257
 1171ntf    fn4 8384   5.734   1.215   1.950 -0.1561  0.1907 -0.5426
 1171ntf    fn4 8385   5.771   1.010   1.981 -0.2316  0.0157 -0.3025
 1172ntf    cn1 8386   3.305   0.976   5.581  0.3918 -0.0309 -0.2976
 1172ntf    sn2 8387   3.352   1.143   5.527  0.0209  0.1219 -0.1507
 1172ntf    nn3 8388   3.235   1.235   5.579  0.1327  0.1978 -0.0349
 1172ntf    sn2 8389   3.117   1.292   5.493 -0.2892 -0.3336  0.1881
 1172ntf    cn1 8390   2.979   1.269   5.610 -0.5906  0.0409 -0.0926
 1172ntf    fn4 8391   3.273   0.964   5.709 -0.1052 -0.0356 -0.4195
 1172ntf    fn4 8392   3.204   0.932   5.508  0.3034 -0.0342 -0.1736
 1172ntf    fn4 8393   3.399   0.886   5.557  0.0131 -0.4438 -0.2532
 1172ntf    on5 8394   3.481   1.169   5.584 -0.0307  0.2117 -0.0741
 1172ntf    on5 8395   3.347   1.129   5.383  0.1548  0.3143 -0.1746
 1172ntf    on5 8396   3.120   1.436   5.487  0.6701 -0.3508  0.1681
 1172ntf    on5 8397   3.065   1.217   5.381 -0.1060 -0.7980  0.4093
 1172ntf    fn4 8398   2.864   1.318   5.566 -0.4381  0.0849 -0.4476
 1172ntf    fn4 8399   2.997   1.324   5.729  0.4393 -0.1015 -0.1705
 1172ntf    fn4 8400   2.955   1.140   5.630  0.2521 -0.0807  0.1745
 1173ntf    cn1 8401   5.727   2.558   1.218 -0.1013 -0.0103  0.2804
 1173ntf    sn2 8402   5.647   2.717   1.182 -0.5137 -0.3458 -0.3033
 1173ntf    nn3 8403   5.541   2.728   1.298 -0.1283 -0.0048  0.0228
 1173ntf    sn2 8404   5.484   2.860   1.360 -0.1136 -0.1562  0.3598
 1173ntf    cn1 8405   5.309   2.833   1.320 -0.1612  0.0092  0.4579
 1173ntf    fn4 8406   5.824   2.521   1.136  0.0615  0.2820  0.3398
 1173ntf    fn4 8407   5.788   2.566   1.336  0.3744 -0.7253  0.0903
 1173ntf    fn4 8408   5.639   2.459   1.223 -0.0367 -0.1310 -0.8616
 1173ntf    on5 8409   5.756   2.811   1.194 -0.3701 -0.4600 -0.6969
 1173ntf    on5 8410   5.590   2.697   1.051 -0.0984 -0.1462 -0.5181
 1173ntf    on5 8411   5.481   2.860   1.504  0.3602 -0.4315  0.3708
 1173ntf    on5 8412   5.521   2.985   1.297 -0.4910 -0.2965 -0.1526
 1173ntf    fn4 8413   5.298   2.787   1.197  0.1784  0.3983  0.2823
 1173ntf    fn4 8414   5.245   2.949   1.331 -0.1934  0.0016  0.3477
 1173ntf    fn4 8415   5.249   2.751   1.405 -0.2608 -0.0723  0.3076
 1174ntf    cn1 8416   4.534   0.383   1.913 -0.0414 -0.0485  0.0031
 1174ntf    sn2 8417   4.429   0.288   1.799 -0.1197 -0.0122  0.0452
 1174ntf    nn3 8418   4.295   0.366   1.822  0.1896  0.3409  0.6708
 1174ntf    sn2 8419   4.233   0.490   1.748  0.1272 -0.1907 -0.1740
 1174ntf    cn1 8420   4.148   0.403   1.613  0.3000 -0.0764 -0.3576
 1174ntf    fn4 8421   4.526   0.510   1.879 -0.2087 -0.0854 -0.0954
 1174ntf    fn4 8422   4.511   0.375   2.043 -0.0325  0.0169  0.0088
 1174ntf    fn4 8423   4.660   0.354   1.884  0.0017  0.1946 -0.0490
 1174ntf    on5 8424   4.489   0.310   1.670  0.4859  0.3504  0.3856
 1174ntf    on5 8425   4.431   0.158   1.862 -0.0887  0.2822  0.6643
 1174ntf    on5 8426   4.128   0.557   1.820  0.0640 -0.2229 -0.2370
 1174ntf    on5 8427   4.330   0.574   1.683  0.0908 -0.2981 -0.3686
 1174ntf    fn4 8428   4.225   0.332   1.533  0.2085  0.0460 -0.5545
 1174ntf    fn4 8429   4.072   0.483   1.540  0.0513  0.4276  0.4357
 1174ntf    fn4 8430   4.067   0.315   1.670  0.0289  0.2134 -0.2928
 1175ntf    cn1 8431   0.671   2.455   5.004 -0.2429  0.0250  0.0671
 1175ntf    sn2 8432   0.587   2.498   4.849 -0.2350  0.0904  0.0807
 1175ntf    nn3 8433   0.632   2.648   4.833 -0.4664  0.1087 -0.4215
 1175ntf    sn2 8434   0.750   2.702   4.746 -0.1191  0.0175 -0.0102
 1175ntf    cn1 8435   0.825   2.827   4.855  0.3669 -0.1778 -0.1168
 1175ntf    fn4 8436   0.802   2.473   4.998 -0.2096 -0.3370 -0.3067
 1175ntf    fn4 8437   0.629   2.540   5.097  0.0836  0.2403  0.0197
 1175ntf    fn4 8438   0.642   2.332   5.043 -0.3741 -0.0045 -0.1264
 1175ntf    on5 8439   0.633   2.399   4.755  0.4494  0.2990  0.1902
 1175ntf    on5 8440   0.446   2.491   4.880 -0.1671  0.2273  0.4336
 1175ntf    on5 8441   0.860   2.611   4.725  0.1995  0.4287 -0.1423
 1175ntf    on5 8442   0.702   2.784   4.638 -0.1309 -0.0023 -0.0204
 1175ntf    fn4 8443   0.732   2.898   4.916 -0.1393 -0.3348 -0.6974
 1175ntf    fn4 8444   0.917   2.904   4.800  0.1454  0.5272  0.4913
 1175ntf    fn4 8445   0.890   2.765   4.952 -0.0773  0.1446  0.3928
 1176ntf    cn1 8446   4.163   0.353   2.500 -0.0317 -0.1157  0.3542
 1176ntf    sn2 8447   4.271   0.438   2.619  0.0046  0.1625  0.1224
 1176ntf    nn3 8448   4.394   0.341   2.605 -0.0956  0.0691 -0.1149
 1176ntf    sn2 8449   4.544   0.376   2.632 -0.0404 -0.4702  0.2779
 1176ntf    cn1 8450   4.580   0.256   2.764 -0.0039 -0.4077  0.3250
 1176ntf    fn4 8451   4.042   0.406   2.497  0.1502  0.2580 -0.8331
 1176ntf    fn4 8452   4.207   0.371   2.377  0.2215  0.0528  0.4690
 1176ntf    fn4 8453   4.152   0.222   2.514  0.0449 -0.1541  0.0521
 1176ntf    on5 8454   4.283   0.568   2.557 -0.4391  0.1709  0.0519
 1176ntf    on5 8455   4.200   0.433   2.744 -0.0386 -0.3976  0.0741
 1176ntf    on5 8456   4.631   0.336   2.524 -0.3288 -0.3011 -0.0171
 1176ntf    on5 8457   4.563   0.500   2.703 -0.8314  0.0053 -0.3274
 1176ntf    fn4 8458   4.702   0.206   2.753 -0.0714 -0.6155  0.5115
 1176ntf    fn4 8459   4.506   0.147   2.750 -0.3075 -0.1583 -0.0211
 1176ntf    fn4 8460   4.565   0.301   2.888 -0.1909 -0.1329  0.2047
 1177ntf    cn1 8461   1.861   0.843   5.136 -0.2580 -0.1477 -0.1363
 1177ntf    sn2 8462   1.925   0.921   5.287 -0.0081 -0.3563 -0.1337
 1177ntf    nn3 8463   1.992   0.801   5.363  0.0851 -0.3055 -0.1360
 1177ntf    sn2 8464   1.942   0.711   5.481 -0.0789 -0.0328  0.0044
 1177ntf    cn1 8465   1.998   0.813   5.621  0.2257 -0.2398  0.0350
 1177ntf    fn4 8466   1.778   0.742   5.157 -0.2607 -0.0938  0.1117
 1177ntf    fn4 8467   1.796   0.928   5.058 -0.1248  0.0291 -0.0538
 1177ntf    fn4 8468   1.959   0.790   5.065 -0.1089  0.0564 -0.0826
 1177ntf    on5 8469   2.024   1.008   5.228  0.2460 -0.6967 -0.2156
 1177ntf    on5 8470   1.803   0.975   5.342  0.0728 -1.0243  0.7162
 1177ntf    on5 8471   1.800   0.707   5.506 -0.1582  0.3817 -0.3684
 1177ntf    on5 8472   2.014   0.586   5.487 -0.7203 -0.4467 -0.6913
 1177ntf    fn4 8473   1.942   0.933   5.620  0.1842 -0.2597 -0.0489
 1177ntf    fn4 8474   2.129   0.831   5.622  0.2321 -0.2793 -0.0913
 1177ntf    fn4 8475   1.967   0.755   5.736 -0.1086  0.4923  0.3210
 1178ntf    cn1 8476   1.124   0.594   0.812 -0.1577 -0.0901  0.2926
 1178ntf    sn2 8477   1.190   0.761   0.842 -0.1230  0.0092 -0.3311
 1178ntf    nn3 8478   1.168   0.821   0.698 -0.6094  0.0024 -0.2603
 1178ntf    sn2 8479   1.100   0.956   0.655 -0.2389  0.1091 -0.5106
 1178ntf    cn1 8480   1.237   1.063   0.602 -0.2051  0.4916  0.3377
 1178ntf    fn4 8481   1.028   0.585   0.722 -0.1362  0.4102  0.2160
 1178ntf    fn4 8482   1.221   0.515   0.766 -0.7848 -0.3056 -0.6839
 1178ntf    fn4 8483   1.085   0.540   0.926 -0.4213  0.2566  0.3641
 1178ntf    on5 8484   1.120   0.810   0.957  0.2017 -0.6235  0.1398
 1178ntf    on5 8485   1.330   0.728   0.857 -0.0586  0.2214 -0.4589
 1178ntf    on5 8486   1.024   0.938   0.534 -0.7386 -0.2032 -0.1516
 1178ntf    on5 8487   1.043   1.029   0.765 -0.2406 -0.4051 -0.1658
 1178ntf    fn4 8488   1.325   1.098   0.695  0.1403 -0.2560  0.3029
 1178ntf    fn4 8489   1.196   1.178   0.551  0.0799  0.3304 -0.2651
 1178ntf    fn4 8490   1.302   1.012   0.499 -0.3713  0.0507  0.4507
 1179ntf    cn1 8491   5.921   0.140   5.994  0.4193  0.1196  0.3194
 1179ntf    sn2 8492   6.036  -0.000   6.009  0.1299 -0.1388  0.1399
 1179ntf    nn3 8493   6.069  -0.027   5.858 -0.5327 -0.1652 -0.0023
 1179ntf    sn2 8494   6.141  -0.155   5.803  0.2015  0.1870  0.1337
 1179ntf    cn1 8495   6.287  -0.077   5.728  0.0787  0.0421 -0.2618
 1179ntf    fn4 8496   5.987   0.246   5.951  0.1560  0.1577 -0.0026
 1179ntf    fn4 8497   5.831   0.108   5.902  0.3957  0.2237  0.3057
 1179ntf    fn4 8498   5.848   0.172   6.100  0.0634 -0.1841  0.1697
 1179ntf    on5 8499   6.137   0.069   6.085 -0.2197  0.8885 -0.3036
 1179ntf    on5 8500   5.960  -0.103   6.076  0.0852  0.0210  0.3364
 1179ntf    on5 8501   6.199  -0.246   5.898  0.0076  0.0997  0.1683
 1179ntf    on5 8502   6.076  -0.217   5.690  0.6268 -0.1232  0.0563
 1179ntf    fn4 8503   6.263  -0.021   5.610  0.4078  0.0339 -0.3345
 1179ntf    fn4 8504   6.386  -0.162   5.709  0.0213 -0.0397 -0.1915
 1179ntf    fn4 8505   6.344   0.021   5.796  0.4453 -0.2385 -0.1591
 1180ntf    cn1 8506   2.297   1.590   1.721 -0.0431 -0.2059  0.0070
 1180ntf    sn2 8507   2.293   1.697   1.868  0.1703  0.0053 -0.1400
 1180ntf    nn3 8508   2.212   1.609   1.970  0.3959  0.2847  0.2843
 1180ntf    sn2 8509   2.056   1.606   1.983  0.3492  0.3530 -0.2204
 1180ntf    cn1 8510   2.031   1.727   2.117  0.2226  0.0786  0.0058
 1180ntf    fn4 8511   2.383   1.622   1.625 -0.0475  0.4471  0.2136
 1180ntf    fn4 8512   2.322   1.464   1.754  0.2703 -0.1975 -0.1865
 1180ntf    fn4 8513   2.173   1.585   1.675  0.0250 -0.0088 -0.1982
 1180ntf    on5 8514   2.434   1.699   1.901  0.0730  0.5690  0.2491
 1180ntf    on5 8515   2.236   1.825   1.835 -0.3913 -0.1248  0.3187
 1180ntf    on5 8516   1.982   1.652   1.868 -0.2388  0.2501  0.1095
 1180ntf    on5 8517   2.014   1.483   2.046  0.1255  0.6346  0.1907
 1180ntf    fn4 8518   2.097   1.838   2.091 -0.0109  0.0631 -0.6691
 1180ntf    fn4 8519   2.077   1.675   2.230  0.1172  0.1537  0.0830
 1180ntf    fn4 8520   1.904   1.758   2.139  0.1014 -0.2954 -0.1580
 1181ntf    cn1 8521   3.572   1.880   3.236  0.1114  0.2196 -0.1693
 1181ntf    sn2 8522   3.415   1.788   3.231  0.0449  0.3069  0.2178
 1181ntf    nn3 8523   3.399   1.776   3.075  0.0741  0.0066  0.2357
 1181ntf    sn2 8524   3.362   1.651   2.988  0.0482  0.2507 -0.1046
 1181ntf    cn1 8525   3.371   1.724   2.821  0.0946 -0.2722 -0.3334
 1181ntf    fn4 8526   3.671   1.809   3.185 -0.3078 -0.3914 -0.1451
 1181ntf    fn4 8527   3.570   1.992   3.166  0.0861  0.3149 -0.0180
 1181ntf    fn4 8528   3.604   1.923   3.357  0.5816 -0.2596 -0.1214
 1181ntf    on5 8529   3.451   1.673   3.310 -0.4115  0.0066 -0.0045
 1181ntf    on5 8530   3.333   1.893   3.284  0.4687  0.4373  0.6235
 1181ntf    on5 8531   3.464   1.550   2.991 -0.4165 -0.1945  0.7528
 1181ntf    on5 8532   3.228   1.600   3.002  0.2357 -0.2385 -0.1075
 1181ntf    fn4 8533   3.269   1.805   2.794 -0.0530 -0.2947  0.1400
 1181ntf    fn4 8534   3.372   1.626   2.732 -0.1140 -0.1154 -0.5104
 1181ntf    fn4 8535   3.480   1.796   2.799  0.0111 -0.0388  0.0003
 1182ntf    cn1 8536   5.399   4.985   6.284 -0.2996 -0.4590  0.1430
 1182ntf    sn2 8537   5.219   4.989   6.260 -0.2371  0.1344 -0.2372
 1182ntf    nn3 8538   5.181   4.899   6.383 -0.4334 -0.2018 -0.5420
 1182ntf    sn2 8539   5.100   4.765   6.387  0.0420 -0.4812 -0.1354
 1182ntf    cn1 8540   5.229   4.640   6.415  0.4503  0.0135  0.2123
 1182ntf    fn4 8541   5.449   4.867   6.252  0.1744 -0.0681 -0.5915
 1182ntf    fn4 8542   5.461   5.072   6.207 -0.1235 -0.3867  0.3647
 1182ntf    fn4 8543   5.441   5.015   6.406  0.4110  0.5336 -0.3291
 1182ntf    on5 8544   5.181   5.128   6.266 -0.2053  0.1580 -0.5664
 1182ntf    on5 8545   5.203   4.928   6.130 -0.8411  0.4368 -0.3109
 1182ntf    on5 8546   5.012   4.746   6.499  0.4602  0.0547  0.2834
 1182ntf    on5 8547   5.034   4.732   6.262 -0.1109  0.7018 -0.3785
 1182ntf    fn4 8548   5.307   4.630   6.308  0.2772  0.7162  0.0144
 1182ntf    fn4 8549   5.178   4.519   6.434  0.0997 -0.0386 -0.9475
 1182ntf    fn4 8550   5.304   4.669   6.519 -0.0771  0.3517  0.5006
 1183ntf    cn1 8551   0.377   0.848   4.352 -0.4613  0.5027  0.2084
 1183ntf    sn2 8552   0.423   0.751   4.499  0.0068 -0.0313 -0.2853
 1183ntf    nn3 8553   0.485   0.628   4.425  0.2019  0.1300 -0.3929
 1183ntf    sn2 8554   0.635   0.590   4.399  0.2438  0.2726 -0.3589
 1183ntf    cn1 8555   0.662   0.514   4.562  0.2532 -0.1132 -0.5387
 1183ntf    fn4 8556   0.484   0.887   4.285  0.0419 -0.1028  0.6452
 1183ntf    fn4 8557   0.311   0.778   4.262  0.0050  0.3087  0.0153
 1183ntf    fn4 8558   0.298   0.952   4.376 -0.3199  0.7391 -0.3336
 1183ntf    on5 8559   0.510   0.837   4.576  0.1954 -0.3691 -0.1232
 1183ntf    on5 8560   0.292   0.729   4.554  0.1270 -0.2155 -0.0712
 1183ntf    on5 8561   0.639   0.473   4.315  0.0264 -0.0114  0.0222
 1183ntf    on5 8562   0.740   0.689   4.397  0.4208  0.1012  0.1324
 1183ntf    fn4 8563   0.661   0.598   4.665 -0.2328 -0.8288  0.0571
 1183ntf    fn4 8564   0.773   0.445   4.578  0.3643  0.0951 -0.4077
 1183ntf    fn4 8565   0.567   0.428   4.595  0.4319  0.0804  0.5262
 1184ntf    cn1 8566   0.640   5.567   1.743 -0.0467  0.3919  0.0692
 1184ntf    sn2 8567   0.531   5.428   1.787  0.2962  0.1696  0.2181
 1184ntf    nn3 8568   0.537   5.441   1.943  0.6027 -0.1918  0.2382
 1184ntf    sn2 8569   0.450   5.539   2.030  0.1560  0.0356 -0.4595
 1184ntf    cn1 8570   0.314   5.425   2.067  0.1258  0.1030 -0.3623
 1184ntf    fn4 8571   0.586   5.687   1.758 -0.0051  0.3756  0.3671
 1184ntf    fn4 8572   0.745   5.571   1.824 -0.0533  0.4336  0.0759
 1184ntf    fn4 8573   0.685   5.562   1.618 -0.1875  0.2846  0.0230
 1184ntf    on5 8574   0.403   5.455   1.726  0.2920 -0.1484  0.0851
 1184ntf    on5 8575   0.596   5.309   1.738 -0.3166 -0.0372 -0.0951
 1184ntf    on5 8576   0.508   5.570   2.158  0.0967 -0.8982 -0.2025
 1184ntf    on5 8577   0.394   5.649   1.956  0.1197  0.2774 -0.0732
 1184ntf    fn4 8578   0.212   5.497   2.110  0.1418  0.0038 -0.1561
 1184ntf    fn4 8579   0.349   5.336   2.159 -0.2371 -0.0362 -0.3555
 1184ntf    fn4 8580   0.271   5.361   1.959 -0.5625  0.1243 -0.1071
 1185ntf    cn1 8581   0.475   3.779   5.751  0.0126  0.1657  0.3203
 1185ntf    sn2 8582   0.383   3.661   5.648  0.2458 -0.0121  0.3155
 1185ntf    nn3 8583   0.241   3.674   5.715  0.0148 -0.1198 -0.1496
 1185ntf    sn2 8584   0.128   3.777   5.682  0.0528 -0.0122  0.0523
 1185ntf    cn1 8585   0.003   3.678   5.594  0.1823 -0.1530  0.0259
 1185ntf    fn4 8586   0.423   3.900   5.742 -0.0664  0.1024 -0.0862
 1185ntf    fn4 8587   0.478   3.738   5.877 -0.3773  0.3846  0.4025
 1185ntf    fn4 8588   0.602   3.787   5.714  0.1573 -0.3559  0.6849
 1185ntf    on5 8589   0.390   3.708   5.512 -0.0355  0.5462  0.4936
 1185ntf    on5 8590   0.444   3.535   5.683 -0.1736 -0.3300 -0.0883
 1185ntf    on5 8591   0.062   3.817   5.804 -0.0504 -0.1862  0.0538
 1185ntf    on5 8592   0.162   3.882   5.589  0.0297  0.1475  0.2250
 1185ntf    fn4 8593  -0.024   3.567   5.661 -0.1410  0.1675  0.4345
 1185ntf    fn4 8594   0.038   3.648   5.470 -0.0504  0.2756 -0.1462
 1185ntf    fn4 8595  -0.108   3.748   5.580  0.3765  0.0858 -0.3175
 1186ntf    cn1 8596   2.875   3.241   1.781 -0.3598  0.1175 -0.1846
 1186ntf    sn2 8597   2.958   3.295   1.629 -0.2430  0.0008 -0.1621
 1186ntf    nn3 8598   3.106   3.256   1.665 -0.3146 -0.3841 -0.2768
 1186ntf    sn2 8599   3.166   3.120   1.714  0.1989 -0.0786 -0.0490
 1186ntf    cn1 8600   3.324   3.138   1.627  0.0374  0.1811 -0.2893
 1186ntf    fn4 8601   2.743   3.257   1.787 -0.3968 -0.3388  0.3288
 1186ntf    fn4 8602   2.901   3.114   1.806  0.2966  0.3160  0.1738
 1186ntf    fn4 8603   2.923   3.304   1.887  0.0959  0.1070 -0.3843
 1186ntf    on5 8604   2.891   3.218   1.527  0.9401 -0.3064 -0.7269
 1186ntf    on5 8605   2.941   3.438   1.628 -0.0555  0.0243  0.1613
 1186ntf    on5 8606   3.198   3.119   1.855  0.1406 -0.0314 -0.0350
 1186ntf    on5 8607   3.105   3.004   1.653  0.4700 -0.1873 -0.1174
 1186ntf    fn4 8608   3.411   3.212   1.694  0.1020 -0.0412 -0.1244
 1186ntf    fn4 8609   3.315   3.196   1.508 -0.3964  0.2684 -0.2156
 1186ntf    fn4 8610   3.381   3.021   1.603 -0.3981 -0.1182  0.1271
 1187ntf    cn1 8611   4.120   0.630   1.297  0.1073 -0.4876 -0.0656
 1187ntf    sn2 8612   4.117   0.759   1.169 -0.3797 -0.3039  0.1278
 1187ntf    nn3 8613   4.062   0.880   1.251  0.4044  0.0983  0.0702
 1187ntf    sn2 8614   4.125   1.018   1.293  0.1043  0.3407 -0.2750
 1187ntf    cn1 8615   3.979   1.113   1.346  0.2270  0.3252  0.0922
 1187ntf    fn4 8616   4.166   0.518   1.243  0.0344 -0.3308 -0.4539
 1187ntf    fn4 8617   4.201   0.652   1.399  0.1823  0.1097 -0.2519
 1187ntf    fn4 8618   4.000   0.603   1.346  0.0457 -0.9117 -0.4433
 1187ntf    on5 8619   4.254   0.762   1.123 -0.3533  0.2382  0.2348
 1187ntf    on5 8620   4.019   0.707   1.077 -0.7075  0.3447  0.1121
 1187ntf    on5 8621   4.211   1.004   1.407  0.2836 -0.4747 -0.5030
 1187ntf    on5 8622   4.176   1.108   1.192 -0.0068  0.1340 -0.5174
 1187ntf    fn4 8623   3.989   1.228   1.410 -0.2132  0.6050 -0.3279
 1187ntf    fn4 8624   3.900   1.039   1.423 -0.2096  0.1899 -0.4744
 1187ntf    fn4 8625   3.907   1.134   1.237 -0.3254  0.2161  0.4290
 1188ntf    cn1 8626   2.739   4.716   4.875  0.1512  0.0733 -0.3917
 1188ntf    sn2 8627   2.748   4.767   4.700  0.0180 -0.0823 -0.4444
 1188ntf    nn3 8628   2.758   4.626   4.630 -0.5867 -0.1520 -0.3980
 1188ntf    sn2 8629   2.834   4.581   4.501 -0.1815  0.2067 -0.2877
 1188ntf    cn1 8630   2.892   4.420   4.562  0.2483  0.3759 -0.2444
 1188ntf    fn4 8631   2.740   4.820   4.956  0.6544 -0.1166 -0.1471
 1188ntf    fn4 8632   2.634   4.640   4.901  0.5497 -0.5106 -0.4566
 1188ntf    fn4 8633   2.836   4.639   4.921  0.0999  0.0873 -0.2606
 1188ntf    on5 8634   2.623   4.836   4.676 -0.0478 -0.0805 -0.1018
 1188ntf    on5 8635   2.869   4.844   4.699 -0.3519  0.5138  0.0519
 1188ntf    on5 8636   2.743   4.558   4.392 -0.3319  1.2165 -0.3877
 1188ntf    on5 8637   2.960   4.643   4.470 -0.1672  0.1585 -0.3264
 1188ntf    fn4 8638   2.958   4.352   4.470 -0.3142  0.1158 -0.4582
 1188ntf    fn4 8639   2.787   4.341   4.575  0.2905  0.2571 -0.6084
 1188ntf    fn4 8640   2.954   4.433   4.678  0.1284  0.3969 -0.1821
 1189ntf    cn1 8641   0.263   3.441   6.629 -0.2291  0.0595 -0.3168
 1189ntf    sn2 8642   0.375   3.393   6.494 -0.0618 -0.2780 -0.0596
 1189ntf    nn3 8643   0.330   3.247   6.459 -0.2659 -0.1454 -0.3513
 1189ntf    sn2 8644   0.408   3.135   6.382  0.5064  0.0393  0.1501
 1189ntf    cn1 8645   0.503   3.055   6.515 -0.0726 -0.5758  0.1988
 1189ntf    fn4 8646   0.284   3.559   6.685 -0.1929 -0.0737 -0.0467
 1189ntf    fn4 8647   0.134   3.432   6.598 -0.2290  0.2134 -0.3608
 1189ntf    fn4 8648   0.283   3.365   6.735  0.6220  0.2685 -0.3219
 1189ntf    on5 8649   0.342   3.483   6.386  0.3705 -0.3348 -0.2411
 1189ntf    on5 8650   0.505   3.400   6.555 -0.4064 -0.0458  0.6623
 1189ntf    on5 8651   0.317   3.027   6.352  0.6493 -0.0391 -0.0028
 1189ntf    on5 8652   0.500   3.180   6.281  0.9176 -0.5099  0.2754
 1189ntf    fn4 8653   0.435   2.989   6.607  0.2947 -0.4715  0.5453
 1189ntf    fn4 8654   0.561   3.146   6.591 -0.7615  0.1403 -0.1205
 1189ntf    fn4 8655   0.598   2.973   6.473  0.2408 -0.2809  0.3311
 1190ntf    cn1 8656   0.414   2.359   5.569  0.0820 -0.1296  0.3324
 1190ntf    sn2 8657   0.416   2.271   5.728 -0.3421 -0.1672  0.3196
 1190ntf    nn3 8658   0.361   2.386   5.819  0.1885  0.0237  0.4021
 1190ntf    sn2 8659   0.252   2.395   5.931 -0.1964  0.0101  0.0287
 1190ntf    cn1 8660   0.352   2.408   6.082  0.2971  0.4379 -0.3304
 1190ntf    fn4 8661   0.488   2.297   5.478  0.0585 -0.0474  0.2569
 1190ntf    fn4 8662   0.292   2.380   5.523  0.0925 -0.3605  0.1994
 1190ntf    fn4 8663   0.465   2.480   5.586 -0.3415  0.0705  0.2159
 1190ntf    on5 8664   0.337   2.151   5.717 -0.1935 -0.2519  0.1744
 1190ntf    on5 8665   0.558   2.250   5.742 -0.4080 -0.3866  0.6658
 1190ntf    on5 8666   0.177   2.518   5.922  0.2042  0.3070  0.6513
 1190ntf    on5 8667   0.176   2.275   5.958 -0.1066 -0.1643 -0.4861
 1190ntf    fn4 8668   0.450   2.320   6.095 -0.1538 -0.0152  0.0929
 1190ntf    fn4 8669   0.279   2.382   6.190  0.1667  0.2703 -0.4581
 1190ntf    fn4 8670   0.409   2.525   6.105 -0.0091  0.4962  0.1534
 1191ntf    cn1 8671   0.317   1.106   1.084  0.1636  0.2980  0.1190
 1191ntf    sn2 8672   0.480   1.071   1.011 -0.0495  0.0490 -0.2441
 1191ntf    nn3 8673   0.514   1.212   0.949  0.6854 -0.0868 -0.1517
 1191ntf    sn2 8674   0.467   1.279   0.816 -0.1895 -0.1396  0.1227
 1191ntf    cn1 8675   0.610   1.237   0.711 -0.0253  0.0028  0.2879
 1191ntf    fn4 8676   0.230   1.107   0.984 -0.1582  0.4131  0.3991
 1191ntf    fn4 8677   0.267   1.016   1.167  0.4370  0.3862  0.3776
 1191ntf    fn4 8678   0.316   1.224   1.143  1.0677  0.0386  0.6686
 1191ntf    on5 8679   0.570   1.041   1.119 -0.2620  0.5471  0.0774
 1191ntf    on5 8680   0.449   0.965   0.919  0.2105 -0.3153  0.0872
 1191ntf    on5 8681   0.364   1.214   0.740 -0.3392  0.2859 -0.0441
 1191ntf    on5 8682   0.475   1.423   0.822  0.3659 -0.1502 -0.3013
 1191ntf    fn4 8683   0.625   1.107   0.697 -0.5830 -0.0208 -0.1366
 1191ntf    fn4 8684   0.722   1.283   0.764  0.2887  0.0916 -0.4401
 1191ntf    fn4 8685   0.613   1.281   0.586 -0.0637 -0.4212  0.1379
 1192ntf    cn1 8686   3.693   0.184   1.604  0.5384 -0.2712 -0.1711
 1192ntf    sn2 8687   3.605   0.041   1.534 -0.0102 -0.1335  0.2311
 1192ntf    nn3 8688   3.608  -0.056   1.658 -0.2568 -0.2169  0.1734
 1192ntf    sn2 8689   3.501  -0.157   1.711  0.0254 -0.3615  0.4722
 1192ntf    cn1 8690   3.622  -0.273   1.781 -0.2091 -0.5802  0.5186
 1192ntf    fn4 8691   3.705   0.286   1.520  0.2268 -0.0868  0.0079
 1192ntf    fn4 8692   3.639   0.238   1.712  0.2224 -0.3100 -0.3080
 1192ntf    fn4 8693   3.815   0.148   1.637  0.3421 -0.3369  0.4855
 1192ntf    on5 8694   3.477   0.097   1.498 -0.0511 -0.4891 -0.1810
 1192ntf    on5 8695   3.688   0.001   1.423 -0.0751  0.2461  0.0459
 1192ntf    on5 8696   3.431  -0.118   1.831 -0.3611  0.6257 -0.0569
 1192ntf    on5 8697   3.427  -0.223   1.606  0.7756 -0.4832  0.0109
 1192ntf    fn4 8698   3.661  -0.234   1.901 -0.1255  0.1638  0.2536
 1192ntf    fn4 8699   3.731  -0.290   1.708 -0.1192  0.1251  0.4831
 1192ntf    fn4 8700   3.569  -0.394   1.794 -0.6059 -0.5104 -0.3628
 1193ntf    cn1 8701   3.254   2.273   0.658 -0.0286  0.2047 -0.1040
 1193ntf    sn2 8702   3.104   2.335   0.740 -0.0020  0.2897 -0.1191
 1193ntf    nn3 8703   3.108   2.238   0.864  0.4509  0.4259 -0.0272
 1193ntf    sn2 8704   3.074   2.258   1.017 -0.0255 -0.1190 -0.0616
 1193ntf    cn1 8705   3.234   2.192   1.074 -0.0653  0.0782  0.2755
 1193ntf    fn4 8706   3.287   2.335   0.546 -0.2159 -0.0178 -0.2825
 1193ntf    fn4 8707   3.360   2.284   0.736 -0.4946 -0.1179  0.5903
 1193ntf    fn4 8708   3.243   2.144   0.628  0.0403  0.1320  0.1752
 1193ntf    on5 8709   3.150   2.469   0.765  0.7439 -0.1038  0.6971
 1193ntf    on5 8710   2.992   2.301   0.656 -0.7193  0.2576  0.8318
 1193ntf    on5 8711   3.074   2.396   1.056  0.4628  0.1070 -0.8214
 1193ntf    on5 8712   2.968   2.180   1.075 -0.2161  0.1601 -0.0396
 1193ntf    fn4 8713   3.259   2.196   1.204  0.2613  0.1445  0.2105
 1193ntf    fn4 8714   3.334   2.260   1.020 -0.3075 -0.3918 -0.7807
 1193ntf    fn4 8715   3.244   2.064   1.044 -0.3953  0.0749  0.1786
 1194ntf    cn1 8716   6.581   1.634   1.708 -0.1784  0.5392 -0.0186
 1194ntf    sn2 8717   6.692   1.682   1.573  0.0972  0.1633  0.0752
 1194ntf    nn3 8718   6.804   1.573   1.594 -0.3680 -0.3529 -0.1007
 1194ntf    sn2 8719   6.918   1.525   1.497 -0.2207  0.3615 -0.2897
 1194ntf    cn1 8720   6.862   1.361   1.444 -0.0927  0.1903  0.0984
 1194ntf    fn4 8721   6.541   1.509   1.699  0.5172  0.3027  0.1249
 1194ntf    fn4 8722   6.651   1.638   1.820 -0.0197 -0.0013 -0.0966
 1194ntf    fn4 8723   6.470   1.702   1.732 -0.6299 -0.2696  0.2117
 1194ntf    on5 8724   6.604   1.651   1.464 -0.1565 -0.1956  0.3815
 1194ntf    on5 8725   6.726   1.818   1.608  0.1716  0.2104 -0.1790
 1194ntf    on5 8726   6.928   1.598   1.373  0.5576  0.3365 -0.2469
 1194ntf    on5 8727   7.043   1.495   1.563 -0.1719  0.3232 -0.4007
 1194ntf    fn4 8728   6.752   1.363   1.370  0.0318  0.2891 -0.0825
 1194ntf    fn4 8729   6.829   1.281   1.545  0.0797 -0.2660 -0.2034
 1194ntf    fn4 8730   6.950   1.294   1.371 -0.1215  0.2912 -0.0298
 1195ntf    cn1 8731   5.690   5.827   4.504  0.0932 -0.0738  0.0699
 1195ntf    sn2 8732   5.843   5.758   4.434  0.0446  0.0019 -0.1132
 1195ntf    nn3 8733   5.783   5.650   4.337  0.6376 -0.3368 -0.1074
 1195ntf    sn2 8734   5.767   5.660   4.181 -0.2764  0.0173  0.0017
 1195ntf    cn1 8735   5.928   5.600   4.121 -0.1458 -0.1482  0.5148
 1195ntf    fn4 8736   5.615   5.736   4.564 -0.4131  0.2053 -0.1354
 1195ntf    fn4 8737   5.704   5.928   4.589  0.2066 -0.4999  0.5613
 1195ntf    fn4 8738   5.613   5.868   4.404  0.1115 -0.3912 -0.0736
 1195ntf    on5 8739   5.907   5.870   4.371 -0.1618  0.1082 -0.1354
 1195ntf    on5 8740   5.915   5.704   4.547  0.3723 -0.0652 -0.3516
 1195ntf    on5 8741   5.681   5.555   4.132  0.8865 -0.7832 -0.3768
 1195ntf    on5 8742   5.750   5.793   4.129 -0.3611 -0.0697 -0.1932
 1195ntf    fn4 8743   5.912   5.566   3.994 -0.3849  0.8868  0.2631
 1195ntf    fn4 8744   5.967   5.490   4.184  0.0731 -0.2930  0.1290
 1195ntf    fn4 8745   6.030   5.683   4.133  0.2702 -0.4655 -0.6744
 1196ntf    cn1 8746   5.014   2.838   4.187  0.3658 -0.0556 -0.2141
 1196ntf    sn2 8747   5.090   2.880   4.028  0.1156 -0.1535 -0.3597
 1196ntf    nn3 8748   5.238   2.875   4.081  0.0619  0.0594 -0.1885
 1196ntf    sn2 8749   5.329   2.748   4.085 -0.0155  0.0116  0.0210
 1196ntf    cn1 8750   5.419   2.762   3.928 -0.4179  0.0493 -0.2070
 1196ntf    fn4 8751   4.882   2.826   4.188  0.3764 -0.2089  0.5171
 1196ntf    fn4 8752   5.067   2.726   4.236 -0.2145 -0.1268  0.2662
 1196ntf    fn4 8753   5.044   2.933   4.275 -0.0538 -0.2569  0.1527
 1196ntf    on5 8754   5.052   2.774   3.938  0.3814 -0.4807 -0.0904
 1196ntf    on5 8755   5.046   3.013   3.994 -0.0717 -0.2894 -0.6512
 1196ntf    on5 8756   5.437   2.766   4.179 -0.5925  0.0957  0.6827
 1196ntf    on5 8757   5.265   2.618   4.086  0.3117 -0.1510 -0.0717
 1196ntf    fn4 8758   5.499   2.662   3.897 -0.0597  0.3097 -0.1269
 1196ntf    fn4 8759   5.488   2.874   3.917  0.2994 -0.4085 -0.4664
 1196ntf    fn4 8760   5.326   2.772   3.834 -0.1722 -0.3257 -0.4888
 1197ntf    cn1 8761   1.118   4.892   0.753  0.2173  0.2336 -0.2765
 1197ntf    sn2 8762   1.226   4.747   0.765  0.2747  0.2703 -0.3462
 1197ntf    nn3 8763   1.365   4.814   0.737  0.5983 -0.1960  0.1173
 1197ntf    sn2 8764   1.469   4.796   0.621  0.1985 -0.1877 -0.2455
 1197ntf    cn1 8765   1.619   4.844   0.711  0.0460  0.2203 -0.2064
 1197ntf    fn4 8766   0.991   4.856   0.760  0.3534 -0.1267  0.4155
 1197ntf    fn4 8767   1.139   4.976   0.854  0.1796 -0.3568  0.2244
 1197ntf    fn4 8768   1.145   4.960   0.642 -0.0377  0.0548 -0.4498
 1197ntf    on5 8769   1.216   4.710   0.904  0.6566 -0.0834 -0.4125
 1197ntf    on5 8770   1.174   4.658   0.664  0.0722  0.1452 -0.1351
 1197ntf    on5 8771   1.506   4.660   0.590  0.2194 -0.2298 -0.0376
 1197ntf    on5 8772   1.470   4.901   0.522 -0.0934  0.0798  0.0348
 1197ntf    fn4 8773   1.735   4.832   0.648  0.1550 -0.4556  0.1182
 1197ntf    fn4 8774   1.628   4.770   0.821  0.2145 -0.2849 -0.5550
 1197ntf    fn4 8775   1.618   4.967   0.760  0.4828  0.1979 -0.1303
 1198ntf    cn1 8776   0.818   4.771   5.645 -0.0686  0.2936  0.2340
 1198ntf    sn2 8777   0.814   4.938   5.715  0.4510  0.3782  0.0691
 1198ntf    nn3 8778   0.713   5.006   5.616  0.3006  0.4338  0.2593
 1198ntf    sn2 8779   0.735   5.083   5.481 -0.0393 -0.3262 -0.2395
 1198ntf    cn1 8780   0.638   5.232   5.519 -0.0358 -0.4628  0.3161
 1198ntf    fn4 8781   0.864   4.679   5.728  0.4955 -0.3494 -0.7700
 1198ntf    fn4 8782   0.696   4.725   5.622 -0.1679  0.4325  0.4856
 1198ntf    fn4 8783   0.895   4.761   5.538  0.1899 -0.1212  0.4544
 1198ntf    on5 8784   0.765   4.921   5.850 -0.0065 -0.1279 -0.1570
 1198ntf    on5 8785   0.954   4.971   5.709  0.5413  0.0201  0.2286
 1198ntf    on5 8786   0.871   5.131   5.471 -0.0880 -0.1572 -0.1051
 1198ntf    on5 8787   0.678   5.017   5.367 -1.0152 -0.0500  0.0847
 1198ntf    fn4 8788   0.634   5.310   5.412  0.1361 -0.4014  0.3528
 1198ntf    fn4 8789   0.701   5.301   5.613 -0.1949 -0.1637  0.2041
 1198ntf    fn4 8790   0.512   5.210   5.551 -0.0636 -0.4570  0.2085
 1199ntf    cn1 8791   0.027   6.520   4.084  0.0097  0.5467  0.0569
 1199ntf    sn2 8792   0.030   6.615   4.239  0.1504 -0.1239  0.4714
 1199ntf    nn3 8793   0.048   6.760   4.180 -0.0098 -0.1495  0.3557
 1199ntf    sn2 8794  -0.022   6.897   4.208  0.0734 -0.0377  0.0205
 1199ntf    cn1 8795   0.115   7.016   4.213 -0.0274  0.0811 -0.0435
 1199ntf    fn4 8796   0.021   6.391   4.113 -0.5191  0.4869 -0.3002
 1199ntf    fn4 8797  -0.074   6.555   4.006 -0.3634 -0.2931  0.1434
 1199ntf    fn4 8798   0.139   6.533   4.015  0.1453 -0.1040  0.1449
 1199ntf    on5 8799  -0.104   6.596   4.288 -0.1585  0.1619 -0.2471
 1199ntf    on5 8800   0.142   6.558   4.310  0.1573 -0.4117  0.2298
 1199ntf    on5 8801  -0.098   6.947   4.096  0.2255 -0.1033 -0.1116
 1199ntf    on5 8802  -0.079   6.907   4.341  0.1666 -0.1584  0.0701
 1199ntf    fn4 8803   0.185   7.016   4.325  0.0195 -0.7190 -0.0686
 1199ntf    fn4 8804   0.068   7.138   4.192 -0.0630  0.0964  0.1273
 1199ntf    fn4 8805   0.197   7.010   4.110 -0.1179  0.1349 -0.1187
 1200ntf    cn1 8806   2.596   4.301   1.478  0.3106 -0.1918 -0.0060
 1200ntf    sn2 8807   2.507   4.424   1.379  0.0847 -0.1181  0.2845
 1200ntf    nn3 8808   2.599   4.548   1.405  0.0568 -0.0876  0.2394
 1200ntf    sn2 8809   2.564   4.700   1.426  0.1229 -0.0074 -0.2075
 1200ntf    cn1 8810   2.731   4.771   1.416  0.0577  0.1717 -0.0105
 1200ntf    fn4 8811   2.727   4.313   1.465  0.2091  0.3762 -0.5266
 1200ntf    fn4 8812   2.564   4.319   1.606  0.2094 -0.2380 -0.0241
 1200ntf    fn4 8813   2.562   4.177   1.446 -0.1674 -0.0603 -0.0269
 1200ntf    on5 8814   2.514   4.370   1.245  0.5085  0.3988  0.0940
 1200ntf    on5 8815   2.379   4.432   1.445  0.1438  0.3120  0.3472
 1200ntf    on5 8816   2.497   4.755   1.311 -0.6195 -0.6933 -0.1149
 1200ntf    on5 8817   2.518   4.733   1.559  0.0693  0.2246 -0.2843
 1200ntf    fn4 8818   2.785   4.803   1.533  0.0725 -0.7943  0.2598
 1200ntf    fn4 8819   2.734   4.883   1.346 -0.7438  0.0374 -0.2650
 1200ntf    fn4 8820   2.821   4.693   1.360  0.0464  0.0917  0.0813
 1201ntf    cn1 8821   0.429   6.399   5.182  0.1199  0.0203  0.1190
 1201ntf    sn2 8822   0.251   6.434   5.192  0.0868 -0.1009 -0.0512
 1201ntf    nn3 8823   0.241   6.565   5.106  0.7506  0.0651  0.1175
 1201ntf    sn2 8824   0.243   6.585   4.950 -0.3951 -0.1530  0.0622
 1201ntf    cn1 8825   0.093   6.685   4.924 -0.3655 -0.2106 -0.3331
 1201ntf    fn4 8826   0.463   6.276   5.216 -0.0129  0.0480  0.3506
 1201ntf    fn4 8827   0.468   6.407   5.056  0.5207  0.2024  0.2521
 1201ntf    fn4 8828   0.511   6.481   5.246 -0.0867  0.6836 -0.4508
 1201ntf    on5 8829   0.189   6.317   5.134 -0.4318  0.2789 -0.2780
 1201ntf    on5 8830   0.227   6.459   5.332  0.4365 -0.4877  0.0804
 1201ntf    on5 8831   0.346   6.678   4.911 -0.2445 -0.2151  0.3092
 1201ntf    on5 8832   0.218   6.467   4.871 -0.1846  0.1532 -0.4676
 1201ntf    fn4 8833   0.103   6.800   4.988 -0.4132 -0.3397 -0.0938
 1201ntf    fn4 8834  -0.021   6.641   4.973 -0.4739  0.0900 -0.3123
 1201ntf    fn4 8835   0.080   6.718   4.796 -0.1056 -0.5504 -0.4496
 1202ntf    cn1 8836   1.908   5.352   5.819  0.3037 -0.0540 -0.0064
 1202ntf    sn2 8837   2.090   5.368   5.820  0.2815  0.2000  0.0156
 1202ntf    nn3 8838   2.123   5.220   5.863 -0.2613 -0.0305 -0.3400
 1202ntf    sn2 8839   2.211   5.124   5.775  0.1006 -0.0513  0.0405
 1202ntf    cn1 8840   2.250   4.996   5.899  0.0813 -0.2296 -0.1360
 1202ntf    fn4 8841   1.866   5.255   5.740  0.0121 -0.2313  0.3636
 1202ntf    fn4 8842   1.862   5.329   5.941  0.3138  0.1297  0.0322
 1202ntf    fn4 8843   1.851   5.462   5.774 -0.1148 -0.1287  0.3434
 1202ntf    on5 8844   2.129   5.417   5.691  0.2155 -0.0634 -0.1048
 1202ntf    on5 8845   2.121   5.459   5.928 -0.7446  0.1571  0.3633
 1202ntf    on5 8846   2.146   5.043   5.674 -0.0350 -0.0002  0.0867
 1202ntf    on5 8847   2.339   5.178   5.737  0.1147 -0.2014 -0.1265
 1202ntf    fn4 8848   2.343   4.910   5.861  0.0284 -0.2757 -0.1616
 1202ntf    fn4 8849   2.141   4.926   5.927 -0.0900  0.0671 -0.0556
 1202ntf    fn4 8850   2.297   5.046   6.012  0.1094  0.7789 -0.5737
 1203ntf    cn1 8851   4.672   4.237   1.160  0.4605 -0.1083  0.1410
 1203ntf    sn2 8852   4.622   4.087   1.251 -0.0762 -0.0778 -0.0987
 1203ntf    nn3 8853   4.633   4.135   1.400  0.3016 -0.2372 -0.0729
 1203ntf    sn2 8854   4.690   4.058   1.524  0.0995  0.1229  0.2447
 1203ntf    cn1 8855   4.569   3.921   1.530  0.0729  0.1595  0.5440
 1203ntf    fn4 8856   4.797   4.272   1.183  0.2998  0.2116  0.5340
 1203ntf    fn4 8857   4.671   4.215   1.030  0.6012 -0.9869  0.2829
 1203ntf    fn4 8858   4.592   4.340   1.182 -0.3940 -0.6324 -0.4586
 1203ntf    on5 8859   4.485   4.074   1.208 -0.0270 -0.0075 -0.2811
 1203ntf    on5 8860   4.719   3.991   1.202  0.1979 -0.0995  0.4838
 1203ntf    on5 8861   4.818   4.000   1.491 -0.1162 -0.0698 -0.2602
 1203ntf    on5 8862   4.676   4.120   1.653 -0.0955 -0.5393  0.5476
 1203ntf    fn4 8863   4.582   3.845   1.637  0.2612  0.2155  0.5623
 1203ntf    fn4 8864   4.574   3.838   1.428  0.2729  0.4456  0.3187
 1203ntf    fn4 8865   4.445   3.965   1.535  0.0496  0.1041  0.4484
 1204ntf    cn1 8866   1.901   1.881   3.216  0.2176  0.0322 -0.2533
 1204ntf    sn2 8867   1.999   1.742   3.153  0.0669 -0.1918  0.0017
 1204ntf    nn3 8868   2.005   1.805   3.009 -0.3559  0.0490  0.0868
 1204ntf    sn2 8869   2.117   1.883   2.932 -0.1755 -0.1151  0.1829
 1204ntf    cn1 8870   2.022   2.018   2.858  0.2037 -0.0139 -0.1269
 1204ntf    fn4 8871   1.933   1.990   3.148 -0.0058 -0.0692 -0.5212
 1204ntf    fn4 8872   1.770   1.869   3.204  0.2198 -0.2527  0.0033
 1204ntf    fn4 8873   1.916   1.907   3.345 -0.0281  0.5878 -0.3335
 1204ntf    on5 8874   2.122   1.734   3.228  0.3754  0.5443 -0.4129
 1204ntf    on5 8875   1.902   1.636   3.159  0.2773 -0.3806  0.0775
 1204ntf    on5 8876   2.212   1.964   3.004 -0.6361  0.2851  0.3423
 1204ntf    on5 8877   2.163   1.809   2.817 -0.3727 -0.1384  0.1184
 1204ntf    fn4 8878   2.099   2.106   2.796 -0.3440  0.4160 -0.2094
 1204ntf    fn4 8879   1.946   2.090   2.939  0.3711 -0.2467  0.2383
 1204ntf    fn4 8880   1.942   1.966   2.766 -0.1059 -0.1758  0.2307
 1205ntf    cn1 8881   2.906   0.718   5.829  0.0415 -0.5568 -0.1645
 1205ntf    sn2 8882   2.783   0.732   5.962  0.2412  0.0383 -0.0440
 1205ntf    nn3 8883   2.859   0.821   6.067 -0.0189 -0.3282  0.4642
 1205ntf    sn2 8884   2.853   0.978   6.078 -0.1333 -0.3267  0.3765
 1205ntf    cn1 8885   2.710   1.007   6.186 -0.3548  0.2144 -0.0563
 1205ntf    fn4 8886   2.977   0.607   5.839  0.1809 -0.4330  0.2369
 1205ntf    fn4 8887   2.846   0.715   5.711 -0.6688  0.6648  0.1507
 1205ntf    fn4 8888   2.989   0.820   5.830 -0.5178 -0.0990 -0.1897
 1205ntf    on5 8889   2.662   0.786   5.904  0.1086 -0.0077  0.1860
 1205ntf    on5 8890   2.781   0.598   6.015  0.1076  0.0974  0.1024
 1205ntf    on5 8891   2.963   1.021   6.160  0.4379 -0.2025 -0.4445
 1205ntf    on5 8892   2.821   1.051   5.957 -0.2567 -0.0133  0.5980
 1205ntf    fn4 8893   2.603   0.963   6.122 -0.1543  0.0030 -0.2447
 1205ntf    fn4 8894   2.683   1.132   6.219  0.0614  0.2313  0.2204
 1205ntf    fn4 8895   2.721   0.943   6.301  0.3722  0.3059 -0.0707
 1206ntf    cn1 8896   5.132   3.534   3.592  0.1654  0.1563 -0.0979
 1206ntf    sn2 8897   5.240   3.549   3.737  0.3522 -0.2764 -0.1912
 1206ntf    nn3 8898   5.372   3.569   3.654  0.3444  0.5227 -0.0212
 1206ntf    sn2 8899   5.503   3.485   3.636 -0.0417  0.0240 -0.5757
 1206ntf    cn1 8900   5.617   3.575   3.746 -0.1855 -0.1694 -0.2657
 1206ntf    fn4 8901   5.126   3.649   3.527 -0.2973  0.0789 -0.1987
 1206ntf    fn4 8902   5.160   3.438   3.506 -0.0143 -0.0985  0.1255
 1206ntf    fn4 8903   5.011   3.509   3.639  0.1893  0.1135 -0.0586
 1206ntf    on5 8904   5.193   3.668   3.804  0.2061 -0.5099  0.1269
 1206ntf    on5 8905   5.224   3.420   3.800  0.5771 -0.5183 -0.6289
 1206ntf    on5 8906   5.499   3.351   3.689 -0.0485  0.2566  0.0258
 1206ntf    on5 8907   5.562   3.508   3.507  0.1497  0.1977 -0.4594
 1206ntf    fn4 8908   5.621   3.705   3.720 -0.2426  0.0817  0.9459
 1206ntf    fn4 8909   5.742   3.532   3.739 -0.0338  0.2104  0.0246
 1206ntf    fn4 8910   5.594   3.560   3.875 -0.3162  0.1616 -0.2482
 1207ntf    cn1 8911   0.324   1.383   2.894 -0.2739 -0.1137  0.3042
 1207ntf    sn2 8912   0.298   1.556   2.844 -0.0170 -0.2045 -0.1536
 1207ntf    nn3 8913   0.196   1.534   2.726 -0.3248  0.1878  0.0383
 1207ntf    sn2 8914   0.051   1.590   2.702 -0.3882  0.0227  0.0357
 1207ntf    cn1 8915   0.083   1.767   2.674 -0.0030 -0.0594 -0.0551
 1207ntf    fn4 8916   0.327   1.295   2.795  0.3207  0.3031 -0.0609
 1207ntf    fn4 8917   0.431   1.355   2.968 -0.0852 -0.2700 -0.0239
 1207ntf    fn4 8918   0.228   1.334   2.970 -0.1333 -0.5644  0.1968
 1207ntf    on5 8919   0.253   1.623   2.964  0.2872  0.1298 -0.2255
 1207ntf    on5 8920   0.425   1.598   2.791 -0.2074  0.0889 -0.3829
 1207ntf    on5 8921  -0.003   1.544   2.577 -0.7399 -0.4943  0.3725
 1207ntf    on5 8922  -0.032   1.583   2.819  0.1185  0.3656  0.4230
 1207ntf    fn4 8923  -0.033   1.829   2.660 -0.1408 -0.2231  0.3479
 1207ntf    fn4 8924   0.150   1.790   2.563  0.3367  0.1108  0.1837
 1207ntf    fn4 8925   0.144   1.826   2.776 -0.1459  0.4369 -0.2561
 1208ntf    cn1 8926   2.987   1.499   2.362 -0.0686  0.1815 -0.0054
 1208ntf    sn2 8927   3.046   1.328   2.346 -0.3009  0.0652  0.3734
 1208ntf    nn3 8928   2.907   1.258   2.328 -0.3186  0.2012 -0.0204
 1208ntf    sn2 8929   2.814   1.195   2.438  0.0618 -0.0596  0.1518
 1208ntf    cn1 8930   2.654   1.247   2.369  0.0025  0.1371  0.4399
 1208ntf    fn4 8931   2.896   1.515   2.457 -0.1152 -0.0140 -0.0172
 1208ntf    fn4 8932   3.084   1.584   2.392  0.5207 -0.4357 -0.1473
 1208ntf    fn4 8933   2.933   1.539   2.248  0.3827 -0.1961 -0.3528
 1208ntf    on5 8934   3.119   1.340   2.223 -0.6447  0.3771  0.1961
 1208ntf    on5 8935   3.120   1.301   2.467  0.1952 -0.3465 -0.0223
 1208ntf    on5 8936   2.812   1.051   2.424  0.6914 -0.1042  0.4699
 1208ntf    on5 8937   2.813   1.254   2.569  0.4042  0.1001  0.0844
 1208ntf    fn4 8938   2.621   1.212   2.246  0.4645 -0.6903  0.5394
 1208ntf    fn4 8939   2.657   1.379   2.363 -0.0632  0.1278  0.2034
 1208ntf    fn4 8940   2.549   1.220   2.445 -0.0110 -0.0809  0.3440
 1209ntf    cn1 8941   0.729   4.587   3.258  0.0327  0.1407 -0.0390
 1209ntf    sn2 8942   0.819   4.437   3.208 -0.0042 -0.0047  0.3350
 1209ntf    nn3 8943   0.808   4.442   3.052  0.3328 -0.1917  0.3047
 1209ntf    sn2 8944   0.699   4.382   2.956 -0.0554  0.4941  0.3082
 1209ntf    cn1 8945   0.780   4.223   2.919 -0.3426  0.3795  0.1699
 1209ntf    fn4 8946   0.600   4.578   3.233  0.0801  0.1682 -0.2974
 1209ntf    fn4 8947   0.743   4.608   3.387 -0.2136  0.1968 -0.0209
 1209ntf    fn4 8948   0.769   4.695   3.192  0.3633  0.0023 -0.0701
 1209ntf    on5 8949   0.954   4.470   3.246  0.0367  0.0697  0.1218
 1209ntf    on5 8950   0.757   4.325   3.276 -0.3034  0.0699  0.1889
 1209ntf    on5 8951   0.576   4.340   3.018  0.0921 -0.2643  0.1063
 1209ntf    on5 8952   0.687   4.453   2.831  0.2800 -0.0799 -0.0594
 1209ntf    fn4 8953   0.885   4.229   2.839 -0.2543 -0.0933  0.2479
 1209ntf    fn4 8954   0.697   4.130   2.873  0.2275  0.2003 -0.5121
 1209ntf    fn4 8955   0.826   4.179   3.035 -0.0835  0.3508  0.0562
 1210ntf    cn1 8956   4.957   2.695   5.086 -0.3811 -0.1231  0.0358
 1210ntf    sn2 8957   4.854   2.818   5.001 -0.1151  0.0759 -0.0000
 1210ntf    nn3 8958   4.886   2.775   4.853  0.1664  0.4768 -0.0578
 1210ntf    sn2 8959   4.974   2.852   4.748  0.3402  0.0251 -0.2493
 1210ntf    cn1 8960   5.019   2.707   4.649 -0.2053 -0.4840  0.2394
 1210ntf    fn4 8961   4.972   2.725   5.214  0.0328  0.0067 -0.0424
 1210ntf    fn4 8962   4.900   2.575   5.084  0.1674 -0.3852 -0.2560
 1210ntf    fn4 8963   5.081   2.683   5.042 -0.1895  0.3568  0.4282
 1210ntf    on5 8964   4.721   2.796   5.051 -0.0573 -0.4657 -0.0768
 1210ntf    on5 8965   4.912   2.942   5.048  0.1349  0.1744 -0.5555
 1210ntf    on5 8966   4.896   2.937   4.661 -0.0271 -0.1917 -0.1363
 1210ntf    on5 8967   5.098   2.908   4.795  0.1458  0.1124  0.1677
 1210ntf    fn4 8968   4.922   2.661   4.571  0.3551 -0.7036 -0.3324
 1210ntf    fn4 8969   5.053   2.605   4.726  0.5860 -0.3150  0.1216
 1210ntf    fn4 8970   5.124   2.726   4.571 -0.4355 -0.0676  0.0310
 1211ntf    cn1 8971   6.166   3.491   5.416 -0.0537  0.3708  0.1513
 1211ntf    sn2 8972   6.016   3.465   5.317  0.1348  0.1266 -0.0682
 1211ntf    nn3 8973   5.914   3.534   5.415 -0.2645 -0.1581 -0.2758
 1211ntf    sn2 8974   5.868   3.684   5.428  0.0867 -0.0720  0.0040
 1211ntf    cn1 8975   5.717   3.678   5.327  0.1028  0.5993 -0.0618
 1211ntf    fn4 8976   6.280   3.443   5.372 -0.1244  0.2570  0.0917
 1211ntf    fn4 8977   6.190   3.619   5.440  0.4664  0.2858  0.0825
 1211ntf    fn4 8978   6.147   3.443   5.538  0.1846  0.1672  0.1068
 1211ntf    on5 8979   6.036   3.517   5.184  0.6472 -0.4664 -0.2283
 1211ntf    on5 8980   5.998   3.322   5.322  0.0393  0.1461  0.1549
 1211ntf    on5 8981   5.815   3.708   5.560  0.9015 -0.2155  0.3640
 1211ntf    on5 8982   5.946   3.791   5.371 -0.0974  0.2316  0.3172
 1211ntf    fn4 8983   5.727   3.624   5.207  0.0226  0.0594  0.1718
 1211ntf    fn4 8984   5.661   3.797   5.311 -0.2854  0.4992  0.4921
 1211ntf    fn4 8985   5.623   3.606   5.387  0.4821  0.0704 -0.1042
 1212ntf    cn1 8986   2.678   2.243   2.398  0.1174  0.0550 -0.0277
 1212ntf    sn2 8987   2.576   2.161   2.524  0.1855 -0.1249 -0.0888
 1212ntf    nn3 8988   2.687   2.130   2.631  0.0070  0.0599  0.1540
 1212ntf    sn2 8989   2.735   1.988   2.677  0.1581  0.1630  0.3141
 1212ntf    cn1 8990   2.850   1.935   2.547 -0.2045  0.0304  0.0438
 1212ntf    fn4 8991   2.596   2.273   2.299 -0.2459  0.0386  0.2640
 1212ntf    fn4 8992   2.729   2.359   2.437 -0.4870  0.2900  0.0804
 1212ntf    fn4 8993   2.773   2.166   2.348  0.1162  0.1242 -0.1358
 1212ntf    on5 8994   2.484   2.261   2.574  0.5066 -0.0030  0.2602
 1212ntf    on5 8995   2.525   2.051   2.445  0.2553 -0.0810 -0.1948
 1212ntf    on5 8996   2.813   1.991   2.798  0.1426  0.0845  0.3262
 1212ntf    on5 8997   2.639   1.880   2.671  0.1861  0.1660 -0.2450
 1212ntf    fn4 8998   2.808   1.931   2.422  0.2798 -0.1775 -0.1174
 1212ntf    fn4 8999   2.894   1.814   2.578  0.1932  0.1611 -0.0108
 1212ntf    fn4 9000   2.949   2.022   2.536 -0.5598  0.4042 -0.2111
 1213ntf    cn1 9001   1.014   5.807   4.143  0.0687  0.1319  0.5197
 1213ntf    sn2 9002   1.085   5.661   4.224  0.0840  0.0663  0.3899
 1213ntf    nn3 9003   1.211   5.732   4.286  0.0006  0.5675 -0.0159
 1213ntf    sn2 9004   1.356   5.677   4.311 -0.1017  0.1676 -0.2909
 1213ntf    cn1 9005   1.335   5.628   4.485  0.2733  0.1035 -0.2640
 1213ntf    fn4 9006   0.964   5.897   4.226 -0.7668  0.5282 -0.3894
 1213ntf    fn4 9007   1.089   5.877   4.059 -0.5220  0.2866  0.1114
 1213ntf    fn4 9008   0.907   5.774   4.071  0.1036  0.2697  0.4041
 1213ntf    on5 9009   0.984   5.634   4.324 -0.6129  0.4540 -0.2026
 1213ntf    on5 9010   1.106   5.569   4.116 -0.6892  0.2369  0.0894
 1213ntf    on5 9011   1.383   5.550   4.248 -0.5781 -0.3242  0.4768
 1213ntf    on5 9012   1.451   5.785   4.301 -0.2364  0.3225  0.0678
 1213ntf    fn4 9013   1.311   5.499   4.498  0.0166  0.1279 -0.4963
 1213ntf    fn4 9014   1.250   5.701   4.555  0.2599 -0.1939  0.0313
 1213ntf    fn4 9015   1.453   5.635   4.545  0.3593 -0.1395 -0.4062
 1214ntf    cn1 9016   2.028   3.194   6.468  0.1256  0.2512 -0.0358
 1214ntf    sn2 9017   1.916   3.136   6.337  0.0634  0.4440 -0.0687
 1214ntf    nn3 9018   1.875   3.001   6.407  0.4648  0.0475 -0.5937
 1214ntf    sn2 9019   1.928   2.854   6.388  0.0125 -0.2019  0.0587
 1214ntf    cn1 9020   1.777   2.758   6.418 -0.0952  0.1390  0.6227
 1214ntf    fn4 9021   1.972   3.186   6.587 -0.3449  0.0040 -0.2680
 1214ntf    fn4 9022   2.137   3.119   6.469  0.0583  0.1444 -0.4304
 1214ntf    fn4 9023   2.062   3.320   6.446  0.1042  0.2979  0.1990
 1214ntf    on5 9024   1.806   3.228   6.343  0.0641  0.4432 -0.0461
 1214ntf    on5 9025   1.996   3.130   6.217 -0.5069 -0.6908 -0.4072
 1214ntf    on5 9026   1.966   2.813   6.255 -0.0089 -0.1817  0.0462
 1214ntf    on5 9027   2.006   2.815   6.503 -0.8160  0.2076  0.7744
 1214ntf    fn4 9028   1.741   2.768   6.545 -0.0711  0.0076  0.6405
 1214ntf    fn4 9029   1.795   2.629   6.393 -0.1506  0.2711 -0.1172
 1214ntf    fn4 9030   1.674   2.802   6.348  0.4164  0.1162 -0.1573
 1215ntf    cn1 9031   0.279   1.547   5.716 -0.0495 -0.1940  0.1753
 1215ntf    sn2 9032   0.440   1.590   5.788  0.1608 -0.3187 -0.2189
 1215ntf    nn3 9033   0.513   1.451   5.787 -0.0070 -0.4069 -0.1977
 1215ntf    sn2 9034   0.572   1.362   5.902  0.3229 -0.1370 -0.1589
 1215ntf    cn1 9035   0.736   1.440   5.913  0.0118  0.5380 -0.2393
 1215ntf    fn4 9036   0.211   1.658   5.692  0.1597 -0.0536  0.2294
 1215ntf    fn4 9037   0.285   1.469   5.610 -0.0357 -0.3926  0.3209
 1215ntf    fn4 9038   0.194   1.482   5.794 -0.5626 -0.1827 -0.3655
 1215ntf    on5 9039   0.505   1.686   5.702  0.1197  0.0760  0.1852
 1215ntf    on5 9040   0.411   1.627   5.925  0.2120 -0.7404 -0.0919
 1215ntf    on5 9041   0.508   1.386   6.029 -0.7129 -0.8755 -0.5334
 1215ntf    on5 9042   0.602   1.226   5.865  0.2118 -0.0985 -0.3863
 1215ntf    fn4 9043   0.804   1.419   5.801  0.6131 -1.0025  0.3856
 1215ntf    fn4 9044   0.807   1.402   6.018  0.0827  0.5832 -0.2712
 1215ntf    fn4 9045   0.721   1.570   5.930 -0.4494  0.4242  0.2276
 1216ntf    cn1 9046   0.789   0.472   5.539 -0.1333 -0.1255 -0.2381
 1216ntf    sn2 9047   0.894   0.387   5.417  0.5916  0.0902  0.2297
 1216ntf    nn3 9048   0.881   0.485   5.295  0.8582 -0.3406 -0.1476
 1216ntf    sn2 9049   0.976   0.532   5.180  0.0027  0.3872 -0.5712
 1216ntf    cn1 9050   0.861   0.604   5.060 -0.2563  0.5342 -0.2354
 1216ntf    fn4 9051   0.663   0.468   5.498 -0.3845  0.1234  0.4896
 1216ntf    fn4 9052   0.783   0.416   5.659  0.2200  0.0841 -0.1208
 1216ntf    fn4 9053   0.811   0.602   5.548 -0.1217 -0.1291 -0.2138
 1216ntf    on5 9054   1.024   0.384   5.480  0.4559 -0.4536  0.4943
 1216ntf    on5 9055   0.826   0.260   5.402 -0.4421  0.6324  0.1941
 1216ntf    on5 9056   1.054   0.650   5.210  0.2290 -0.0805  0.7337
 1216ntf    on5 9057   1.037   0.422   5.109 -0.1617  0.2645 -0.5227
 1216ntf    fn4 9058   0.770   0.519   5.015  0.2585 -0.1182 -0.0619
 1216ntf    fn4 9059   0.920   0.655   4.953 -0.2230  0.5181 -0.2245
 1216ntf    fn4 9060   0.800   0.705   5.120  0.1012  0.9170 -0.5067
 1217ntf    cn1 9061   1.275   6.553   2.061  0.1709  0.1595  0.0011
 1217ntf    sn2 9062   1.379   6.416   2.121 -0.0616  0.0532  0.1668
 1217ntf    nn3 9063   1.321   6.403   2.266  0.1253 -0.3191  0.2099
 1217ntf    sn2 9064   1.390   6.444   2.401 -0.2037 -0.0547  0.2998
 1217ntf    cn1 9065   1.249   6.430   2.514 -0.4438  0.1912  0.0322
 1217ntf    fn4 9066   1.272   6.659   2.140  0.1498  0.2243 -0.0867
 1217ntf    fn4 9067   1.317   6.592   1.942 -0.1876 -0.4459 -0.3285
 1217ntf    fn4 9068   1.148   6.517   2.051  0.1893  0.2410 -0.5389
 1217ntf    on5 9069   1.340   6.306   2.037 -0.0869  0.1010  0.1166
 1217ntf    on5 9070   1.513   6.468   2.108 -0.1002  0.1816  0.2773
 1217ntf    on5 9071   1.492   6.358   2.455  0.1529  0.3732  0.3211
 1217ntf    on5 9072   1.421   6.584   2.416 -0.3717  0.0113  0.0348
 1217ntf    fn4 9073   1.279   6.476   2.635  0.0297  0.4341 -0.1779
 1217ntf    fn4 9074   1.211   6.304   2.530  0.3076 -0.0107  0.2269
 1217ntf    fn4 9075   1.137   6.488   2.474 -0.4408 -0.2042 -0.5567
 1218ntf    cn1 9076   3.470   5.206   0.727 -0.1617  0.3797 -0.1521
 1218ntf    sn2 9077   3.355   5.069   0.760 -0.0815  0.3383 -0.0452
 1218ntf    nn3 9078   3.322   5.090   0.912  0.0235 -0.1272  0.0434
 1218ntf    sn2 9079   3.376   4.997   1.026  0.3035 -0.1486 -0.1055
 1218ntf    cn1 9080   3.296   4.838   0.988 -0.5479  0.1830  0.2529
 1218ntf    fn4 9081   3.498   5.229   0.600  0.2517 -0.0028 -0.1304
 1218ntf    fn4 9082   3.412   5.320   0.761  0.1120  0.5510 -0.2566
 1218ntf    fn4 9083   3.584   5.197   0.793 -0.3890 -0.3926  0.1473
 1218ntf    on5 9084   3.244   5.111   0.678 -0.3134 -0.2350 -0.0278
 1218ntf    on5 9085   3.431   4.952   0.725 -0.0893  0.3230 -0.0123
 1218ntf    on5 9086   3.515   4.959   1.023  0.3483 -0.0040  0.0907
 1218ntf    on5 9087   3.314   5.031   1.152 -0.1862  0.1617 -0.4273
 1218ntf    fn4 9088   3.164   4.845   0.981 -0.4934  0.4770 -0.6140
 1218ntf    fn4 9089   3.319   4.740   1.074 -0.6552  0.0722  0.1564
 1218ntf    fn4 9090   3.339   4.793   0.871  0.3187  0.3846  0.4875
 1219ntf    cn1 9091   5.004   5.539   4.850 -0.1280 -0.0590  0.1436
 1219ntf    sn2 9092   5.159   5.575   4.763 -0.0174 -0.3007  0.2419
 1219ntf    nn3 9093   5.198   5.720   4.807 -0.3500 -0.2398  0.3375
 1219ntf    sn2 9094   5.318   5.764   4.899 -0.1614  0.0197 -0.0280
 1219ntf    cn1 9095   5.275   5.937   4.933  0.0540  0.1394 -0.3580
 1219ntf    fn4 9096   4.897   5.607   4.813 -0.1594  0.0924  0.5077
 1219ntf    fn4 9097   4.971   5.414   4.819 -0.1314 -0.0887  0.2651
 1219ntf    fn4 9098   5.017   5.541   4.981 -0.6730  0.2348  0.1997
 1219ntf    on5 9099   5.240   5.461   4.802  0.5233 -0.0827 -0.2249
 1219ntf    on5 9100   5.124   5.576   4.624  0.5085 -0.0610  0.1071
 1219ntf    on5 9101   5.311   5.715   5.034  0.2566  0.6119  0.2120
 1219ntf    on5 9102   5.444   5.767   4.830 -0.1333  0.0891  0.0260
 1219ntf    fn4 9103   5.152   5.948   4.982  0.1113 -0.6202 -0.0298
 1219ntf    fn4 9104   5.285   6.013   4.825  0.4200  0.7729  0.1132
 1219ntf    fn4 9105   5.359   5.991   5.019 -0.2050  0.0883 -0.0703
 1220ntf    cn1 9106   5.790   2.503   2.043  0.1914 -0.0228  0.0023
 1220ntf    sn2 9107   5.890   2.371   2.118  0.1550 -0.1236 -0.1252
 1220ntf    nn3 9108   5.989   2.453   2.208 -0.1691  0.1866 -0.0491
 1220ntf    sn2 9109   5.969   2.507   2.354 -0.0289  0.0718  0.0122
 1220ntf    cn1 9110   6.062   2.374   2.436  0.3039  0.2782 -0.0286
 1220ntf    fn4 9111   5.861   2.577   1.959  0.2852  0.0938  0.1849
 1220ntf    fn4 9112   5.678   2.457   1.989  0.1385  0.4586 -0.3081
 1220ntf    fn4 9113   5.747   2.588   2.134  0.0136 -0.0751 -0.0323
 1220ntf    on5 9114   5.799   2.280   2.184 -0.0996  0.3464  0.1788
 1220ntf    on5 9115   5.960   2.324   2.002  0.5286 -0.1992  0.1301
 1220ntf    on5 9116   6.044   2.625   2.389 -0.1522  0.1336  0.0677
 1220ntf    on5 9117   5.834   2.498   2.403 -0.0504  0.9483  0.1187
 1220ntf    fn4 9118   6.031   2.260   2.376  0.5459  0.3942 -0.3828
 1220ntf    fn4 9119   6.050   2.355   2.566  0.3817  0.3119 -0.0165
 1220ntf    fn4 9120   6.192   2.393   2.417  0.3342 -0.2355 -0.3769
 1221ntf    cn1 9121   2.838   5.565   3.237 -0.5720  0.1255 -0.2125
 1221ntf    sn2 9122   2.781   5.426   3.339 -0.1457  0.0269 -0.1028
 1221ntf    nn3 9123   2.647   5.394   3.264 -0.0393  0.0065 -0.2823
 1221ntf    sn2 9124   2.557   5.267   3.284  0.3630 -0.2133  0.1508
 1221ntf    cn1 9125   2.595   5.165   3.138  0.3903  0.2445 -0.1623
 1221ntf    fn4 9126   2.847   5.527   3.110  0.0629  0.3440 -0.2359
 1221ntf    fn4 9127   2.758   5.669   3.242 -0.2868  0.3252  0.2528
 1221ntf    fn4 9128   2.956   5.610   3.279 -0.4859 -0.1147 -0.1931
 1221ntf    on5 9129   2.882   5.324   3.333  0.0772  0.2732 -0.5080
 1221ntf    on5 9130   2.761   5.483   3.471  0.2891  0.0212 -0.0351
 1221ntf    on5 9131   2.583   5.184   3.398 -0.3799 -0.1615  0.3658
 1221ntf    on5 9132   2.417   5.292   3.260  0.3748 -0.2992 -0.0110
 1221ntf    fn4 9133   2.727   5.161   3.124  0.3696 -0.2605 -0.2158
 1221ntf    fn4 9134   2.545   5.205   3.022 -0.4126  0.0779  0.1255
 1221ntf    fn4 9135   2.566   5.037   3.153  0.3203  0.2633 -0.1411
 1222ntf    cn1 9136   1.296   2.557   6.154  0.2157  0.0424  0.1014
 1222ntf    sn2 9137   1.286   2.604   6.329 -0.0614  0.1171  0.0661
 1222ntf    nn3 9138   1.134   2.641   6.340 -0.1003 -0.0223 -0.0019
 1222ntf    sn2 9139   1.050   2.758   6.277 -0.0046 -0.0089 -0.1051
 1222ntf    cn1 9140   0.962   2.652   6.159 -0.1815 -0.0634  0.0738
 1222ntf    fn4 9141   1.275   2.654   6.066  0.5906 -0.1037 -0.1538
 1222ntf    fn4 9142   1.418   2.514   6.128 -0.0182 -0.5743  0.0114
 1222ntf    fn4 9143   1.221   2.452   6.129  0.2548  0.0166  0.0920
 1222ntf    on5 9144   1.308   2.482   6.404  0.0010  0.3514  0.4347
 1222ntf    on5 9145   1.373   2.713   6.364 -0.5617  0.4157  0.3929
 1222ntf    on5 9146   0.949   2.806   6.368  0.5223  0.5281  0.2072
 1222ntf    on5 9147   1.119   2.848   6.188  0.4944 -0.8059 -0.5390
 1222ntf    fn4 9148   1.043   2.596   6.070  0.4280  0.0098  0.5792
 1222ntf    fn4 9149   0.876   2.717   6.082  0.4036  0.0884 -0.4599
 1222ntf    fn4 9150   0.892   2.560   6.222 -0.1318 -0.4392 -0.4086
 1223ntf    cn1 9151   4.646   5.144   1.328 -0.0653 -0.0042 -0.0100
 1223ntf    sn2 9152   4.752   5.011   1.393 -0.1668  0.0170  0.1992
 1223ntf    nn3 9153   4.807   4.940   1.265  0.0360  0.2209  0.1736
 1223ntf    sn2 9154   4.953   4.912   1.214 -0.1034  0.0602 -0.1396
 1223ntf    cn1 9155   4.998   4.749   1.280 -0.0558  0.3141  0.4558
 1223ntf    fn4 9156   4.562   5.094   1.238  0.1213 -0.3696  0.0153
 1223ntf    fn4 9157   4.585   5.204   1.428  0.5578 -0.5226  0.6916
 1223ntf    fn4 9158   4.719   5.234   1.265 -0.7444  0.0831 -0.6842
 1223ntf    on5 9159   4.842   5.080   1.482  0.2236 -0.0096 -0.1729
 1223ntf    on5 9160   4.657   4.923   1.457 -0.0988 -0.2705 -0.0906
 1223ntf    on5 9161   4.956   4.891   1.071  0.5186  0.1636 -0.1482
 1223ntf    on5 9162   5.052   5.002   1.268 -0.1010 -0.3225  0.5076
 1223ntf    fn4 9163   5.125   4.713   1.268 -0.1352  0.0461  0.4112
 1223ntf    fn4 9164   4.926   4.658   1.216  0.1883  0.1409  0.4257
 1223ntf    fn4 9165   4.980   4.730   1.410 -0.0014  0.4824  0.4878
 1224ntf    cn1 9166   0.566   0.929   5.122  0.0881 -0.2115 -0.0944
 1224ntf    sn2 9167   0.515   1.088   5.051 -0.1989 -0.0615  0.4420
 1224ntf    nn3 9168   0.360   1.065   5.055 -0.3143  0.5200 -0.2996
 1224ntf    sn2 9169   0.257   1.141   5.146  0.0928  0.4004  0.2648
 1224ntf    cn1 9170   0.259   1.307   5.072  0.2751  0.2257 -0.1239
 1224ntf    fn4 9171   0.690   0.933   5.167 -0.0125  0.0534  0.1580
 1224ntf    fn4 9172   0.487   0.897   5.223  0.1407 -0.2854 -0.0762
 1224ntf    fn4 9173   0.553   0.826   5.039 -0.2198  0.0667 -0.3982
 1224ntf    on5 9174   0.576   1.186   5.137 -0.0794 -0.0832  0.3832
 1224ntf    on5 9175   0.571   1.075   4.918  0.3840 -0.9842  0.7708
 1224ntf    on5 9176   0.122   1.095   5.122  0.1750  0.5284 -0.4548
 1224ntf    on5 9177   0.296   1.153   5.285 -0.0410 -0.4322  0.3819
 1224ntf    fn4 9178   0.184   1.398   5.132  0.2093  0.2378 -0.2247
 1224ntf    fn4 9179   0.221   1.296   4.946  0.5316  0.3548 -0.2123
 1224ntf    fn4 9180   0.376   1.368   5.065  0.1778  0.3879 -0.3171
 1225ntf    cn1 9181   3.469   1.791   6.140  0.0566 -0.4242 -0.1173
 1225ntf    sn2 9182   3.403   1.622   6.153 -0.1255 -0.3565 -0.1489
 1225ntf    nn3 9183   3.462   1.581   6.293  0.3375  0.3017 -0.1449
 1225ntf    sn2 9184   3.457   1.438   6.358  0.2095  0.3020 -0.1533
 1225ntf    cn1 9185   3.634   1.396   6.354  0.1748  0.1434 -0.0046
 1225ntf    fn4 9186   3.434   1.853   6.029  0.1604 -0.0246  0.0710
 1225ntf    fn4 9187   3.428   1.874   6.235 -0.6585 -0.2718 -0.5537
 1225ntf    fn4 9188   3.601   1.791   6.145  0.0576 -0.0778 -0.1436
 1225ntf    on5 9189   3.262   1.648   6.157  0.0187  0.4330 -0.1147
 1225ntf    on5 9190   3.467   1.551   6.045  0.4468 -0.4861  0.2677
 1225ntf    on5 9191   3.430   1.443   6.500 -0.1768  0.4563 -0.2309
 1225ntf    on5 9192   3.394   1.343   6.270  0.1788  0.3072 -0.1370
 1225ntf    fn4 9193   3.690   1.455   6.250  0.5575 -0.1106  0.0548
 1225ntf    fn4 9194   3.661   1.267   6.346 -0.5480 -0.0061 -0.1690
 1225ntf    fn4 9195   3.699   1.445   6.458 -0.2374 -0.4256  0.5312
 1226ntf    cn1 9196   2.682   2.540   5.985 -0.2485 -0.1564 -0.0503
 1226ntf    sn2 9197   2.654   2.656   6.123  0.4267  0.0312 -0.0639
 1226ntf    nn3 9198   2.699   2.792   6.060 -0.0654  0.1825 -0.0946
 1226ntf    sn2 9199   2.701   2.843   5.912  0.0518  0.2522 -0.0694
 1226ntf    cn1 9200   2.697   3.023   5.936  0.0718  0.3090 -0.4707
 1226ntf    fn4 9201   2.801   2.555   5.929 -0.2776  0.0433 -0.0613
 1226ntf    fn4 9202   2.675   2.416   6.029 -0.3174 -0.2516 -0.3327
 1226ntf    fn4 9203   2.599   2.548   5.882  0.1576 -0.5551 -0.4122
 1226ntf    on5 9204   2.513   2.644   6.151  0.3967 -0.0373 -0.2413
 1226ntf    on5 9205   2.748   2.613   6.223  0.1236 -0.1789  0.1326
 1226ntf    on5 9206   2.830   2.830   5.848  0.0883  0.1356  0.0268
 1226ntf    on5 9207   2.576   2.826   5.842 -0.4049 -0.1418  0.8293
 1226ntf    fn4 9208   2.661   3.099   5.834 -0.0691  0.2841 -0.4400
 1226ntf    fn4 9209   2.816   3.066   5.974  0.0924 -0.1875  0.0506
 1226ntf    fn4 9210   2.616   3.057   6.035  0.2115 -0.5354 -0.0520
 1227ntf    cn1 9211   3.091   6.328   5.604 -0.2297 -0.0416  0.0659
 1227ntf    sn2 9212   3.100   6.147   5.618 -0.1122 -0.0643 -0.2999
 1227ntf    nn3 9213   3.176   6.119   5.483  0.4481  0.1806 -0.0371
 1227ntf    sn2 9214   3.117   6.051   5.355  0.0485  0.1220  0.1756
 1227ntf    cn1 9215   3.143   5.875   5.392  0.1160 -0.0561 -0.6896
 1227ntf    fn4 9216   3.206   6.391   5.622 -0.1760 -0.1929  0.2689
 1227ntf    fn4 9217   3.057   6.363   5.481  0.3218 -0.0998 -0.1038
 1227ntf    fn4 9218   3.001   6.385   5.682  0.0490  0.4281  0.0470
 1227ntf    on5 9219   3.179   6.140   5.738 -0.0879  0.7277 -0.2675
 1227ntf    on5 9220   2.961   6.112   5.638 -0.2578  0.6720 -0.0180
 1227ntf    on5 9221   2.974   6.067   5.341 -0.0566 -0.3467  0.6480
 1227ntf    on5 9222   3.199   6.071   5.238 -0.0610 -0.1654  0.0491
 1227ntf    fn4 9223   3.053   5.832   5.479  0.9496  0.0109  0.2185
 1227ntf    fn4 9224   3.266   5.855   5.437 -0.1452 -0.4886 -0.1463
 1227ntf    fn4 9225   3.131   5.798   5.285  0.0087 -0.4532 -0.3959
 1228ntf    cn1 9226   3.182   5.968   3.285 -0.3138  0.3382  0.0325
 1228ntf    sn2 9227   3.169   6.054   3.445  0.0249  0.0740  0.2036
 1228ntf    nn3 9228   3.311   6.021   3.504  0.0015  0.1031  0.2753
 1228ntf    sn2 9229   3.355   5.896   3.588 -0.1242 -0.2694 -0.2078
 1228ntf    cn1 9230   3.530   5.885   3.538 -0.0186 -0.0260  0.1055
 1228ntf    fn4 9231   3.277   6.008   3.202  0.0889 -0.0046  0.3250
 1228ntf    fn4 9232   3.202   5.838   3.301  0.2369  0.3309 -0.6743
 1228ntf    fn4 9233   3.071   5.987   3.216 -0.0550  0.1611 -0.4388
 1228ntf    on5 9234   3.161   6.195   3.417 -0.0498  0.0152 -0.0722
 1228ntf    on5 9235   3.061   5.996   3.521  0.3734 -0.1127  0.5557
 1228ntf    on5 9236   3.372   5.923   3.729  0.1150 -0.0479 -0.2767
 1228ntf    on5 9237   3.296   5.769   3.552 -0.2301 -0.2498 -0.1018
 1228ntf    fn4 9238   3.600   5.790   3.596 -0.0359 -0.0688  0.0565
 1228ntf    fn4 9239   3.591   6.001   3.559  0.2911 -0.1625 -0.0487
 1228ntf    fn4 9240   3.541   5.869   3.407  0.5843 -0.9117  0.2607
 1229ntf    cn1 9241   0.375   1.550   3.466 -0.4396  0.1240 -0.0243
 1229ntf    sn2 9242   0.420   1.723   3.502 -0.2865  0.0074  0.3514
 1229ntf    nn3 9243   0.295   1.797   3.444 -0.2326  0.0438  0.2810
 1229ntf    sn2 9244   0.242   1.938   3.488  0.2074  0.3006 -0.0007
 1229ntf    cn1 9245   0.099   1.892   3.590  0.6076 -0.2379  0.3206
 1229ntf    fn4 9246   0.246   1.532   3.488 -0.3258 -0.2102  0.3810
 1229ntf    fn4 9247   0.402   1.520   3.340  0.4078 -0.0059  0.1827
 1229ntf    fn4 9248   0.438   1.461   3.540 -0.4878  0.0020 -0.1298
 1229ntf    on5 9249   0.433   1.720   3.645 -0.7075  0.0457  0.3901
 1229ntf    on5 9250   0.537   1.748   3.422 -0.6592  0.3796 -0.0824
 1229ntf    on5 9251   0.332   2.019   3.567  0.3532  0.3993 -0.2676
 1229ntf    on5 9252   0.182   2.005   3.375  0.3288 -0.0646 -0.2816
 1229ntf    fn4 9253   0.132   1.863   3.715 -0.0155 -0.1847  0.5047
 1229ntf    fn4 9254   0.042   1.788   3.531  0.3806 -0.2945  0.6336
 1229ntf    fn4 9255  -0.003   1.976   3.597  0.0117 -0.9476  0.3726
 1230ntf    cn1 9256   4.756   4.135   5.930 -0.3213  0.1010 -0.0739
 1230ntf    sn2 9257   4.689   4.261   6.042 -0.0325  0.3531 -0.1826
 1230ntf    nn3 9258   4.682   4.186   6.179 -0.3630  0.2295 -0.2641
 1230ntf    sn2 9259   4.564   4.111   6.250  0.0623 -0.0841  0.1244
 1230ntf    cn1 9260   4.489   4.247   6.344  0.4540 -0.0638  0.4107
 1230ntf    fn4 9261   4.749   4.181   5.806  0.2481  0.7544  0.1297
 1230ntf    fn4 9262   4.885   4.110   5.950 -0.3304 -0.2032 -0.3872
 1230ntf    fn4 9263   4.686   4.023   5.938  0.2718 -0.3194 -0.5920
 1230ntf    on5 9264   4.795   4.359   6.043 -0.2727  0.6118  0.2493
 1230ntf    on5 9265   4.559   4.287   5.984  0.0397 -0.1913 -0.6024
 1230ntf    on5 9266   4.458   4.059   6.167 -0.0554 -0.0083  0.2280
 1230ntf    on5 9267   4.619   4.035   6.359  0.5351 -0.3623 -0.3001
 1230ntf    fn4 9268   4.558   4.279   6.452  0.0267  0.5013  0.5237
 1230ntf    fn4 9269   4.368   4.216   6.388  0.4965 -0.1872  0.4398
 1230ntf    fn4 9270   4.478   4.358   6.273  0.0106 -0.1660  0.3126
 1231ntf    cn1 9271   3.159   5.546   0.121 -0.3283 -0.0387 -0.4219
 1231ntf    sn2 9272   3.208   5.378   0.072 -0.2705 -0.0711 -0.2526
 1231ntf    nn3 9273   3.188   5.302   0.208 -0.2010  0.3484 -0.0057
 1231ntf    sn2 9274   3.066   5.213   0.252 -0.1247  0.1928 -0.1105
 1231ntf    cn1 9275   3.132   5.058   0.183  0.5024  0.2556  0.3417
 1231ntf    fn4 9276   3.192   5.635   0.030  0.1247  0.3033  0.0684
 1231ntf    fn4 9277   3.027   5.552   0.136 -0.2492 -0.0494  0.3299
 1231ntf    fn4 9278   3.216   5.574   0.237 -0.2768  0.6323 -0.6092
 1231ntf    on5 9279   3.129   5.338  -0.041 -0.1350 -0.5120 -0.1948
 1231ntf    on5 9280   3.348   5.386   0.039 -0.2474 -0.0155 -0.1445
 1231ntf    on5 9281   3.062   5.188   0.394  0.3191 -0.5355 -0.2208
 1231ntf    on5 9282   2.942   5.229   0.180 -0.2260  0.3792  0.1065
 1231ntf    fn4 9283   3.155   5.063   0.052  0.4411 -0.4838  0.3019
 1231ntf    fn4 9284   3.042   4.963   0.195  0.3300  0.4287  0.4163
 1231ntf    fn4 9285   3.241   5.008   0.239  0.0990 -0.1456  0.7710
 1232ntf    cn1 9286   6.633   5.248   5.753  0.1116 -0.2114 -0.3138
 1232ntf    sn2 9287   6.537   5.097   5.720 -0.0344 -0.1401 -0.2146
 1232ntf    nn3 9288   6.514   5.115   5.565 -0.1857  0.5993 -0.1136
 1232ntf    sn2 9289   6.485   5.007   5.455  0.0703 -0.0434  0.4408
 1232ntf    cn1 9290   6.308   4.989   5.493 -0.0056 -0.0881  0.0671
 1232ntf    fn4 9291   6.576   5.354   5.698  0.1391  0.2822  0.5983
 1232ntf    fn4 9292   6.650   5.277   5.881  0.0328 -0.2463 -0.2954
 1232ntf    fn4 9293   6.750   5.244   5.691  0.2952 -0.2668  0.0335
 1232ntf    on5 9294   6.627   4.993   5.762 -0.1075  0.0205  0.3432
 1232ntf    on5 9295   6.423   5.121   5.806  0.3116 -0.1317  0.2403
 1232ntf    on5 9296   6.481   5.065   5.323  0.0369  0.0777  0.4951
 1232ntf    on5 9297   6.544   4.876   5.471  0.5055  0.0929 -0.0282
 1232ntf    fn4 9298   6.252   5.108   5.504  0.4394  0.1657 -0.3767
 1232ntf    fn4 9299   6.294   4.918   5.603 -0.1330 -0.3962 -0.1465
 1232ntf    fn4 9300   6.239   4.925   5.400  0.4293 -0.1209 -0.2394
 1233ntf    cn1 9301   6.260   4.372   6.160  0.0459  0.1762  0.1237
 1233ntf    sn2 9302   6.167   4.330   6.009  0.4233 -0.2606  0.0097
 1233ntf    nn3 9303   6.028   4.386   6.056  0.2003 -0.3088 -0.5891
 1233ntf    sn2 9304   5.935   4.489   5.983 -0.0099 -0.0635  0.0158
 1233ntf    cn1 9305   5.777   4.423   6.043  0.1318 -0.1762  0.2663
 1233ntf    fn4 9306   6.179   4.346   6.261  0.0635 -0.2479  0.0324
 1233ntf    fn4 9307   6.372   4.303   6.178 -0.1139 -0.1895 -0.2501
 1233ntf    fn4 9308   6.292   4.500   6.164 -0.3011  0.2716 -0.0842
 1233ntf    on5 9309   6.237   4.402   5.906  0.2072 -0.6885 -0.4353
 1233ntf    on5 9310   6.166   4.186   6.016  0.2639 -0.2447  0.3159
 1233ntf    on5 9311   5.936   4.621   6.041 -0.6861  0.0708 -0.2623
 1233ntf    on5 9312   5.932   4.481   5.839  1.2412  0.2129 -0.0398
 1233ntf    fn4 9313   5.751   4.301   6.000 -0.2468 -0.0712  0.1927
 1233ntf    fn4 9314   5.678   4.504   6.007  0.2619 -0.1076  0.0646
 1233ntf    fn4 9315   5.768   4.412   6.175  0.0163  0.2428  0.2948
 1234ntf    cn1 9316   2.560   6.416   3.307 -0.1389  0.0384 -0.0784
 1234ntf    sn2 9317   2.604   6.281   3.194  0.1510  0.2803 -0.2569
 1234ntf    nn3 9318   2.577   6.345   3.053 -0.4595  0.0739 -0.2375
 1234ntf    sn2 9319   2.676   6.405   2.947  0.2409 -0.3509  0.1675
 1234ntf    cn1 9320   2.718   6.263   2.841  0.2756 -0.1354 -0.1066
 1234ntf    fn4 9321   2.624   6.528   3.279 -0.2852  0.0658 -0.3073
 1234ntf    fn4 9322   2.431   6.443   3.309 -0.1889 -0.1768 -0.2803
 1234ntf    fn4 9323   2.585   6.396   3.435 -0.0094  0.2121 -0.0760
 1234ntf    on5 9324   2.745   6.260   3.218  0.0641 -0.0364 -0.0216
 1234ntf    on5 9325   2.508   6.177   3.223  0.3841  0.1714  0.1280
 1234ntf    on5 9326   2.607   6.485   2.848  0.0035 -0.6169  0.1165
 1234ntf    on5 9327   2.793   6.472   2.998 -0.1398 -0.0063  0.5994
 1234ntf    fn4 9328   2.616   6.205   2.779  0.4088 -0.3732 -0.1044
 1234ntf    fn4 9329   2.765   6.166   2.916 -0.5434 -0.6553 -0.2571
 1234ntf    fn4 9330   2.798   6.299   2.741  0.5522  0.5677  0.3586
 1235ntf    cn1 9331   5.881   0.768   0.256 -0.0086  0.1987  0.2813
 1235ntf    sn2 9332   5.821   0.742   0.086  0.3723  0.1128  0.1610
 1235ntf    nn3 9333   5.668   0.721   0.114  0.3864 -0.5569 -0.2363
 1235ntf    sn2 9334   5.568   0.623   0.043 -0.0030 -0.3760  0.0606
 1235ntf    cn1 9335   5.568   0.490   0.167 -0.4387 -0.1355  0.3191
 1235ntf    fn4 9336   5.827   0.878   0.307  0.3031  0.4244  0.1284
 1235ntf    fn4 9337   5.843   0.667   0.332  0.0743  0.2496  0.3909
 1235ntf    fn4 9338   6.010   0.786   0.274  0.1150  0.1981 -0.5709
 1235ntf    on5 9339   5.861   0.867   0.027 -0.7354  0.2112 -0.3937
 1235ntf    on5 9340   5.898   0.624   0.051  0.3638 -0.0825  0.7864
 1235ntf    on5 9341   5.434   0.676   0.049  0.1838  0.1450 -0.3003
 1235ntf    on5 9342   5.613   0.561  -0.079  0.0575  0.3580 -0.2977
 1235ntf    fn4 9343   5.534   0.525   0.290 -0.2237  0.2076  0.2808
 1235ntf    fn4 9344   5.691   0.446   0.185 -0.4723 -0.2334  0.3106
 1235ntf    fn4 9345   5.493   0.390   0.123 -0.3591 -0.0340 -0.0557
 1236ntf    cn1 9346   5.093   2.036   1.810 -0.5525 -0.0692  0.1473
 1236ntf    sn2 9347   5.187   2.192   1.811 -0.1531 -0.3049 -0.2462
 1236ntf    nn3 9348   5.330   2.143   1.769  0.2529  0.4780  0.2003
 1236ntf    sn2 9349   5.395   2.110   1.630  0.0949 -0.2566  0.2985
 1236ntf    cn1 9350   5.512   2.246   1.608 -0.3502  0.0287 -0.3307
 1236ntf    fn4 9351   5.122   1.958   1.707 -0.1054 -0.1115  0.3000
 1236ntf    fn4 9352   5.120   1.967   1.920 -0.1765 -0.1921 -0.0221
 1236ntf    fn4 9353   4.962   2.055   1.803 -0.5100  0.0710 -0.2634
 1236ntf    on5 9354   5.120   2.275   1.713  0.6851 -0.2546 -0.7841
 1236ntf    on5 9355   5.190   2.237   1.948  0.2907 -0.1085 -0.3200
 1236ntf    on5 9356   5.480   1.994   1.643 -0.2067 -0.4677  0.4169
 1236ntf    on5 9357   5.313   2.116   1.511  0.1470 -0.0731  0.2729
 1236ntf    fn4 9358   5.596   2.248   1.711 -0.6566  0.1383 -0.0814
 1236ntf    fn4 9359   5.448   2.362   1.607 -0.8027 -0.2143  0.3458
 1236ntf    fn4 9360   5.572   2.239   1.490 -0.7041 -0.6125 -0.4750
 1237ntf    cn1 9361   4.332   5.165   4.248 -0.1258  0.1139  0.1845
 1237ntf    sn2 9362   4.281   5.174   4.422 -0.0944 -0.1957  0.2106
 1237ntf    nn3 9363   4.126   5.198   4.408 -0.0207  0.0360 -0.2320
 1237ntf    sn2 9364   4.007   5.134   4.488  0.2581  0.0728  0.2147
 1237ntf    cn1 9365   3.924   5.287   4.541 -0.0467  0.0861 -0.2898
 1237ntf    fn4 9366   4.291   5.059   4.180 -0.0340  0.1652  0.0485
 1237ntf    fn4 9367   4.272   5.266   4.187  0.0800  0.1044 -0.0374
 1237ntf    fn4 9368   4.463   5.169   4.224 -0.1747 -0.2693 -0.1691
 1237ntf    on5 9369   4.324   5.044   4.466 -0.0857 -0.1744  0.2636
 1237ntf    on5 9370   4.353   5.287   4.475 -0.4204  0.3678 -0.5320
 1237ntf    on5 9371   3.915   5.072   4.396  0.2496 -0.0261  0.2904
 1237ntf    on5 9372   4.046   5.077   4.614 -0.3985 -0.4612  0.1830
 1237ntf    fn4 9373   3.855   5.362   4.456 -0.5043  0.0556  0.0505
 1237ntf    fn4 9374   4.018   5.368   4.587  0.0284 -0.0853 -0.1438
 1237ntf    fn4 9375   3.847   5.276   4.648 -0.2297  0.3459 -0.3933
 1238ntf    cn1 9376   6.359   2.428   6.489 -0.1657  0.1141 -0.3324
 1238ntf    sn2 9377   6.312   2.603   6.503 -0.1774  0.0892 -0.0620
 1238ntf    nn3 9378   6.383   2.655   6.373  0.0985 -0.1827 -0.0223
 1238ntf    sn2 9379   6.329   2.673   6.226 -0.0341  0.0236  0.0512
 1238ntf    cn1 9380   6.286   2.849   6.229  0.0719  0.0525 -0.1263
 1238ntf    fn4 9381   6.306   2.373   6.381  0.3501 -0.1262 -0.4659
 1238ntf    fn4 9382   6.489   2.415   6.473 -0.1491  0.3150 -0.3531
 1238ntf    fn4 9383   6.331   2.356   6.597 -0.3876  0.4302 -0.1791
 1238ntf    on5 9384   6.168   2.606   6.508 -0.1876  0.0562 -0.3138
 1238ntf    on5 9385   6.386   2.647   6.619  0.5683 -0.1047 -0.4552
 1238ntf    on5 9386   6.434   2.674   6.127  0.4797  0.0281  0.5868
 1238ntf    on5 9387   6.209   2.604   6.184 -0.3025  0.1027  0.6795
 1238ntf    fn4 9388   6.233   2.895   6.116 -0.1697  0.6270  0.2153
 1238ntf    fn4 9389   6.387   2.931   6.252 -0.1235  0.0571  0.7440
 1238ntf    fn4 9390   6.189   2.868   6.318 -0.1680 -0.8224 -0.1966
 1239ntf    cn1 9391   0.416   3.991   6.626  0.1091 -0.1555 -0.1414
 1239ntf    sn2 9392   0.447   4.119   6.500 -0.2515  0.0118 -0.0598
 1239ntf    nn3 9393   0.585   4.061   6.455 -0.3396  0.2520 -0.6531
 1239ntf    sn2 9394   0.714   4.137   6.409 -0.1194  0.2898  0.0079
 1239ntf    cn1 9395   0.658   4.209   6.252  0.0345 -0.0300 -0.1961
 1239ntf    fn4 9396   0.434   3.864   6.596  0.2349 -0.1429 -0.1195
 1239ntf    fn4 9397   0.491   4.011   6.733  0.3633 -0.3341 -0.2864
 1239ntf    fn4 9398   0.291   4.010   6.664  0.1310  0.1406 -0.2119
 1239ntf    on5 9399   0.341   4.098   6.405  0.0439  0.3344 -0.4643
 1239ntf    on5 9400   0.443   4.248   6.566 -0.3894  0.2696 -0.5681
 1239ntf    on5 9401   0.752   4.251   6.488  0.5048  0.4373 -0.4965
 1239ntf    on5 9402   0.824   4.047   6.379 -0.2504  0.1144  0.0518
 1239ntf    fn4 9403   0.550   4.281   6.274 -0.1605 -0.1619 -0.7186
 1239ntf    fn4 9404   0.619   4.122   6.160  0.0288 -0.2321 -0.0039
 1239ntf    fn4 9405   0.748   4.279   6.184  0.4138 -0.0859  0.2393
 1240ntf    cn1 9406   3.462   5.033   5.150  0.0086 -0.0609 -0.2153
 1240ntf    sn2 9407   3.462   5.215   5.160  0.6301 -0.0674 -0.0490
 1240ntf    nn3 9408   3.498   5.246   5.010  0.5240 -0.2645 -0.1175
 1240ntf    sn2 9409   3.457   5.370   4.924  0.2274 -0.1840  0.1390
 1240ntf    cn1 9410   3.616   5.456   4.908 -0.0411  0.3490  0.3117
 1240ntf    fn4 9411   3.355   4.988   5.087  0.1115 -0.5955 -0.0137
 1240ntf    fn4 9412   3.559   4.989   5.072  0.2157  0.4904 -0.2697
 1240ntf    fn4 9413   3.476   4.972   5.267 -0.3169  0.3994  0.0694
 1240ntf    on5 9414   3.325   5.244   5.196  0.5526 -0.7987  0.2774
 1240ntf    on5 9415   3.564   5.241   5.257 -0.2549  0.4546  0.7576
 1240ntf    on5 9416   3.422   5.336   4.788  0.4465 -0.0954  0.0595
 1240ntf    on5 9417   3.376   5.472   4.987 -0.0487 -0.4190  0.1665
 1240ntf    fn4 9418   3.608   5.560   4.826 -0.5066  0.0244 -0.0621
 1240ntf    fn4 9419   3.703   5.370   4.858 -0.0905  0.2378  0.4184
 1240ntf    fn4 9420   3.662   5.492   5.026  0.0273  0.2084  0.3281
 1241ntf    cn1 9421   3.341   2.198   2.524  0.0516  0.3887  0.2016
 1241ntf    sn2 9422   3.505   2.142   2.470 -0.1827 -0.0177 -0.0936
 1241ntf    nn3 9423   3.466   2.079   2.332 -0.0010 -0.0181 -0.1448
 1241ntf    sn2 9424   3.547   2.091   2.198 -0.1460 -0.0794 -0.2383
 1241ntf    cn1 9425   3.464   2.235   2.123  0.3071  0.2034 -0.1997
 1241ntf    fn4 9426   3.294   2.273   2.426 -0.0295  0.0282 -0.0340
 1241ntf    fn4 9427   3.254   2.099   2.526  0.4814  0.0146  0.3503
 1241ntf    fn4 9428   3.333   2.272   2.634 -0.3919  0.3457  0.2032
 1241ntf    on5 9429   3.569   2.270   2.455 -0.2461  0.0700  0.3591
 1241ntf    on5 9430   3.554   2.047   2.567  0.5065  0.2108 -0.2135
 1241ntf    on5 9431   3.683   2.138   2.208 -0.1593  0.0062 -0.4724
 1241ntf    on5 9432   3.524   1.989   2.099 -0.4137 -0.0956 -0.1617
 1241ntf    fn4 9433   3.502   2.262   1.999  0.4463  0.7902 -0.0303
 1241ntf    fn4 9434   3.474   2.343   2.197  0.3619 -0.1629  0.3325
 1241ntf    fn4 9435   3.335   2.208   2.120  0.2496  0.4481  0.0571
 1242ntf    cn1 9436   0.138   3.782   1.171 -0.0431 -0.5327 -0.4141
 1242ntf    sn2 9437   0.188   3.924   1.272 -0.1322 -0.6170 -0.2507
 1242ntf    nn3 9438   0.239   3.851   1.402  0.1069 -0.1750 -0.0932
 1242ntf    sn2 9439   0.384   3.797   1.428  0.0628 -0.2585 -0.0226
 1242ntf    cn1 9440   0.439   3.921   1.548  0.1718  0.0024 -0.3410
 1242ntf    fn4 9441   0.235   3.700   1.135  0.2753 -0.5383  0.4444
 1242ntf    fn4 9442   0.047   3.706   1.230  0.1649 -0.2803  0.2364
 1242ntf    fn4 9443   0.083   3.812   1.055  0.1402  0.4553 -0.2507
 1242ntf    on5 9444   0.278   4.002   1.191 -0.2891 -0.0369  0.1294
 1242ntf    on5 9445   0.065   3.988   1.312  0.2572  0.0677 -0.1359
 1242ntf    on5 9446   0.373   3.676   1.507 -0.4255 -0.1620  0.0548
 1242ntf    on5 9447   0.482   3.802   1.322 -0.1377  0.7035 -0.1647
 1242ntf    fn4 9448   0.352   3.942   1.646  0.2224  0.2918 -0.3556
 1242ntf    fn4 9449   0.448   4.038   1.487  0.7214  0.1584  0.0355
 1242ntf    fn4 9450   0.552   3.896   1.612 -0.4682 -0.3838  0.6632
 1243ntf    cn1 9451   0.859   6.302   2.617 -0.3121  0.1115 -0.0310
 1243ntf    sn2 9452   0.753   6.175   2.692  0.2183 -0.1446  0.2911
 1243ntf    nn3 9453   0.744   6.065   2.580 -0.3174 -0.0736  0.2622
 1243ntf    sn2 9454   0.844   5.956   2.528 -0.2436  0.2179 -0.2076
 1243ntf    cn1 9455   0.755   5.814   2.599  0.0259  0.0465 -0.2150
 1243ntf    fn4 9456   0.885   6.399   2.703  0.1878  0.1359 -0.2068
 1243ntf    fn4 9457   0.969   6.240   2.577 -0.3010  0.0331  0.1219
 1243ntf    fn4 9458   0.810   6.358   2.507 -0.3417  0.0293 -0.0596
 1243ntf    on5 9459   0.818   6.146   2.817 -0.0896 -0.1707  0.4457
 1243ntf    on5 9460   0.626   6.244   2.699  0.1556 -0.3016  0.7346
 1243ntf    on5 9461   0.838   5.923   2.388  0.3036 -0.1150 -0.1548
 1243ntf    on5 9462   0.969   5.944   2.598 -0.3233 -0.0586 -0.1110
 1243ntf    fn4 9463   0.723   5.834   2.725 -0.1529 -0.2396 -0.2138
 1243ntf    fn4 9464   0.834   5.708   2.594 -0.4106 -0.3296  0.7275
 1243ntf    fn4 9465   0.637   5.789   2.544  0.2596 -0.9553 -0.2670
 1244ntf    cn1 9466   0.509   2.744   5.394  0.2303 -0.1558 -0.0636
 1244ntf    sn2 9467   0.651   2.816   5.481  0.1486 -0.2330  0.1344
 1244ntf    nn3 9468   0.566   2.883   5.595 -0.0554  0.0416 -0.1766
 1244ntf    sn2 9469   0.565   2.869   5.751  0.3473 -0.1008 -0.1841
 1244ntf    cn1 9470   0.408   2.778   5.769  0.3115 -0.0262 -0.1202
 1244ntf    fn4 9471   0.412   2.702   5.473  0.2349 -0.0141  0.0172
 1244ntf    fn4 9472   0.455   2.842   5.323  0.3956  0.0425  0.0858
 1244ntf    fn4 9473   0.535   2.643   5.313 -0.2591 -0.5294  0.2350
 1244ntf    on5 9474   0.732   2.704   5.519 -0.1141 -0.4156  0.1612
 1244ntf    on5 9475   0.703   2.906   5.381  0.2336  0.2858  0.6380
 1244ntf    on5 9476   0.665   2.783   5.810 -0.2422 -0.1274  0.7914
 1244ntf    on5 9477   0.542   2.997   5.812  0.1309 -0.1418 -0.1783
 1244ntf    fn4 9478   0.383   2.762   5.898  0.1511  0.4566 -0.0893
 1244ntf    fn4 9479   0.412   2.661   5.708 -0.4379 -0.2393  0.2304
 1244ntf    fn4 9480   0.302   2.841   5.722  0.1735  0.0612  0.3063
 1245ntf    cn1 9481   5.430   5.372   2.034 -0.3452 -0.0671  0.3841
 1245ntf    sn2 9482   5.265   5.323   1.977 -0.1097 -0.2509 -0.1468
 1245ntf    nn3 9483   5.187   5.447   2.033 -0.2274 -0.3438 -0.1017
 1245ntf    sn2 9484   5.059   5.447   2.123 -0.1048 -0.2970  0.0743
 1245ntf    cn1 9485   4.927   5.431   1.999  0.1362 -0.0213 -0.2214
 1245ntf    fn4 9486   5.438   5.384   2.166  0.0187 -0.1736  0.3737
 1245ntf    fn4 9487   5.520   5.284   1.994 -0.3440 -0.1035  0.4663
 1245ntf    fn4 9488   5.475   5.485   1.982 -0.1243 -0.1932  0.2987
 1245ntf    on5 9489   5.270   5.330   1.833 -0.1658 -0.8526 -0.1811
 1245ntf    on5 9490   5.237   5.191   2.030 -0.4588  0.0584  0.4432
 1245ntf    on5 9491   5.042   5.331   2.207 -0.6961 -0.5077 -0.3301
 1245ntf    on5 9492   5.034   5.578   2.179 -0.2544 -0.3102  0.0388
 1245ntf    fn4 9493   4.932   5.318   1.931 -0.2277 -0.1239 -0.0826
 1245ntf    fn4 9494   4.912   5.539   1.924 -0.1267  0.4684  0.5197
 1245ntf    fn4 9495   4.810   5.429   2.062  0.2495  0.3595  0.0006
 1246ntf    cn1 9496   4.020   5.912   5.720  0.0805  0.2683  0.0973
 1246ntf    sn2 9497   4.015   5.730   5.711 -0.0515  0.2590  0.3459
 1246ntf    nn3 9498   3.934   5.724   5.577  0.1199 -0.7973  0.2794
 1246ntf    sn2 9499   3.786   5.678   5.548 -0.1104  0.0097  0.1433
 1246ntf    cn1 9500   3.828   5.575   5.405 -0.2635  0.0967  0.0358
 1246ntf    fn4 9501   4.105   5.961   5.631 -0.0456  0.1180 -0.1043
 1246ntf    fn4 9502   3.906   5.975   5.699 -0.0902 -0.0798 -0.0353
 1246ntf    fn4 9503   4.070   5.957   5.835  0.5293 -0.3909  0.1690
 1246ntf    on5 9504   4.153   5.693   5.692 -0.2377 -0.2869  0.0558
 1246ntf    on5 9505   3.958   5.684   5.836  0.3521  0.0430  0.4537
 1246ntf    on5 9506   3.740   5.579   5.642  0.0537  0.1122  0.3348
 1246ntf    on5 9507   3.694   5.779   5.502  0.0136  0.5016  0.9620
 1246ntf    fn4 9508   3.927   5.494   5.439 -0.3248 -0.0324 -0.0885
 1246ntf    fn4 9509   3.876   5.644   5.302  0.5650 -0.2900  0.1517
 1246ntf    fn4 9510   3.724   5.504   5.364 -0.1150  0.1633 -0.4726
 1247ntf    cn1 9511   0.392   3.638   4.341 -0.3696  0.0536 -0.2347
 1247ntf    sn2 9512   0.442   3.466   4.308 -0.1118  0.0850 -0.0083
 1247ntf    nn3 9513   0.303   3.402   4.272 -0.1479  0.2772 -0.2117
 1247ntf    sn2 9514   0.181   3.366   4.363 -0.0823  0.0434 -0.2151
 1247ntf    cn1 9515   0.166   3.185   4.347 -0.3632  0.0257  0.2356
 1247ntf    fn4 9516   0.319   3.693   4.245 -0.2895  0.3867 -0.1048
 1247ntf    fn4 9517   0.316   3.654   4.448  0.3439 -0.3181  0.3380
 1247ntf    fn4 9518   0.502   3.707   4.367 -0.2606 -0.2234  0.0483
 1247ntf    on5 9519   0.532   3.480   4.196  0.1583  0.0555  0.2027
 1247ntf    on5 9520   0.502   3.426   4.433 -0.6780 -0.2302  0.1660
 1247ntf    on5 9521   0.196   3.385   4.505 -0.1612  0.3547 -0.2485
 1247ntf    on5 9522   0.059   3.420   4.309 -0.4183  0.2518  0.7310
 1247ntf    fn4 9523   0.142   3.159   4.219  0.4321  0.2398  0.0398
 1247ntf    fn4 9524   0.067   3.139   4.422 -0.2115 -0.3956  0.1761
 1247ntf    fn4 9525   0.275   3.122   4.386 -0.2136  0.0368 -0.1604
 1248ntf    cn1 9526   1.765   2.040   1.190 -0.1412 -0.2133  0.0167
 1248ntf    sn2 9527   1.782   2.111   1.357 -0.0987 -0.0452 -0.0591
 1248ntf    nn3 9528   1.656   2.204   1.361 -0.2502 -0.2474 -0.0724
 1248ntf    sn2 9529   1.628   2.347   1.421 -0.0592 -0.2266 -0.0316
 1248ntf    cn1 9530   1.611   2.441   1.266 -0.2842 -0.1071  0.0656
 1248ntf    fn4 9531   1.767   2.135   1.098  0.1264  0.2947  0.5376
 1248ntf    fn4 9532   1.849   1.942   1.164 -0.2007 -0.2447 -0.0569
 1248ntf    fn4 9533   1.645   1.984   1.181 -0.0826 -0.2902 -0.2774
 1248ntf    on5 9534   1.775   1.995   1.443 -0.2917 -0.1143 -0.1681
 1248ntf    on5 9535   1.907   2.182   1.348  0.3250 -0.8434 -0.6016
 1248ntf    on5 9536   1.497   2.352   1.481  0.2472 -0.4397  0.6676
 1248ntf    on5 9537   1.739   2.405   1.493 -0.1647  0.0457 -0.0871
 1248ntf    fn4 9538   1.596   2.565   1.309  0.1471  0.1145 -0.4143
 1248ntf    fn4 9539   1.508   2.416   1.187 -0.2162  0.0669 -0.0800
 1248ntf    fn4 9540   1.717   2.440   1.187 -0.2575 -0.5331  0.1071
 1249ntf    cn1 9541   5.326   2.040   6.036  0.0530 -0.3959  0.1740
 1249ntf    sn2 9542   5.361   2.208   6.098 -0.3234 -0.1434 -0.2947
 1249ntf    nn3 9543   5.495   2.186   6.175 -0.3270 -0.2366 -0.3142
 1249ntf    sn2 9544   5.641   2.236   6.143 -0.2440 -0.1697  0.1481
 1249ntf    cn1 9545   5.663   2.215   5.963  0.0587 -0.2679  0.1976
 1249ntf    fn4 9546   5.415   2.008   5.943  0.0213  0.6254 -0.2188
 1249ntf    fn4 9547   5.348   1.947   6.128  0.0892 -0.5955 -0.0366
 1249ntf    fn4 9548   5.205   2.033   5.985  0.1970  0.1110 -0.2414
 1249ntf    on5 9549   5.375   2.284   5.977 -0.9884  0.4617  0.0049
 1249ntf    on5 9550   5.245   2.232   6.181 -0.3711 -0.1645 -0.3549
 1249ntf    on5 9551   5.663   2.377   6.165  0.8802 -0.3119 -0.0066
 1249ntf    on5 9552   5.742   2.151   6.201  0.3771 -0.1295 -0.8465
 1249ntf    fn4 9553   5.617   2.319   5.896  0.0241 -0.2392  0.2650
 1249ntf    fn4 9554   5.606   2.109   5.908 -0.2563 -0.1680  0.3340
 1249ntf    fn4 9555   5.791   2.217   5.930  0.0150 -0.5177  0.0157
 1250ntf    cn1 9556   1.793   2.448   3.566 -0.0907  0.3070  0.0808
 1250ntf    sn2 9557   1.636   2.365   3.526  0.1344  0.1675 -0.5153
 1250ntf    nn3 9558   1.645   2.369   3.369 -0.1445  0.1288 -0.5327
 1250ntf    sn2 9559   1.568   2.463   3.270 -0.2133  0.5021 -0.1266
 1250ntf    cn1 9560   1.698   2.461   3.143 -0.2774  0.2167 -0.1877
 1250ntf    fn4 9561   1.802   2.453   3.698  0.2525 -0.5420  0.0947
 1250ntf    fn4 9562   1.899   2.386   3.517 -0.2297  0.0504  0.1025
 1250ntf    fn4 9563   1.798   2.572   3.519 -0.2117  0.3542  0.1922
 1250ntf    on5 9564   1.651   2.237   3.591 -0.7023  0.2598 -0.1329
 1250ntf    on5 9565   1.530   2.451   3.572 -0.1749 -0.4487 -0.0697
 1250ntf    on5 9566   1.455   2.414   3.196 -0.2303 -0.0451  0.2596
 1250ntf    on5 9567   1.566   2.603   3.307 -0.0096  0.3866  0.3227
 1250ntf    fn4 9568   1.669   2.544   3.044 -0.1629  0.2833 -0.1651
 1250ntf    fn4 9569   1.702   2.342   3.084  0.6450 -0.0617  0.4348
 1250ntf    fn4 9570   1.818   2.487   3.191 -0.4727  0.0437  0.3919
 1251ntf    cn1 9571   5.217   4.257   4.531  0.3520 -0.3821  0.2975
 1251ntf    sn2 9572   5.322   4.138   4.441  0.0257 -0.2811 -0.2245
 1251ntf    nn3 9573   5.415   4.225   4.350 -0.0332 -0.3365 -0.3374
 1251ntf    sn2 9574   5.389   4.274   4.203 -0.1041  0.0974 -0.1807
 1251ntf    cn1 9575   5.443   4.125   4.115 -0.2692  0.0410 -0.1840
 1251ntf    fn4 9576   5.163   4.341   4.444  0.5168 -0.1234  0.4427
 1251ntf    fn4 9577   5.118   4.201   4.598 -0.3564  0.0551 -0.3770
 1251ntf    fn4 9578   5.292   4.327   4.614  0.3150  0.3405 -0.2681
 1251ntf    on5 9579   5.405   4.082   4.545  0.0039  0.0951 -0.0009
 1251ntf    on5 9580   5.227   4.048   4.381 -0.0346 -0.5815  0.3089
 1251ntf    on5 9581   5.250   4.301   4.175 -0.1371 -0.6462 -0.7663
 1251ntf    on5 9582   5.484   4.366   4.146  0.3684 -0.1282  0.2300
 1251ntf    fn4 9583   5.574   4.108   4.124 -0.2541  0.2567 -0.0148
 1251ntf    fn4 9584   5.417   4.133   3.985 -0.5729  0.6887 -0.0853
 1251ntf    fn4 9585   5.387   4.010   4.150  0.2945 -0.0556  0.4118
 1252ntf    cn1 9586   6.314   1.104   4.413  0.4921 -0.0646 -0.2892
 1252ntf    sn2 9587   6.355   1.279   4.387  0.6695 -0.0778 -0.0969
 1252ntf    nn3 9588   6.221   1.343   4.437  0.4574 -0.2111 -0.4844
 1252ntf    sn2 9589   6.181   1.495   4.437 -0.0545 -0.3399  0.4034
 1252ntf    cn1 9590   6.136   1.520   4.612  0.2755  0.0122  0.4390
 1252ntf    fn4 9591   6.250   1.083   4.527  0.1373 -0.0371 -0.4811
 1252ntf    fn4 9592   6.223   1.073   4.322  0.2022 -0.2612  0.0622
 1252ntf    fn4 9593   6.414   1.019   4.401  0.2456 -0.4211  0.1848
 1252ntf    on5 9594   6.468   1.296   4.476  0.6135 -0.1293 -0.0169
 1252ntf    on5 9595   6.378   1.289   4.245  0.5390  0.2604 -0.0956
 1252ntf    on5 9596   6.289   1.589   4.421 -0.1628 -0.2951 -0.0826
 1252ntf    on5 9597   6.058   1.519   4.365  0.4388 -0.2299 -0.4092
 1252ntf    fn4 9598   6.233   1.496   4.699  0.5109  0.3054  0.2595
 1252ntf    fn4 9599   6.041   1.436   4.648  0.2186  0.1160  0.5286
 1252ntf    fn4 9600   6.094   1.639   4.649 -0.1592  0.1730 -0.5493
 1253ntf    cn1 9601   5.723   4.179   0.796 -0.2683  0.3981 -0.3067
 1253ntf    sn2 9602   5.779   4.176   0.969 -0.0187  0.0237 -0.3928
 1253ntf    nn3 9603   5.641   4.147   1.038  0.1327  0.0570 -0.0751
 1253ntf    sn2 9604   5.523   4.242   1.077 -0.2504 -0.4099 -0.0871
 1253ntf    cn1 9605   5.547   4.285   1.252  0.1120  0.0968 -0.2594
 1253ntf    fn4 9606   5.666   4.295   0.768 -0.3493  0.3185 -0.4716
 1253ntf    fn4 9607   5.823   4.177   0.710 -0.3714  0.1004 -0.4202
 1253ntf    fn4 9608   5.644   4.079   0.762  0.3895 -0.0387 -0.5736
 1253ntf    on5 9609   5.861   4.058   0.961  0.0077 -0.0080  0.2685
 1253ntf    on5 9610   5.834   4.307   0.995 -0.6730  0.3460 -0.6114
 1253ntf    on5 9611   5.519   4.370   1.009  0.0229 -0.1537  0.3732
 1253ntf    on5 9612   5.400   4.166   1.076 -0.3822 -0.1992 -0.1040
 1253ntf    fn4 9613   5.500   4.401   1.294 -0.4802 -0.1100 -0.3491
 1253ntf    fn4 9614   5.675   4.290   1.287 -0.0523  0.0753  0.3578
 1253ntf    fn4 9615   5.488   4.198   1.332  0.0098  0.2595 -0.1578
 1254ntf    cn1 9616   4.869   2.109   4.252  0.2661 -0.0981 -0.0606
 1254ntf    sn2 9617   5.041   2.058   4.221  0.2815 -0.1422  0.0963
 1254ntf    nn3 9618   5.050   1.959   4.343 -0.3375  0.0363  0.2932
 1254ntf    sn2 9619   5.126   1.992   4.476  0.1383  0.0321  0.0263
 1254ntf    cn1 9620   5.058   1.871   4.593  0.0138  0.1076  0.0326
 1254ntf    fn4 9621   4.820   2.178   4.150 -0.6474 -0.1876  0.3091
 1254ntf    fn4 9622   4.803   1.997   4.276  0.9360 -0.5985 -0.5067
 1254ntf    fn4 9623   4.858   2.185   4.360 -0.4845 -0.0778 -0.1464
 1254ntf    on5 9624   5.039   1.988   4.095 -0.2161  0.4407 -0.2272
 1254ntf    on5 9625   5.124   2.176   4.225  0.2037 -0.0863  0.0569
 1254ntf    on5 9626   5.267   1.960   4.472  0.0316 -0.3776 -0.6977
 1254ntf    on5 9627   5.095   2.124   4.526 -0.0356  0.2892 -0.7542
 1254ntf    fn4 9628   4.945   1.910   4.650  0.1535  0.3696  0.1285
 1254ntf    fn4 9629   5.142   1.864   4.695  0.0746  0.3703  0.0005
 1254ntf    fn4 9630   5.039   1.750   4.544 -0.2512  0.4695 -0.7670
 1255ntf    cn1 9631   0.322   1.723   6.483  0.0528 -0.0500 -0.3127
 1255ntf    sn2 9632   0.444   1.654   6.599  0.0757  0.3623 -0.0899
 1255ntf    nn3 9633   0.499   1.524   6.530  0.2418  0.2931  0.1721
 1255ntf    sn2 9634   0.523   1.381   6.589 -0.2939  0.0423 -0.2171
 1255ntf    cn1 9635   0.551   1.287   6.436 -0.0662 -0.1907 -0.0330
 1255ntf    fn4 9636   0.266   1.832   6.532  0.5479  0.2062 -0.3059
 1255ntf    fn4 9637   0.368   1.760   6.365  0.3432 -0.0360 -0.1972
 1255ntf    fn4 9638   0.226   1.636   6.459 -0.4908  0.4095  0.1519
 1255ntf    on5 9639   0.547   1.755   6.608  0.3118  0.1218 -0.0865
 1255ntf    on5 9640   0.374   1.635   6.724 -0.3049  0.0939 -0.3417
 1255ntf    on5 9641   0.651   1.371   6.654 -0.2752  0.4420 -0.1934
 1255ntf    on5 9642   0.413   1.314   6.655 -0.0119  0.0444  0.2536
 1255ntf    fn4 9643   0.567   1.158   6.464 -0.0470 -0.1439  0.1730
 1255ntf    fn4 9644   0.657   1.327   6.367 -0.3326  0.2948 -0.1651
 1255ntf    fn4 9645   0.453   1.284   6.348 -0.0167  0.1476 -0.1022
 1256ntf    cn1 9646   4.661   5.994   1.606  0.0965  0.2053  0.2390
 1256ntf    sn2 9647   4.626   5.894   1.754  0.1729  0.2506  0.2874
 1256ntf    nn3 9648   4.470   5.885   1.746  0.1776 -0.0334  0.5181
 1256ntf    sn2 9649   4.390   5.754   1.711  0.1916  0.1123 -0.0708
 1256ntf    cn1 9650   4.335   5.691   1.873 -0.1605 -0.0619 -0.2569
 1256ntf    fn4 9651   4.790   6.014   1.585  0.1107  0.0826  0.2058
 1256ntf    fn4 9652   4.613   5.937   1.496  0.2373  0.3304  0.1136
 1256ntf    fn4 9653   4.598   6.110   1.609  0.4934  0.4186  0.2508
 1256ntf    on5 9654   4.703   5.773   1.738 -0.4097 -0.1365  0.4165
 1256ntf    on5 9655   4.667   5.986   1.856 -0.5948  0.2436  0.6047
 1256ntf    on5 9656   4.262   5.781   1.651  0.1311 -0.3523 -0.1520
 1256ntf    on5 9657   4.467   5.647   1.654  0.4393  0.2161  0.0657
 1256ntf    fn4 9658   4.265   5.579   1.866 -0.4534  0.1326 -0.4616
 1256ntf    fn4 9659   4.269   5.781   1.944 -0.2358 -0.0897 -0.2920
 1256ntf    fn4 9660   4.429   5.668   1.963  0.0697  0.1830 -0.4333
 1257ntf    cn1 9661   1.364   2.518   5.067  0.5083  0.1888 -0.4045
 1257ntf    sn2 9662   1.438   2.625   5.193  0.3234 -0.0407 -0.0978
 1257ntf    nn3 9663   1.491   2.747   5.109 -0.1769  0.1644 -0.1169
 1257ntf    sn2 9664   1.625   2.753   5.028 -0.2057 -0.0933 -0.1848
 1257ntf    cn1 9665   1.711   2.875   5.132 -0.3226  0.0631 -0.2712
 1257ntf    fn4 9666   1.441   2.476   4.969  0.2712 -0.0876 -0.4751
 1257ntf    fn4 9667   1.330   2.412   5.139  0.2304  0.3231 -0.3364
 1257ntf    fn4 9668   1.251   2.564   5.016  0.1793 -0.1996 -0.0399
 1257ntf    on5 9669   1.320   2.660   5.269  0.3590  0.0623 -0.0892
 1257ntf    on5 9670   1.538   2.551   5.267  0.0663  0.4029  0.7136
 1257ntf    on5 9671   1.713   2.640   5.044 -0.3277 -0.1385  0.1850
 1257ntf    on5 9672   1.608   2.807   4.896 -0.3993  0.4996  0.0779
 1257ntf    fn4 9673   1.763   2.827   5.244  0.1074  0.1107 -0.4485
 1257ntf    fn4 9674   1.639   2.982   5.162 -0.6795 -0.2597  0.0210
 1257ntf    fn4 9675   1.816   2.928   5.071  0.2394 -0.3825  0.3050
 1258ntf    cn1 9676   3.470   2.687   6.229  0.2461 -0.3284 -0.2058
 1258ntf    sn2 9677   3.521   2.754   6.389 -0.2258  0.5030 -0.4012
 1258ntf    nn3 9678   3.435   2.685   6.501 -0.0370 -0.0027 -0.5677
 1258ntf    sn2 9679   3.317   2.746   6.585  0.0999 -0.1318 -0.2781
 1258ntf    cn1 9680   3.402   2.818   6.729 -0.2314 -0.2929 -0.0028
 1258ntf    fn4 9681   3.539   2.747   6.133 -0.1535  0.0063 -0.2872
 1258ntf    fn4 9682   3.490   2.557   6.215 -0.0720 -0.3673 -0.3035
 1258ntf    fn4 9683   3.345   2.719   6.203  0.1376 -0.5060  0.1009
 1258ntf    on5 9684   3.659   2.712   6.394 -0.4413 -0.1089  0.7301
 1258ntf    on5 9685   3.506   2.897   6.375 -0.3603  0.5032 -0.2581
 1258ntf    on5 9686   3.251   2.861   6.529  0.2763  0.2335  0.2528
 1258ntf    on5 9687   3.241   2.637   6.640 -0.2709  0.0095 -0.5050
 1258ntf    fn4 9688   3.485   2.916   6.699 -0.2046 -0.2733  0.1321
 1258ntf    fn4 9689   3.482   2.731   6.789  0.4491  0.3541  0.0382
 1258ntf    fn4 9690   3.322   2.863   6.824  0.0648 -0.2070  0.2066
 1259ntf    cn1 9691   5.547   3.546   4.661  0.1835  0.1068  0.0622
 1259ntf    sn2 9692   5.590   3.382   4.727  0.0719  0.1094  0.1394
 1259ntf    nn3 9693   5.719   3.347   4.646 -0.0663  0.2201 -0.1288
 1259ntf    sn2 9694   5.744   3.244   4.531  0.1405 -0.1663  0.2588
 1259ntf    cn1 9695   5.925   3.255   4.534  0.1378 -0.1208  0.2519
 1259ntf    fn4 9696   5.655   3.622   4.666  0.3052 -0.0686  0.1108
 1259ntf    fn4 9697   5.514   3.542   4.532 -0.7445  0.5641  0.2790
 1259ntf    fn4 9698   5.438   3.603   4.710  0.0928  0.0413 -0.0601
 1259ntf    on5 9699   5.608   3.409   4.868  0.1713 -0.4657  0.2381
 1259ntf    on5 9700   5.475   3.298   4.703  0.0145  0.2108  0.0549
 1259ntf    on5 9701   5.713   3.106   4.558 -0.5872 -0.1551 -0.4890
 1259ntf    on5 9702   5.711   3.291   4.399  0.2757 -0.1650  0.2254
 1259ntf    fn4 9703   5.983   3.190   4.435  0.1657  0.1334  0.0999
 1259ntf    fn4 9704   5.962   3.203   4.650  0.1132 -0.3174  0.1708
 1259ntf    fn4 9705   5.971   3.379   4.528  0.3253 -0.2155 -0.2807
 1260ntf    cn1 9706   2.885   6.630   6.330 -0.2022 -0.5228 -0.3605
 1260ntf    sn2 9707   2.863   6.653   6.151  0.1421 -0.3463 -0.3825
 1260ntf    nn3 9708   3.004   6.608   6.100  0.2242 -0.1703 -0.3090
 1260ntf    sn2 9709   3.087   6.649   5.973  0.3366 -0.0908 -0.2113
 1260ntf    cn1 9710   3.236   6.711   6.056  0.3106  0.0089 -0.2385
 1260ntf    fn4 9711   2.954   6.520   6.356 -0.2512 -0.4350  0.1400
 1260ntf    fn4 9712   2.955   6.729   6.384 -0.2109 -0.4185 -0.5397
 1260ntf    fn4 9713   2.778   6.617   6.406  0.2526  0.2985  0.4311
 1260ntf    on5 9714   2.765   6.551   6.120  0.0771 -0.3949 -0.0206
 1260ntf    on5 9715   2.825   6.791   6.138  0.1661 -0.2949  0.0911
 1260ntf    on5 9716   3.136   6.541   5.891 -0.6050 -0.4408 -0.3304
 1260ntf    on5 9717   3.034   6.761   5.898  0.3890  0.1631  0.1303
 1260ntf    fn4 9718   3.337   6.735   5.974  0.4146 -0.3546 -0.2182
 1260ntf    fn4 9719   3.278   6.622   6.144  0.0458 -0.3165 -0.4377
 1260ntf    fn4 9720   3.214   6.821   6.126  0.7584 -0.0452 -0.0088
 1261ntf    cn1 9721   5.567   2.344   2.833  0.0663  0.3580  0.2069
 1261ntf    sn2 9722   5.489   2.376   2.672  0.0810  0.4509  0.2177
 1261ntf    nn3 9723   5.516   2.234   2.609 -0.2961  0.3929  0.1836
 1261ntf    sn2 9724   5.414   2.119   2.581  0.0803  0.0497  0.2133
 1261ntf    cn1 9725   5.424   2.029   2.739 -0.0166 -0.1438  0.1109
 1261ntf    fn4 9726   5.496   2.265   2.911  0.2687 -0.0660 -0.0333
 1261ntf    fn4 9727   5.689   2.294   2.817 -0.1285  0.0945 -0.5022
 1261ntf    fn4 9728   5.572   2.457   2.901  0.0071  0.6140 -0.2131
 1261ntf    on5 9729   5.358   2.418   2.712 -0.2330 -0.1428 -0.1669
 1261ntf    on5 9730   5.573   2.475   2.609  0.6145 -0.0343  0.1533
 1261ntf    on5 9731   5.276   2.159   2.569  0.1224 -0.0545 -0.6293
 1261ntf    on5 9732   5.463   2.021   2.488  0.6435  0.2510  0.2981
 1261ntf    fn4 9733   5.349   2.081   2.834 -0.4468 -0.2002 -0.1986
 1261ntf    fn4 9734   5.548   2.024   2.787  0.2534  0.6838 -0.4736
 1261ntf    fn4 9735   5.382   1.905   2.724 -0.1783 -0.0253 -0.4086
 1262ntf    cn1 9736   2.221   5.903   5.343  0.4794 -0.0829 -0.0780
 1262ntf    sn2 9737   2.188   5.725   5.329  0.0270 -0.0157  0.1100
 1262ntf    nn3 9738   2.032   5.736   5.311  0.0562  0.3768  0.0971
 1262ntf    sn2 9739   1.924   5.713   5.422 -0.2337 -0.0451 -0.2664
 1262ntf    cn1 9740   1.774   5.675   5.327 -0.4559 -0.2369  0.1570
 1262ntf    fn4 9741   2.351   5.927   5.346  0.5588 -0.5385  0.2358
 1262ntf    fn4 9742   2.183   5.961   5.231  0.1339  0.1200  0.1422
 1262ntf    fn4 9743   2.155   5.957   5.445 -0.0099 -0.2389 -0.3083
 1262ntf    on5 9744   2.252   5.676   5.209 -0.5923 -0.0127 -0.2301
 1262ntf    on5 9745   2.232   5.669   5.454  0.3181 -0.2844 -0.1129
 1262ntf    on5 9746   1.932   5.591   5.499 -0.1674  0.0979 -0.0455
 1262ntf    on5 9747   1.887   5.834   5.491 -0.4016 -0.3654  0.2105
 1262ntf    fn4 9748   1.749   5.545   5.318 -0.3490 -0.2488  0.0303
 1262ntf    fn4 9749   1.771   5.725   5.205 -0.8661  0.5451  0.4837
 1262ntf    fn4 9750   1.671   5.729   5.389 -0.0881  0.0111  0.5637
 1263ntf    cn1 9751   0.482   5.362   0.337 -0.0859  0.2710 -0.4920
 1263ntf    sn2 9752   0.367   5.406   0.471  0.1858 -0.0961 -0.1319
 1263ntf    nn3 9753   0.230   5.407   0.395  0.3274 -0.0846 -0.3886
 1263ntf    sn2 9754   0.139   5.529   0.356  0.2663  0.0776  0.2591
 1263ntf    cn1 9755   0.059   5.452   0.212  0.0990  0.0479  0.3677
 1263ntf    fn4 9756   0.608   5.359   0.378 -0.1656 -0.1152 -0.2615
 1263ntf    fn4 9757   0.454   5.247   0.277  0.2551  0.2290 -0.5731
 1263ntf    fn4 9758   0.476   5.455   0.243 -0.2366  0.5193 -0.2387
 1263ntf    on5 9759   0.372   5.305   0.573 -0.2815 -0.1003 -0.1122
 1263ntf    on5 9760   0.403   5.541   0.507  0.0795 -0.1546  0.1977
 1263ntf    on5 9761   0.029   5.558   0.444 -0.0661  0.0479 -0.1464
 1263ntf    on5 9762   0.211   5.641   0.300  0.0276  0.4450  0.6800
 1263ntf    fn4 9763   0.012   5.332   0.243 -0.6664  0.2038 -0.1642
 1263ntf    fn4 9764   0.139   5.444   0.108 -0.4582  0.2830 -0.0847
 1263ntf    fn4 9765  -0.041   5.531   0.176  0.5285  0.5418  0.2397
 1264ntf    cn1 9766   2.683   3.385   4.217 -0.3415  0.0993  0.2897
 1264ntf    sn2 9767   2.659   3.225   4.134  0.1289  0.2783 -0.1967
 1264ntf    nn3 9768   2.789   3.225   4.046  0.3652  0.0502  0.1505
 1264ntf    sn2 9769   2.805   3.279   3.899 -0.1430 -0.2540 -0.0219
 1264ntf    cn1 9770   2.746   3.147   3.789 -0.0612 -0.3027 -0.0070
 1264ntf    fn4 9771   2.664   3.484   4.132 -0.3064  0.0718  0.2501
 1264ntf    fn4 9772   2.594   3.406   4.312 -0.4739 -0.2418  0.2424
 1264ntf    fn4 9773   2.800   3.390   4.278 -0.2530  0.2603  0.1062
 1264ntf    on5 9774   2.665   3.135   4.246  0.1198  0.5465  0.0182
 1264ntf    on5 9775   2.534   3.238   4.062 -0.0699 -0.3235  0.0272
 1264ntf    on5 9776   2.714   3.387   3.870 -0.2055 -0.2286  0.2655
 1264ntf    on5 9777   2.946   3.290   3.871 -0.1385 -0.6938 -0.1701
 1264ntf    fn4 9778   2.734   3.180   3.662 -0.0838  0.2264  0.1294
 1264ntf    fn4 9779   2.631   3.094   3.827 -0.1153 -0.2325 -0.0746
 1264ntf    fn4 9780   2.833   3.047   3.783  0.2238 -0.0612  0.0575
 1265ntf    cn1 9781   1.722   6.092   5.880 -0.0738 -0.1241  0.4088
 1265ntf    sn2 9782   1.579   6.093   5.992 -0.2561  0.1248  0.1744
 1265ntf    nn3 9783   1.650   6.165   6.112 -0.2648  0.1044  0.1916
 1265ntf    sn2 9784   1.645   6.114   6.260  0.1946 -0.0674  0.1494
 1265ntf    cn1 9785   1.653   6.276   6.344  0.1541  0.0183 -0.0105
 1265ntf    fn4 9786   1.760   6.217   5.855  0.2612 -0.3205 -0.0701
 1265ntf    fn4 9787   1.824   6.030   5.937  0.0465 -0.4004 -0.1054
 1265ntf    fn4 9788   1.711   6.037   5.761 -0.2747 -0.3595  0.5372
 1265ntf    on5 9789   1.481   6.177   5.927 -0.2785  0.0811  0.1520
 1265ntf    on5 9790   1.544   5.954   6.004  0.3396 -0.0155  0.3191
 1265ntf    on5 9791   1.518   6.060   6.303  0.1971  0.1714  0.4623
 1265ntf    on5 9792   1.761   6.045   6.309  0.2275 -0.1453 -0.0399
 1265ntf    fn4 9793   1.540   6.344   6.335  0.1226 -0.0955 -0.4870
 1265ntf    fn4 9794   1.749   6.351   6.292  0.0843  0.0940 -0.0314
 1265ntf    fn4 9795   1.686   6.269   6.472  0.0590 -0.0228  0.0116
 1266ntf    cn1 9796   0.693   4.356   0.843 -0.0205 -0.2823  0.1785
 1266ntf    sn2 9797   0.515   4.386   0.824  0.0413 -0.0732 -0.0662
 1266ntf    nn3 9798   0.504   4.532   0.881  0.1126 -0.0735 -0.0533
 1266ntf    sn2 9799   0.439   4.664   0.826  0.0387 -0.0161  0.1685
 1266ntf    cn1 9800   0.573   4.765   0.755  0.0822 -0.1191  0.1025
 1266ntf    fn4 9801   0.723   4.234   0.801  0.2081 -0.0803 -0.2520
 1266ntf    fn4 9802   0.761   4.439   0.766 -0.1062 -0.0643  0.3361
 1266ntf    fn4 9803   0.737   4.377   0.966 -0.0477 -0.1155  0.1597
 1266ntf    on5 9804   0.500   4.373   0.681  0.2125 -0.7223 -0.0286
 1266ntf    on5 9805   0.457   4.283   0.906  0.1468 -0.1886 -0.1372
 1266ntf    on5 9806   0.354   4.650   0.710  0.2512 -0.6906  0.0888
 1266ntf    on5 9807   0.386   4.739   0.936  0.1712 -0.0356  0.2461
 1266ntf    fn4 9808   0.539   4.884   0.711 -0.6853 -0.3305  0.1130
 1266ntf    fn4 9809   0.630   4.704   0.652  0.0507  0.3086 -0.1696
 1266ntf    fn4 9810   0.671   4.779   0.843 -0.0964  0.0096  0.2827
 1267ntf    cn1 9811   3.355   3.492   2.092 -0.1960 -0.0200  0.0504
 1267ntf    sn2 9812   3.370   3.356   2.213 -0.0204  0.0001  0.0506
 1267ntf    nn3 9813   3.260   3.397   2.317 -0.1626 -0.3819  0.0495
 1267ntf    sn2 9814   3.269   3.480   2.449 -0.1646 -0.0047 -0.1856
 1267ntf    cn1 9815   3.272   3.354   2.580  0.6053  0.1026 -0.0934
 1267ntf    fn4 9816   3.399   3.609   2.135  0.1011 -0.2827  0.4780
 1267ntf    fn4 9817   3.422   3.464   1.981 -0.6098 -0.2357 -0.1458
 1267ntf    fn4 9818   3.229   3.500   2.053  0.0830  0.2506 -0.8188
 1267ntf    on5 9819   3.339   3.235   2.141 -0.2645 -0.0247  0.1982
 1267ntf    on5 9820   3.503   3.370   2.268  0.0206 -0.1857 -0.0028
 1267ntf    on5 9821   3.394   3.548   2.470 -0.0874 -0.2414  0.1268
 1267ntf    on5 9822   3.147   3.552   2.475 -0.7052 -0.7973 -0.4957
 1267ntf    fn4 9823   3.238   3.398   2.700  0.0928 -0.2010 -0.1223
 1267ntf    fn4 9824   3.391   3.297   2.586  0.5390 -0.0184  0.0841
 1267ntf    fn4 9825   3.184   3.256   2.566  0.0991  0.5807 -0.2814
 1268ntf    cn1 9826   0.586   4.221   3.953  0.0559  0.2150 -0.1036
 1268ntf    sn2 9827   0.705   4.261   4.084  0.2250  0.0759 -0.2130
 1268ntf    nn3 9828   0.764   4.118   4.109  0.0974  0.1809  0.7347
 1268ntf    sn2 9829   0.895   4.058   4.048 -0.1266  0.1048  0.3252
 1268ntf    cn1 9830   0.833   3.896   3.992  0.2730 -0.0361  0.2825
 1268ntf    fn4 9831   0.656   4.175   3.850  0.4463  0.4736  0.0424
 1268ntf    fn4 9832   0.497   4.130   3.989  0.4466  0.1609  0.7313
 1268ntf    fn4 9833   0.517   4.325   3.909  0.1943  0.4102  0.1411
 1268ntf    on5 9834   0.800   4.356   4.033 -0.0731  0.7147  0.3999
 1268ntf    on5 9835   0.620   4.294   4.196  0.6081  0.0008  0.1006
 1268ntf    on5 9836   0.946   4.103   3.921  0.0725 -0.2034  0.2944
 1268ntf    on5 9837   0.990   4.018   4.149 -0.1265 -0.6586  0.0303
 1268ntf    fn4 9838   0.921   3.816   3.933  0.4568 -0.0964  0.6335
 1268ntf    fn4 9839   0.732   3.912   3.908  0.2252  0.1118  0.3685
 1268ntf    fn4 9840   0.781   3.837   4.099 -0.5323  0.2451  0.0532
 1269ntf    cn1 9841   0.877   2.488   1.401  0.1084 -0.0988  0.1812
 1269ntf    sn2 9842   0.743   2.366   1.419 -0.1176  0.1434  0.1626
 1269ntf    nn3 9843   0.743   2.306   1.274  0.1779  0.0474  0.2011
 1269ntf    sn2 9844   0.730   2.156   1.229 -0.3588  0.1852 -0.1079
 1269ntf    cn1 9845   0.609   2.163   1.093 -0.1686 -0.0213 -0.2904
 1269ntf    fn4 9846   0.994   2.443   1.443  0.0748 -0.0504  0.3284
 1269ntf    fn4 9847   0.892   2.540   1.280  0.1844 -0.5168  0.0077
 1269ntf    fn4 9848   0.850   2.589   1.482  0.1019  0.3469 -0.3730
 1269ntf    on5 9849   0.797   2.270   1.512 -0.2597 -0.3858 -0.2896
 1269ntf    on5 9850   0.624   2.438   1.454 -0.3034 -0.3824  0.6215
 1269ntf    on5 9851   0.852   2.105   1.171 -0.3481 -0.2750  0.3078
 1269ntf    on5 9852   0.660   2.074   1.325 -0.3659  0.5281  0.1817
 1269ntf    fn4 9853   0.609   2.053   1.021  0.2502 -0.2581  0.0681
 1269ntf    fn4 9854   0.645   2.265   1.018  0.0481  0.0048 -0.1518
 1269ntf    fn4 9855   0.484   2.182   1.135  0.1312  0.2712  0.4925
 1270ntf    cn1 9856   4.097   1.685   5.176  0.2967  0.0002 -0.1220
 1270ntf    sn2 9857   3.955   1.597   5.247  0.0619  0.2911 -0.2299
 1270ntf    nn3 9858   3.837   1.698   5.221 -0.0294  0.2587  0.0468
 1270ntf    sn2 9859   3.770   1.800   5.320 -0.0198  0.1122  0.2049
 1270ntf    cn1 9860   3.607   1.726   5.346 -0.0799  0.1465 -0.0683
 1270ntf    fn4 9861   4.205   1.610   5.184  0.1044 -0.2668 -0.0283
 1270ntf    fn4 9862   4.091   1.724   5.050 -0.1490 -0.3012 -0.1957
 1270ntf    fn4 9863   4.127   1.799   5.237  0.3844  0.0663 -0.2880
 1270ntf    on5 9864   3.938   1.494   5.148  0.1517  0.0418  0.0124
 1270ntf    on5 9865   3.990   1.558   5.381  0.2762 -0.3289 -0.4658
 1270ntf    on5 9866   3.834   1.805   5.449  0.3818 -0.0454  0.0156
 1270ntf    on5 9867   3.737   1.925   5.255  0.4194  0.0049 -0.2386
 1270ntf    fn4 9868   3.533   1.723   5.236  0.2262 -0.3786 -0.2661
 1270ntf    fn4 9869   3.533   1.788   5.436 -0.0062  0.5148 -0.2614
 1270ntf    fn4 9870   3.618   1.599   5.382 -0.7726 -0.0914 -0.6621
 1271ntf    cn1 9871   2.730   4.527   6.534 -0.1484  0.0323 -0.2813
 1271ntf    sn2 9872   2.780   4.642   6.402  0.1597  0.2912  0.0583
 1271ntf    nn3 9873   2.654   4.638   6.309 -0.1017 -0.0393  0.4258
 1271ntf    sn2 9874   2.528   4.730   6.293  0.1025  0.1885  0.1226
 1271ntf    cn1 9875   2.591   4.835   6.159  0.7190  0.3137  0.5051
 1271ntf    fn4 9876   2.610   4.550   6.583  0.1477  0.0469  0.4638
 1271ntf    fn4 9877   2.720   4.402   6.492 -0.0135  0.0328 -0.3162
 1271ntf    fn4 9878   2.824   4.530   6.628 -0.1129 -0.1717 -0.3095
 1271ntf    on5 9879   2.801   4.766   6.472 -0.0433  0.2421  0.2078
 1271ntf    on5 9880   2.893   4.578   6.338 -0.2667 -0.0063 -0.4013
 1271ntf    on5 9881   2.412   4.673   6.229 -0.2136  0.3497  0.5398
 1271ntf    on5 9882   2.493   4.821   6.400  0.4986 -0.0878  0.4907
 1271ntf    fn4 9883   2.676   4.928   6.199  0.1518  1.0424  0.0482
 1271ntf    fn4 9884   2.493   4.902   6.100  0.0207 -0.5690  0.6371
 1271ntf    fn4 9885   2.645   4.760   6.065 -0.3620 -0.3368  0.3815
 1272ntf    cn1 9886   2.032   3.432   4.494  0.3791  0.1336  0.3097
 1272ntf    sn2 9887   1.930   3.358   4.624 -0.0220  0.0197 -0.0686
 1272ntf    nn3 9888   1.999   3.219   4.645  0.0231  0.0557  0.0256
 1272ntf    sn2 9889   2.119   3.186   4.741  0.0129 -0.2915 -0.0776
 1272ntf    cn1 9890   2.026   3.094   4.867 -0.1198 -0.2761 -0.1645
 1272ntf    fn4 9891   2.162   3.420   4.516  0.6384  0.0270 -1.1543
 1272ntf    fn4 9892   2.015   3.384   4.372  1.0429 -0.3306  0.3940
 1272ntf    fn4 9893   2.006   3.561   4.483 -0.3770 -0.0526 -0.1732
 1272ntf    on5 9894   1.931   3.453   4.733  0.2420 -0.3333  0.2392
 1272ntf    on5 9895   1.803   3.345   4.556  0.1213 -0.1122 -0.3078
 1272ntf    on5 9896   2.218   3.098   4.684 -0.0134  0.0256 -0.6257
 1272ntf    on5 9897   2.175   3.292   4.822 -0.4141 -0.4613  0.4480
 1272ntf    fn4 9898   1.904   3.146   4.877 -0.1194 -0.3302  0.1334
 1272ntf    fn4 9899   2.075   3.112   4.989 -0.4902  0.0888 -0.0652
 1272ntf    fn4 9900   2.009   2.966   4.839 -0.4166 -0.2380 -0.1604
 1273ntf    cn1 9901   0.548   5.491   6.059 -0.1292 -0.1808  0.5601
 1273ntf    sn2 9902   0.510   5.579   6.213 -0.0617  0.0049  0.4712
 1273ntf    nn3 9903   0.446   5.460   6.293 -0.1480 -0.1165  0.2207
 1273ntf    sn2 9904   0.298   5.407   6.287 -0.2852  0.2619  0.2448
 1273ntf    cn1 9905   0.220   5.492   6.427 -0.1363  0.0720  0.4435
 1273ntf    fn4 9906   0.600   5.569   5.965 -0.3504 -0.0661  0.5326
 1273ntf    fn4 9907   0.632   5.388   6.070  0.2776  0.1452  0.5398
 1273ntf    fn4 9908   0.439   5.448   5.997 -0.0500  0.3322  0.0534
 1273ntf    on5 9909   0.639   5.624   6.261  0.0781  0.1165 -0.0108
 1273ntf    on5 9910   0.422   5.687   6.178  0.1383  0.3340  0.9740
 1273ntf    on5 9911   0.230   5.443   6.165  0.0509  0.1092  0.0116
 1273ntf    on5 9912   0.292   5.266   6.316  0.3224  0.0469 -0.6473
 1273ntf    fn4 9913   0.261   5.449   6.545  0.5675  0.3575  0.3100
 1273ntf    fn4 9914   0.089   5.472   6.422 -0.1368  0.2193 -0.1507
 1273ntf    fn4 9915   0.239   5.623   6.431 -0.2992  0.1195 -0.1914
 1274ntf    cn1 9916   0.055   5.620   1.252 -0.4990 -0.1012  0.4300
 1274ntf    sn2 9917  -0.044   5.472   1.217 -0.1442 -0.1536 -0.3738
 1274ntf    nn3 9918   0.074   5.370   1.196 -0.0181 -0.1240  0.1870
 1274ntf    sn2 9919   0.136   5.311   1.065 -0.1440 -0.0994  0.1168
 1274ntf    cn1 9920   0.238   5.173   1.124 -0.3350 -0.3127 -0.0487
 1274ntf    fn4 9921  -0.016   5.717   1.307 -0.3794  0.5299 -0.4989
 1274ntf    fn4 9922   0.167   5.600   1.320 -0.1409 -0.1136 -0.1553
 1274ntf    fn4 9923   0.098   5.680   1.142  0.1730 -0.2492  0.6059
 1274ntf    on5 9924  -0.120   5.441   1.336  0.5929 -0.2013  0.0950
 1274ntf    on5 9925  -0.111   5.514   1.097 -0.6028 -0.0760 -0.0921
 1274ntf    on5 9926   0.042   5.244   0.978 -0.1196 -0.0458  0.0493
 1274ntf    on5 9927   0.231   5.402   1.007 -0.4368  0.2279  0.1487
 1274ntf    fn4 9928   0.350   5.211   1.184 -0.4536 -0.5317  0.3168
 1274ntf    fn4 9929   0.281   5.081   1.039  0.2341 -0.2264  0.1403
 1274ntf    fn4 9930   0.170   5.114   1.221 -0.7561 -0.3214 -0.3470
 1275ntf    cn1 9931   0.995   3.994   1.015 -0.1086  0.3809  0.2323
 1275ntf    sn2 9932   1.153   4.034   1.094 -0.0220  0.1772  0.1614
 1275ntf    nn3 9933   1.102   4.094   1.229  0.0007  0.6081 -0.0209
 1275ntf    sn2 9934   1.077   4.016   1.363  0.2525 -0.0342 -0.3445
 1275ntf    cn1 9935   0.933   4.111   1.420 -0.0343 -0.3305 -0.5673
 1275ntf    fn4 9936   1.015   3.920   0.906  0.1211  0.4199  0.2487
 1275ntf    fn4 9937   0.910   3.922   1.088 -0.3262  0.5967  0.1925
 1275ntf    fn4 9938   0.937   4.109   0.985 -0.1665  0.3475  0.2149
 1275ntf    on5 9939   1.228   3.911   1.111 -0.7790 -0.3540 -0.2949
 1275ntf    on5 9940   1.212   4.133   1.007 -0.0711  0.2144  0.1708
 1275ntf    on5 9941   1.036   3.879   1.342 -0.7710  0.2912 -0.5229
 1275ntf    on5 9942   1.177   4.037   1.465 -0.1098  0.0134  0.0001
 1275ntf    fn4 9943   0.958   4.241   1.412 -0.0012 -0.2594  0.4688
 1275ntf    fn4 9944   0.903   4.089   1.547  0.0689  1.0108 -0.2861
 1275ntf    fn4 9945   0.828   4.082   1.346 -0.4150 -0.2762 -0.0549
 1276ntf    cn1 9946   6.060   1.658   6.338  0.5478 -0.0476 -0.2668
 1276ntf    sn2 9947   6.187   1.788   6.334  0.4663  0.0473  0.1669
 1276ntf    nn3 9948   6.297   1.717   6.248  0.1987  0.0879 -0.2123
 1276ntf    sn2 9949   6.360   1.777   6.117  0.1367 -0.1546 -0.3537
 1276ntf    cn1 9950   6.528   1.711   6.130  0.1517 -0.0235  0.1373
 1276ntf    fn4 9951   5.957   1.699   6.410  0.7440 -0.8179  0.4718
 1276ntf    fn4 9952   6.010   1.630   6.219  0.2603 -0.0049 -0.1572
 1276ntf    fn4 9953   6.100   1.546   6.395 -0.8111 -0.5467 -0.2693
 1276ntf    on5 9954   6.107   1.890   6.271  0.3244 -0.3023 -0.2243
 1276ntf    on5 9955   6.225   1.801   6.472  0.4796 -0.3338  0.2002
 1276ntf    on5 9956   6.314   1.720   5.993  0.0144 -0.2263 -0.2756
 1276ntf    on5 9957   6.387   1.919   6.116 -0.0509 -0.1090  0.3758
 1276ntf    fn4 9958   6.601   1.721   6.020  0.5893 -0.1530  0.4101
 1276ntf    fn4 9959   6.532   1.583   6.166  0.2359  0.1952  0.9150
 1276ntf    fn4 9960   6.598   1.784   6.216 -0.1820  0.0443  0.3517
 1277ntf    cn1 9961   3.959   5.693   2.078  0.4703  0.3609  0.3225
 1277ntf    sn2 9962   3.810   5.669   2.180  0.2725 -0.1576 -0.0857
 1277ntf    nn3 9963   3.856   5.535   2.248  0.3933 -0.2835 -0.4117
 1277ntf    sn2 9964   3.810   5.385   2.238  0.1053 -0.2306  0.1383
 1277ntf    cn1 9965   3.796   5.338   2.413 -0.0872  0.0810  0.2081
 1277ntf    fn4 9966   3.975   5.580   2.011  0.3708  0.9080 -0.6339
 1277ntf    fn4 9967   3.961   5.797   1.996 -0.0435 -0.0137 -0.1734
 1277ntf    fn4 9968   4.072   5.704   2.146  0.2995  0.0639  0.6587
 1277ntf    on5 9969   3.809   5.782   2.269  0.0002 -0.0250 -0.2546
 1277ntf    on5 9970   3.700   5.666   2.086 -0.3789  0.4684  0.6478
 1277ntf    on5 9971   3.676   5.364   2.188  0.1928 -0.0096 -0.1926
 1277ntf    on5 9972   3.908   5.295   2.182  0.1131  0.1058 -0.3975
 1277ntf    fn4 9973   3.695   5.389   2.481 -0.6424 -0.6057 -0.0945
 1277ntf    fn4 9974   3.909   5.352   2.481 -0.2145  0.3617  0.3643
 1277ntf    fn4 9975   3.783   5.207   2.426  0.3958  0.0273  0.1561
 1278ntf    cn1 9976   1.353   0.605   4.724 -0.4501 -0.2804 -0.0594
 1278ntf    sn2 9977   1.533   0.605   4.752 -0.4712  0.1575  0.0779
 1278ntf    nn3 9978   1.558   0.451   4.737  0.0144  0.2933 -0.5080
 1278ntf    sn2 9979   1.606   0.374   4.608  0.2275 -0.0323 -0.2346
 1278ntf    cn1 9980   1.628   0.210   4.684 -0.3674  0.1993  0.4495
 1278ntf    fn4 9981   1.292   0.513   4.796 -0.1574 -0.1500  0.3551
 1278ntf    fn4 9982   1.298   0.722   4.752 -0.2884 -0.1292 -0.3672
 1278ntf    fn4 9983   1.327   0.577   4.597  0.8879  0.2727 -0.4818
 1278ntf    on5 9984   1.585   0.689   4.647  0.1159 -0.0934  0.1671
 1278ntf    on5 9985   1.561   0.649   4.886 -0.6408 -0.3234  0.2742
 1278ntf    on5 9986   1.510   0.349   4.504  0.0053  0.1842 -0.0844
 1278ntf    on5 9987   1.743   0.401   4.572  0.2386 -0.5179 -0.5620
 1278ntf    fn4 9988   1.515   0.163   4.735 -0.1661 -0.2795  0.4541
 1278ntf    fn4 9989   1.724   0.217   4.776 -0.0796  0.2026  0.1490
 1278ntf    fn4 9990   1.672   0.122   4.596  0.0703  0.2647  0.5993
 1279ntf    cn1 9991   1.789   3.913   2.812  0.5042 -0.1273 -0.3246
 1279ntf    sn2 9992   1.825   3.765   2.911 -0.3633 -0.0578  0.0958
 1279ntf    nn3 9993   1.960   3.802   2.981 -0.3032 -0.3214  0.1190
 1279ntf    sn2 9994   1.982   3.833   3.133 -0.2488 -0.0837  0.0622
 1279ntf    cn1 9995   2.102   3.970   3.143  0.0007 -0.3042  0.1180
 1279ntf    fn4 9996   1.876   3.945   2.717  0.0704  0.3223 -0.5760
 1279ntf    fn4 9997   1.673   3.916   2.748  0.2875 -0.9164  0.0227
 1279ntf    fn4 9998   1.788   4.020   2.890  0.4147 -0.2684 -0.1347
 1279ntf    on5 9999   1.710   3.765   2.998 -0.2977 -0.0671  0.1821
 1279ntf    on510000   1.844   3.657   2.818 -0.7101 -0.1204  0.0954
 1279ntf    on510001   1.871   3.888   3.207 -0.3677 -0.1579 -0.0628
 1279ntf    on510002   2.062   3.735   3.202 -0.0953  0.0257  0.0432
 1279ntf    fn410003   2.221   3.924   3.111 -0.0972 -0.4403 -0.0508
 1279ntf    fn410004   2.100   4.010   3.269  0.2501  0.2930 -0.0632
 1279ntf    fn410005   2.069   4.076   3.070 -0.2365 -0.4972 -0.0574
 1280ntf    cn110006   5.429   3.767   0.816 -0.4055  0.4229 -0.1746
 1280ntf    sn210007   5.285   3.665   0.772  0.1183 -0.2577 -0.3381
 1280ntf    nn310008   5.323   3.532   0.846  0.1889 -0.1903 -0.2528
 1280ntf    sn210009   5.232   3.444   0.938  0.0073  0.5349  0.2716
 1280ntf    cn110010   5.312   3.281   0.940 -0.3442  0.3581  0.0517
 1280ntf    fn410011   5.430   3.888   0.765 -0.0152  0.5120  0.0392
 1280ntf    fn410012   5.425   3.785   0.947 -0.3513 -0.0510 -0.1044
 1280ntf    fn410013   5.542   3.707   0.782 -0.7148 -0.2619 -0.0264
 1280ntf    on510014   5.174   3.741   0.824  0.1414 -0.5474  0.1400
 1280ntf    on510015   5.293   3.646   0.629  0.1588 -0.0852 -0.3586
 1280ntf    on510016   5.236   3.472   1.079 -0.5069 -0.0129  0.3984
 1280ntf    on510017   5.100   3.410   0.889  0.0971 -0.3124  0.5987
 1280ntf    fn410018   5.298   3.214   0.826 -0.1398  0.0988  0.1776
 1280ntf    fn410019   5.251   3.197   1.022 -0.1318 -0.1354 -0.2865
 1280ntf    fn410020   5.440   3.288   0.971 -0.3146  0.3718 -0.0740
 1281ntf    cn110021   4.956   3.939   3.216  0.2732 -0.0386  0.1816
 1281ntf    sn210022   5.027   4.102   3.180  0.1611 -0.0872 -0.2699
 1281ntf    nn310023   5.134   4.123   3.293  0.1442  0.0593 -0.2815
 1281ntf    sn210024   5.206   4.258   3.328 -0.0909  0.1273 -0.0628
 1281ntf    cn110025   5.366   4.221   3.249  0.0154  0.0196  0.1988
 1281ntf    fn410026   4.920   3.917   3.341  0.1953  0.1387  0.1904
 1281ntf    fn410027   4.847   3.927   3.141  0.1498  0.4560  0.2840
 1281ntf    fn410028   5.038   3.845   3.172  1.0463  0.6337  0.1837
 1281ntf    on510029   5.073   4.079   3.045  1.0460  0.1622 -0.0188
 1281ntf    on510030   4.909   4.184   3.195  0.3655  0.1925 -0.1854
 1281ntf    on510031   5.152   4.377   3.267  0.0333 -0.0200 -0.4637
 1281ntf    on510032   5.240   4.270   3.468 -0.2731 -0.4390  0.0335
 1281ntf    fn410033   5.457   4.315   3.263 -0.2454  0.2765  0.1873
 1281ntf    fn410034   5.352   4.204   3.118 -0.0292 -0.0574  0.2134
 1281ntf    fn410035   5.412   4.107   3.298 -0.0377  0.0205  0.2509
 1282ntf    cn110036   1.471   5.610   6.056  0.3219 -0.1685 -0.2678
 1282ntf    sn210037   1.494   5.438   6.111  0.1769  0.0217  0.3977
 1282ntf    nn310038   1.395   5.358   6.018  0.3647  0.2922 -0.0378
 1282ntf    sn210039   1.432   5.239   5.923 -0.0347 -0.0437  0.2222
 1282ntf    cn110040   1.499   5.325   5.777  0.2151 -0.1669  0.2643
 1282ntf    fn410041   1.512   5.623   5.931  0.1282 -0.4940 -0.3673
 1282ntf    fn410042   1.342   5.637   6.060  0.3280 -0.1361 -0.2952
 1282ntf    fn410043   1.529   5.689   6.145  0.3101  0.0812 -0.4829
 1282ntf    on510044   1.635   5.417   6.090  0.0047 -0.7843  0.0123
 1282ntf    on510045   1.450   5.446   6.248  0.6467  0.2567  0.5369
 1282ntf    on510046   1.530   5.147   5.974  0.4017  0.4134  0.2268
 1282ntf    on510047   1.318   5.173   5.864  0.0584  0.2616 -0.3150
 1282ntf    fn410048   1.614   5.383   5.805  0.1020  0.4201 -0.4542
 1282ntf    fn410049   1.419   5.415   5.722  0.5971  0.1459  0.2187
 1282ntf    fn410050   1.528   5.245   5.675 -0.7704 -0.3194  0.0900
 1283ntf    cn110051   6.178   4.825   3.301  0.0678 -0.3954 -0.0112
 1283ntf    sn210052   6.008   4.852   3.242  0.1384  0.1721  0.0395
 1283ntf    nn310053   5.941   4.917   3.367  0.2802  0.3170  0.0403
 1283ntf    sn210054   5.910   5.068   3.397 -0.0239  0.3101 -0.2354
 1283ntf    cn110055   5.768   5.098   3.288 -0.1543 -0.0571 -0.1671
 1283ntf    fn410056   6.183   4.722   3.385 -0.0134 -0.4178 -0.0340
 1283ntf    fn410057   6.261   4.795   3.203  0.0500 -0.1206 -0.1104
 1283ntf    fn410058   6.229   4.925   3.371  0.2396 -0.5262  0.0506
 1283ntf    on510059   6.020   4.947   3.134  0.2271 -0.1397 -0.2270
 1283ntf    on510060   5.960   4.720   3.210  0.1097  0.3101 -0.5018
 1283ntf    on510061   5.854   5.084   3.529  1.1158 -0.0216  0.2982
 1283ntf    on510062   6.018   5.156   3.359  0.3620 -0.0462  0.0282
 1283ntf    fn410063   5.791   5.080   3.159 -0.5665 -0.4460 -0.1897
 1283ntf    fn410064   5.722   5.220   3.313 -0.0477 -0.0873  0.1808
 1283ntf    fn410065   5.677   5.007   3.319  0.1509 -0.1210  0.5535
 1284ntf    cn110066   1.275   4.135   3.707 -0.2697 -0.0799 -0.0866
 1284ntf    sn210067   1.448   4.088   3.734 -0.2380  0.1320  0.0829
 1284ntf    nn310068   1.433   3.931   3.740 -0.0031  0.0945 -0.2759
 1284ntf    sn210069   1.499   3.839   3.849  0.1234  0.2436 -0.2262
 1284ntf    cn110070   1.390   3.850   3.994 -0.0744 -0.3271 -0.3310
 1284ntf    fn410071   1.195   4.085   3.800  0.2933 -0.2234  0.3252
 1284ntf    fn410072   1.249   4.265   3.709  0.3077  0.0392 -0.0630
 1284ntf    fn410073   1.234   4.100   3.586  0.1243 -0.5762 -0.0799
 1284ntf    on510074   1.509   4.128   3.610 -0.5521  0.1973 -0.0512
 1284ntf    on510075   1.480   4.153   3.858  0.1355 -0.0846  0.1038
 1284ntf    on510076   1.494   3.699   3.818 -0.1082  0.1806  0.0887
 1284ntf    on510077   1.627   3.891   3.892  0.0284  0.5874 -0.3585
 1284ntf    fn410078   1.269   3.807   3.964 -0.1995 -0.6130  0.5465
 1284ntf    fn410079   1.373   3.975   4.034  0.7878 -0.2570 -0.1717
 1284ntf    fn410080   1.437   3.771   4.089  0.0215  0.0972 -0.0238
 1285ntf    cn110081   0.194   5.091   2.372 -0.2348 -0.3264  0.0620
 1285ntf    sn210082   0.243   4.921   2.416 -0.2470 -0.3452  0.0016
 1285ntf    nn310083   0.292   4.877   2.274 -0.1468 -0.4560  0.0704
 1285ntf    sn210084   0.373   4.749   2.234  0.0783 -0.3244  0.1011
 1285ntf    cn110085   0.276   4.612   2.304  0.2081 -0.5588 -0.1770
 1285ntf    fn410086   0.297   5.152   2.316 -0.5285  0.3459  0.2495
 1285ntf    fn410087   0.096   5.096   2.284  0.0874  0.1665 -0.2752
 1285ntf    fn410088   0.148   5.158   2.477 -0.2742 -0.2136 -0.0273
 1285ntf    on510089   0.356   4.938   2.504 -0.3202  0.2143 -0.0089
 1285ntf    on510090   0.118   4.867   2.465 -0.2153 -0.1217  0.3335
 1285ntf    on510091   0.373   4.722   2.093 -0.1432 -0.3681  0.1095
 1285ntf    on510092   0.501   4.741   2.301 -0.2221 -0.2607  0.6956
 1285ntf    fn410093   0.326   4.497   2.262 -0.0448 -0.7585  0.0651
 1285ntf    fn410094   0.148   4.610   2.268  0.0242  0.0241  0.4231
 1285ntf    fn410095   0.282   4.616   2.436 -0.3757 -0.3943 -0.1535
 1286ntf    cn110096   1.421   2.177   2.250 -0.2078 -0.0800 -0.3318
 1286ntf    sn210097   1.524   2.088   2.129  0.0332 -0.0855 -0.1232
 1286ntf    nn310098   1.658   2.169   2.141 -0.0167  0.0106 -0.2144
 1286ntf    sn210099   1.785   2.123   2.220 -0.2184 -0.0020  0.1009
 1286ntf    cn110100   1.840   2.282   2.289 -0.2741  0.0650 -0.0084
 1286ntf    fn410101   1.479   2.199   2.366  0.2216 -0.0624 -0.5471
 1286ntf    fn410102   1.376   2.288   2.194  0.1101 -0.0341 -0.4971
 1286ntf    fn410103   1.310   2.109   2.277 -0.3665  0.4721  0.4411
 1286ntf    on510104   1.531   1.952   2.176  0.2578 -0.0918 -0.1756
 1286ntf    on510105   1.453   2.115   2.006  0.1697  0.5284 -0.0694
 1286ntf    on510106   1.762   2.042   2.337 -0.4525 -0.5809 -0.3466
 1286ntf    on510107   1.889   2.083   2.129 -0.8930 -1.2072 -0.1588
 1286ntf    fn410108   1.834   2.385   2.206  0.2330  0.1825  0.0950
 1286ntf    fn410109   1.969   2.281   2.318 -0.1521  0.2223 -0.5356
 1286ntf    fn410110   1.781   2.324   2.400 -0.0969  0.0688  0.0861
 1287ntf    cn110111   2.900   0.154   4.075  0.1720  0.0629 -0.0209
 1287ntf    sn210112   2.965   0.098   3.915  0.2331  0.4600 -0.1358
 1287ntf    nn310113   2.855   0.139   3.809  0.3026 -0.1015 -0.4294
 1287ntf    sn210114   2.728   0.065   3.754  0.0968 -0.1258  0.0723
 1287ntf    cn110115   2.798   0.005   3.598  0.2870 -0.0684  0.1357
 1287ntf    fn410116   2.978   0.118   4.175  0.7000  0.0221 -0.4435
 1287ntf    fn410117   2.908   0.286   4.070  0.4099  0.0408 -0.2480
 1287ntf    fn410118   2.775   0.122   4.103  0.0584  0.4801 -0.0503
 1287ntf    on510119   3.083   0.180   3.904  0.6579 -0.2236 -0.7272
 1287ntf    on510120   2.995  -0.043   3.924 -0.1091  0.3828 -0.1861
 1287ntf    on510121   2.681  -0.053   3.822  0.1067 -0.0531  0.2066
 1287ntf    on510122   2.629   0.162   3.715  0.7335  0.3772 -0.3224
 1287ntf    fn410123   2.740   0.059   3.492 -0.1942 -0.3598  0.2521
 1287ntf    fn410124   2.774  -0.124   3.587  0.1689 -0.0148 -0.2590
 1287ntf    fn410125   2.929   0.023   3.584  0.3016  0.0681  0.4389
 1288ntf    cn110126   6.577   3.653   3.400 -0.5579  0.1652 -0.2925
 1288ntf    sn210127   6.638   3.619   3.567 -0.0934  0.0849 -0.4777
 1288ntf    nn310128   6.751   3.727   3.580 -0.1423  0.1390 -0.5027
 1288ntf    sn210129   6.908   3.714   3.574 -0.1284  0.0524  0.0607
 1288ntf    cn110130   6.952   3.712   3.751  0.4136 -0.4507 -0.0776
 1288ntf    fn410131   6.517   3.770   3.386  0.0444  0.5164  0.0236
 1288ntf    fn410132   6.686   3.657   3.325 -0.1196 -0.0452  0.3289
 1288ntf    fn410133   6.495   3.558   3.356 -0.1807 -0.3723  0.1606
 1288ntf    on510134   6.524   3.657   3.647  0.1394 -0.1569 -0.0224
 1288ntf    on510135   6.684   3.482   3.572  0.2190  0.1983 -0.1431
 1288ntf    on510136   6.970   3.595   3.521  0.1222 -0.0837  0.6464
 1288ntf    on510137   6.967   3.841   3.539  0.1030 -0.0096  0.2186
 1288ntf    fn410138   6.878   3.627   3.820 -0.1056  0.1693  0.1342
 1288ntf    fn410139   6.947   3.830   3.810 -0.3511 -0.7025  0.3669
 1288ntf    fn410140   7.075   3.668   3.772  0.6090  0.1299  0.0061
 1289ntf    cn110141   6.503   4.035   5.405  0.1243 -0.2054 -0.0454
 1289ntf    sn210142   6.493   4.208   5.352  0.3644 -0.0820  0.3079
 1289ntf    nn310143   6.619   4.222   5.259 -0.0897  0.0923 -0.2888
 1289ntf    sn210144   6.742   4.317   5.276 -0.0848 -0.0171  0.3389
 1289ntf    cn110145   6.687   4.466   5.188 -0.1994 -0.1671  0.1558
 1289ntf    fn410146   6.624   4.004   5.448 -0.0146  0.0183  0.5144
 1289ntf    fn410147   6.419   4.009   5.504 -0.7419  0.3382 -0.6322
 1289ntf    fn410148   6.482   3.958   5.299 -0.0778 -0.3226  0.0787
 1289ntf    on510149   6.370   4.212   5.277  0.4805 -0.0048  0.1221
 1289ntf    on510150   6.490   4.282   5.476 -0.0899  0.1914  0.1367
 1289ntf    on510151   6.782   4.357   5.409 -0.1759  0.1354  0.3211
 1289ntf    on510152   6.857   4.275   5.200 -0.7826 -0.2505 -0.6026
 1289ntf    fn410153   6.762   4.574   5.207 -0.4296  0.0305 -0.0386
 1289ntf    fn410154   6.565   4.504   5.220 -0.3332 -0.5159  0.0615
 1289ntf    fn410155   6.674   4.452   5.057  0.2710  0.1016  0.0749
 1290ntf    cn110156   1.242   1.662   2.831 -0.1289 -0.0793 -0.0669
 1290ntf    sn210157   1.220   1.768   2.978 -0.2925 -0.1249 -0.0586
 1290ntf    nn310158   1.135   1.883   2.911  0.2840  0.4198  0.1385
 1290ntf    sn210159   0.990   1.933   2.946  0.0767 -0.2118  0.1991
 1290ntf    cn110160   1.011   2.112   2.966  0.3373 -0.2576  0.3471
 1290ntf    fn410161   1.126   1.626   2.779 -0.3781  0.2833  0.2234
 1290ntf    fn410162   1.308   1.722   2.734  0.3913  0.0158  0.3418
 1290ntf    fn410163   1.318   1.558   2.861 -0.4430 -0.2406  0.1738
 1290ntf    on510164   1.165   1.678   3.076 -0.5731 -0.1824 -0.2647
 1290ntf    on510165   1.355   1.808   3.007 -0.5086  0.2118  0.4874
 1290ntf    on510166   0.901   1.921   2.833  0.1392 -0.5955  0.1864
 1290ntf    on510167   0.938   1.882   3.070  0.6154 -0.1551  0.4528
 1290ntf    fn410168   0.896   2.176   2.982  0.6730  0.2659  0.7203
 1290ntf    fn410169   1.067   2.176   2.865 -0.2447  0.2167  0.3147
 1290ntf    fn410170   1.092   2.135   3.068  0.5215  0.3348  0.0749
 1291ntf    cn110171   5.676   2.554   5.520  0.1330  0.5709 -0.1497
 1291ntf    sn210172   5.736   2.703   5.435  0.4237  0.5078 -0.0562
 1291ntf    nn310173   5.606   2.792   5.433  0.0281 -0.0668 -0.0566
 1291ntf    sn210174   5.557   2.902   5.333 -0.0198  0.0628  0.1097
 1291ntf    cn110175   5.442   2.797   5.240 -0.5390 -0.0623  0.8775
 1291ntf    fn410176   5.776   2.476   5.557 -0.3731 -0.0068  0.0055
 1291ntf    fn410177   5.589   2.584   5.615  0.5047 -0.1642  0.4299
 1291ntf    fn410178   5.607   2.482   5.433  0.1058  0.2138  0.1625
 1291ntf    on510179   5.832   2.754   5.530  0.5899  0.3368 -0.1322
 1291ntf    on510180   5.786   2.655   5.308  0.8435  0.2767  0.1935
 1291ntf    on510181   5.458   2.989   5.392  0.1139  0.2450  0.0647
 1291ntf    on510182   5.651   2.947   5.234  0.1666  0.1971  0.3466
 1291ntf    fn410183   5.331   2.753   5.297 -1.2206 -0.2104 -0.5102
 1291ntf    fn410184   5.502   2.687   5.199 -0.5853 -0.0001  0.6411
 1291ntf    fn410185   5.405   2.867   5.133  0.0423 -0.0823  0.6577
 1292ntf    cn110186   0.120   5.179   3.081 -0.4097 -0.8491  0.2085
 1292ntf    sn210187   0.202   5.017   3.079  0.2098 -0.5375 -0.2448
 1292ntf    nn310188   0.135   4.949   3.204 -0.0091  0.3190  0.1084
 1292ntf    sn210189   0.008   4.857   3.206  0.3096 -0.1212  0.1419
 1292ntf    cn110190   0.024   4.790   3.374 -0.1423 -0.1966  0.1554
 1292ntf    fn410191   0.166   5.259   3.176 -0.1815  0.0669 -0.6486
 1292ntf    fn410192   0.145   5.250   2.971  0.7740 -0.3586  0.7740
 1292ntf    fn410193  -0.011   5.175   3.094 -0.4885  0.1869 -0.1110
 1292ntf    on510194   0.160   4.960   2.953 -0.3360  0.3357 -0.4679
 1292ntf    on510195   0.342   5.048   3.093  0.1403 -0.4603  0.3130
 1292ntf    on510196  -0.115   4.932   3.215  0.0959 -0.4570  0.0140
 1292ntf    on510197   0.006   4.743   3.118  0.0365  0.0396 -0.0643
 1292ntf    fn410198  -0.078   4.713   3.411 -0.1587  0.1724  0.9077
 1292ntf    fn410199   0.017   4.890   3.460 -0.5651  0.1966 -0.3299
 1292ntf    fn410200   0.139   4.727   3.391  0.2963  0.3791 -0.6150
 1293ntf    cn110201   4.428   6.029   5.964  0.1647 -0.2426  0.0389
 1293ntf    sn210202   4.368   6.085   6.127  0.1653  0.1672 -0.1014
 1293ntf    nn310203   4.468   6.202   6.160  0.3491 -0.0086 -0.0331
 1293ntf    sn210204   4.464   6.352   6.111 -0.0434  0.0033  0.0330
 1293ntf    cn110205   4.377   6.433   6.248  0.3037  0.2923  0.0823
 1293ntf    fn410206   4.421   6.122   5.870  0.3309  0.1678  0.4287
 1293ntf    fn410207   4.554   5.989   5.965  0.1415 -0.3232 -0.2264
 1293ntf    fn410208   4.352   5.929   5.922 -0.1518 -0.0519  0.1467
 1293ntf    on510209   4.228   6.115   6.109  0.0453 -0.3903 -0.1165
 1293ntf    on510210   4.384   5.973   6.215  0.0162  0.3647  0.1779
 1293ntf    on510211   4.597   6.406   6.120  0.1714 -0.5572  0.2908
 1293ntf    on510212   4.390   6.383   5.991  0.3927 -0.0250 -0.2426
 1293ntf    fn410213   4.250   6.402   6.271  0.1654  0.6665 -0.1641
 1293ntf    fn410214   4.365   6.562   6.224 -0.1242  0.2155 -0.1263
 1293ntf    fn410215   4.438   6.416   6.364  0.3866  0.5059  0.0702
 1294ntf    cn110216   2.400   3.587   2.439 -0.4238  0.1201 -0.3375
 1294ntf    sn210217   2.530   3.687   2.359 -0.1759  0.1980  0.1596
 1294ntf    nn310218   2.450   3.817   2.321 -0.0994  0.1823 -0.0552
 1294ntf    sn210219   2.441   3.953   2.399  0.1437  0.1508  0.0275
 1294ntf    cn110220   2.481   4.071   2.267 -0.2404  0.0950 -0.1406
 1294ntf    fn410221   2.366   3.640   2.556  0.0881 -0.3303  0.0194
 1294ntf    fn410222   2.301   3.568   2.353 -0.0780 -0.3763 -0.6282
 1294ntf    fn410223   2.450   3.469   2.470 -0.1931  0.3203  0.0686
 1294ntf    on510224   2.632   3.694   2.461  0.0461 -0.3067 -0.0270
 1294ntf    on510225   2.560   3.616   2.238  0.2178 -0.1028  0.4319
 1294ntf    on510226   2.304   3.977   2.438 -0.2370 -0.5642 -0.8254
 1294ntf    on510227   2.536   3.972   2.506 -0.0444 -0.0147  0.2252
 1294ntf    fn410228   2.386   4.090   2.177 -0.1310  0.0263 -0.2690
 1294ntf    fn410229   2.589   4.032   2.202 -0.2672 -0.5268  0.1799
 1294ntf    fn410230   2.518   4.187   2.319 -0.2464 -0.1938  0.5296
 1295ntf    cn110231   1.617   6.436   5.637 -0.2987  0.5110  0.1394
 1295ntf    sn210232   1.456   6.390   5.566 -0.1505 -0.1246  0.2019
 1295ntf    nn310233   1.408   6.537   5.536 -0.4081 -0.1855  0.3147
 1295ntf    sn210234   1.416   6.611   5.398 -0.4583 -0.2088  0.2987
 1295ntf    cn110235   1.250   6.571   5.336 -0.3396 -0.4400  0.1262
 1295ntf    fn410236   1.683   6.333   5.687 -0.2766  0.1956 -0.5193
 1295ntf    fn410237   1.698   6.491   5.548  0.2302 -0.3780  0.0548
 1295ntf    fn410238   1.601   6.517   5.740 -0.4119  0.1527  0.4045
 1295ntf    on510239   1.495   6.308   5.454 -0.1508 -0.4311  0.4256
 1295ntf    on510240   1.396   6.329   5.681  0.2963 -0.2013  0.3947
 1295ntf    on510241   1.419   6.754   5.413  0.2162 -0.1672 -0.1442
 1295ntf    on510242   1.505   6.567   5.293 -0.0926  0.4650  0.3171
 1295ntf    fn410243   1.156   6.619   5.416 -0.0231  0.0154  0.2333
 1295ntf    fn410244   1.239   6.439   5.337  0.2114 -0.4884 -0.0451
 1295ntf    fn410245   1.226   6.612   5.213 -0.0703 -0.5480  0.0382
 1296ntf    cn110246   5.786   1.109   3.453  0.1864 -0.2288 -0.2112
 1296ntf    sn210247   5.758   1.191   3.612 -0.0170 -0.0292 -0.3486
 1296ntf    nn310248   5.673   1.078   3.679 -0.2861  0.5041  0.2217
 1296ntf    sn210249   5.660   1.039   3.831  0.6622  0.1501  0.2164
 1296ntf    cn110250   5.482   1.070   3.853  0.6164  0.2319 -0.2613
 1296ntf    fn410251   5.675   1.062   3.398  0.0528  0.2566 -0.3614
 1296ntf    fn410252   5.840   1.190   3.363 -0.3996 -0.1012 -0.4582
 1296ntf    fn410253   5.867   1.006   3.468  0.1929 -0.1695  0.1598
 1296ntf    on510254   5.891   1.195   3.669 -0.1755  0.1520  0.0141
 1296ntf    on510255   5.688   1.312   3.577  0.0838  0.0903 -0.1439
 1296ntf    on510256   5.658   0.898   3.862 -0.4929  0.0789 -0.1235
 1296ntf    on510257   5.720   1.125   3.929 -0.0543  0.5108  0.3431
 1296ntf    fn410258   5.433   1.048   3.973 -0.1063 -0.5312 -0.6904
 1296ntf    fn410259   5.394   1.007   3.777  0.0168  0.1607  0.4826
 1296ntf    fn410260   5.454   1.198   3.832  0.3001  0.2653  0.3491
 1297ntf    cn110261   6.065   1.937   3.007  0.0838 -0.2921 -0.1733
 1297ntf    sn210262   5.972   1.782   2.988  0.1547 -0.3560 -0.0043
 1297ntf    nn310263   6.096   1.688   2.966  0.4943  0.0746  0.0486
 1297ntf    sn210264   6.174   1.612   3.079  0.3321 -0.1314  0.0227
 1297ntf    cn110265   6.086   1.453   3.081 -0.0632  0.0854  0.0926
 1297ntf    fn410266   6.172   1.937   3.085 -0.2275  0.4751  0.2638
 1297ntf    fn410267   6.102   1.986   2.890  0.3526 -0.2763 -0.0834
 1297ntf    fn410268   5.985   2.032   3.053  0.2269 -0.0405 -0.4388
 1297ntf    on510269   5.890   1.764   3.105 -0.1516  0.2277 -0.1254
 1297ntf    on510270   5.901   1.799   2.864  0.9152 -0.1870 -0.4241
 1297ntf    on510271   6.308   1.580   3.036  0.3967  0.3949 -0.1792
 1297ntf    on510272   6.161   1.661   3.214 -0.5634  0.1679 -0.1668
 1297ntf    fn410273   6.155   1.348   3.122  0.0495 -0.1772 -0.7465
 1297ntf    fn410274   6.044   1.418   2.960 -0.5487  0.2428  0.2141
 1297ntf    fn410275   5.980   1.457   3.160 -0.1063  0.2415  0.0270
 1298ntf    cn110276   3.583   4.063   4.818  0.4093  0.1693  0.3191
 1298ntf    sn210277   3.528   3.974   4.967 -0.1087 -0.2665 -0.1287
 1298ntf    nn310278   3.578   4.077   5.074  0.1563 -0.0948 -0.4172
 1298ntf    sn210279   3.491   4.157   5.176  0.4104  0.0061 -0.2781
 1298ntf    cn110280   3.492   4.055   5.327 -0.5416  0.4870  0.0692
 1298ntf    fn410281   3.523   4.180   4.805  0.1183 -0.0033  0.0732
 1298ntf    fn410282   3.710   4.098   4.818  0.2409  0.8035  0.8929
 1298ntf    fn410283   3.560   4.000   4.704  0.7643  0.1997  0.2306
 1298ntf    on510284   3.386   3.962   4.943 -0.0798 -0.3149 -0.2789
 1298ntf    on510285   3.601   3.850   4.971  0.6743  0.2020  0.2506
 1298ntf    on510286   3.567   4.267   5.229 -0.4020  0.4836 -0.0814
 1298ntf    on510287   3.351   4.178   5.149  0.4298  0.4538 -0.0415
 1298ntf    fn410288   3.457   4.116   5.439 -0.0259 -0.1763  0.6024
 1298ntf    fn410289   3.611   4.000   5.345 -0.7708 -0.0200  0.0502
 1298ntf    fn410290   3.408   3.954   5.320  0.3900 -0.3049  0.0959
 1299ntf    cn110291   4.485   2.498   1.027 -0.0918 -0.2441  0.5065
 1299ntf    sn210292   4.634   2.504   1.131  0.3806 -0.0951 -0.1695
 1299ntf    nn310293   4.704   2.633   1.076  0.3611 -0.4442 -1.0154
 1299ntf    sn210294   4.858   2.655   1.059  0.4285 -0.0410  0.0782
 1299ntf    cn110295   4.873   2.770   1.199 -0.2094  0.1611 -0.0196
 1299ntf    fn410296   4.518   2.501   0.899  0.7858  0.2724  0.7402
 1299ntf    fn410297   4.414   2.389   1.049  0.3124 -0.4668  0.7271
 1299ntf    fn410298   4.407   2.603   1.048  0.1368  0.1565 -0.6161
 1299ntf    on510299   4.593   2.512   1.269  0.0701  0.1656 -0.2761
 1299ntf    on510300   4.679   2.371   1.099  0.3593 -0.1168 -0.1100
 1299ntf    on510301   4.948   2.552   1.106  0.9128  0.3487  0.0053
 1299ntf    on510302   4.897   2.727   0.940  0.0621  0.1475  0.0726
 1299ntf    fn410303   4.869   2.707   1.315 -0.1479  0.0671 -0.0687
 1299ntf    fn410304   4.785   2.869   1.201 -0.2058  0.1570  0.4915
 1299ntf    fn410305   4.985   2.840   1.198 -0.3974  0.4606 -0.2770
 1300ntf    cn110306   0.336   0.185   2.252 -0.0872 -0.2299  0.2167
 1300ntf    sn210307   0.412   0.276   2.390 -0.1463 -0.0625  0.1394
 1300ntf    nn310308   0.561   0.229   2.371 -0.0029  0.4520 -0.0380
 1300ntf    sn210309   0.684   0.292   2.296  0.3110  0.1201  0.1983
 1300ntf    cn110310   0.722   0.162   2.175  0.1140 -0.0239  0.2893
 1300ntf    fn410311   0.209   0.219   2.235 -0.1675 -0.5215  0.2362
 1300ntf    fn410312   0.400   0.207   2.138 -0.3288 -0.0408  0.1147
 1300ntf    fn410313   0.347   0.056   2.278 -0.1365 -0.2233  0.2720
 1300ntf    on510314   0.398   0.418   2.366  0.4409 -0.0878 -0.3944
 1300ntf    on510315   0.355   0.220   2.509 -0.0774  0.7012  0.5393
 1300ntf    on510316   0.663   0.412   2.219 -0.0121 -0.2950 -0.3735
 1300ntf    on510317   0.800   0.290   2.382  0.3401  0.7058  0.1727
 1300ntf    fn410318   0.771   0.049   2.223 -0.0971 -0.5545 -0.7166
 1300ntf    fn410319   0.820   0.200   2.094  0.6283 -0.0920  0.8703
 1300ntf    fn410320   0.614   0.130   2.106  0.0638  0.2970  0.2162
 1301ntf    cn110321   2.546   3.472   1.610 -0.3809 -0.4757  0.0693
 1301ntf    sn210322   2.403   3.578   1.570 -0.2046 -0.3598 -0.2654
 1301ntf    nn310323   2.344   3.494   1.451 -0.3882 -0.6252  0.0099
 1301ntf    sn210324   2.346   3.528   1.298  0.1691  0.1482  0.1835
 1301ntf    cn110325   2.187   3.608   1.260  0.1027  0.0312  0.2165
 1301ntf    fn410326   2.615   3.432   1.504  0.1441  0.1939  0.1511
 1301ntf    fn410327   2.633   3.534   1.688 -0.6336 -0.2195  0.1484
 1301ntf    fn410328   2.515   3.362   1.676  0.1041 -0.2624  0.6604
 1301ntf    on510329   2.326   3.555   1.690 -0.3997  0.1925 -0.2872
 1301ntf    on510330   2.460   3.709   1.553  0.0642 -0.4325  0.0533
 1301ntf    on510331   2.438   3.630   1.253  0.1666 -0.1432 -0.4883
 1301ntf    on510332   2.337   3.407   1.221  0.1626  0.2602  0.0067
 1301ntf    fn410333   2.155   3.702   1.347  0.0910  0.2178  0.0097
 1301ntf    fn410334   2.091   3.517   1.258  0.1998 -0.0626 -0.1614
 1301ntf    fn410335   2.188   3.667   1.142  0.3052  0.2018  0.3031
 1302ntf    cn110336   1.437   5.642   1.942 -0.1489 -0.2010  0.0837
 1302ntf    sn210337   1.332   5.557   2.064 -0.3203 -0.1074  0.0010
 1302ntf    nn310338   1.317   5.681   2.159  0.2198  0.5443 -0.7434
 1302ntf    sn210339   1.387   5.717   2.296 -0.2632 -0.0478 -0.3353
 1302ntf    cn110340   1.248   5.771   2.399 -0.0550  0.0158 -0.0898
 1302ntf    fn410341   1.390   5.762   1.913 -0.2901 -0.2718  0.0203
 1302ntf    fn410342   1.560   5.658   1.987 -0.2046 -0.0671  0.1890
 1302ntf    fn410343   1.433   5.578   1.826  0.0347  0.5321 -0.3345
 1302ntf    on510344   1.213   5.549   1.982 -0.1032 -0.2120 -0.3074
 1302ntf    on510345   1.420   5.450   2.102  0.2267  0.4055  0.1978
 1302ntf    on510346   1.425   5.601   2.373 -0.3003 -0.0540 -0.3270
 1302ntf    on510347   1.474   5.831   2.284 -0.0152 -0.1882  0.1209
 1302ntf    fn410348   1.182   5.874   2.348  0.1411  0.0451 -0.2849
 1302ntf    fn410349   1.288   5.811   2.519  0.3548  0.2385 -0.3002
 1302ntf    fn410350   1.160   5.674   2.417  0.4244 -0.4352 -0.1396
 1303ntf    cn110351   2.250   4.649   3.961  0.0794 -0.0389 -0.1682
 1303ntf    sn210352   2.385   4.770   3.944  0.1049 -0.0465 -0.0191
 1303ntf    nn310353   2.333   4.888   4.034 -0.0771  0.0702 -0.2779
 1303ntf    sn210354   2.258   5.019   3.991  0.0918  0.2717  0.0378
 1303ntf    cn110355   2.395   5.128   3.942  0.2686  0.0961  0.1421
 1303ntf    fn410356   2.275   4.524   3.924 -0.2589 -0.2594  0.3255
 1303ntf    fn410357   2.212   4.635   4.087  0.0853  0.0539 -0.1564
 1303ntf    fn410358   2.140   4.694   3.903  0.0793  0.1329 -0.0345
 1303ntf    on510359   2.497   4.706   4.010  0.2918  0.1228 -0.1728
 1303ntf    on510360   2.396   4.793   3.802 -0.4470  0.3402 -0.0032
 1303ntf    on510361   2.179   5.011   3.870  0.3259 -0.1451 -0.0913
 1303ntf    on510362   2.203   5.086   4.105 -0.2262 -0.2567  0.1967
 1303ntf    fn410363   2.472   5.073   3.849  0.4145  0.0456  0.2938
 1303ntf    fn410364   2.475   5.155   4.044  0.2048  0.0230  0.2120
 1303ntf    fn410365   2.363   5.245   3.888  1.0572  0.3155  0.1359
 1304ntf    cn110366   3.819   0.507   2.467  0.0346 -0.2463  0.2926
 1304ntf    sn210367   3.654   0.561   2.520  0.1442 -0.1204  0.5083
 1304ntf    nn310368   3.565   0.499   2.407 -0.3017  0.5564  0.4820
 1304ntf    sn210369   3.541   0.560   2.264  0.0011 -0.1595  0.1173
 1304ntf    cn110370   3.359   0.556   2.260  0.0054  0.1256 -0.5636
 1304ntf    fn410371   3.910   0.571   2.540 -0.1887 -0.1338  0.4721
 1304ntf    fn410372   3.837   0.376   2.468 -0.2209 -0.2832  0.1715
 1304ntf    fn410373   3.829   0.547   2.341 -0.3559 -0.2114  0.2712
 1304ntf    on510374   3.640   0.500   2.650  0.0052 -0.1986  0.4575
 1304ntf    on510375   3.666   0.704   2.527  0.0375 -0.0846  0.0104
 1304ntf    on510376   3.567   0.701   2.247  0.3826 -0.1820  0.5038
 1304ntf    on510377   3.576   0.477   2.151  0.1197 -0.1380  0.1385
 1304ntf    fn410378   3.318   0.614   2.148  0.3030  0.4097 -0.5281
 1304ntf    fn410379   3.323   0.639   2.357  0.1518 -0.0135 -0.3880
 1304ntf    fn410380   3.295   0.442   2.281  0.5908 -0.1332 -0.1331
 1305ntf    cn110381   4.529   2.062   5.108 -0.0240 -0.4411  0.3299
 1305ntf    sn210382   4.577   2.237   5.092 -0.2473 -0.4087 -0.0079
 1305ntf    nn310383   4.489   2.302   5.205 -0.1503 -0.1419 -0.0872
 1305ntf    sn210384   4.402   2.433   5.197  0.4173  0.2423 -0.0405
 1305ntf    cn110385   4.236   2.363   5.220  0.5280 -0.0801 -0.2082
 1305ntf    fn410386   4.568   2.010   5.223 -0.0952 -0.1354  0.4947
 1305ntf    fn410387   4.398   2.042   5.098  0.0122 -0.4295 -0.2402
 1305ntf    fn410388   4.586   1.986   5.016  0.1379  0.1765 -0.0867
 1305ntf    on510389   4.717   2.239   5.124 -0.3007 -0.0136  0.2037
 1305ntf    on510390   4.545   2.262   4.954  0.6157 -0.0701 -0.1522
 1305ntf    on510391   4.419   2.509   5.318  0.6768  0.0114  0.0699
 1305ntf    on510392   4.381   2.490   5.066  0.0601 -0.2757 -0.2152
 1305ntf    fn410393   4.223   2.261   5.137  0.2578 -0.1941 -0.0285
 1305ntf    fn410394   4.135   2.444   5.194  0.0369 -0.7725 -0.4901
 1305ntf    fn410395   4.210   2.305   5.336  0.0549  0.3112 -0.1130
 1306ntf    cn110396   0.203   2.326   6.601 -0.1355  0.4024  0.5999
 1306ntf    sn210397   0.365   2.407   6.583 -0.0443  0.0496 -0.2183
 1306ntf    nn310398   0.460   2.285   6.608 -0.1028  0.1243  0.3985
 1306ntf    sn210399   0.584   2.235   6.525 -0.2177  0.0961  0.2431
 1306ntf    cn110400   0.499   2.127   6.406 -0.1635  0.0981  0.2024
 1306ntf    fn410401   0.193   2.272   6.721  0.2489  0.3367  0.6034
 1306ntf    fn410402   0.101   2.408   6.582  0.3369  0.6951 -0.8059
 1306ntf    fn410403   0.199   2.225   6.516 -0.1019  0.4295  0.5655
 1306ntf    on510404   0.352   2.451   6.446 -0.4357 -0.5829 -0.3896
 1306ntf    on510405   0.356   2.500   6.693 -0.3957  0.1530 -0.3351
 1306ntf    on510406   0.642   2.344   6.452 -0.2544 -0.1983 -0.2315
 1306ntf    on510407   0.679   2.148   6.590  0.6103  0.3193 -0.6486
 1306ntf    fn410408   0.583   2.044   6.345 -0.1884  0.2696 -0.0674
 1306ntf    fn410409   0.452   2.198   6.305  0.0935 -0.2296 -0.1565
 1306ntf    fn410410   0.406   2.049   6.458  0.1220 -0.0586  0.4860
 1307ntf    cn110411   4.197   5.619   0.255 -0.0085 -0.0261 -0.1317
 1307ntf    sn210412   4.044   5.572   0.169  0.0510  0.0690 -0.2892
 1307ntf    nn310413   4.112   5.485   0.056  0.0756  0.1408 -0.3295
 1307ntf    sn210414   4.111   5.523  -0.096 -0.0937  0.0284 -0.3572
 1307ntf    cn110415   4.146   5.358  -0.164  0.4945  0.0809 -0.1885
 1307ntf    fn410416   4.274   5.514   0.282  0.1656  0.2263  0.3800
 1307ntf    fn410417   4.267   5.701   0.178 -0.0079 -0.0937 -0.2029
 1307ntf    fn410418   4.177   5.690   0.365  0.5093 -0.1006  0.0111
 1307ntf    on510419   3.964   5.490   0.257  0.2419 -0.0081 -0.1874
 1307ntf    on510420   3.988   5.700   0.133 -0.0309  0.1354  0.0729
 1307ntf    on510421   3.989   5.554  -0.165 -0.2178 -0.0782 -0.1866
 1307ntf    on510422   4.229   5.599  -0.128 -0.0768 -0.0857 -0.5688
 1307ntf    fn410423   4.156   5.362  -0.296 -0.6332  0.1658 -0.2817
 1307ntf    fn410424   4.058   5.261  -0.140  0.1271  0.3327 -0.5101
 1307ntf    fn410425   4.264   5.315  -0.122  0.0060 -0.5439  0.5875
 1308ntf    cn110426   1.127   4.465   1.780  0.0648  0.1621 -0.0872
 1308ntf    sn210427   1.009   4.588   1.718 -0.1385  0.0288  0.0311
 1308ntf    nn310428   0.934   4.504   1.608 -0.1199  0.2958 -0.1879
 1308ntf    sn210429   0.832   4.565   1.505 -0.1103  0.0421 -0.3487
 1308ntf    cn110430   0.681   4.501   1.582  0.2289  0.0688  0.3488
 1308ntf    fn410431   1.206   4.524   1.868 -0.5734  0.2958  0.4109
 1308ntf    fn410432   1.063   4.366   1.840  0.1905  0.1785  0.0734
 1308ntf    fn410433   1.204   4.415   1.685  0.0444 -0.1704  0.0706
 1308ntf    on510434   0.929   4.618   1.834 -0.0842 -0.2169  0.1315
 1308ntf    on510435   1.098   4.692   1.673 -0.2865  0.1123 -0.0693
 1308ntf    on510436   0.821   4.709   1.514 -0.4812  0.0373 -0.7465
 1308ntf    on510437   0.840   4.505   1.375 -0.2734 -0.3433 -0.1814
 1308ntf    fn410438   0.681   4.526   1.712  0.0593  0.3277  0.3010
 1308ntf    fn410439   0.664   4.371   1.571 -0.4657  0.1845 -0.0332
 1308ntf    fn410440   0.570   4.553   1.531  0.1986  0.0788  0.4234
 1309ntf    cn110441   4.711   0.029   4.057 -0.1110  0.1398 -0.0516
 1309ntf    sn210442   4.646   0.103   3.904 -0.1399 -0.0985 -0.1562
 1309ntf    nn310443   4.522   0.179   3.962 -0.2182 -0.5886  0.3200
 1309ntf    sn210444   4.369   0.162   3.929 -0.1351 -0.2421 -0.2403
 1309ntf    cn110445   4.345   0.180   3.749  0.5728 -0.2476 -0.3383
 1309ntf    fn410446   4.833  -0.016   4.033 -0.2886 -0.3213 -0.1099
 1309ntf    fn410447   4.711   0.121   4.153  0.7513 -0.2866  0.3664
 1309ntf    fn410448   4.650  -0.078   4.105 -0.1052  0.2825  0.2774
 1309ntf    on510449   4.755   0.190   3.866  0.2260 -0.6300 -0.3240
 1309ntf    on510450   4.626  -0.011   3.819  0.0764 -0.1641 -0.1216
 1309ntf    on510451   4.314   0.032   3.956 -0.1112 -0.0494  0.7405
 1309ntf    on510452   4.291   0.271   3.982 -0.0117 -0.4766  0.4223
 1309ntf    fn410453   4.354   0.309   3.724  0.0348 -0.1668 -0.1221
 1309ntf    fn410454   4.220   0.148   3.720  0.4866 -0.4722  0.2676
 1309ntf    fn410455   4.421   0.111   3.665  0.2718 -0.1405 -0.7001
 1310ntf    cn110456   5.067   0.099   0.043  0.2094 -0.1498 -0.0708
 1310ntf    sn210457   5.087   0.066   0.221  0.0166 -0.1126 -0.0426
 1310ntf    nn310458   5.156   0.197   0.272  0.3809 -0.2407 -0.2024
 1310ntf    sn210459   5.113   0.315   0.366 -0.0313 -0.5493  0.0010
 1310ntf    cn110460   5.159   0.252   0.531  0.2166 -0.1977  0.0682
 1310ntf    fn410461   5.078  -0.015  -0.023 -0.3096 -0.3941  0.2649
 1310ntf    fn410462   4.950   0.156   0.019  0.2034 -0.0903  0.0985
 1310ntf    fn410463   5.164   0.180   0.002  0.3345  0.0154  0.5416
 1310ntf    on510464   4.950   0.053   0.263 -0.3211  0.7586 -0.8382
 1310ntf    on510465   5.177  -0.046   0.218 -0.1389 -0.2398  0.0294
 1310ntf    on510466   5.203   0.428   0.361 -0.4312 -0.2291 -0.0252
 1310ntf    on510467   4.971   0.338   0.360  0.0570  0.0868  0.2523
 1310ntf    fn410468   5.122   0.332   0.629 -0.1295  0.1508 -0.3413
 1310ntf    fn410469   5.289   0.239   0.552  0.2356 -0.1367 -0.0106
 1310ntf    fn410470   5.109   0.133   0.561  0.1908 -0.1721  0.1268
 1311ntf    cn110471   2.625   5.630   4.648 -0.2028  0.3248  0.1617
 1311ntf    sn210472   2.710   5.761   4.741  0.1539  0.1564  0.0706
 1311ntf    nn310473   2.603   5.875   4.739  0.1710  0.1753  0.2210
 1311ntf    sn210474   2.484   5.899   4.839 -0.1279  0.2647 -0.1548
 1311ntf    cn110475   2.548   6.043   4.930 -0.2184  0.1609  0.0746
 1311ntf    fn410476   2.511   5.600   4.709 -0.1870  0.2057  0.1323
 1311ntf    fn410477   2.606   5.659   4.520 -0.4692  0.1202  0.1534
 1311ntf    fn410478   2.695   5.518   4.651 -0.4869  0.1365 -0.1682
 1311ntf    on510479   2.746   5.700   4.867  0.5553  0.4394  0.0951
 1311ntf    on510480   2.818   5.792   4.650 -0.0233 -0.1675 -0.2551
 1311ntf    on510481   2.364   5.939   4.771 -0.2302  0.0871 -0.0802
 1311ntf    on510482   2.467   5.789   4.931  0.3304  0.0933 -0.2717
 1311ntf    fn410483   2.469   6.080   5.030 -0.0438  0.4461  0.1085
 1311ntf    fn410484   2.568   6.147   4.852  0.2523  0.0710  0.0726
 1311ntf    fn410485   2.667   6.010   4.980 -0.3360 -0.2805  0.0685
 1312ntf    cn110486   1.725   0.889   3.833  0.0771  0.1274  0.0354
 1312ntf    sn210487   1.868   0.982   3.898  0.1510  0.1467 -0.1546
 1312ntf    nn310488   1.975   0.876   3.855  0.1300  0.0558  0.0179
 1312ntf    sn210489   2.019   0.752   3.941 -0.2651  0.1160  0.3136
 1312ntf    cn110490   2.168   0.825   4.015  0.2836 -0.3099 -0.3531
 1312ntf    fn410491   1.704   0.766   3.878  0.2577 -0.1748 -0.7028
 1312ntf    fn410492   1.609   0.946   3.861  0.2116  0.6615 -0.4777
 1312ntf    fn410493   1.728   0.876   3.702 -0.2704 -0.0342  0.0435
 1312ntf    on510494   1.883   1.096   3.811 -0.7967  0.5931  0.2516
 1312ntf    on510495   1.841   0.998   4.039  0.2740  0.0547 -0.1212
 1312ntf    on510496   1.935   0.718   4.053 -0.0427  0.3281  0.5442
 1312ntf    on510497   2.073   0.638   3.870 -0.0033  0.3867  0.0732
 1312ntf    fn410498   2.158   0.951   4.052 -0.3120 -0.5458  0.3137
 1312ntf    fn410499   2.266   0.812   3.927  0.3534 -0.3614 -0.2688
 1312ntf    fn410500   2.205   0.749   4.118 -0.3697 -0.2707 -0.0833
 1313ntf    cn110501   3.736   1.212   0.609  0.5690  0.1007 -0.1461
 1313ntf    sn210502   3.621   1.106   0.516  0.1507  0.2475  0.1983
 1313ntf    nn310503   3.717   1.058   0.401 -0.3612  0.2380 -0.2301
 1313ntf    sn210504   3.685   0.986   0.265  0.2370 -0.0552 -0.2174
 1313ntf    cn110505   3.705   1.136   0.165  0.0321  0.0041 -0.1693
 1313ntf    fn410506   3.794   1.305   0.535  0.6325 -0.0245 -0.2533
 1313ntf    fn410507   3.683   1.271   0.715  0.1805  0.0831 -0.3270
 1313ntf    fn410508   3.830   1.134   0.658 -0.4040 -0.4900  0.8333
 1313ntf    on510509   3.579   1.010   0.615 -0.4563 -0.0286 -0.3199
 1313ntf    on510510   3.526   1.203   0.468  0.3341  0.4344  0.2106
 1313ntf    on510511   3.793   0.901   0.220  0.2096 -0.2727  0.1209
 1313ntf    on510512   3.551   0.939   0.244  0.2505 -0.0159 -0.3880
 1313ntf    fn410513   3.830   1.180   0.158  0.0169  0.1355  0.3443
 1313ntf    fn410514   3.632   1.238   0.208  0.0868  0.1296 -0.3738
 1313ntf    fn410515   3.664   1.108   0.042 -0.3001 -0.1036 -0.0344
 1314ntf    cn110516   6.045   3.088   2.780  0.1093  0.1885  0.0583
 1314ntf    sn210517   6.045   3.146   2.952 -0.1530 -0.0642  0.1430
 1314ntf    nn310518   6.021   3.299   2.928  0.2665 -0.1121 -0.6058
 1314ntf    sn210519   6.123   3.419   2.924  0.0018  0.1296 -0.1785
 1314ntf    cn110520   6.122   3.464   3.100 -0.3416  0.4163 -0.2529
 1314ntf    fn410521   5.935   3.120   2.714  0.0867  0.5416  0.2659
 1314ntf    fn410522   6.148   3.138   2.714  0.3925 -0.1639  0.2296
 1314ntf    fn410523   6.058   2.956   2.784 -0.5100  0.1168 -0.1993
 1314ntf    on510524   5.935   3.072   3.010  0.2091 -0.6773  0.0544
 1314ntf    on510525   6.175   3.117   3.007  0.1731  0.4500 -0.3565
 1314ntf    on510526   6.260   3.383   2.896 -0.1317 -0.3323 -0.2577
 1314ntf    on510527   6.071   3.543   2.872 -0.3072  0.3937  0.7271
 1314ntf    fn410528   6.212   3.554   3.137 -0.0601 -0.0114  0.1094
 1314ntf    fn410529   6.130   3.361   3.183 -0.0628  0.7665  0.1599
 1314ntf    fn410530   6.003   3.514   3.127 -0.3740 -0.0136  0.4295
 1315ntf    cn110531   0.535   1.994   2.143 -0.1675 -0.1774 -0.4440
 1315ntf    sn210532   0.598   1.828   2.183  0.1534  0.0328 -0.0745
 1315ntf    nn310533   0.694   1.801   2.062 -0.5907 -0.0812 -0.6457
 1315ntf    sn210534   0.841   1.853   2.045 -0.4494 -0.1028  0.4615
 1315ntf    cn110535   0.940   1.718   2.116 -0.1600 -0.0403  0.1785
 1315ntf    fn410536   0.433   2.028   2.220  0.1000  0.0029 -0.1682
 1315ntf    fn410537   0.624   2.090   2.157  0.0791 -0.5173  0.3804
 1315ntf    fn410538   0.481   2.000   2.022 -0.2026  0.0960 -0.4153
 1315ntf    on510539   0.659   1.834   2.314 -0.0033  0.2399 -0.0111
 1315ntf    on510540   0.480   1.746   2.174  0.0934  0.1086  0.0127
 1315ntf    on510541   0.881   1.851   1.907 -0.4725 -0.1619  0.4557
 1315ntf    on510542   0.883   1.961   2.131  0.1044 -0.1368  0.2385
 1315ntf    fn410543   1.070   1.730   2.096 -0.1690  0.1017  0.2074
 1315ntf    fn410544   0.911   1.600   2.063 -0.1010 -0.1089  0.2961
 1315ntf    fn410545   0.934   1.697   2.246 -0.9977 -0.2833  0.1038
 1316ntf    cn110546   1.278   3.218   3.008 -0.0956  0.2578  0.0516
 1316ntf    sn210547   1.434   3.125   3.017 -0.2646 -0.0321 -0.0029
 1316ntf    nn310548   1.373   2.990   2.965  0.6343 -0.5719  0.3406
 1316ntf    sn210549   1.376   2.910   2.830 -0.0719 -0.3002  0.1609
 1316ntf    cn110550   1.490   2.772   2.861  0.1712 -0.2709 -0.5748
 1316ntf    fn410551   1.178   3.164   3.077 -0.2575  0.0842 -0.3139
 1316ntf    fn410552   1.289   3.343   3.052  0.4180  0.3309 -0.2803
 1316ntf    fn410553   1.236   3.238   2.884 -0.4173  0.1266  0.1372
 1316ntf    on510554   1.523   3.197   2.930 -0.3298  0.1646  0.0928
 1316ntf    on510555   1.470   3.111   3.156  0.5173 -0.1927 -0.2174
 1316ntf    on510556   1.248   2.853   2.796  0.1246 -0.4422 -0.3517
 1316ntf    on510557   1.444   2.981   2.724 -0.2047 -0.3395  0.0483
 1316ntf    fn410558   1.617   2.794   2.832  0.1652  0.1957 -0.2631
 1316ntf    fn410559   1.462   2.661   2.795  0.0067 -0.3661 -0.3486
 1316ntf    fn410560   1.495   2.733   2.987 -0.3996  0.3352 -0.3553
 1317ntf    cn110561   1.854   6.091   0.274  0.0250  0.0253 -0.5459
 1317ntf    sn210562   1.847   5.940   0.375  0.1288  0.3591 -0.0350
 1317ntf    nn310563   1.722   5.983   0.459  0.2175  0.5576 -0.0040
 1317ntf    sn210564   1.709   6.023   0.610  0.2300 -0.0527  0.1608
 1317ntf    cn110565   1.694   5.854   0.677 -0.1742 -0.0222  0.1461
 1317ntf    fn410566   1.921   6.072   0.161 -0.2562  0.3235 -0.7642
 1317ntf    fn410567   1.739   6.143   0.235 -0.1488 -0.0313 -0.1068
 1317ntf    fn410568   1.911   6.192   0.337 -0.3875  0.1578 -0.3823
 1317ntf    on510569   1.809   5.837   0.281 -0.7761  0.6330  0.0239
 1317ntf    on510570   1.974   5.936   0.444 -0.0402  0.1226  0.2608
 1317ntf    on510571   1.829   6.066   0.679  0.2053  0.0737  0.1250
 1317ntf    on510572   1.580   6.078   0.644  0.2520 -0.0072  0.1712
 1317ntf    fn410573   1.606   5.778   0.613 -0.2970  0.2043  0.0432
 1317ntf    fn410574   1.673   5.850   0.807  0.2663 -0.1465  0.2127
 1317ntf    fn410575   1.812   5.794   0.673 -0.2384 -0.1477  0.1415
 1318ntf    cn110576   6.418   0.699   5.129  0.4027 -0.0256  0.1762
 1318ntf    sn210577   6.502   0.571   5.031 -0.0178  0.0690 -0.3109
 1318ntf    nn310578   6.371   0.495   4.987 -0.0687 -0.1894  0.2841
 1318ntf    sn210579   6.307   0.372   5.061 -0.0387 -0.3362  0.0676
 1318ntf    cn110580   6.367   0.246   4.945  0.2822  0.0553 -0.1968
 1318ntf    fn410581   6.351   0.650   5.231  0.2052 -0.3545 -0.1108
 1318ntf    fn410582   6.504   0.793   5.166  0.1065  0.4025 -0.2062
 1318ntf    fn410583   6.326   0.757   5.053  0.3395  0.1799  0.4080
 1318ntf    on510584   6.568   0.633   4.919 -0.0389 -0.0412 -0.3848
 1318ntf    on510585   6.586   0.510   5.131 -0.0337  0.7549  0.1297
 1318ntf    on510586   6.352   0.342   5.195 -0.9826 -0.2417  0.4097
 1318ntf    on510587   6.166   0.382   5.037 -0.1288 -0.1472  0.6444
 1318ntf    fn410588   6.315   0.129   4.978  0.2444  0.1236 -0.0101
 1318ntf    fn410589   6.498   0.234   4.934  0.2386 -0.2893 -0.3557
 1318ntf    fn410590   6.326   0.271   4.822  0.1442 -0.0887 -0.1803
 1319ntf    cn110591   0.135   1.083   2.311  0.1445  0.2357  0.2282
 1319ntf    sn210592   0.103   0.945   2.196 -0.0856  0.0539  0.5113
 1319ntf    nn310593   0.185   0.999   2.074 -0.4036  0.3387  0.4196
 1319ntf    sn210594   0.145   1.089   1.952 -0.0658  0.4052  0.3554
 1319ntf    cn110595   0.316   1.138   1.915  0.0167 -0.2874 -0.2023
 1319ntf    fn410596   0.260   1.126   2.304 -0.0054  0.7542  0.6795
 1319ntf    fn410597   0.054   1.182   2.278  0.4694  0.3303 -0.3072
 1319ntf    fn410598   0.103   1.049   2.434 -0.2228 -0.7639 -0.1330
 1319ntf    on510599   0.170   0.837   2.262 -0.1861  0.1113  0.7101
 1319ntf    on510600  -0.041   0.946   2.184 -0.0396  0.4537 -0.0367
 1319ntf    on510601   0.098   1.011   1.841  0.3236  0.1762  0.3502
 1319ntf    on510602   0.075   1.210   1.989  0.5741  0.8964 -0.0071
 1319ntf    fn410603   0.376   1.205   2.012 -0.0607 -0.0752 -0.2991
 1319ntf    fn410604   0.325   1.223   1.814 -0.1994  0.0539  0.0615
 1319ntf    fn410605   0.389   1.033   1.884  0.5567  0.2063 -0.6329
 1320ntf    cn110606   3.118   0.925   1.768 -0.1170  0.1491  0.0159
 1320ntf    sn210607   3.282   0.937   1.690 -0.0189 -0.0789  0.1856
 1320ntf    nn310608   3.358   1.042   1.778  0.0984  0.2114 -0.2589
 1320ntf    sn210609   3.509   1.037   1.820 -0.0206 -0.0402  0.1435
 1320ntf    cn110610   3.505   0.930   1.966 -0.2044 -0.2505 -0.0155
 1320ntf    fn410611   3.132   0.878   1.890 -0.1814 -0.0069 -0.0362
 1320ntf    fn410612   3.068   1.046   1.782 -0.2443  0.0972  0.0108
 1320ntf    fn410613   3.030   0.847   1.707  0.2350 -0.0087 -0.3032
 1320ntf    on510614   3.338   0.804   1.702  0.3021  0.0375  0.0078
 1320ntf    on510615   3.247   0.986   1.559 -0.0466  0.0743  0.2507
 1320ntf    on510616   3.595   0.969   1.726  0.0163 -0.1318  0.2428
 1320ntf    on510617   3.557   1.165   1.867 -0.6360  0.2433  0.0074
 1320ntf    fn410618   3.425   0.982   2.058 -0.2678 -0.4270  0.0308
 1320ntf    fn410619   3.622   0.910   2.024 -0.0509  0.2451 -0.1580
 1320ntf    fn410620   3.465   0.806   1.943 -0.2896 -0.0828 -0.7979
 1321ntf    cn110621   3.522   4.734   6.621 -0.2520 -0.0141 -0.1168
 1321ntf    sn210622   3.695   4.775   6.661 -0.2258 -0.2889  0.0594
 1321ntf    nn310623   3.669   4.877   6.778  0.0568  0.0990 -0.2103
 1321ntf    sn210624   3.694   4.848   6.930 -0.1179  0.0003 -0.1999
 1321ntf    cn110625   3.610   4.984   7.016 -0.0154 -0.0410 -0.0324
 1321ntf    fn410626   3.506   4.647   6.522 -0.2106 -0.1063 -0.0424
 1321ntf    fn410627   3.456   4.683   6.723 -0.3742 -0.1336 -0.2535
 1321ntf    fn410628   3.456   4.845   6.591 -0.1832  0.0009 -0.2137
 1321ntf    on510629   3.757   4.651   6.697 -0.6993 -0.5234  0.0742
 1321ntf    on510630   3.745   4.849   6.547 -0.0109 -0.5762 -0.0320
 1321ntf    on510631   3.633   4.728   6.981 -0.1013  0.0114 -0.1526
 1321ntf    on510632   3.834   4.859   6.966 -0.2184 -0.5597  0.3910
 1321ntf    fn410633   3.482   4.958   7.034 -0.0379 -0.2152 -0.4322
 1321ntf    fn410634   3.609   5.103   6.958 -0.2034  0.3119  0.6850
 1321ntf    fn410635   3.667   5.008   7.133 -0.2278 -0.2310  0.1096
 1322ntf    cn110636   3.243   4.337   0.325 -0.1536  0.4241  0.2839
 1322ntf    sn210637   3.274   4.230   0.468  0.2603  0.1048 -0.0419
 1322ntf    nn310638   3.358   4.113   0.406 -0.7765 -0.7120  0.0670
 1322ntf    sn210639   3.445   3.996   0.466  0.1124 -0.1566 -0.1340
 1322ntf    cn110640   3.402   3.871   0.342  0.0848  0.1862 -0.4726
 1322ntf    fn410641   3.154   4.292   0.239  0.1158 -0.0044  0.2269
 1322ntf    fn410642   3.200   4.458   0.356  0.1179  0.7337 -0.5037
 1322ntf    fn410643   3.351   4.369   0.255 -0.2017 -0.3647 -0.1616
 1322ntf    on510644   3.347   4.320   0.554  0.7766 -0.4328  0.0917
 1322ntf    on510645   3.145   4.182   0.512  0.1576  0.5698  0.1642
 1322ntf    on510646   3.588   4.011   0.450  0.2008 -0.0895  0.6861
 1322ntf    on510647   3.392   3.933   0.584 -0.0805 -0.0459 -0.1621
 1322ntf    fn410648   3.452   3.892   0.221  0.0406 -0.6539 -0.6438
 1322ntf    fn410649   3.271   3.876   0.323  0.0573 -0.1808 -0.3866
 1322ntf    fn410650   3.444   3.749   0.369 -0.6237 -0.1229 -0.7205
 1323ntf    cn110651   5.757   4.680   4.853 -0.2595  0.0953  0.6604
 1323ntf    sn210652   5.791   4.507   4.898 -0.2218 -0.0893 -0.0622
 1323ntf    nn310653   5.759   4.510   5.052  0.0381  0.9345 -0.0213
 1323ntf    sn210654   5.841   4.499   5.186 -0.0662 -0.0048 -0.0302
 1323ntf    cn110655   5.738   4.376   5.271 -0.0852 -0.0730 -0.1520
 1323ntf    fn410656   5.822   4.763   4.933  0.3859  0.0788  0.1611
 1323ntf    fn410657   5.790   4.703   4.727 -0.4475  0.2662  0.6422
 1323ntf    fn410658   5.629   4.711   4.866 -0.5192 -0.4027 -0.5911
 1323ntf    on510659   5.687   4.436   4.828  0.0244 -0.1594 -0.3586
 1323ntf    on510660   5.928   4.485   4.860 -0.2426  0.1316 -0.2662
 1323ntf    on510661   5.967   4.430   5.183  0.0326  0.1666  0.1928
 1323ntf    on510662   5.824   4.614   5.272 -0.3104  0.2723 -0.4449
 1323ntf    fn410663   5.770   4.256   5.226 -0.0093 -0.3099  0.5196
 1323ntf    fn410664   5.611   4.405   5.245  0.0018 -0.0429 -0.5511
 1323ntf    fn410665   5.762   4.368   5.401 -0.0744 -0.3531 -0.1712
 1324ntf    cn110666   6.299   5.902   6.426 -0.0552  0.4878  0.0458
 1324ntf    sn210667   6.254   5.801   6.281  0.1264  0.0704  0.2775
 1324ntf    nn310668   6.099   5.810   6.300  0.0414  0.1345 -0.4046
 1324ntf    sn210669   5.989   5.799   6.189 -0.1820 -0.3041 -0.1465
 1324ntf    cn110670   5.943   5.624   6.210 -0.2096 -0.3601 -0.6463
 1324ntf    fn410671   6.420   5.876   6.471 -0.2246  0.0005  0.2277
 1324ntf    fn410672   6.290   6.032   6.407 -0.1549  0.4063 -0.4997
 1324ntf    fn410673   6.223   5.866   6.528 -0.2334  0.0224 -0.2438
 1324ntf    on510674   6.313   5.875   6.172  0.0357  0.4485  0.4852
 1324ntf    on510675   6.314   5.674   6.313  0.4651 -0.0548 -0.7935
 1324ntf    on510676   5.867   5.870   6.221  0.1219  0.0616  0.2047
 1324ntf    on510677   6.041   5.807   6.055  0.0259  0.2416 -0.0354
 1324ntf    fn410678   6.039   5.541   6.171  0.4294 -0.0839  0.2907
 1324ntf    fn410679   5.840   5.593   6.134  0.1212 -0.3568 -1.0978
 1324ntf    fn410680   5.910   5.598   6.336 -0.0906 -0.4761 -0.6391
 1325ntf    cn110681   4.985   4.300   0.119 -0.0532 -0.4455 -0.0478
 1325ntf    sn210682   5.024   4.212   0.273 -0.0331  0.0933  0.2577
 1325ntf    nn310683   4.962   4.316   0.373  0.0991  0.2755  0.1514
 1325ntf    sn210684   4.879   4.295   0.504  0.1090  0.2527  0.1536
 1325ntf    cn110685   4.708   4.326   0.451  0.0489 -0.2331  0.0560
 1325ntf    fn410686   5.052   4.414   0.110  0.1791 -0.5715  0.0848
 1325ntf    fn410687   4.999   4.227   0.009 -0.3675 -0.1337 -0.2963
 1325ntf    fn410688   4.860   4.343   0.120 -0.0808 -0.5272  0.1351
 1325ntf    on510689   4.955   4.088   0.247  0.1067  0.1119 -0.2068
 1325ntf    on510690   5.168   4.218   0.266  0.0057 -0.4435  0.5314
 1325ntf    on510691   4.867   4.157   0.544  0.1031  0.4150  0.7269
 1325ntf    on510692   4.912   4.397   0.601  0.3927 -0.1479  0.4828
 1325ntf    fn410693   4.663   4.272   0.339 -0.1348 -0.7095  0.3546
 1325ntf    fn410694   4.695   4.456   0.426 -0.1437 -0.2482  0.0716
 1325ntf    fn410695   4.612   4.308   0.541 -0.0820  0.6339  0.1025
 1326ntf    cn110696   6.596   1.172   1.184 -0.0555 -0.1302  0.3075
 1326ntf    sn210697   6.473   1.038   1.181 -0.4204  0.2026  0.2505
 1326ntf    nn310698   6.517   0.959   1.310 -0.1280 -0.2503 -0.1227
 1326ntf    sn210699   6.476   0.816   1.359 -0.1769 -0.1268  0.1963
 1326ntf    cn110700   6.598   0.713   1.272 -0.3944 -0.1296 -0.1058
 1326ntf    fn410701   6.716   1.129   1.222  0.0380  0.0917  0.2617
 1326ntf    fn410702   6.616   1.223   1.064 -0.3379 -0.1869  0.2376
 1326ntf    fn410703   6.566   1.272   1.266 -0.4648  0.1876 -0.2259
 1326ntf    on510704   6.350   1.112   1.195 -0.4878  0.0697  0.3676
 1326ntf    on510705   6.484   0.960   1.061 -0.1327 -0.3505  0.6279
 1326ntf    on510706   6.499   0.794   1.500 -0.7895  0.0437  0.3284
 1326ntf    on510707   6.351   0.774   1.300 -0.0015  0.0198 -0.2740
 1326ntf    fn410708   6.723   0.754   1.268 -0.3387 -0.3292 -0.4610
 1326ntf    fn410709   6.566   0.699   1.144 -0.4214  0.3660 -0.1566
 1326ntf    fn410710   6.591   0.589   1.318 -0.9338 -0.0061  0.1619
 1327ntf    cn110711   4.900   3.514   5.582 -0.1278  0.1781  0.1643
 1327ntf    sn210712   4.945   3.411   5.724 -0.0004 -0.0631 -0.0510
 1327ntf    nn310713   4.916   3.269   5.664  0.0404  0.0913 -0.4369
 1327ntf    sn210714   4.777   3.198   5.652  0.1444 -0.2395  0.2849
 1327ntf    cn110715   4.785   3.097   5.803  0.1309 -0.3379  0.2206
 1327ntf    fn410716   4.913   3.644   5.604  0.2035  0.2094 -0.2032
 1327ntf    fn410717   4.981   3.479   5.483 -0.2857  0.0111  0.0929
 1327ntf    fn410718   4.781   3.496   5.527 -0.1034  0.2638  0.0818
 1327ntf    on510719   5.084   3.444   5.746  0.1420 -0.4616 -0.3524
 1327ntf    on510720   4.854   3.454   5.828 -0.2934  0.1257 -0.3854
 1327ntf    on510721   4.656   3.276   5.661  0.3437  0.1830 -0.6018
 1327ntf    on510722   4.789   3.099   5.548  0.3498  0.6002 -0.5013
 1327ntf    fn410723   4.901   3.034   5.808 -0.0585 -0.6928  0.1708
 1327ntf    fn410724   4.690   3.004   5.797 -0.1163 -0.0769  0.0915
 1327ntf    fn410725   4.763   3.166   5.914  0.2613  0.2615 -0.1246
 1328ntf    cn110726   6.372   3.600   1.914 -0.6957  0.0401  0.1369
 1328ntf    sn210727   6.546   3.605   1.966 -0.4254 -0.4804 -0.7050
 1328ntf    nn310728   6.539   3.538   2.107  0.5205  0.4486 -0.1992
 1328ntf    sn210729   6.502   3.594   2.249 -0.1056  0.1833 -0.2498
 1328ntf    cn110730   6.383   3.466   2.298  0.1581  0.0749  0.1135
 1328ntf    fn410731   6.316   3.481   1.928 -0.4455 -0.1240 -0.2274
 1328ntf    fn410732   6.300   3.685   1.985 -0.0732  0.2624  0.5128
 1328ntf    fn410733   6.356   3.636   1.788 -0.3440 -0.3900 -0.0341
 1328ntf    on510734   6.614   3.528   1.864  0.0826 -0.0077 -0.7292
 1328ntf    on510735   6.567   3.747   1.976 -0.9422 -0.4757  0.3671
 1328ntf    on510736   6.608   3.573   2.346  0.1877 -0.0489 -0.6169
 1328ntf    on510737   6.423   3.714   2.251 -0.4206 -0.0256 -0.1399
 1328ntf    fn410738   6.279   3.470   2.216  0.2313  0.3099  0.0324
 1328ntf    fn410739   6.336   3.481   2.421  0.2180  0.3142  0.1082
 1328ntf    fn410740   6.441   3.347   2.290  0.3015  0.1796 -0.4632
 1329ntf    cn110741   2.430   1.558   5.509  0.3505 -0.1060  0.4692
 1329ntf    sn210742   2.296   1.672   5.553  0.0091 -0.2345 -0.2332
 1329ntf    nn310743   2.300   1.751   5.417 -0.1595  0.2582  0.0438
 1329ntf    sn210744   2.232   1.720   5.279  0.1775  0.4761 -0.1730
 1329ntf    cn110745   2.380   1.722   5.173  0.3955  0.3183  0.1276
 1329ntf    fn410746   2.456   1.457   5.589  0.0561  0.0529  0.7685
 1329ntf    fn410747   2.398   1.510   5.390 -0.3115  0.5636  0.3700
 1329ntf    fn410748   2.544   1.622   5.489 -0.0477  0.6306  0.5089
 1329ntf    on510749   2.186   1.581   5.573 -0.1907  0.2049  0.7237
 1329ntf    on510750   2.340   1.761   5.657 -0.8156 -0.0762 -0.0076
 1329ntf    on510751   2.179   1.586   5.264  0.2511  0.4780 -0.4584
 1329ntf    on510752   2.149   1.833   5.247 -0.0853  0.3143 -0.0692
 1329ntf    fn410753   2.384   1.829   5.095  0.1135  0.0047 -0.3202
 1329ntf    fn410754   2.381   1.619   5.090 -0.4913  0.2896  0.1437
 1329ntf    fn410755   2.491   1.717   5.244  0.5724 -0.5057 -0.2032
 1330ntf    cn110756   4.443   3.515   1.570 -0.1649 -0.0800 -0.1349
 1330ntf    sn210757   4.546   3.424   1.689 -0.3678  0.0047  0.1082
 1330ntf    nn310758   4.542   3.288   1.610  0.4498 -0.2639  0.5147
 1330ntf    sn210759   4.627   3.241   1.487 -0.1417  0.1107 -0.0406
 1330ntf    cn110760   4.764   3.148   1.560 -0.2136  0.0002 -0.0450
 1330ntf    fn410761   4.426   3.642   1.602 -0.0879 -0.2407  0.5535
 1330ntf    fn410762   4.499   3.518   1.450  0.5907 -0.0345  0.2136
 1330ntf    fn410763   4.321   3.465   1.560 -0.3967  0.5224 -0.3958
 1330ntf    on510764   4.666   3.503   1.705 -0.2407 -0.1856  0.0947
 1330ntf    on510765   4.461   3.418   1.805 -0.1456  0.3458  0.2905
 1330ntf    on510766   4.562   3.136   1.413  0.1282  0.1349 -0.3132
 1330ntf    on510767   4.687   3.341   1.402  0.3232 -0.0337  0.1173
 1330ntf    fn410768   4.857   3.129   1.468 -0.1223  0.2016  0.0051
 1330ntf    fn410769   4.729   3.033   1.614 -0.0809  0.0083  0.0589
 1330ntf    fn410770   4.827   3.214   1.656 -0.1385  0.2886 -0.2884
 1331ntf    cn110771   3.954   4.535   3.581 -0.3241 -0.0126  0.1101
 1331ntf    sn210772   3.818   4.417   3.555 -0.0924 -0.2367 -0.0829
 1331ntf    nn310773   3.898   4.294   3.499 -0.2866 -0.3823 -0.0384
 1331ntf    sn210774   3.928   4.152   3.560  0.0705 -0.1001  0.4440
 1331ntf    cn110775   4.052   4.085   3.445  0.3338  0.2378  0.5309
 1331ntf    fn410776   3.918   4.651   3.633 -0.0517  0.0326  0.1983
 1331ntf    fn410777   4.043   4.483   3.664 -0.2402 -0.2012 -0.0984
 1331ntf    fn410778   4.023   4.570   3.474 -0.0597  0.1419  0.3298
 1331ntf    on510779   3.778   4.398   3.692 -0.1186  0.5963  0.0283
 1331ntf    on510780   3.731   4.492   3.468 -0.2127 -0.0736  0.1769
 1331ntf    on510781   4.004   4.161   3.682 -0.1291 -0.0412  0.5637
 1331ntf    on510782   3.825   4.051   3.555 -0.3301  0.3348 -0.5011
 1331ntf    fn410783   4.153   4.169   3.422  0.2888  0.2877  0.5163
 1331ntf    fn410784   3.998   4.073   3.325  0.4005  0.3335  0.4910
 1331ntf    fn410785   4.108   3.969   3.473 -0.6734 -0.4282 -0.1540
 1332ntf    cn110786   0.854   5.409   1.347 -0.3481 -0.2299  0.3092
 1332ntf    sn210787   0.932   5.371   1.188 -0.1321  0.0666  0.3436
 1332ntf    nn310788   1.060   5.462   1.188  0.0798 -0.2287  0.5312
 1332ntf    sn210789   1.211   5.425   1.209  0.1273 -0.2582  0.1536
 1332ntf    cn110790   1.258   5.581   1.290  0.1362 -0.0718 -0.2090
 1332ntf    fn410791   0.777   5.516   1.344 -0.0697 -0.0396 -0.1093
 1332ntf    fn410792   0.769   5.315   1.386 -0.5640  0.1748  0.8323
 1332ntf    fn410793   0.952   5.421   1.435  0.0872 -0.1642 -0.1805
 1332ntf    on510794   0.953   5.229   1.201  0.3306  0.1068  0.0941
 1332ntf    on510795   0.836   5.409   1.088  0.1365  0.2188  0.1404
 1332ntf    on510796   1.248   5.329   1.311  0.4157  0.2010  0.4833
 1332ntf    on510797   1.290   5.435   1.089  0.2311 -1.1732  0.1391
 1332ntf    fn410798   1.220   5.684   1.216  0.4198  0.3569  0.2387
 1332ntf    fn410799   1.389   5.590   1.311  0.0531 -0.5301  0.5466
 1332ntf    fn410800   1.197   5.590   1.407  0.0506  0.0703 -0.2644
 1333ntf    cn110801   1.321   0.846   2.441 -0.1874 -0.2497  0.1446
 1333ntf    sn210802   1.368   0.671   2.426  0.0141 -0.1975  0.1652
 1333ntf    nn310803   1.466   0.688   2.305 -0.5246  0.1954 -0.2205
 1333ntf    sn210804   1.422   0.657   2.157 -0.0008 -0.1617 -0.3067
 1333ntf    cn110805   1.530   0.768   2.062 -0.1655  0.1510 -0.1318
 1333ntf    fn410806   1.244   0.878   2.544 -0.1086 -0.0176  0.1321
 1333ntf    fn410807   1.432   0.913   2.470 -0.0768 -0.2094 -0.3639
 1333ntf    fn410808   1.271   0.904   2.333 -0.0896 -0.2118  0.1192
 1333ntf    on510809   1.440   0.647   2.549  0.4103 -0.3066 -0.0879
 1333ntf    on510810   1.238   0.613   2.406 -0.0692  0.0135  0.0929
 1333ntf    on510811   1.461   0.524   2.118  0.3995 -0.2159  0.2644
 1333ntf    on510812   1.290   0.700   2.119  0.0321  0.1163 -0.1144
 1333ntf    fn410813   1.483   0.788   1.940  0.2590 -0.4982 -0.4091
 1333ntf    fn410814   1.652   0.717   2.050 -0.1535  0.1688 -0.0867
 1333ntf    fn410815   1.550   0.888   2.115  0.1718 -0.1508  0.4421
 1334ntf    cn110816   4.983   4.293   5.407  0.0630 -0.0501  0.3046
 1334ntf    sn210817   5.069   4.447   5.363  0.0310 -0.0243  0.3309
 1334ntf    nn310818   4.948   4.544   5.384  0.4631  0.5840  0.0411
 1334ntf    sn210819   4.926   4.644   5.503 -0.1529  0.3235  0.1527
 1334ntf    cn110820   5.002   4.790   5.427 -0.1525  0.0115 -0.4537
 1334ntf    fn410821   4.940   4.317   5.530  0.9156  0.1583  0.5667
 1334ntf    fn410822   4.877   4.278   5.329  0.2088 -0.1777  0.1317
 1334ntf    fn410823   5.059   4.185   5.401 -0.0385 -0.0914 -0.3189
 1334ntf    on510824   5.183   4.458   5.451  0.1356 -0.3565  0.2362
 1334ntf    on510825   5.108   4.428   5.226 -0.1030  0.3470  0.2409
 1334ntf    on510826   4.789   4.685   5.514 -0.2152 -0.0028  0.6315
 1334ntf    on510827   4.995   4.617   5.627  0.2325  0.8048  0.0468
 1334ntf    fn410828   4.939   4.828   5.317 -0.3098  0.3026 -0.2647
 1334ntf    fn410829   5.126   4.767   5.388  0.1863  0.0897  0.5607
 1334ntf    fn410830   5.001   4.898   5.504 -0.4085 -0.0368 -0.3871
 1335ntf    cn110831   4.828   2.878   1.941 -0.1348  0.2196 -0.1574
 1335ntf    sn210832   4.915   2.984   2.060 -0.1314  0.0713 -0.0279
 1335ntf    nn310833   5.034   2.891   2.104 -0.2620  0.0036  0.1846
 1335ntf    sn210834   5.175   2.917   2.167 -0.0602 -0.1983 -0.1857
 1335ntf    cn110835   5.168   3.091   2.219 -0.2293 -0.1888 -0.2394
 1335ntf    fn410836   4.805   2.758   1.991  0.0876  0.3767  0.3199
 1335ntf    fn410837   4.711   2.923   1.899 -0.1250  0.2503 -0.1512
 1335ntf    fn410838   4.897   2.868   1.828  0.2847 -0.3489  0.1471
 1335ntf    on510839   4.946   3.102   1.984 -0.0792 -0.1190 -0.2999
 1335ntf    on510840   4.815   3.003   2.162  0.1756  0.0887  0.2717
 1335ntf    on510841   5.190   2.846   2.292  0.5236  0.0394 -0.1182
 1335ntf    on510842   5.282   2.904   2.071 -0.0741  0.9822 -0.3798
 1335ntf    fn410843   5.171   3.169   2.112 -0.3653  0.4221  0.1954
 1335ntf    fn410844   5.278   3.126   2.285 -0.3458  0.3247 -0.3135
 1335ntf    fn410845   5.063   3.126   2.291  0.1217  0.1742  0.1055
 1336ntf    cn110846   2.256   4.452   2.246  0.0367 -0.0601 -0.5283
 1336ntf    sn210847   2.307   4.625   2.273  0.2868 -0.1914 -0.1465
 1336ntf    nn310848   2.461   4.600   2.292  0.2348 -0.5031 -0.1278
 1336ntf    sn210849   2.576   4.624   2.188  0.1044 -0.0118 -0.1632
 1336ntf    cn110850   2.629   4.791   2.236  0.1065  0.0227 -0.2865
 1336ntf    fn410851   2.284   4.407   2.125 -0.7115 -0.8775 -0.4030
 1336ntf    fn410852   2.317   4.377   2.336  0.1061 -0.0673 -0.5807
 1336ntf    fn410853   2.125   4.434   2.252  0.0883 -0.3302 -0.2269
 1336ntf    on510854   2.262   4.691   2.153 -0.1773 -0.1600  0.0425
 1336ntf    on510855   2.242   4.669   2.394  0.2678  0.1735 -0.2882
 1336ntf    on510856   2.684   4.537   2.229  0.4286  0.6341  0.3831
 1336ntf    on510857   2.544   4.629   2.048  0.8006  0.0698 -0.3230
 1336ntf    fn410858   2.739   4.829   2.171  0.1888 -0.0284 -0.1776
 1336ntf    fn410859   2.669   4.794   2.362 -0.6907 -0.2106 -0.0248
 1336ntf    fn410860   2.531   4.877   2.215  0.0385  0.0630  0.1908
 1337ntf    cn110861   0.665   1.270   3.339 -0.0617 -0.2342  0.0273
 1337ntf    sn210862   0.732   1.101   3.355  0.1811 -0.1367  0.0519
 1337ntf    nn310863   0.673   1.086   3.500 -0.2450 -0.2306 -0.1273
 1337ntf    sn210864   0.746   1.111   3.636 -0.0607 -0.3797 -0.1974
 1337ntf    cn110865   0.789   0.940   3.678  0.2358 -0.2021  0.2400
 1337ntf    fn410866   0.691   1.342   3.447  0.1086 -0.4218  0.1134
 1337ntf    fn410867   0.696   1.336   3.229  0.3337  0.3466  0.4796
 1337ntf    fn410868   0.533   1.268   3.345 -0.0608  0.3259  0.2264
 1337ntf    on510869   0.666   1.018   3.256  0.2938 -0.1421 -0.0187
 1337ntf    on510870   0.873   1.119   3.335  0.1160  0.4442  0.0966
 1337ntf    on510871   0.874   1.177   3.626  0.0541 -0.5952 -0.1590
 1337ntf    on510872   0.654   1.149   3.741  0.0751  0.3589 -0.3357
 1337ntf    fn410873   0.689   0.854   3.688  0.1840 -0.1654  0.0443
 1337ntf    fn410874   0.856   0.929   3.791  0.1809  0.3686  0.3291
 1337ntf    fn410875   0.863   0.897   3.576  0.0340 -0.3022  0.1342
 1338ntf    cn110876   3.953   6.619   3.660  0.1114  0.3974  0.3473
 1338ntf    sn210877   3.779   6.662   3.628  0.1936  0.3713 -0.1363
 1338ntf    nn310878   3.785   6.722   3.483  0.0221 -0.1069 -0.3449
 1338ntf    sn210879   3.758   6.872   3.444  0.1990  0.1045  0.3323
 1338ntf    cn110880   3.577   6.883   3.456  0.1800  0.1831 -0.0184
 1338ntf    fn410881   3.970   6.555   3.775 -0.1270  0.0897  0.2139
 1338ntf    fn410882   4.009   6.540   3.570  0.3308  0.1232  0.7192
 1338ntf    fn410883   4.028   6.728   3.660  0.0492  0.4508 -0.4497
 1338ntf    on510884   3.719   6.532   3.619  0.5384  0.2565 -0.8995
 1338ntf    on510885   3.729   6.740   3.738  0.0261  0.3137 -0.1714
 1338ntf    on510886   3.799   6.967   3.544  0.3497  0.4182 -0.0240
 1338ntf    on510887   3.784   6.901   3.305 -0.4904  0.1300  0.2089
 1338ntf    fn410888   3.545   6.883   3.584  0.7713 -0.2053  0.1368
 1338ntf    fn410889   3.517   6.774   3.409  0.7296 -0.0753 -0.1321
 1338ntf    fn410890   3.536   6.993   3.395  0.0537  0.2999  0.2797
 1339ntf    cn110891   0.284   4.585   3.865  0.0945 -0.1079 -0.3105
 1339ntf    sn210892   0.132   4.493   3.827 -0.0506  0.0690 -0.1586
 1339ntf    nn310893   0.113   4.384   3.938 -0.0015 -0.1614 -0.3744
 1339ntf    sn210894   0.041   4.245   3.930 -0.0890 -0.0963 -0.7380
 1339ntf    cn110895   0.176   4.130   3.891  0.0786 -0.0689 -0.2571
 1339ntf    fn410896   0.394   4.540   3.806  0.3267  0.4964 -0.3455
 1339ntf    fn410897   0.289   4.710   3.820  0.7128  0.1154  0.3722
 1339ntf    fn410898   0.317   4.591   3.993  0.7204  0.3690 -0.4886
 1339ntf    on510899   0.031   4.595   3.842 -0.3065 -0.2350  0.2098
 1339ntf    on510900   0.156   4.447   3.692  0.4702  0.8463 -0.3375
 1339ntf    on510901  -0.000   4.197   4.060 -0.2542  0.4821 -0.5746
 1339ntf    on510902  -0.062   4.238   3.829 -0.3849  0.2298 -0.4630
 1339ntf    fn410903   0.232   4.077   3.998 -0.0846 -0.0693 -0.1718
 1339ntf    fn410904   0.275   4.184   3.821  0.0760  0.2057 -0.0489
 1339ntf    fn410905   0.128   4.024   3.827  0.0306 -0.1934 -0.0126
 1340ntf    cn110906   2.813   1.230   5.063  0.2554  0.3182  0.2271
 1340ntf    sn210907   2.755   1.087   4.966 -0.0761  0.4503  0.2307
 1340ntf    nn310908   2.836   0.973   5.036 -0.2667  0.1758  0.0057
 1340ntf    sn210909   2.788   0.875   5.149 -0.0410  0.1375  0.0680
 1340ntf    cn110910   2.784   0.723   5.049  0.4016  0.1723 -0.0077
 1340ntf    fn410911   2.873   1.325   4.994 -0.0626  0.1947 -0.2209
 1340ntf    fn410912   2.721   1.297   5.131 -0.1801  0.0115 -0.0558
 1340ntf    fn410913   2.892   1.186   5.160 -0.2497 -0.3603  0.3397
 1340ntf    on510914   2.612   1.092   4.983 -0.1298 -0.4928  0.0829
 1340ntf    on510915   2.805   1.121   4.835 -0.4111 -0.2423 -0.0784
 1340ntf    on510916   2.892   0.849   5.246  0.1036  0.5810  0.0346
 1340ntf    on510917   2.657   0.902   5.201  0.1174  0.6010  0.2341
 1340ntf    fn410918   2.903   0.693   5.001  0.2683  0.1622 -0.3383
 1340ntf    fn410919   2.705   0.737   4.943 -0.1867 -0.1338  0.3884
 1340ntf    fn410920   2.742   0.617   5.115  0.1956 -0.0046 -0.4192
 1341ntf    cn110921   3.586   3.407   3.242  0.2730  0.3441  0.3151
 1341ntf    sn210922   3.438   3.402   3.348  0.0408  0.0792 -0.0212
 1341ntf    nn310923   3.502   3.363   3.486 -0.5907  0.2443  0.3236
 1341ntf    sn210924   3.554   3.461   3.597  0.0432 -0.0759  0.3174
 1341ntf    cn110925   3.680   3.352   3.669  0.2323 -0.2431 -0.2588
 1341ntf    fn410926   3.576   3.467   3.124 -0.7156 -0.0249  0.1972
 1341ntf    fn410927   3.692   3.463   3.297  0.5176 -0.0491  0.2466
 1341ntf    fn410928   3.633   3.287   3.214  0.6325  0.4859  0.3146
 1341ntf    on510929   3.380   3.533   3.338 -0.0167  0.0183 -0.5086
 1341ntf    on510930   3.361   3.295   3.288  0.4371 -0.0871 -0.2392
 1341ntf    on510931   3.630   3.576   3.555 -0.0701 -0.0283  0.2413
 1341ntf    on510932   3.465   3.488   3.707 -0.2035  0.6478 -0.0533
 1341ntf    fn410933   3.762   3.301   3.580  0.3609 -0.1518 -0.1926
 1341ntf    fn410934   3.635   3.245   3.732 -0.2639  0.0331 -0.1318
 1341ntf    fn410935   3.747   3.418   3.762 -0.3553  0.3999 -0.2806
 1342ntf    cn110936   0.814   0.374   1.801  0.1259  0.5753  0.0183
 1342ntf    sn210937   0.798   0.439   1.632  0.1084 -0.1229 -0.2539
 1342ntf    nn310938   0.648   0.408   1.598 -0.0429 -0.1180  0.3977
 1342ntf    sn210939   0.532   0.514   1.587  0.1174  0.0428  0.2585
 1342ntf    cn110940   0.382   0.412   1.604  0.0823  0.1429  0.5397
 1342ntf    fn410941   0.938   0.365   1.846  0.1638  0.3718 -0.1265
 1342ntf    fn410942   0.747   0.433   1.898 -0.2194  0.2933 -0.0474
 1342ntf    fn410943   0.775   0.248   1.817  0.5926  0.4745  0.3983
 1342ntf    on510944   0.827   0.580   1.645  0.5103 -0.2270 -0.0148
 1342ntf    on510945   0.893   0.352   1.567  0.3097  0.1653 -0.3472
 1342ntf    on510946   0.522   0.601   1.701 -0.1590  0.3581 -0.0029
 1342ntf    on510947   0.520   0.572   1.456 -0.9452 -0.2539  0.2173
 1342ntf    fn410948   0.381   0.314   1.515  0.1624  0.5668  0.0676
 1342ntf    fn410949   0.278   0.491   1.585  0.0836 -0.0282 -0.1850
 1342ntf    fn410950   0.367   0.361   1.726 -0.5949 -0.2347  0.3017
 1343ntf    cn110951   0.885   6.143   5.947 -0.1911 -0.2813 -0.4628
 1343ntf    sn210952   0.984   6.139   5.795  0.2105  0.3308 -0.2222
 1343ntf    nn310953   0.988   5.983   5.780 -0.7026  0.2763  0.0249
 1343ntf    sn210954   0.924   5.876   5.685  0.1545 -0.1405 -0.0933
 1343ntf    cn110955   0.935   5.723   5.783  0.1858  0.1360  0.3380
 1343ntf    fn410956   0.878   6.263   6.003 -0.4789 -0.2115 -0.6470
 1343ntf    fn410957   0.758   6.106   5.936 -0.2216 -0.5078  0.5281
 1343ntf    fn410958   0.931   6.074   6.049 -0.4498 -0.2217 -0.3041
 1343ntf    on510959   0.908   6.208   5.693 -0.2512  1.0418  0.5914
 1343ntf    on510960   1.114   6.183   5.839  0.2207  0.2057 -0.1266
 1343ntf    on510961   0.782   5.890   5.665  0.0513  0.0937  0.7743
 1343ntf    on510962   1.009   5.846   5.572  0.2239 -0.1444 -0.0407
 1343ntf    fn410963   1.060   5.693   5.817  0.1168 -0.1347  0.3553
 1343ntf    fn410964   0.881   5.619   5.722 -0.3610  0.4371  0.3035
 1343ntf    fn410965   0.878   5.736   5.901 -0.4149  0.1714  0.0474
 1344ntf    cn110966   0.052   1.058   3.612  0.2695  0.2403 -0.1904
 1344ntf    sn210967  -0.012   1.094   3.778 -0.0486 -0.0085 -0.2577
 1344ntf    nn310968  -0.010   1.251   3.774  0.1828 -0.0035 -0.0345
 1344ntf    sn210969  -0.123   1.347   3.721  0.1881 -0.0407 -0.1139
 1344ntf    cn110970  -0.038   1.437   3.588 -0.1376 -0.0313 -0.3164
 1344ntf    fn410971   0.151   1.137   3.574  0.4240  0.0928 -0.0995
 1344ntf    fn410972   0.100   0.934   3.602 -0.2861  0.0036  0.0556
 1344ntf    fn410973  -0.043   1.070   3.521 -0.0261  0.3312  0.1294
 1344ntf    on510974  -0.139   1.027   3.787 -0.0447  0.0085 -0.0810
 1344ntf    on510975   0.093   1.039   3.861  0.6468  0.7523 -0.6159
 1344ntf    on510976  -0.238   1.292   3.653 -0.0541 -0.0301  0.2871
 1344ntf    on510977  -0.150   1.454   3.813 -0.2713  0.0611 -0.3647
 1344ntf    fn410978   0.008   1.349   3.499  0.1797  0.2500 -0.4326
 1344ntf    fn410979   0.066   1.507   3.629 -0.1186 -0.1698 -0.1263
 1344ntf    fn410980  -0.113   1.526   3.526 -0.2680 -0.1579 -0.3403
 1345ntf    cn110981   1.491   0.855   1.587 -0.0295  0.4637 -0.0954
 1345ntf    sn210982   1.662   0.805   1.553 -0.0894  0.0053  0.2688
 1345ntf    nn310983   1.705   0.907   1.442 -0.0064 -0.1476  0.1612
 1345ntf    sn210984   1.821   1.011   1.429 -0.0144 -0.2044 -0.4010
 1345ntf    cn110985   1.750   1.156   1.513  0.3549 -0.0143 -0.4114
 1345ntf    fn410986   1.441   0.775   1.680  0.3128  0.1703 -0.1601
 1345ntf    fn410987   1.481   0.978   1.636 -0.7891  0.2702  0.2522
 1345ntf    fn410988   1.414   0.843   1.480  0.3873  0.3708 -0.3857
 1345ntf    on510989   1.731   0.821   1.679  0.4386 -0.2793  0.0210
 1345ntf    on510990   1.645   0.671   1.505 -0.0922  0.1519 -0.1400
 1345ntf    on510991   1.938   0.993   1.512 -0.2239  0.4570  0.0458
 1345ntf    on510992   1.852   1.059   1.296 -0.2282  0.3873 -0.2420
 1345ntf    fn410993   1.827   1.263   1.513  0.2074  0.0915 -0.0339
 1345ntf    fn410994   1.713   1.128   1.637 -0.4732  0.1026 -0.6234
 1345ntf    fn410995   1.636   1.201   1.464 -0.0394 -0.4310  0.1098
 1346ntf    cn110996   5.497   2.647   0.215 -0.0073  0.2524  0.5581
 1346ntf    sn210997   5.347   2.739   0.168  0.0238  0.2222  0.3977
 1346ntf    nn310998   5.320   2.824   0.297  0.2687  0.5705  0.2221
 1346ntf    sn210999   5.261   2.783   0.437  0.1847 -0.1756 -0.0278
 1346ntf    cn111000   5.083   2.804   0.406  0.1861  0.0698  0.1289
 1346ntf    fn411001   5.477   2.555   0.308  0.2897 -0.6445 -0.2427
 1346ntf    fn411002   5.554   2.591   0.109 -0.0710  0.7177  0.2750
 1346ntf    fn411003   5.593   2.721   0.268  0.1937  0.2164  0.2499
 1346ntf    on511004   5.403   2.820   0.063  0.0944 -0.1829  0.1197
 1346ntf    on511005   5.248   2.641   0.131  0.3155  0.0725  0.0054
 1346ntf    on511006   5.272   2.641   0.465  0.3795 -0.1649 -0.0503
 1346ntf    on511007   5.285   2.872   0.547 -0.3999  0.2131 -0.2147
 1346ntf    fn411008   5.011   2.772   0.512 -0.2877 -0.1166 -0.2452
 1346ntf    fn411009   5.047   2.728   0.303  0.4474  0.3507 -0.1731
 1346ntf    fn411010   5.047   2.924   0.363  0.3453 -0.0239 -0.2718
 1347ntf    cn111011   5.074   5.538   0.709  0.0998 -0.1907  0.1846
 1347ntf    sn211012   4.945   5.587   0.827  0.3032 -0.2442  0.4311
 1347ntf    nn311013   5.035   5.646   0.941  0.2143 -0.4117  0.5896
 1347ntf    sn211014   5.002   5.760   1.043 -0.4492 -0.0189 -0.0582
 1347ntf    cn111015   5.122   5.886   0.991 -0.0710 -0.2442  0.2659
 1347ntf    fn411016   5.166   5.465   0.770  0.2520 -0.1336  0.0245
 1347ntf    fn411017   5.022   5.470   0.608  0.7852  0.0946 -0.3730
 1347ntf    fn411018   5.126   5.650   0.662 -0.2022 -0.2825 -0.3790
 1347ntf    on511019   4.877   5.694   0.759  0.7699 -0.3738 -0.2511
 1347ntf    on511020   4.875   5.463   0.853 -0.0296 -0.1259  0.1129
 1347ntf    on511021   4.878   5.831   1.023 -0.3384  0.1069 -0.3036
 1347ntf    on511022   5.039   5.716   1.175  0.3076  0.4666 -0.1034
 1347ntf    fn411023   5.152   5.891   0.862 -0.0459  0.0623  0.2825
 1347ntf    fn411024   5.239   5.880   1.052  0.1495 -0.4412 -0.1722
 1347ntf    fn411025   5.072   6.006   1.017  0.5509 -0.0711  0.6631
 1348ntf    cn111026   4.351   2.304   2.379 -0.1435  0.4506  0.0876
 1348ntf    sn211027   4.369   2.123   2.383 -0.2896  0.4355  0.0574
 1348ntf    nn311028   4.448   2.114   2.518 -0.3810  0.1163  0.0908
 1348ntf    sn211029   4.600   2.111   2.558 -0.2558  0.0498 -0.3871
 1348ntf    cn111030   4.625   2.277   2.627  0.0365 -0.2113  0.1370
 1348ntf    fn411031   4.257   2.340   2.293 -0.2761 -0.3624 -0.1177
 1348ntf    fn411032   4.321   2.342   2.502 -0.7078  0.1819  0.0355
 1348ntf    fn411033   4.457   2.372   2.338 -0.5548  0.4883 -0.9474
 1348ntf    on511034   4.232   2.085   2.405 -0.4481  0.8376 -0.2136
 1348ntf    on511035   4.435   2.077   2.263  0.0504 -0.4202  0.5625
 1348ntf    on511036   4.645   2.028   2.667  0.5945 -0.2281 -0.9337
 1348ntf    on511037   4.684   2.117   2.441 -0.0075 -0.4659 -0.2395
 1348ntf    fn411038   4.561   2.292   2.742 -0.1357 -0.4168  0.0677
 1348ntf    fn411039   4.583   2.367   2.540  0.2791 -0.0144  0.2216
 1348ntf    fn411040   4.751   2.311   2.649  0.1935 -0.7089  0.0253
 1349ntf    cn111041   2.133   5.478   0.959 -0.0079 -0.0964  0.4952
 1349ntf    sn211042   2.155   5.299   0.981 -0.0095 -0.1495  0.0698
 1349ntf    nn311043   2.000   5.271   0.990 -0.0138 -0.2071 -0.1898
 1349ntf    sn211044   1.905   5.231   0.872 -0.1733  0.2611 -0.2214
 1349ntf    cn111045   1.901   5.050   0.883  0.5590  0.2789  0.3375
 1349ntf    fn411046   2.246   5.534   0.921 -0.1617 -0.0806  0.0548
 1349ntf    fn411047   2.044   5.510   0.866  0.4240  0.0420  0.1263
 1349ntf    fn411048   2.093   5.534   1.073 -0.0898  0.0418  0.3998
 1349ntf    on511049   2.221   5.250   0.863  0.0302  0.1997 -0.0536
 1349ntf    on511050   2.223   5.284   1.107  0.2635 -0.4259 -0.1109
 1349ntf    on511051   1.767   5.264   0.899 -0.1165  0.2742  0.0497
 1349ntf    on511052   1.961   5.262   0.743  0.0395  0.2815 -0.1238
 1349ntf    fn411053   1.809   5.010   0.969  0.2328 -0.4767 -0.3487
 1349ntf    fn411054   2.019   5.001   0.917  0.3926 -0.4253 -0.0832
 1349ntf    fn411055   1.868   4.991   0.770  0.5467  0.5195  0.2168
 1350ntf    cn111056   1.679   1.241   4.578 -0.3855  0.5959 -0.0938
 1350ntf    sn211057   1.806   1.366   4.617  0.0219  0.0768  0.2596
 1350ntf    nn311058   1.937   1.288   4.580  0.0422  0.0465  0.3959
 1350ntf    sn211059   2.028   1.285   4.452 -0.1452 -0.3282  0.2691
 1350ntf    cn111060   2.176   1.207   4.524 -0.0263 -0.0625  0.3158
 1350ntf    fn411061   1.682   1.208   4.450  0.0302  0.0073  0.0616
 1350ntf    fn411062   1.697   1.132   4.651  0.0409  0.4076 -0.4739
 1350ntf    fn411063   1.558   1.287   4.605 -0.5866 -0.0608  0.1270
 1350ntf    on511064   1.784   1.478   4.529 -0.1221 -0.0451  0.1391
 1350ntf    on511065   1.799   1.386   4.759 -0.6104  0.1164  0.2287
 1350ntf    on511066   1.987   1.185   4.358  0.0450 -0.2631  0.1165
 1350ntf    on511067   2.075   1.412   4.402 -0.0160 -0.2986  0.4601
 1350ntf    fn411068   2.279   1.197   4.441 -0.5145 -0.9000 -0.2099
 1350ntf    fn411069   2.153   1.080   4.554 -0.0080 -0.1800 -0.1569
 1350ntf    fn411070   2.222   1.270   4.631  0.2529 -0.2475  0.3048
 1351ntf    cn111071   3.291   6.189   4.697 -0.2730  0.2803 -0.5369
 1351ntf    sn211072   3.429   6.290   4.635  0.2016 -0.0339 -0.0009
 1351ntf    nn311073   3.360   6.362   4.514  0.2515  0.1475  0.0793
 1351ntf    sn211074   3.360   6.328   4.361 -0.0947 -0.0264  0.1187
 1351ntf    cn111075   3.416   6.494   4.313 -0.3116  0.2562  0.8328
 1351ntf    fn411076   3.318   6.127   4.811 -0.3899  0.4165 -0.4339
 1351ntf    fn411077   3.184   6.265   4.717 -0.0992  0.4419 -0.2151
 1351ntf    fn411078   3.244   6.096   4.615 -0.0336 -0.4018  0.0886
 1351ntf    on511079   3.459   6.387   4.737 -0.6281  0.4367 -0.2001
 1351ntf    on511080   3.535   6.197   4.607  0.2240 -0.1017  0.3001
 1351ntf    on511081   3.469   6.249   4.308 -0.4180 -0.4169  0.0287
 1351ntf    on511082   3.226   6.312   4.311 -0.1438 -0.1611  0.2930
 1351ntf    fn411083   3.534   6.521   4.368  0.0139 -0.1364  0.3337
 1351ntf    fn411084   3.330   6.591   4.339 -0.0799  0.7700 -0.2523
 1351ntf    fn411085   3.427   6.511   4.182  0.7273 -0.2502  0.8410
 1352ntf    cn111086   3.540   6.395   2.769  0.4830  0.2171 -0.0736
 1352ntf    sn211087   3.601   6.449   2.931  0.1224 -0.0248  0.1451
 1352ntf    nn311088   3.471   6.520   2.983  0.0492  0.0744 -0.1710
 1352ntf    sn211089   3.428   6.669   2.962  0.2832  0.1835  0.1088
 1352ntf    cn111090   3.487   6.729   3.123 -0.1312  0.0948  0.2942
 1352ntf    fn411091   3.625   6.312   2.709  0.2012 -0.0240 -0.1401
 1352ntf    fn411092   3.422   6.336   2.782  0.3284  0.6206  0.3829
 1352ntf    fn411093   3.510   6.499   2.693 -0.6422  0.1486  0.2591
 1352ntf    on511094   3.620   6.326   3.004 -0.4768 -0.1324  0.1211
 1352ntf    on511095   3.721   6.527   2.908  0.1805 -0.0704  0.2923
 1352ntf    on511096   3.507   6.744   2.867  0.3218  0.0838  0.0624
 1352ntf    on511097   3.285   6.687   2.958  0.2581 -0.0693 -0.1455
 1352ntf    fn411098   3.421   6.676   3.225 -0.4985  0.0048  0.0131
 1352ntf    fn411099   3.463   6.858   3.138 -0.0501  0.1460 -0.0217
 1352ntf    fn411100   3.615   6.702   3.142 -0.1372  0.3058  0.6469
 1353ntf    cn111101   2.068   0.007   4.233 -0.4178 -0.2327 -0.0919
 1353ntf    sn211102   1.980  -0.082   4.101 -0.4083  0.0263 -0.2738
 1353ntf    nn311103   1.940  -0.215   4.174 -0.2690  0.1696  0.0682
 1353ntf    sn211104   1.814  -0.259   4.257 -0.2478  0.2835  0.1606
 1353ntf    cn111105   1.858  -0.434   4.273 -0.2238  0.2383 -0.3805
 1353ntf    fn411106   2.176  -0.058   4.274 -0.2159  0.0391 -0.1896
 1353ntf    fn411107   2.117   0.124   4.195 -0.5396 -0.1911 -0.1236
 1353ntf    fn411108   1.987   0.023   4.336 -0.5633  0.0503 -0.2500
 1353ntf    on511109   1.866   0.000   4.068 -0.4275 -0.0271 -0.3403
 1353ntf    on511110   2.071  -0.102   3.991 -0.5187 -0.0661 -0.3492
 1353ntf    on511111   1.813  -0.218   4.395  0.0178  0.3544  0.1422
 1353ntf    on511112   1.687  -0.261   4.187 -0.1980 -0.3824  0.0806
 1353ntf    fn411113   1.770  -0.512   4.335 -0.0093  0.2804 -0.0239
 1353ntf    fn411114   1.971  -0.456   4.338 -0.4217 -0.5957 -0.2957
 1353ntf    fn411115   1.875  -0.484   4.151  0.3622 -0.0071 -0.1982
 1354ntf    cn111116   6.378   6.241   2.834 -0.2875  0.3966 -0.0113
 1354ntf    sn211117   6.492   6.381   2.815 -0.1758  0.2861 -0.1661
 1354ntf    nn311118   6.620   6.312   2.874 -0.4263 -0.1450 -0.1204
 1354ntf    sn211119   6.685   6.324   3.017  0.1150 -0.4976 -0.3330
 1354ntf    cn111120   6.745   6.152   3.013  0.0281 -0.5330 -0.1071
 1354ntf    fn411121   6.436   6.129   2.794  0.0487  0.3904  0.4836
 1354ntf    fn411122   6.349   6.216   2.961  0.0054  0.2601  0.0302
 1354ntf    fn411123   6.263   6.262   2.773 -0.1545  0.2580 -0.3130
 1354ntf    on511124   6.506   6.403   2.674  0.5732 -0.1560 -0.1629
 1354ntf    on511125   6.441   6.484   2.904  0.3819  0.3732  0.0575
 1354ntf    on511126   6.805   6.401   3.036 -0.1759 -0.0422 -0.3125
 1354ntf    on511127   6.596   6.324   3.130  0.6457 -0.1537  0.0860
 1354ntf    fn411128   6.786   6.123   2.891 -0.4134  0.4497 -0.5054
 1354ntf    fn411129   6.655   6.060   3.044 -0.5969  0.2249  0.3816
 1354ntf    fn411130   6.844   6.136   3.099 -0.4112 -0.5563  0.4041
 1355ntf    cn111131   6.483   1.792   2.331  0.2044 -0.1283 -0.1738
 1355ntf    sn211132   6.379   1.869   2.204  0.4920  0.2173 -0.2015
 1355ntf    nn311133   6.237   1.856   2.271  0.5573 -0.6713 -0.2290
 1355ntf    sn211134   6.131   1.741   2.258 -0.0077 -0.1779  0.0177
 1355ntf    cn111135   6.020   1.825   2.140  0.0660 -0.2666 -0.1146
 1355ntf    fn411136   6.606   1.765   2.290  0.0997 -0.4266 -0.2919
 1355ntf    fn411137   6.501   1.870   2.436 -0.0599 -0.3230  0.0168
 1355ntf    fn411138   6.422   1.683   2.375 -0.0316  0.1395  0.1694
 1355ntf    on511139   6.426   2.005   2.211  0.2288  0.2792  0.4198
 1355ntf    on511140   6.393   1.801   2.078 -0.0297 -0.3174  0.0251
 1355ntf    on511141   6.172   1.620   2.192  0.6130  0.1675 -0.2448
 1355ntf    on511142   6.050   1.733   2.377 -0.0642 -0.0544 -0.0115
 1355ntf    fn411143   6.075   1.836   2.020 -0.1809 -0.0205 -0.2067
 1355ntf    fn411144   5.994   1.949   2.178 -0.3206 -0.3696 -0.0445
 1355ntf    fn411145   5.906   1.760   2.126  0.4065 -0.8203 -0.3405
 1356ntf    cn111146   4.856   5.924   6.585 -0.4182 -0.1895  0.1126
 1356ntf    sn211147   5.025   5.966   6.639 -0.3521 -0.1929 -0.0877
 1356ntf    nn311148   5.089   5.825   6.663  0.1678  0.0605  0.0348
 1356ntf    sn211149   5.206   5.757   6.584  0.1198 -0.1855  0.1726
 1356ntf    cn111150   5.129   5.594   6.562  0.0147 -0.0879 -0.1971
 1356ntf    fn411151   4.860   5.808   6.521  0.1149  0.1444 -0.4871
 1356ntf    fn411152   4.772   5.905   6.684  0.2046 -0.0576  0.6722
 1356ntf    fn411153   4.800   6.010   6.501 -0.2834  0.2266  0.4446
 1356ntf    on511154   5.085   6.039   6.530 -0.2046  0.1341  0.2088
 1356ntf    on511155   5.005   6.047   6.757 -0.3228 -0.5956  0.1955
 1356ntf    on511156   5.224   5.799   6.447 -0.0538  0.1270  0.2455
 1356ntf    on511157   5.315   5.729   6.673  0.0953  0.3358  0.3706
 1356ntf    fn411158   5.007   5.594   6.512  0.0316 -0.1573 -0.2407
 1356ntf    fn411159   5.127   5.540   6.683  0.0553  0.0615 -0.1299
 1356ntf    fn411160   5.207   5.515   6.489  0.1741 -0.0436 -0.0763
 1357ntf    cn111161   4.257   1.241   5.930  0.4024  0.2140 -0.5014
 1357ntf    sn211162   4.175   1.147   5.799  0.4570 -0.2284 -0.2200
 1357ntf    nn311163   4.271   1.166   5.676  0.1435  0.4616 -0.3629
 1357ntf    sn211164   4.389   1.072   5.633 -0.1986 -0.0412 -0.2044
 1357ntf    cn111165   4.318   0.924   5.554 -0.0379 -0.0237 -0.3830
 1357ntf    fn411166   4.192   1.242   6.045  0.7465 -0.1100 -0.3005
 1357ntf    fn411167   4.381   1.203   5.957  0.1463 -0.5198 -0.3384
 1357ntf    fn411168   4.260   1.372   5.910 -0.5178  0.2996 -0.1149
 1357ntf    on511169   4.165   1.015   5.856  0.2539 -0.1572 -0.0904
 1357ntf    on511170   4.053   1.224   5.786  0.2005 -0.6621 -0.4093
 1357ntf    on511171   4.478   1.132   5.536  0.4415 -0.1845  0.2897
 1357ntf    on511172   4.457   1.027   5.752 -0.4875  0.0829  0.0091
 1357ntf    fn411173   4.295   0.843   5.657 -0.1948  0.6118  0.0878
 1357ntf    fn411174   4.392   0.864   5.463  0.1183 -0.2368 -0.1198
 1357ntf    fn411175   4.196   0.944   5.507 -0.2371  0.0652  0.1609
 1358ntf    cn111176   2.646   6.435   4.929  0.3013  0.1932  0.1393
 1358ntf    sn211177   2.697   6.496   4.766 -0.0037  0.2551  0.0664
 1358ntf    nn311178   2.638   6.382   4.676 -0.0204  0.2117  0.1325
 1358ntf    sn211179   2.547   6.383   4.548 -0.0857 -0.2512  0.1720
 1358ntf    cn111180   2.388   6.391   4.635 -0.1206  0.4217  0.0494
 1358ntf    fn411181   2.720   6.338   4.980 -0.3173 -0.3977 -0.0655
 1358ntf    fn411182   2.664   6.535   5.014 -0.0580  0.1337  0.2903
 1358ntf    fn411183   2.518   6.400   4.934  0.4288 -0.3139 -0.1186
 1358ntf    on511184   2.641   6.628   4.756 -0.2275  0.1443 -0.1728
 1358ntf    on511185   2.840   6.491   4.777  0.0183 -0.1540 -0.3681
 1358ntf    on511186   2.545   6.507   4.474  0.1256 -0.0837  0.4472
 1358ntf    on511187   2.548   6.255   4.482  0.3313 -0.1252 -0.0701
 1358ntf    fn411188   2.373   6.287   4.715 -0.0013  0.2027 -0.2137
 1358ntf    fn411189   2.293   6.385   4.544  0.2028 -0.5798 -0.2322
 1358ntf    fn411190   2.363   6.499   4.708 -0.0898  0.4611  0.0027
 1359ntf    cn111191   4.496   6.299   0.657  0.3842  0.2443 -0.1179
 1359ntf    sn211192   4.551   6.311   0.484  0.3754  0.0107 -0.1364
 1359ntf    nn311193   4.410   6.296   0.417  0.3026  0.0468  0.0076
 1359ntf    sn211194   4.368   6.240   0.276 -0.4147  0.0262  0.2283
 1359ntf    cn111195   4.333   6.064   0.311 -0.1109 -0.1003 -0.1014
 1359ntf    fn411196   4.595   6.345   0.733  0.3631 -0.1367  0.1417
 1359ntf    fn411197   4.386   6.369   0.676  0.1407 -0.0675 -0.3711
 1359ntf    fn411198   4.473   6.173   0.689 -0.0192  0.4556  0.4412
 1359ntf    on511199   4.593   6.449   0.485 -0.0801  0.1490  0.2604
 1359ntf    on511200   4.645   6.202   0.466  0.5614  0.1817 -0.2035
 1359ntf    on511201   4.244   6.289   0.222 -0.3041  0.2379  0.1689
 1359ntf    on511202   4.472   6.241   0.177 -0.4077 -0.3032  0.2285
 1359ntf    fn411203   4.275   6.013   0.204 -0.2642 -0.6327  0.2340
 1359ntf    fn411204   4.245   6.044   0.407 -0.2375  0.1476 -0.1634
 1359ntf    fn411205   4.441   5.991   0.334 -0.0666  0.1058  0.3501
 1360ntf    cn111206   6.250   2.583   3.691 -0.3364  0.1550  0.1051
 1360ntf    sn211207   6.166   2.625   3.535  0.4574  0.1673 -0.3219
 1360ntf    nn311208   6.252   2.536   3.439  0.5201  0.0313 -0.1416
 1360ntf    sn211209   6.216   2.392   3.387 -0.0553  0.0686  0.1456
 1360ntf    cn111210   6.383   2.321   3.371 -0.1467 -0.1530  0.1696
 1360ntf    fn411211   6.176   2.579   3.801 -0.1545 -0.1159  0.2193
 1360ntf    fn411212   6.300   2.460   3.686 -0.4190  0.1294 -0.1056
 1360ntf    fn411213   6.351   2.666   3.711 -0.1008 -0.1874  0.3401
 1360ntf    on511214   6.035   2.571   3.563  0.4825  0.3067  0.0776
 1360ntf    on511215   6.187   2.768   3.527  0.3031  0.2174  0.1053
 1360ntf    on511216   6.164   2.295   3.479 -0.2948 -0.1770 -0.2445
 1360ntf    on511217   6.156   2.398   3.256  0.1492  0.5116  0.0681
 1360ntf    fn411218   6.463   2.398   3.300 -0.1694  0.0819  0.3962
 1360ntf    fn411219   6.388   2.205   3.308 -0.2859 -0.0819  0.0264
 1360ntf    fn411220   6.437   2.313   3.492  0.0453  0.3183  0.1182
 1361ntf    cn111221   3.182   3.998   4.030 -0.1869 -0.0870  0.0081
 1361ntf    sn211222   3.030   4.076   3.966 -0.2205  0.0061  0.2001
 1361ntf    nn311223   3.053   4.069   3.811  0.1697  0.4924  0.2319
 1361ntf    sn211224   3.094   4.176   3.705  0.1949  0.3677  0.1155
 1361ntf    cn111225   2.940   4.252   3.646  0.1610  0.2582  0.0628
 1361ntf    fn411226   3.283   4.078   3.999 -0.2626 -0.0265 -0.0818
 1361ntf    fn411227   3.176   3.979   4.161  0.4410  0.1629  0.0752
 1361ntf    fn411228   3.205   3.881   3.973 -0.5268  0.2258 -0.7906
 1361ntf    on511229   2.932   3.977   4.001 -0.0573 -0.0520  0.5016
 1361ntf    on511230   3.026   4.204   4.033  0.6476  0.2785 -0.2564
 1361ntf    on511231   3.172   4.286   3.757  0.1910  0.4620 -0.0761
 1361ntf    on511232   3.143   4.115   3.584 -0.1469  0.1612  0.0784
 1361ntf    fn411233   2.886   4.335   3.734  0.1126 -0.1533  0.4191
 1361ntf    fn411234   2.846   4.160   3.631  0.5866 -0.1792  0.0559
 1361ntf    fn411235   2.953   4.320   3.533 -0.1722  0.0562 -0.1016
 1362ntf    cn111236   3.456   3.778   1.212 -0.1227 -0.0085 -0.0927
 1362ntf    sn211237   3.575   3.701   1.098 -0.1573 -0.1922 -0.0048
 1362ntf    nn311238   3.699   3.699   1.193 -0.2631 -0.0167  0.1378
 1362ntf    sn211239   3.739   3.594   1.302  0.0380  0.0800  0.1220
 1362ntf    cn111240   3.855   3.493   1.205  0.0830 -0.0357  0.2952
 1362ntf    fn411241   3.331   3.783   1.167 -0.1622  0.0383  0.0207
 1362ntf    fn411242   3.447   3.725   1.333  0.7461 -0.1414 -0.0843
 1362ntf    fn411243   3.477   3.908   1.227 -0.3299  0.0790 -0.5274
 1362ntf    on511244   3.517   3.573   1.062 -0.0127 -0.3893  0.4623
 1362ntf    on511245   3.591   3.792   0.987 -0.0585 -0.7516 -0.4575
 1362ntf    on511246   3.821   3.651   1.406  0.5163 -0.3360 -0.0224
 1362ntf    on511247   3.632   3.507   1.344  0.5677 -0.6963 -0.1058
 1362ntf    fn411248   3.933   3.560   1.122 -0.3220 -0.1991 -0.2242
 1362ntf    fn411249   3.786   3.406   1.132 -0.4867  0.3613  0.3576
 1362ntf    fn411250   3.936   3.422   1.281  0.4992  0.1829  0.0622
 1363ntf    cn111251   5.421   6.578   4.035  0.0687  0.1470  0.3092
 1363ntf    sn211252   5.474   6.588   4.209  0.0647  0.2616  0.3031
 1363ntf    nn311253   5.595   6.688   4.200  0.2934 -0.1137 -1.1044
 1363ntf    sn211254   5.746   6.686   4.242 -0.0380 -0.0659  0.1482
 1363ntf    cn111255   5.738   6.723   4.420 -0.2126 -0.2216  0.1725
 1363ntf    fn411256   5.356   6.688   3.999  0.4573  0.2486 -0.0888
 1363ntf    fn411257   5.519   6.563   3.948 -0.3688 -0.2091 -0.1258
 1363ntf    fn411258   5.340   6.474   4.024  0.0064  0.2400 -0.1087
 1363ntf    on511259   5.360   6.640   4.280 -0.0447  0.3955  0.0323
 1363ntf    on511260   5.514   6.454   4.245  0.0954  0.1668 -0.0739
 1363ntf    on511261   5.809   6.556   4.243  0.3344  0.1134  0.1244
 1363ntf    on511262   5.826   6.794   4.190  0.6320 -0.4574  0.3494
 1363ntf    fn411263   5.703   6.849   4.436  0.1463 -0.0855 -0.1002
 1363ntf    fn411264   5.849   6.701   4.489 -0.4604 -0.1168  0.6061
 1363ntf    fn411265   5.639   6.652   4.473 -0.2289 -0.4087 -0.1014
 1364ntf    cn111266   3.416   2.939   3.005 -0.3541  0.0120  0.1207
 1364ntf    sn211267   3.380   2.798   3.113  0.0332 -0.2171 -0.0459
 1364ntf    nn311268   3.233   2.764   3.068 -0.0839 -0.2172  0.3272
 1364ntf    sn211269   3.133   2.662   3.134 -0.0933 -0.3449  0.1172
 1364ntf    cn111270   3.123   2.536   3.004 -0.1888 -0.1555 -0.0609
 1364ntf    fn411271   3.404   2.899   2.879 -0.2382 -0.0518  0.1303
 1364ntf    fn411272   3.323   3.031   3.026  0.1995  0.6178 -0.0262
 1364ntf    fn411273   3.536   2.991   3.025  0.1302 -0.9099 -0.3231
 1364ntf    on511274   3.482   2.710   3.062  0.2120  0.0638 -0.1746
 1364ntf    on511275   3.400   2.854   3.245 -0.2422 -0.5185  0.1268
 1364ntf    on511276   3.179   2.584   3.246  0.1296 -0.2826  0.0710
 1364ntf    on511277   2.997   2.710   3.138 -0.2473 -0.6869 -0.7118
 1364ntf    fn411278   3.237   2.471   2.985 -0.2862 -0.2506 -0.3214
 1364ntf    fn411279   3.088   2.583   2.885  0.4605  0.2682 -0.0881
 1364ntf    fn411280   3.041   2.437   3.037 -0.2023 -0.1234  0.0021
 1365ntf    cn111281   4.817   3.492   6.574 -0.1908  0.5483  0.2570
 1365ntf    sn211282   4.996   3.467   6.560 -0.3006 -0.0998 -0.0167
 1365ntf    nn311283   5.036   3.402   6.698 -0.6756  0.1574  0.2121
 1365ntf    sn211284   5.055   3.481   6.832  0.1199 -0.0162  0.2011
 1365ntf    cn111285   5.236   3.499   6.835  0.1195  0.0337  0.0200
 1365ntf    fn411286   4.755   3.414   6.661  0.1093 -0.0546 -0.0637
 1365ntf    fn411287   4.814   3.613   6.627  0.0405  0.5825  0.1917
 1365ntf    fn411288   4.751   3.497   6.459  0.4636 -0.7362 -0.1979
 1365ntf    on511289   5.008   3.370   6.454  0.7883 -0.1096  0.0945
 1365ntf    on511290   5.056   3.595   6.531  1.0422 -0.6952  0.0194
 1365ntf    on511291   5.000   3.614   6.834  0.3653  0.0823  0.5471
 1365ntf    on511292   5.023   3.397   6.945 -0.4971 -0.0094  0.0344
 1365ntf    fn411293   5.276   3.585   6.743 -0.1040  0.5685  0.4123
 1365ntf    fn411294   5.297   3.382   6.825 -0.4802 -0.3035  0.2462
 1365ntf    fn411295   5.278   3.553   6.949 -0.2936  0.5131 -0.0536
 1366ntf    cn111296   3.622   3.451   0.103  0.2449  0.3398 -0.0937
 1366ntf    sn211297   3.575   3.372   0.260  0.1502 -0.0350 -0.3090
 1366ntf    nn311298   3.696   3.400   0.356  0.4146  0.6607 -0.8357
 1366ntf    sn211299   3.816   3.309   0.400 -0.2015  0.0969 -0.2871
 1366ntf    cn111300   3.934   3.444   0.432  0.2038 -0.3078 -0.0593
 1366ntf    fn411301   3.529   3.434   0.010 -0.2297 -0.3146  0.4896
 1366ntf    fn411302   3.625   3.582   0.122 -0.2368  0.3360  0.0367
 1366ntf    fn411303   3.737   3.414   0.049  0.1941 -0.2231  0.1712
 1366ntf    on511304   3.450   3.440   0.286  0.3000  0.2046 -0.2105
 1366ntf    on511305   3.566   3.234   0.220  0.1041 -0.1204 -0.0079
 1366ntf    on511306   3.797   3.253   0.531 -0.0076  0.1841 -0.2207
 1366ntf    on511307   3.884   3.227   0.302  0.2747  0.1528 -0.0097
 1366ntf    fn411308   3.948   3.534   0.337  0.0240  0.3951  0.5704
 1366ntf    fn411309   4.054   3.406   0.472  0.1968  0.1517  0.4131
 1366ntf    fn411310   3.887   3.499   0.543  0.1057 -0.5351  0.0137
 1367ntf    cn111311   2.046   4.540   5.074 -0.1533  0.1940 -0.4752
 1367ntf    sn211312   2.199   4.580   4.984  0.1013  0.0708 -0.1000
 1367ntf    nn311313   2.138   4.659   4.863 -0.7509 -0.1086  0.2081
 1367ntf    sn211314   2.102   4.609   4.719  0.2114  0.0245 -0.0813
 1367ntf    cn111315   1.969   4.726   4.681 -0.0068 -0.2070 -0.0304
 1367ntf    fn411316   1.980   4.451   5.002 -0.1018 -0.4465  0.2535
 1367ntf    fn411317   2.064   4.494   5.197  0.5607  0.1822 -0.5784
 1367ntf    fn411318   1.969   4.647   5.080  0.1613  0.3800  0.4385
 1367ntf    on511319   2.276   4.677   5.058 -0.1050 -0.0046  0.2149
 1367ntf    on511320   2.266   4.457   4.950 -0.7361 -0.3657 -0.1950
 1367ntf    on511321   2.200   4.640   4.618 -0.2194  0.7484 -0.2851
 1367ntf    on511322   2.039   4.479   4.711  0.2094  0.0215 -0.0191
 1367ntf    fn411323   1.918   4.699   4.562  0.3576 -0.2591 -0.1760
 1367ntf    fn411324   1.997   4.855   4.685  0.1631 -0.2480  0.1187
 1367ntf    fn411325   1.868   4.715   4.767  0.3253  0.4171  0.4496
 1368ntf    cn111326   0.020   0.522   0.355 -0.2909 -0.0618  0.1084
 1368ntf    sn211327  -0.064   0.671   0.417 -0.1005  0.1714 -0.1962
 1368ntf    nn311328  -0.204   0.614   0.460  0.1904 -0.2450  0.2093
 1368ntf    sn211329  -0.264   0.577   0.600 -0.1277  0.4223  0.2573
 1368ntf    cn111330  -0.307   0.403   0.570  0.0649  0.4726 -0.3237
 1368ntf    fn411331  -0.055   0.456   0.268 -0.1053 -0.0956 -0.0254
 1368ntf    fn411332   0.132   0.544   0.289 -0.4196 -0.2920 -0.1898
 1368ntf    fn411333   0.051   0.431   0.446  0.2770 -0.3306 -0.3463
 1368ntf    on511334   0.022   0.722   0.521 -0.0854  0.1864 -0.2157
 1368ntf    on511335  -0.077   0.752   0.298 -0.6873 -0.1875 -0.3792
 1368ntf    on511336  -0.174   0.556   0.711  0.2048  1.1093  0.1208
 1368ntf    on511337  -0.390   0.638   0.633 -0.3242  0.0146  0.2712
 1368ntf    fn411338  -0.204   0.331   0.529 -0.1216  0.0423 -0.0404
 1368ntf    fn411339  -0.403   0.378   0.482 -0.0814 -0.3253  0.0464
 1368ntf    fn411340  -0.356   0.347   0.679  0.5059 -0.4343 -0.5750
 1369ntf    cn111341   2.827   0.679   2.903 -0.1503 -0.0390  0.0334
 1369ntf    sn211342   2.828   0.508   2.965 -0.1907  0.0289  0.2236
 1369ntf    nn311343   2.714   0.520   3.073 -0.5445 -0.0025 -0.1429
 1369ntf    sn211344   2.724   0.563   3.223  0.1382  0.0340 -0.1953
 1369ntf    cn111345   2.734   0.400   3.303  0.0760  0.0109 -0.2351
 1369ntf    fn411346   2.830   0.768   3.001  0.2698 -0.2433  0.2140
 1369ntf    fn411347   2.920   0.707   2.814 -0.1792  0.3539  0.1269
 1369ntf    fn411348   2.713   0.696   2.838 -0.0376  0.2186 -0.0959
 1369ntf    on511349   2.796   0.428   2.849  0.2149  0.2049 -0.0128
 1369ntf    on511350   2.959   0.504   3.024 -0.0449 -0.3961 -0.1181
 1369ntf    on511351   2.843   0.629   3.270  0.0806 -0.2435  0.3504
 1369ntf    on511352   2.602   0.621   3.272  0.3835  0.1051  0.3421
 1369ntf    fn411353   2.854   0.345   3.291  0.1276  0.1891 -0.5314
 1369ntf    fn411354   2.656   0.305   3.253 -0.4413  0.4353 -0.2469
 1369ntf    fn411355   2.708   0.402   3.433  0.4097 -0.4028 -0.1576
 1370ntf    cn111356   3.033   4.108   3.205 -0.0060 -0.3886 -0.1019
 1370ntf    sn211357   3.128   4.127   3.052  0.2367 -0.0733  0.0867
 1370ntf    nn311358   3.008   4.158   2.956  0.0217  0.0964  0.4119
 1370ntf    sn211359   3.004   4.237   2.820 -0.1689 -0.3724  0.1428
 1370ntf    cn111360   2.978   4.095   2.709 -0.0152 -0.0331 -0.3264
 1370ntf    fn411361   2.931   4.026   3.187 -0.5180  0.0933  0.5677
 1370ntf    fn411362   3.112   4.061   3.300 -0.0307 -0.3625 -0.0685
 1370ntf    fn411363   2.978   4.217   3.257  0.2067 -0.1003 -0.4782
 1370ntf    on511364   3.224   4.229   3.086  0.3666 -0.1716  0.0176
 1370ntf    on511365   3.180   3.993   3.042 -0.0594 -0.2037  0.2941
 1370ntf    on511366   2.888   4.322   2.821  0.1087  0.0163 -0.4280
 1370ntf    on511367   3.122   4.305   2.772  0.0785 -0.4662  0.6039
 1370ntf    fn411368   2.853   4.051   2.710 -0.2191  0.5424 -0.0768
 1370ntf    fn411369   3.054   3.991   2.738 -0.4232 -0.1801  0.2128
 1370ntf    fn411370   3.021   4.131   2.589 -0.1741 -0.7434 -0.5956
 1371ntf    cn111371   3.831   6.608   4.424 -0.0025  0.4567  0.0303
 1371ntf    sn211372   3.910   6.461   4.498 -0.4764  0.2663  0.1625
 1371ntf    nn311373   3.924   6.514   4.645 -0.3062  0.0419  0.2278
 1371ntf    sn211374   4.035   6.610   4.702 -0.1300 -0.0833  0.0991
 1371ntf    cn111375   3.931   6.744   4.767 -0.0961  0.0197 -0.0579
 1371ntf    fn411376   3.779   6.582   4.306  0.2503  0.2119 -0.0290
 1371ntf    fn411377   3.731   6.660   4.494  0.0892  0.2763  0.2994
 1371ntf    fn411378   3.920   6.705   4.407  0.4158  0.1261  0.3021
 1371ntf    on511379   3.808   6.360   4.486 -0.2715  0.0483  0.2610
 1371ntf    on511380   4.037   6.441   4.432 -0.5554  0.4836 -0.0593
 1371ntf    on511381   4.098   6.563   4.822  0.0902  0.3050  0.1380
 1371ntf    on511382   4.118   6.673   4.602 -0.1610  0.0048  0.1282
 1371ntf    fn411383   3.907   6.829   4.669 -0.0463  0.1735  0.0615
 1371ntf    fn411384   3.990   6.809   4.867 -0.4849 -0.0421  0.2160
 1371ntf    fn411385   3.809   6.708   4.802 -0.2252  0.5705  0.0767
 1372ntf    cn111386   0.887   1.919   0.510 -0.0193  0.0497  0.1476
 1372ntf    sn211387   0.908   1.790   0.637  0.2101 -0.1798 -0.1213
 1372ntf    nn311388   0.960   1.874   0.758  0.1343 -0.2353 -0.0502
 1372ntf    sn211389   1.021   1.814   0.890  0.1116  0.0856  0.1073
 1372ntf    cn111390   0.876   1.726   0.957 -0.2052  0.0480 -0.6227
 1372ntf    fn411391   0.841   2.030   0.564 -0.3764 -0.1335  0.2225
 1372ntf    fn411392   1.000   1.942   0.446  0.0179  0.7373  0.4564
 1372ntf    fn411393   0.806   1.879   0.413  0.0169  0.1498  0.0764
 1372ntf    on511394   0.774   1.743   0.660  0.1294 -0.0299 -0.2766
 1372ntf    on511395   1.006   1.705   0.574  0.0387 -0.3382 -0.1763
 1372ntf    on511396   1.119   1.710   0.873 -0.6385 -0.5147 -0.6186
 1372ntf    on511397   1.050   1.910   0.994 -0.0932  0.4602 -0.1797
 1372ntf    fn411398   0.861   1.604   0.908 -0.0420 -0.4355  0.5045
 1372ntf    fn411399   0.766   1.795   0.929  0.0081  0.5566 -0.2189
 1372ntf    fn411400   0.880   1.716   1.089 -0.0830  0.1378 -0.6193
 1373ntf    cn111401   4.057   2.675   1.815  0.3667  0.2892  0.0441
 1373ntf    sn211402   4.093   2.497   1.834 -0.2055  0.1702  0.0464
 1373ntf    nn311403   4.232   2.507   1.905  0.0544 -0.2564 -0.3966
 1373ntf    sn211404   4.372   2.468   1.847  0.1811  0.0770 -0.3232
 1373ntf    cn111405   4.482   2.579   1.939  0.0097 -0.1903  0.2076
 1373ntf    fn411406   3.938   2.703   1.765  0.3375 -0.2021 -0.1670
 1373ntf    fn411407   4.065   2.738   1.931  0.3414 -0.3368  0.3947
 1373ntf    fn411408   4.147   2.732   1.738  0.6453  0.2841  0.3618
 1373ntf    on511409   3.993   2.460   1.931 -0.0387 -0.5723 -0.0611
 1373ntf    on511410   4.084   2.442   1.701  0.4704 -0.0733  0.0984
 1373ntf    on511411   4.422   2.341   1.895 -0.4483  0.0237  0.1899
 1373ntf    on511412   4.393   2.506   1.709 -0.3783  0.0858 -0.4052
 1373ntf    fn411413   4.612   2.558   1.928  0.1072  0.3887  0.2007
 1373ntf    fn411414   4.453   2.582   2.068 -0.2731 -0.4019  0.1501
 1373ntf    fn411415   4.462   2.703   1.899  0.5101 -0.2092 -0.1066
 1374ntf    cn111416   1.403   0.296   0.028 -0.2862  0.2444  0.2503
 1374ntf    sn211417   1.341   0.236   0.187 -0.2494  0.0264  0.1825
 1374ntf    nn311418   1.218   0.156   0.130 -0.2372  0.0081  0.1815
 1374ntf    sn211419   1.206   0.002   0.106 -0.1246  0.0250  0.0159
 1374ntf    cn111420   1.137  -0.054   0.264  0.2859  0.3666  0.3186
 1374ntf    fn411421   1.312   0.351  -0.051  0.4138  0.5833 -0.3437
 1374ntf    fn411422   1.503   0.382   0.044  0.1038 -0.1757  0.0887
 1374ntf    fn411423   1.447   0.191  -0.039 -0.1183  0.2719  0.3179
 1374ntf    on511424   1.450   0.161   0.244  0.6542  0.4669 -0.9275
 1374ntf    on511425   1.311   0.357   0.260  0.2029  0.5461 -0.4896
 1374ntf    on511426   1.096  -0.019   0.014  0.2405  0.1691 -0.4573
 1374ntf    on511427   1.324  -0.080   0.099 -0.3678 -0.2919 -0.5039
 1374ntf    fn411428   1.228  -0.049   0.359  0.2943 -0.0289  0.3331
 1374ntf    fn411429   1.099  -0.181   0.255  0.0244  0.4748 -0.1474
 1374ntf    fn411430   1.028   0.010   0.304 -0.1416  0.0560 -0.3216
 1375ntf    cn111431   3.111   0.153   2.303 -0.1036 -0.0006 -0.0451
 1375ntf    sn211432   3.025   0.050   2.180  0.0804 -0.2295  0.0159
 1375ntf    nn311433   2.878   0.103   2.199  0.2411  0.1388  0.2392
 1375ntf    sn211434   2.759   0.034   2.275  0.0714  0.1451 -0.0210
 1375ntf    cn111435   2.621   0.138   2.218 -0.4297 -0.4445  0.1063
 1375ntf    fn411436   3.092   0.282   2.285  0.7263  0.0805 -0.3773
 1375ntf    fn411437   3.078   0.134   2.430  0.0845 -0.3078 -0.0398
 1375ntf    fn411438   3.242   0.139   2.292 -0.1730 -0.5655 -0.2151
 1375ntf    on511439   3.076   0.093   2.052  0.3427  0.3740  0.3168
 1375ntf    on511440   3.051  -0.083   2.227 -0.6480 -0.2501  0.3782
 1375ntf    on511441   2.718  -0.094   2.223  0.7088 -0.0981  0.0696
 1375ntf    on511442   2.764   0.057   2.417  0.4057 -0.1007  0.0087
 1375ntf    fn411443   2.590   0.131   2.090 -0.1727  0.3055 -0.0009
 1375ntf    fn411444   2.658   0.263   2.236  0.1442 -0.5076 -0.5708
 1375ntf    fn411445   2.507   0.114   2.280 -0.2151 -0.5078  0.4843
 1376ntf    cn111446   6.141   1.104   6.530 -0.2648 -0.3781 -0.2271
 1376ntf    sn211447   6.224   1.117   6.369 -0.0513 -0.1015 -0.0964
 1376ntf    nn311448   6.359   1.045   6.403 -0.0523 -0.0027  0.1202
 1376ntf    sn211449   6.479   1.013   6.307 -0.1753  0.2132 -0.1070
 1376ntf    cn111450   6.567   1.170   6.333 -0.1068  0.1934 -0.2217
 1376ntf    fn411451   6.197   1.167   6.632 -0.2061 -0.7682 -0.0138
 1376ntf    fn411452   6.017   1.148   6.521 -0.0084  0.3923 -0.0173
 1376ntf    fn411453   6.140   0.978   6.571 -0.0146 -0.3098 -0.0114
 1376ntf    on511454   6.137   1.041   6.282 -0.3769 -0.0337  0.1693
 1376ntf    on511455   6.237   1.259   6.349 -0.4014  0.0235  0.5448
 1376ntf    on511456   6.569   0.914   6.361 -0.3294  0.1532  0.0411
 1376ntf    on511457   6.441   1.016   6.168  0.0142 -0.3620 -0.1732
 1376ntf    fn411458   6.524   1.260   6.247  0.3257  0.1347 -0.5034
 1376ntf    fn411459   6.693   1.163   6.291 -0.2820 -0.2622 -0.6922
 1376ntf    fn411460   6.567   1.224   6.454  0.0523 -0.3853  0.0432
 1377ntf    cn111461   3.921   2.796   3.845 -0.1102  0.1489 -0.2675
 1377ntf    sn211462   4.035   2.740   3.715  0.0713  0.3303 -0.1870
 1377ntf    nn311463   4.133   2.863   3.716  0.3779  0.0857  0.3146
 1377ntf    sn211464   4.201   2.944   3.599 -0.0501  0.0271  0.0213
 1377ntf    cn111465   4.094   3.090   3.578  0.0480  0.1142  0.1245
 1377ntf    fn411466   3.887   2.924   3.846  0.1956  0.2300  0.0161
 1377ntf    fn411467   3.811   2.723   3.846 -0.2475  0.3566 -0.1393
 1377ntf    fn411468   3.968   2.770   3.966  0.1541 -0.3341 -0.4671
 1377ntf    on511469   4.091   2.615   3.761 -0.2232  0.1338 -0.3636
 1377ntf    on511470   3.948   2.747   3.600  0.1859  0.1299 -0.2868
 1377ntf    on511471   4.327   3.000   3.642 -0.2720  0.2951  0.3302
 1377ntf    on511472   4.196   2.887   3.467 -0.1846  0.4895 -0.1748
 1377ntf    fn411473   4.142   3.174   3.489 -0.3197 -0.2621 -0.4312
 1377ntf    fn411474   4.092   3.169   3.684  0.1792  0.5715 -0.2162
 1377ntf    fn411475   3.968   3.062   3.551  0.0214  0.2038  0.1583
 1378ntf    cn111476   2.370   0.677   4.551  0.1329 -0.2621 -0.0490
 1378ntf    sn211477   2.389   0.518   4.636  0.3132 -0.1778  0.0692
 1378ntf    nn311478   2.331   0.413   4.534 -0.4285 -0.0015  0.2995
 1378ntf    sn211479   2.359   0.260   4.512  0.0922  0.1587 -0.2037
 1378ntf    cn111480   2.202   0.192   4.575  0.2345  0.1924  0.1917
 1378ntf    fn411481   2.412   0.775   4.630 -0.2669 -0.0493 -0.0947
 1378ntf    fn411482   2.438   0.681   4.437 -0.1571  0.4967 -0.2097
 1378ntf    fn411483   2.243   0.707   4.531  0.1517 -0.1368  0.0148
 1378ntf    on511484   2.529   0.505   4.669  0.2629  0.1370  0.4156
 1378ntf    on511485   2.302   0.530   4.751 -0.3544 -0.1158 -0.4353
 1378ntf    on511486   2.369   0.229   4.372  0.2282  0.0279 -0.1651
 1378ntf    on511487   2.459   0.200   4.597 -0.0620 -0.6165 -0.5659
 1378ntf    fn411488   2.186   0.199   4.706  0.3641  0.2875  0.2032
 1378ntf    fn411489   2.193   0.063   4.550  0.5112  0.3697 -0.8870
 1378ntf    fn411490   2.090   0.244   4.527 -0.1195 -0.3898  0.3817
 1379ntf    cn111491   0.640   4.894   4.465 -0.3164  0.0960  0.1854
 1379ntf    sn211492   0.706   5.002   4.596 -0.0369 -0.0429  0.1588
 1379ntf    nn311493   0.825   4.910   4.643 -0.3628 -0.5302  0.0443
 1379ntf    sn211494   0.886   4.880   4.784  0.5228 -0.0947 -0.2413
 1379ntf    cn111495   1.039   4.976   4.765  0.3355  0.3496  0.4304
 1379ntf    fn411496   0.623   4.771   4.510  0.5505 -0.1436 -0.1321
 1379ntf    fn411497   0.533   4.934   4.397 -0.3037  0.1019  0.1691
 1379ntf    fn411498   0.733   4.890   4.371 -0.5401 -0.1202 -0.0290
 1379ntf    on511499   0.748   5.106   4.505 -0.5533  0.1365  0.1222
 1379ntf    on511500   0.593   5.022   4.683 -0.0796  0.6167 -0.0432
 1379ntf    on511501   0.819   4.940   4.897  0.8634  0.0207 -0.0997
 1379ntf    on511502   0.932   4.746   4.808 -0.0199 -0.1950  0.2567
 1379ntf    fn411503   1.108   4.960   4.653  0.2505  0.1508  0.4061
 1379ntf    fn411504   1.126   4.950   4.861  0.2978  0.2512  0.4379
 1379ntf    fn411505   1.013   5.105   4.777 -0.4159  0.2168  0.2715
 1380ntf    cn111506   1.291   5.371   4.853  0.5160 -0.0504  0.1323
 1380ntf    sn211507   1.244   5.471   4.997 -0.2377 -0.1991 -0.0064
 1380ntf    nn311508   1.326   5.602   4.970 -0.3075 -0.0743  0.3734
 1380ntf    sn211509   1.346   5.732   5.056  0.1628  0.1875 -0.1235
 1380ntf    cn111510   1.517   5.701   5.110  0.0231 -0.3835  0.0019
 1380ntf    fn411511   1.235   5.410   4.740  0.1031  0.0198  0.3614
 1380ntf    fn411512   1.422   5.370   4.829  0.5484  0.1395  0.2998
 1380ntf    fn411513   1.260   5.243   4.864  0.1279  0.0113 -0.2322
 1380ntf    on511514   1.102   5.482   4.980 -0.3322 -1.1028  0.1471
 1380ntf    on511515   1.280   5.392   5.112 -0.4534 -0.3157 -0.0186
 1380ntf    on511516   1.362   5.852   4.978 -0.1564  0.6688  0.5459
 1380ntf    on511517   1.258   5.734   5.170 -0.0536 -0.9025 -0.2551
 1380ntf    fn411518   1.559   5.797   5.192  0.1064 -0.1248 -0.3430
 1380ntf    fn411519   1.609   5.702   5.015 -0.0395 -0.8816 -0.0636
 1380ntf    fn411520   1.533   5.589   5.178 -0.9123 -0.4267  0.1690
 1381ntf    cn111521   3.089   2.677   3.929  0.3639 -0.1186  0.1125
 1381ntf    sn211522   3.269   2.699   3.926  0.3545 -0.0379  0.1315
 1381ntf    nn311523   3.313   2.553   3.965  0.3455  0.0609  0.5238
 1381ntf    sn211524   3.337   2.423   3.880 -0.2408  0.2744  0.0218
 1381ntf    cn111525   3.515   2.393   3.900 -0.3305 -0.1299  0.2480
 1381ntf    fn411526   3.042   2.571   3.865 -0.0075  0.0582  0.0918
 1381ntf    fn411527   3.039   2.672   4.052  0.0356 -0.3144 -0.0291
 1381ntf    fn411528   3.026   2.778   3.872  0.3131 -0.0817  0.2321
 1381ntf    on511529   3.297   2.747   3.793 -0.4049  0.1178  0.0261
 1381ntf    on511530   3.299   2.790   4.034 -0.3783 -0.4169  0.6645
 1381ntf    on511531   3.264   2.309   3.933  0.3152  0.0100  0.2225
 1381ntf    on511532   3.326   2.448   3.739 -0.3877  0.1132  0.0033
 1381ntf    fn411533   3.545   2.377   4.028  0.2436  0.4892  0.1958
 1381ntf    fn411534   3.588   2.496   3.861 -0.0239 -0.5740 -0.3618
 1381ntf    fn411535   3.561   2.282   3.846 -0.6077 -0.2263  0.2096
 1382ntf    cn111536   1.721   1.160   2.336 -0.1808  0.2383 -0.3144
 1382ntf    sn211537   1.873   1.249   2.382 -0.2194  0.1700 -0.0489
 1382ntf    nn311538   1.931   1.160   2.497 -0.5714 -0.6653 -0.5030
 1382ntf    sn211539   2.048   1.055   2.491  0.0551 -0.0237  0.1354
 1382ntf    cn111540   2.193   1.158   2.527  0.1476 -0.0880 -0.0508
 1382ntf    fn411541   1.650   1.120   2.440  0.3415 -0.1790 -0.1125
 1382ntf    fn411542   1.638   1.241   2.271 -0.2943 -0.3405 -0.8963
 1382ntf    fn411543   1.747   1.054   2.263 -0.1763  0.0564 -0.0508
 1382ntf    on511544   1.941   1.252   2.254 -0.2795 -0.0929 -0.0884
 1382ntf    on511545   1.830   1.376   2.433 -0.1796  0.2382 -0.1850
 1382ntf    on511546   2.042   0.972   2.608 -0.0656  0.2487  0.3228
 1382ntf    on511547   2.075   0.997   2.361 -0.0761 -0.1641  0.1699
 1382ntf    fn411548   2.205   1.257   2.439  0.2511  0.0544  0.1224
 1382ntf    fn411549   2.310   1.099   2.539  0.1625 -0.1985 -0.6900
 1382ntf    fn411550   2.165   1.219   2.641  0.2488 -0.3423  0.1091
 1383ntf    cn111551   5.138   3.789   4.968 -0.2745  0.0804  0.0645
 1383ntf    sn211552   5.038   3.689   5.082 -0.2399 -0.3051 -0.2436
 1383ntf    nn311553   4.923   3.794   5.104  0.2445  0.1475  0.1202
 1383ntf    sn211554   4.772   3.769   5.136  0.2955 -0.1115  0.1606
 1383ntf    cn111555   4.695   3.795   4.974 -0.0891  0.1374  0.3819
 1383ntf    fn411556   5.218   3.877   5.027  0.1189 -0.0633 -0.2481
 1383ntf    fn411557   5.211   3.706   4.895  0.3243  0.2269  0.4852
 1383ntf    fn411558   5.067   3.863   4.885 -0.1091 -0.1314 -0.2672
 1383ntf    on511559   5.002   3.573   5.003 -0.2242  0.5214 -1.4916
 1383ntf    on511560   5.120   3.681   5.200 -0.2268 -0.1559 -0.2426
 1383ntf    on511561   4.740   3.632   5.166  0.4971 -0.2974 -0.4579
 1383ntf    on511562   4.706   3.871   5.214 -0.0753 -0.2060 -0.0252
 1383ntf    fn411563   4.698   3.921   4.933 -0.2207 -0.1135 -0.4340
 1383ntf    fn411564   4.570   3.752   4.972  0.0659 -0.2945 -0.4442
 1383ntf    fn411565   4.761   3.720   4.887  0.1045  0.4491  0.2563
 1384ntf    cn111566   2.979   1.698   3.835 -0.0411 -0.2932  0.0135
 1384ntf    sn211567   2.972   1.766   4.004 -0.0280 -0.3352  0.0309
 1384ntf    nn311568   3.113   1.834   4.012 -0.1151 -0.1191 -0.2524
 1384ntf    sn211569   3.256   1.773   4.036 -0.0899  0.0008 -0.0900
 1384ntf    cn111570   3.368   1.872   3.932 -0.0673  0.4709  0.3835
 1384ntf    fn411571   3.040   1.581   3.837  0.0724 -0.2284  0.4861
 1384ntf    fn411572   2.860   1.686   3.779  0.1081  0.4278 -0.4640
 1384ntf    fn411573   3.049   1.771   3.750  0.0227 -0.0350  0.2862
 1384ntf    on511574   2.861   1.857   4.001  0.2376  0.0082  0.4594
 1384ntf    on511575   2.962   1.647   4.085  0.0700 -0.3228  0.0618
 1384ntf    on511576   3.296   1.797   4.172 -0.0909 -0.7041  0.0418
 1384ntf    on511577   3.272   1.637   3.989  0.2514 -0.0022  0.0362
 1384ntf    fn411578   3.342   1.846   3.805  0.0362 -0.2063  0.4962
 1384ntf    fn411579   3.493   1.835   3.951 -0.0913 -0.0933 -0.5164
 1384ntf    fn411580   3.374   2.003   3.950  0.1334  0.5449 -0.2027
 1385ntf    cn111581   3.156   1.189   1.048  0.0887 -0.1843 -0.2890
 1385ntf    sn211582   3.195   1.306   1.181 -0.1644 -0.0633 -0.3207
 1385ntf    nn311583   3.056   1.299   1.253 -0.0414  0.3016 -0.0418
 1385ntf    sn211584   2.986   1.390   1.361 -0.1836 -0.0896  0.1959
 1385ntf    cn111585   2.887   1.496   1.251  0.2823  0.1573  0.0153
 1385ntf    fn411586   3.259   1.176   0.967  0.2027 -0.5475 -0.0886
 1385ntf    fn411587   3.125   1.067   1.090  0.3834 -0.0022  0.4904
 1385ntf    fn411588   3.058   1.235   0.972  0.1926 -0.1683 -0.4128
 1385ntf    on511589   3.301   1.241   1.254 -0.1783  0.2534 -0.0141
 1385ntf    on511590   3.215   1.434   1.118  0.4453  0.2656  0.5144
 1385ntf    on511591   2.881   1.337   1.446 -0.7462  0.3851 -0.1936
 1385ntf    on511592   3.072   1.478   1.435  0.0283  0.0003 -0.1545
 1385ntf    fn411593   2.955   1.594   1.194 -0.3851  0.5346 -0.1359
 1385ntf    fn411594   2.782   1.548   1.310 -0.1896 -0.2791 -0.4236
 1385ntf    fn411595   2.842   1.424   1.149  0.4098 -0.2378  0.2333
 1386ntf    cn111596   1.123   5.161   3.189 -0.0121  0.1329 -0.0601
 1386ntf    sn211597   1.053   5.209   3.029  0.1606 -0.2556 -0.2543
 1386ntf    nn311598   1.106   5.356   3.010  0.5139 -0.2663  0.6305
 1386ntf    sn211599   1.210   5.412   2.907  0.1943 -0.1919  0.3458
 1386ntf    cn111600   1.100   5.458   2.771  0.3816  0.2730  0.3497
 1386ntf    fn411601   1.142   5.265   3.268 -0.1721 -0.0238  0.1903
 1386ntf    fn411602   1.043   5.078   3.255 -0.2485  0.3170 -0.1153
 1386ntf    fn411603   1.237   5.095   3.179 -0.2320 -0.2306 -0.2026
 1386ntf    on511604   1.101   5.105   2.941  0.0036 -0.3273 -0.2567
 1386ntf    on511605   0.912   5.206   3.060  0.1710 -0.6495 -0.2439
 1386ntf    on511606   1.276   5.532   2.953 -0.3128  0.2430 -0.0486
 1386ntf    on511607   1.297   5.310   2.853  0.0020 -0.3406  0.3180
 1386ntf    fn411608   1.018   5.362   2.730 -0.0094  0.6287  0.2872
 1386ntf    fn411609   1.170   5.491   2.663 -0.7255 -0.1106 -0.5011
 1386ntf    fn411610   1.028   5.565   2.802 -0.1822  0.0378 -0.1119
 1387ntf    cn111611   4.113   4.296   4.862 -0.0005 -0.1115 -0.1321
 1387ntf    sn211612   4.227   4.205   4.754 -0.2903 -0.4734 -0.1350
 1387ntf    nn311613   4.365   4.241   4.820 -0.4426 -0.0721 -0.0305
 1387ntf    sn211614   4.465   4.359   4.792 -0.1330 -0.3111  0.0612
 1387ntf    cn111615   4.599   4.274   4.703  0.0014  0.0354 -0.0677
 1387ntf    fn411616   3.988   4.281   4.822 -0.3357  0.3024  0.7215
 1387ntf    fn411617   4.119   4.255   4.988  0.2918  0.0421 -0.0945
 1387ntf    fn411618   4.138   4.426   4.860 -0.0210 -0.1092 -0.2104
 1387ntf    on511619   4.186   4.067   4.761 -0.6106 -0.3629  0.1955
 1387ntf    on511620   4.200   4.262   4.625  0.1859  0.1708  0.0412
 1387ntf    on511621   4.429   4.469   4.706  0.3185 -0.3759 -0.2161
 1387ntf    on511622   4.539   4.401   4.909 -0.1268  0.1424 -0.1029
 1387ntf    fn411623   4.560   4.234   4.583  0.1172 -0.6342  0.1143
 1387ntf    fn411624   4.649   4.164   4.757 -0.1149  0.0487  0.0695
 1387ntf    fn411625   4.706   4.345   4.670 -0.1093  0.0506 -0.3964
 1388ntf    cn111626   2.132   5.818   4.006 -0.4090  0.3798 -0.1454
 1388ntf    sn211627   2.265   5.838   3.884 -0.2353 -0.2024 -0.0566
 1388ntf    nn311628   2.375   5.907   3.972 -0.6524  0.6507 -0.1908
 1388ntf    sn211629   2.487   6.010   3.934  0.1417 -0.1597 -0.0872
 1388ntf    cn111630   2.639   5.910   3.930  0.0947 -0.2251 -0.2050
 1388ntf    fn411631   2.075   5.931   4.044 -0.0479  0.3762  0.4085
 1388ntf    fn411632   2.042   5.735   3.955  0.0197 -0.2249  0.0746
 1388ntf    fn411633   2.163   5.749   4.114  0.5631  0.2652 -0.4848
 1388ntf    on511634   2.296   5.701   3.853  0.6307  0.0442 -0.3371
 1388ntf    on511635   2.209   5.914   3.775  0.0612  0.4985  0.2727
 1388ntf    on511636   2.480   6.051   3.796  0.0408 -0.2848 -0.1185
 1388ntf    on511637   2.516   6.112   4.033 -0.2716 -0.3951  0.2797
 1388ntf    fn411638   2.638   5.835   3.820  0.1462 -0.3059 -0.1510
 1388ntf    fn411639   2.643   5.830   4.035  0.2018  0.0188 -0.0225
 1388ntf    fn411640   2.744   5.989   3.939  0.1206 -0.2331 -0.4208
 1389ntf    cn111641   4.464   6.251   1.184 -0.1427 -0.0939  0.3436
 1389ntf    sn211642   4.308   6.330   1.233  0.0298  0.2397  0.3575
 1389ntf    nn311643   4.304   6.443   1.125  0.0369  0.0365  0.1448
 1389ntf    sn211644   4.202   6.553   1.078  0.1531  0.0175 -0.1587
 1389ntf    cn111645   4.122   6.484   0.930 -0.2631  0.1623 -0.0018
 1389ntf    fn411646   4.572   6.321   1.219  0.1146 -0.3499  0.0656
 1389ntf    fn411647   4.476   6.129   1.233 -0.3765 -0.2367  0.0430
 1389ntf    fn411648   4.464   6.240   1.052 -0.7334 -0.5114  0.3746
 1389ntf    on511649   4.209   6.230   1.202 -0.1713  0.5762 -0.0963
 1389ntf    on511650   4.319   6.375   1.370  0.0791  0.8653  0.1520
 1389ntf    on511651   4.089   6.564   1.167  0.3090  0.0390  0.0371
 1389ntf    on511652   4.264   6.675   1.033  0.0170  0.1702  0.0684
 1389ntf    fn411653   4.200   6.498   0.825 -0.0081 -0.5220  0.0875
 1389ntf    fn411654   4.011   6.551   0.901 -0.4643 -0.3941 -0.5380
 1389ntf    fn411655   4.085   6.357   0.943 -0.2227  0.1675  0.1683
 1390ntf    cn111656   5.764   2.969   6.054 -0.1718 -0.2418  0.2982
 1390ntf    sn211657   5.704   3.139   6.035 -0.1343 -0.2487  0.1076
 1390ntf    nn311658   5.614   3.161   6.162 -0.1577 -0.0298  0.0543
 1390ntf    sn211659   5.487   3.080   6.206  0.1433 -0.4089  0.2381
 1390ntf    cn111660   5.552   2.967   6.333 -0.0697 -0.2640  0.4774
 1390ntf    fn411661   5.665   2.881   6.060 -0.3328 -0.0752  0.0978
 1390ntf    fn411662   5.851   2.919   5.967 -0.2376  0.1292  0.0181
 1390ntf    fn411663   5.816   2.959   6.175 -0.3797  0.1654  0.4197
 1390ntf    on511664   5.823   3.218   6.053 -0.2329 -0.0324 -0.1788
 1390ntf    on511665   5.631   3.150   5.911 -0.4787 -0.3026  0.3054
 1390ntf    on511666   5.391   3.164   6.273  0.3756 -0.3473  0.4948
 1390ntf    on511667   5.431   2.992   6.106 -0.5688  0.2007  0.0941
 1390ntf    fn411668   5.625   3.029   6.424  0.2148 -0.2965  0.2732
 1390ntf    fn411669   5.629   2.875   6.279 -0.0040  0.3008 -0.4071
 1390ntf    fn411670   5.456   2.911   6.405  0.0922 -0.5117  0.4986
 1391ntf    cn111671   1.171   5.902   0.065 -0.1347 -0.2284 -0.3291
 1391ntf    sn211672   1.099   5.743   0.115 -0.0979 -0.1953 -0.1710
 1391ntf    nn311673   1.161   5.731   0.258 -0.2267  0.2128 -0.0797
 1391ntf    sn211674   1.229   5.604   0.321 -0.1342  0.2980 -0.0077
 1391ntf    cn111675   1.400   5.631   0.263  0.0118  0.1151  0.3308
 1391ntf    fn411676   1.124   5.998   0.142  0.5570 -0.0282 -0.1466
 1391ntf    fn411677   1.302   5.907   0.082 -0.2079  0.5246  0.0220
 1391ntf    fn411678   1.141   5.929  -0.061  0.1833  0.2652 -0.3018
 1391ntf    on511679   0.956   5.764   0.106 -0.0965  0.2793  0.8824
 1391ntf    on511680   1.155   5.660   0.010  0.5056  0.0613 -0.0535
 1391ntf    on511681   1.241   5.609   0.465 -0.2484 -0.0813  0.0151
 1391ntf    on511682   1.192   5.475   0.268 -0.2051  0.3813 -0.1617
 1391ntf    fn411683   1.461   5.730   0.326  0.3989 -0.0996  0.2925
 1391ntf    fn411684   1.406   5.651   0.132  0.4502  0.1899  0.3629
 1391ntf    fn411685   1.474   5.524   0.283  0.4592  0.3855  0.1286
 1392ntf    cn111686   2.325   1.636   3.593  0.2872 -0.2898 -0.4112
 1392ntf    sn211687   2.292   1.604   3.769 -0.2875  0.3863 -0.3928
 1392ntf    nn311688   2.269   1.754   3.810  0.3255  0.3761  0.0131
 1392ntf    sn211689   2.159   1.823   3.899 -0.0661 -0.2812  0.0433
 1392ntf    cn111690   2.127   1.975   3.805 -0.0385 -0.3073 -0.0097
 1392ntf    fn411691   2.238   1.722   3.542  0.1736 -0.0079  0.2524
 1392ntf    fn411692   2.448   1.683   3.575  0.4600 -0.1483  1.0220
 1392ntf    fn411693   2.315   1.534   3.509 -0.2773 -0.0996 -0.5753
 1392ntf    on511694   2.175   1.522   3.758 -0.1210  0.1671 -0.5383
 1392ntf    on511695   2.413   1.550   3.827 -0.4794 -0.2042 -0.5384
 1392ntf    on511696   2.030   1.759   3.910 -0.1953  0.0176  0.2801
 1392ntf    on511697   2.211   1.864   4.027  0.0992  0.5901 -0.2960
 1392ntf    fn411698   2.086   1.948   3.683 -0.0276  0.1536 -0.1183
 1392ntf    fn411699   2.224   2.064   3.794 -0.0704 -0.2868 -0.1304
 1392ntf    fn411700   2.022   2.040   3.855  0.1331 -0.0397  0.0031
 1393ntf    cn111701   1.459   3.703   6.153 -0.0749 -0.5528  0.3049
 1393ntf    sn211702   1.393   3.650   5.992  0.1448  0.1653 -0.0263
 1393ntf    nn311703   1.302   3.537   6.051  0.2817 -0.0425 -0.2150
 1393ntf    sn211704   1.146   3.522   6.039  0.2317 -0.0895  0.4416
 1393ntf    cn111705   1.116   3.381   6.150 -0.1809 -0.0881  0.3318
 1393ntf    fn411706   1.521   3.610   6.224 -0.1270 -0.7807  0.0489
 1393ntf    fn411707   1.549   3.800   6.142 -0.4642 -0.2684 -0.3887
 1393ntf    fn411708   1.364   3.738   6.238 -0.4393 -0.2360 -0.2264
 1393ntf    on511709   1.320   3.766   5.947 -0.4119 -0.2511 -0.1993
 1393ntf    on511710   1.510   3.611   5.918  0.0013  0.3452 -0.3487
 1393ntf    on511711   1.071   3.632   6.093 -0.4582 -0.4669  0.2631
 1393ntf    on511712   1.108   3.474   5.908 -0.2542 -0.2986  0.6561
 1393ntf    fn411713   0.988   3.347   6.161 -0.1600 -0.0947  0.5460
 1393ntf    fn411714   1.153   3.409   6.273  0.7034 -0.3107  0.1235
 1393ntf    fn411715   1.180   3.268   6.124 -0.6587 -0.1161 -0.7920
 1394ntf    cn111716   1.158   6.302   4.787  0.0267 -0.0851  0.1764
 1394ntf    sn211717   1.007   6.379   4.851  0.0011  0.0600 -0.0595
 1394ntf    nn311718   0.895   6.278   4.808 -0.4800  0.3446  0.5113
 1394ntf    sn211719   0.818   6.172   4.895 -0.3432 -0.2306 -0.0658
 1394ntf    cn111720   0.676   6.271   4.949  0.0526  0.3512 -0.0779
 1394ntf    fn411721   1.267   6.368   4.822 -0.3377  0.2539  0.6842
 1394ntf    fn411722   1.176   6.178   4.831 -0.0213 -0.2731 -0.3223
 1394ntf    fn411723   1.161   6.301   4.655 -0.6179 -0.6332  0.1623
 1394ntf    on511724   1.014   6.385   4.995  0.1966  0.3303 -0.0797
 1394ntf    on511725   0.995   6.502   4.776 -0.3371  0.0340 -0.0523
 1394ntf    on511726   0.761   6.070   4.811 -0.6324 -0.0097 -0.1392
 1394ntf    on511727   0.876   6.126   5.018  0.0805 -0.1897 -0.2485
 1394ntf    fn411728   0.588   6.199   5.017  0.2940 -0.2743 -0.4202
 1394ntf    fn411729   0.615   6.323   4.843  0.1886 -0.0766 -0.3706
 1394ntf    fn411730   0.714   6.367   5.031 -0.2191  0.6032 -0.2456
 1395ntf    cn111731   3.622   1.417   1.109  0.0503  0.0945 -0.0365
 1395ntf    sn211732   3.716   1.558   1.174 -0.1735  0.1586  0.1512
 1395ntf    nn311733   3.612   1.669   1.138  0.1947  0.6532  0.5881
 1395ntf    sn211734   3.620   1.754   1.006 -0.0896  0.3347  0.3611
 1395ntf    cn111735   3.443   1.750   0.965 -0.0272 -0.3771  0.1496
 1395ntf    fn411736   3.695   1.309   1.086  0.3720  0.2917  0.0669
 1395ntf    fn411737   3.526   1.378   1.192 -0.2287  0.2803 -0.2686
 1395ntf    fn411738   3.560   1.447   0.997 -0.6083 -0.4139  0.1803
 1395ntf    on511739   3.725   1.541   1.317 -0.2823  0.1280  0.1538
 1395ntf    on511740   3.838   1.552   1.097 -0.3037 -0.2362 -0.0275
 1395ntf    on511741   3.654   1.894   1.019  0.4629  0.1788  0.6278
 1395ntf    on511742   3.678   1.688   0.892 -0.3151  0.5452  0.1213
 1395ntf    fn411743   3.373   1.833   1.041 -0.8234 -0.3429 -0.6021
 1395ntf    fn411744   3.383   1.635   0.984 -0.0328 -0.2901  0.6566
 1395ntf    fn411745   3.418   1.782   0.839  0.4038  0.0731  0.1721
 1396ntf    cn111746   3.944   5.041   5.258  0.1200  0.2692 -0.0886
 1396ntf    sn211747   4.106   4.969   5.217  0.1335  0.1311  0.2071
 1396ntf    nn311748   4.102   4.838   5.304 -0.0380 -0.1194 -0.1741
 1396ntf    sn211749   4.194   4.812   5.429  0.0537  0.0551 -0.2048
 1396ntf    cn111750   4.114   4.662   5.492  0.0960  0.0716 -0.1129
 1396ntf    fn411751   3.914   5.033   5.386  0.3841  0.1694 -0.0315
 1396ntf    fn411752   3.924   5.166   5.221 -0.3292  0.1058 -0.4065
 1396ntf    fn411753   3.849   4.964   5.208 -0.0918  0.3504  0.1908
 1396ntf    on511754   4.097   4.948   5.074  0.3812  0.7402  0.1014
 1396ntf    on511755   4.207   5.066   5.251  0.4159 -0.0072 -0.2304
 1396ntf    on511756   4.330   4.772   5.403 -0.0025 -0.1744 -0.1439
 1396ntf    on511757   4.168   4.904   5.536 -0.4811 -0.1280 -0.1714
 1396ntf    fn411758   4.178   4.612   5.597  0.0836 -0.0752 -0.1753
 1396ntf    fn411759   4.104   4.571   5.396 -0.3507  0.2068 -0.1973
 1396ntf    fn411760   3.990   4.690   5.528  0.1751  0.1014  0.1364
 1397ntf    cn111761   4.128   3.119   4.386 -0.0825 -0.4081 -0.0964
 1397ntf    sn211762   4.067   2.975   4.293 -0.0352 -0.3220 -0.2596
 1397ntf    nn311763   4.089   2.853   4.389 -0.2781 -0.1202  0.0545
 1397ntf    sn211764   4.227   2.780   4.409 -0.1933  0.0704  0.1686
 1397ntf    cn111765   4.195   2.619   4.332  0.1795 -0.0321  0.2264
 1397ntf    fn411766   4.071   3.124   4.506 -0.0798  0.1430 -0.1173
 1397ntf    fn411767   4.256   3.112   4.418  0.0352  0.3476 -0.3907
 1397ntf    fn411768   4.105   3.232   4.322  0.2352 -0.2810  0.0137
 1397ntf    on511769   3.926   3.002   4.290 -0.0159 -0.1787  0.1223
 1397ntf    on511770   4.133   2.969   4.164  0.2726 -0.5114 -0.0952
 1397ntf    on511771   4.336   2.830   4.329 -0.4792 -0.0403 -0.2901
 1397ntf    on511772   4.261   2.749   4.546  0.0346 -0.3668  0.0151
 1397ntf    fn411773   4.301   2.540   4.339 -0.2399 -0.6595 -0.3362
 1397ntf    fn411774   4.161   2.635   4.205  0.5549 -0.2217  0.1001
 1397ntf    fn411775   4.091   2.557   4.384  0.1666  0.0892  0.3458
 1398ntf    cn111776   2.587   1.515   5.946 -0.5350 -0.1643 -0.0414
 1398ntf    sn211777   2.650   1.625   6.076  0.0116  0.0485 -0.4813
 1398ntf    nn311778   2.554   1.748   6.059  0.2146  0.2884  0.0809
 1398ntf    sn211779   2.574   1.873   5.965  0.5464 -0.0222 -0.2652
 1398ntf    cn111780   2.598   2.005   6.087  0.4085 -0.0852 -0.1689
 1398ntf    fn411781   2.467   1.466   5.972 -0.1958 -0.7664  0.4009
 1398ntf    fn411782   2.582   1.566   5.824 -0.6506  0.1189  0.0807
 1398ntf    fn411783   2.667   1.410   5.938 -0.1041  0.1433  0.2279
 1398ntf    on511784   2.625   1.537   6.188 -0.2201  0.3411 -0.3021
 1398ntf    on511785   2.789   1.651   6.047  0.3452 -0.4685  0.5887
 1398ntf    on511786   2.689   1.885   5.880  0.2475 -0.0086 -0.6696
 1398ntf    on511787   2.455   1.911   5.894  0.8433  0.1664 -0.6592
 1398ntf    fn411788   2.492   2.036   6.161  0.6449 -0.0012  0.1340
 1398ntf    fn411789   2.625   2.120   6.027 -0.1705  0.1047 -0.0750
 1398ntf    fn411790   2.702   1.984   6.166 -0.0800 -0.1419  0.4739
 1399ntf    cn111791   2.596   6.539   0.569  0.0688  0.4511  0.0719
 1399ntf    sn211792   2.657   6.671   0.677  0.6012  0.0749  0.2301
 1399ntf    nn311793   2.777   6.702   0.581 -0.0032  0.1071 -0.5189
 1399ntf    sn211794   2.918   6.634   0.590 -0.2574 -0.3517  0.0317
 1399ntf    cn111795   2.991   6.732   0.726  0.0922 -0.3872 -0.1277
 1399ntf    fn411796   2.687   6.449   0.537 -0.3812  0.1864 -0.4830
 1399ntf    fn411797   2.494   6.470   0.617  0.1723  0.3489  0.1449
 1399ntf    fn411798   2.551   6.592   0.456  0.2459 -0.3076 -0.3609
 1399ntf    on511799   2.551   6.768   0.671  0.0077 -0.5851 -0.0237
 1399ntf    on511800   2.682   6.605   0.803  0.4550  0.2648  0.3590
 1399ntf    on511801   2.923   6.501   0.645 -0.3532 -0.2573  0.2724
 1399ntf    on511802   3.000   6.671   0.478 -0.3738 -0.5386 -0.1142
 1399ntf    fn411803   3.118   6.701   0.744  0.1345  0.1145  0.4514
 1399ntf    fn411804   2.933   6.719   0.844  0.0077 -0.1174 -0.1382
 1399ntf    fn411805   2.986   6.861   0.698  0.5503 -0.3113  0.1372
 1400ntf    cn111806   6.323   0.074   2.089  0.0370 -0.1384  0.0502
 1400ntf    sn211807   6.381   0.193   2.213  0.3830 -0.0662 -0.1801
 1400ntf    nn311808   6.261   0.293   2.191  0.4626  0.3412  1.1337
 1400ntf    sn211809   6.274   0.443   2.146 -0.1323  0.1155  0.1897
 1400ntf    cn111810   6.222   0.453   1.972 -0.0600 -0.0289  0.1594
 1400ntf    fn411811   6.283   0.147   1.986 -0.5807 -0.4272  0.0767
 1400ntf    fn411812   6.419  -0.003   2.039 -0.1880 -0.2596 -0.2015
 1400ntf    fn411813   6.227  -0.012   2.120 -0.2471 -0.2374 -1.0436
 1400ntf    on511814   6.378   0.116   2.334 -0.3006 -0.1579 -0.2486
 1400ntf    on511815   6.514   0.224   2.167  0.5428 -0.3092  0.1221
 1400ntf    on511816   6.169   0.521   2.206 -0.2903 -0.3098  0.4696
 1400ntf    on511817   6.405   0.500   2.129 -0.0905 -0.0647 -0.1034
 1400ntf    fn411818   6.294   0.371   1.898  0.5744  0.1064  0.6225
 1400ntf    fn411819   6.233   0.575   1.921 -0.2114 -0.0032  0.1876
 1400ntf    fn411820   6.097   0.413   1.957 -0.0886  0.1327 -0.0469
 1401ntf    cn111821   3.928   3.909   4.348 -0.0108 -0.2003  0.3684
 1401ntf    sn211822   3.833   3.868   4.199  0.3459  0.0426  0.0704
 1401ntf    nn311823   3.694   3.912   4.258  0.4200 -0.1723  0.4123
 1401ntf    sn211824   3.598   3.822   4.343 -0.3531  0.1165 -0.1364
 1401ntf    cn111825   3.511   3.733   4.210 -0.1191 -0.1532 -0.1123
 1401ntf    fn411826   4.058   3.909   4.323 -0.0060 -0.2100  0.3931
 1401ntf    fn411827   3.898   4.030   4.393  0.3772  0.1028 -0.1750
 1401ntf    fn411828   3.909   3.824   4.448 -0.1186 -0.0076  0.5131
 1401ntf    on511829   3.869   3.965   4.099  0.0044  0.0527 -0.0446
 1401ntf    on511830   3.844   3.726   4.174 -0.2785  0.0570 -0.3239
 1401ntf    on511831   3.657   3.719   4.425  0.1729  0.5240 -0.0025
 1401ntf    on511832   3.496   3.900   4.408 -0.6946 -0.6956  0.3143
 1401ntf    fn411833   3.434   3.816   4.142  0.0515 -0.1193 -0.2654
 1401ntf    fn411834   3.437   3.634   4.258 -0.5017  0.1536 -0.0603
 1401ntf    fn411835   3.588   3.681   4.116 -0.0376  0.0327 -0.1492
 1402ntf    cn111836   3.369   2.899   4.519  0.1035 -0.2841  0.1329
 1402ntf    sn211837   3.425   3.024   4.400 -0.3336  0.2097  0.4378
 1402ntf    nn311838   3.412   3.152   4.490  0.0643  0.1583  0.5738
 1402ntf    sn211839   3.286   3.243   4.515 -0.3919 -0.2214 -0.2760
 1402ntf    cn111840   3.331   3.392   4.421 -0.1405 -0.2104 -0.1410
 1402ntf    fn411841   3.453   2.890   4.621 -0.1300 -0.0445  0.3514
 1402ntf    fn411842   3.248   2.917   4.571 -0.1334 -0.9688 -0.1760
 1402ntf    fn411843   3.370   2.777   4.469 -0.4246 -0.3675  0.3138
 1402ntf    on511844   3.563   2.987   4.377 -0.6416 -0.7961  0.1342
 1402ntf    on511845   3.345   3.010   4.281 -0.0237 -0.2098  0.2768
 1402ntf    on511846   3.162   3.197   4.459 -0.4286 -0.3795 -0.0678
 1402ntf    on511847   3.281   3.284   4.653  0.2927 -0.4450 -0.1809
 1402ntf    fn411848   3.225   3.471   4.404  0.1956  0.4087  0.5786
 1402ntf    fn411849   3.386   3.375   4.302 -0.1273  0.5130 -0.2459
 1402ntf    fn411850   3.415   3.465   4.492 -0.3239 -0.1604  0.0270
 1403ntf    cn111851   1.926   5.294   0.130 -0.1478  0.2420 -0.4436
 1403ntf    sn211852   1.932   5.155   0.014  0.0741  0.0396 -0.1899
 1403ntf    nn311853   1.797   5.079   0.041  0.1709 -0.3226 -0.6872
 1403ntf    sn211854   1.779   4.931   0.091  0.2408  0.0774  0.5675
 1403ntf    cn111855   1.771   4.843  -0.067  0.3623  0.0916  0.5530
 1403ntf    fn411856   1.926   5.262   0.258  0.3152  0.1141 -0.4749
 1403ntf    fn411857   2.020   5.385   0.111 -0.0793  0.2942  0.1452
 1403ntf    fn411858   1.815   5.363   0.108 -0.2449  0.1910 -0.1241
 1403ntf    on511859   1.922   5.217  -0.116 -0.4976  0.2144 -0.0649
 1403ntf    on511860   2.055   5.089   0.051  0.0027 -0.0705 -0.1478
 1403ntf    on511861   1.891   4.871   0.160  0.4705  0.0296  0.1596
 1403ntf    on511862   1.650   4.906   0.150 -0.1827 -0.1387 -0.4269
 1403ntf    fn411863   1.870   4.861  -0.153 -0.3096  0.6111 -0.1237
 1403ntf    fn411864   1.656   4.869  -0.129  0.5646  0.2645  0.2456
 1403ntf    fn411865   1.755   4.713  -0.046  0.1644  0.1238  0.6033
 1404ntf    cn111866   0.110   2.568   1.872 -0.2867  0.1910  0.0568
 1404ntf    sn211867   0.151   2.401   1.930 -0.1648  0.3801  0.5198
 1404ntf    nn311868   0.231   2.431   2.062 -0.0009 -0.3122  0.5843
 1404ntf    sn211869   0.381   2.478   2.070 -0.1067  0.1367  0.0619
 1404ntf    cn111870   0.452   2.319   2.125  0.0811  0.1030 -0.2796
 1404ntf    fn411871   0.213   2.651   1.869 -0.1330  0.0192  0.6217
 1404ntf    fn411872   0.045   2.583   1.757  0.5346  0.3963 -0.3920
 1404ntf    fn411873   0.030   2.626   1.959  0.7526  0.6255  0.7431
 1404ntf    on511874   0.025   2.339   1.964 -0.1982  0.3921  0.4198
 1404ntf    on511875   0.231   2.347   1.822 -1.0689  0.0774 -0.0099
 1404ntf    on511876   0.443   2.516   1.946  0.5414 -0.0261  0.3334
 1404ntf    on511877   0.399   2.564   2.184 -0.0881  0.1708  0.0327
 1404ntf    fn411878   0.583   2.326   2.114  0.1142  0.4513  0.3049
 1404ntf    fn411879   0.406   2.216   2.056 -0.4628 -0.1805  0.4947
 1404ntf    fn411880   0.422   2.292   2.251 -0.2201  0.1872 -0.3322
 1405ntf    cn111881   4.385   5.353   2.843 -0.1545 -0.2559 -0.0966
 1405ntf    sn211882   4.544   5.263   2.836 -0.0169 -0.0352  0.2066
 1405ntf    nn311883   4.636   5.378   2.891  0.1034  0.0309 -0.1322
 1405ntf    sn211884   4.780   5.357   2.950  0.1473 -0.0959 -0.2847
 1405ntf    cn111885   4.882   5.457   2.836 -0.0905  0.3186 -0.1342
 1405ntf    fn411886   4.359   5.416   2.956 -0.6287  0.1730 -0.4450
 1405ntf    fn411887   4.365   5.437   2.743 -0.0940 -0.2524 -0.1063
 1405ntf    fn411888   4.283   5.270   2.830 -0.6681  0.3120  0.3138
 1405ntf    on511889   4.529   5.149   2.923  0.0935 -0.4320 -0.2926
 1405ntf    on511890   4.568   5.243   2.696  0.7033  0.5367  0.2437
 1405ntf    on511891   4.801   5.413   3.081 -0.0058 -0.0898 -0.2629
 1405ntf    on511892   4.833   5.226   2.920 -0.5282 -0.4142 -0.1069
 1405ntf    fn411893   4.816   5.569   2.811 -0.2751  0.3166  0.3278
 1405ntf    fn411894   4.904   5.400   2.719  0.0055  0.1645 -0.0416
 1405ntf    fn411895   5.003   5.491   2.878 -0.3422  0.7209  0.2752
 1406ntf    cn111896   5.832   6.217   1.358 -0.5120 -0.5687 -0.1407
 1406ntf    sn211897   5.949   6.206   1.496 -0.2775 -0.0614 -0.2983
 1406ntf    nn311898   6.083   6.229   1.417  0.0540 -0.2676  0.1965
 1406ntf    sn211899   6.198   6.129   1.379 -0.0025 -0.2039 -0.1466
 1406ntf    cn111900   6.320   6.182   1.503  0.1218  0.2526 -0.4589
 1406ntf    fn411901   5.707   6.232   1.399 -0.3165  0.2699  0.1735
 1406ntf    fn411902   5.863   6.311   1.270  0.0067 -0.2763  0.3486
 1406ntf    fn411903   5.841   6.108   1.284 -0.2276 -0.3528 -0.4272
 1406ntf    on511904   5.919   6.320   1.580 -0.2521 -0.4843  0.2937
 1406ntf    on511905   5.921   6.075   1.548  0.0640  0.0382  0.1452
 1406ntf    on511906   6.180   5.989   1.406 -0.0674 -0.1347  0.1835
 1406ntf    on511907   6.259   6.150   1.250  0.4299 -0.4321  0.0201
 1406ntf    fn411908   6.292   6.136   1.624  0.6164  0.2080 -0.3599
 1406ntf    fn411909   6.319   6.313   1.515  0.0282  0.2400 -0.3240
 1406ntf    fn411910   6.445   6.147   1.477  0.1272  0.3721 -0.5928
 1407ntf    cn111911   1.455   1.405   3.710  0.2639 -0.0599  0.1926
 1407ntf    sn211912   1.453   1.534   3.838  0.0179  0.0287  0.1006
 1407ntf    nn311913   1.377   1.650   3.766  0.1100 -0.0169 -0.0713
 1407ntf    sn211914   1.225   1.675   3.735  0.1622  0.1124 -0.2290
 1407ntf    cn111915   1.193   1.805   3.858 -0.2629  0.0826 -0.3048
 1407ntf    fn411916   1.332   1.362   3.685  0.4042 -0.1948 -0.2951
 1407ntf    fn411917   1.501   1.445   3.592 -0.3053  0.4811  0.1527
 1407ntf    fn411918   1.521   1.298   3.752  0.2597 -0.2732 -0.3264
 1407ntf    on511919   1.378   1.465   3.940 -0.2921  0.0176 -0.1347
 1407ntf    on511920   1.587   1.573   3.873  0.0426 -0.1537  0.2116
 1407ntf    on511921   1.204   1.740   3.608 -0.5906  0.1125 -0.1090
 1407ntf    on511922   1.136   1.566   3.771 -0.0148  0.2519 -0.2439
 1407ntf    fn411923   1.098   1.886   3.814 -0.4477  0.0615  0.0570
 1407ntf    fn411924   1.300   1.879   3.886 -0.3044  0.0458 -0.0562
 1407ntf    fn411925   1.151   1.753   3.971  0.1934  0.6422  0.1300
 1408ntf    cn111926   2.823   4.204   1.850 -0.0795 -0.0686 -0.0316
 1408ntf    sn211927   2.958   4.238   1.967 -0.1782 -0.1115  0.0953
 1408ntf    nn311928   2.986   4.088   2.003  0.0952 -0.0241  0.2478
 1408ntf    sn211929   3.077   4.035   2.120  0.1178  0.0595  0.2683
 1408ntf    cn111930   2.954   3.986   2.244  0.3332 -0.0544  0.4368
 1408ntf    fn411931   2.741   4.306   1.831 -0.0973 -0.0832 -0.0326
 1408ntf    fn411932   2.874   4.161   1.736  0.0332  0.0494 -0.0250
 1408ntf    fn411933   2.748   4.100   1.884  0.0115 -0.1440 -0.0616
 1408ntf    on511934   3.055   4.310   1.888  0.3372 -0.4072  0.4530
 1408ntf    on511935   2.889   4.315   2.067  0.3671  0.5112 -0.0018
 1408ntf    on511936   3.142   3.913   2.078  0.8159  0.4627  0.1598
 1408ntf    on511937   3.154   4.138   2.185  0.1432  0.1093  0.1608
 1408ntf    fn411938   3.009   3.984   2.364  0.2754  0.2562  0.4681
 1408ntf    fn411939   2.908   3.865   2.217  0.2132  0.0664  0.0977
 1408ntf    fn411940   2.852   4.069   2.244  0.2405 -0.1658  0.2297
 1409ntf    cn111941   4.201   1.346   6.565  0.2699 -0.1075 -0.1313
 1409ntf    sn211942   4.319   1.463   6.491 -0.0120  0.2911  0.0481
 1409ntf    nn311943   4.386   1.517   6.623  0.0784 -0.8254  0.4658
 1409ntf    sn211944   4.538   1.530   6.661  0.0578  0.0058  0.2774
 1409ntf    cn111945   4.547   1.711   6.672 -0.0387  0.0498 -0.3356
 1409ntf    fn411946   4.117   1.289   6.480  0.3579  0.4325 -0.5846
 1409ntf    fn411947   4.260   1.251   6.635  0.7172  0.3409  0.1050
 1409ntf    fn411948   4.124   1.405   6.654  0.1063 -0.4616 -0.0385
 1409ntf    on511949   4.402   1.381   6.407 -0.4624 -0.5010  0.3664
 1409ntf    on511950   4.227   1.556   6.431 -0.7397 -0.1977  0.3909
 1409ntf    on511951   4.568   1.493   6.797 -0.2509  0.3838  0.4496
 1409ntf    on511952   4.635   1.494   6.560 -0.2199  0.3405 -0.1130
 1409ntf    fn411953   4.525   1.771   6.556  0.5945  0.7214 -0.1156
 1409ntf    fn411954   4.661   1.755   6.721  0.2114 -0.4043 -0.5047
 1409ntf    fn411955   4.455   1.759   6.755  0.0678  0.1548 -0.2792
 1410ntf    cn111956   1.989   3.298   0.674 -0.3490 -0.0324 -0.3395
 1410ntf    sn211957   2.087   3.195   0.561  0.1396  0.0008  0.0508
 1410ntf    nn311958   2.175   3.308   0.497 -0.2512 -0.1601 -0.7858
 1410ntf    sn211959   2.143   3.406   0.379  0.1705  0.5347 -0.3304
 1410ntf    cn111960   2.161   3.568   0.459  0.1784  0.3739 -0.0053
 1410ntf    fn411961   1.916   3.390   0.613 -0.0969  0.3567 -0.0558
 1410ntf    fn411962   1.911   3.233   0.759 -0.0186 -0.3395 -0.2678
 1410ntf    fn411963   2.063   3.373   0.753 -0.0968  0.3248 -0.9068
 1410ntf    on511964   2.172   3.114   0.645  0.1511  0.0653  0.1009
 1410ntf    on511965   1.993   3.129   0.474 -0.5500  0.5502  0.3765
 1410ntf    on511966   2.243   3.403   0.274 -0.0187 -0.2003 -0.4977
 1410ntf    on511967   2.003   3.401   0.344 -0.1056  0.0825  0.8183
 1410ntf    fn411968   2.285   3.591   0.501  0.2175  0.0197  0.0777
 1410ntf    fn411969   2.079   3.580   0.561 -0.4049  0.1338 -0.4428
 1410ntf    fn411970   2.131   3.671   0.381 -0.0850  0.6428  0.4472
 1411ntf    cn111971   6.054   5.391   4.623  0.2266 -0.1097  0.3082
 1411ntf    sn211972   6.166   5.250   4.644  0.2831 -0.1481 -0.2243
 1411ntf    nn311973   6.145   5.214   4.796 -0.4211 -0.3834 -0.3746
 1411ntf    sn211974   6.072   5.088   4.854  0.1814 -0.5343  0.0610
 1411ntf    cn111975   6.115   5.110   5.030  0.0556  0.4321 -0.0203
 1411ntf    fn411976   6.073   5.488   4.711  0.3745  0.2310 -0.0971
 1411ntf    fn411977   6.065   5.444   4.502  0.1236  0.7445  0.6670
 1411ntf    fn411978   5.925   5.360   4.633  0.1771  0.1482  0.4756
 1411ntf    on511979   6.105   5.160   4.549 -0.0782  0.1708 -0.2932
 1411ntf    on511980   6.295   5.305   4.611  0.2203  0.1460  0.0170
 1411ntf    on511981   5.929   5.107   4.850  0.2603 -0.0138 -0.3835
 1411ntf    on511982   6.133   4.962   4.822 -0.0927 -0.7987  0.5680
 1411ntf    fn411983   6.060   5.213   5.092  0.6695  0.5595  0.3201
 1411ntf    fn411984   6.247   5.120   5.040  0.0747  0.3910 -0.2129
 1411ntf    fn411985   6.078   5.001   5.095 -0.0154  0.5385  0.1165
 1412ntf    cn111986   2.693   3.718   0.943 -0.1858  0.1854 -0.1293
 1412ntf    sn211987   2.712   3.808   0.787 -0.0106  0.5018  0.0733
 1412ntf    nn311988   2.690   3.957   0.833  0.1488  0.4942  0.1725
 1412ntf    sn211989   2.694   4.082   0.738  0.2523  0.1186 -0.3209
 1412ntf    cn111990   2.873   4.113   0.739  0.2828 -0.0736  0.1865
 1412ntf    fn411991   2.684   3.587   0.929 -0.3950  0.1887 -0.0218
 1412ntf    fn411992   2.802   3.739   1.015 -0.2450  0.4770 -0.1259
 1412ntf    fn411993   2.594   3.762   1.018  0.2603  0.3595  0.3650
 1412ntf    on511994   2.845   3.777   0.743 -0.1114 -0.3013  0.3181
 1412ntf    on511995   2.598   3.754   0.717  0.2289  0.2778 -0.1460
 1412ntf    on511996   2.672   4.050   0.599 -0.2228 -0.0505 -0.2095
 1412ntf    on511997   2.635   4.201   0.794  0.0455 -0.1802  0.1056
 1412ntf    fn411998   2.921   4.144   0.859  0.5624  0.4581 -0.0613
 1412ntf    fn411999   2.904   4.214   0.660 -1.0319  0.2294  0.0361
 1412ntf    fn412000   2.942   4.011   0.692 -0.0448 -0.1530 -0.1232
 1413ntf    cn112001   1.782   4.505   6.315 -0.0725  0.0915 -0.0050
 1413ntf    sn212002   1.787   4.407   6.161  0.2837 -0.1195  0.1395
 1413ntf    nn312003   1.633   4.380   6.144  0.3163 -0.4745  0.3934
 1413ntf    sn212004   1.550   4.296   6.041 -0.0253 -0.1460  0.3987
 1413ntf    cn112005   1.516   4.141   6.130 -0.1363 -0.3326  0.0360
 1413ntf    fn412006   1.698   4.606   6.300  0.1445  0.2623 -0.0809
 1413ntf    fn412007   1.743   4.430   6.416  0.0972  0.1311  0.0901
 1413ntf    fn412008   1.900   4.553   6.349  0.0557 -0.1499 -0.1058
 1413ntf    on512009   1.838   4.502   6.066 -0.1786 -0.2091 -0.2023
 1413ntf    on512010   1.873   4.297   6.197 -0.0044 -0.3988 -0.0168
 1413ntf    on512011   1.419   4.352   6.016 -0.4763 -1.2367  0.2404
 1413ntf    on512012   1.629   4.250   5.930  0.1885  0.7540  0.1656
 1413ntf    fn412013   1.487   4.158   6.258 -0.4759 -0.1855 -0.0594
 1413ntf    fn412014   1.615   4.053   6.129  0.0801 -0.0924 -0.1125
 1413ntf    fn412015   1.417   4.072   6.078 -0.2974 -0.0350 -0.0550
 1414ntf    cn112016   6.425   3.935   4.716 -0.1950  0.1517 -0.4080
 1414ntf    sn212017   6.264   3.889   4.646 -0.2220 -0.2998 -0.0530
 1414ntf    nn312018   6.292   3.883   4.492 -0.3342 -0.2137 -0.0766
 1414ntf    sn212019   6.216   3.948   4.370 -0.2574 -0.2165 -0.1264
 1414ntf    cn112020   6.228   3.811   4.252  0.5135 -0.0390 -0.2616
 1414ntf    fn412021   6.428   3.928   4.848  0.7462  0.0215 -0.4319
 1414ntf    fn412022   6.525   3.861   4.671  0.1818  0.0672  0.5403
 1414ntf    fn412023   6.459   4.060   4.691 -0.2576  0.1941 -0.2845
 1414ntf    on512024   6.241   3.762   4.710 -0.6127 -0.4749 -0.5313
 1414ntf    on512025   6.181   3.999   4.689  0.1309 -0.0518 -0.0101
 1414ntf    on512026   6.074   3.959   4.387 -0.2041 -0.0280  0.2145
 1414ntf    on512027   6.282   4.060   4.308 -0.4980  0.2668  0.4750
 1414ntf    fn412028   6.167   3.842   4.139 -0.0552 -0.1993  0.0000
 1414ntf    fn412029   6.160   3.705   4.293 -0.0182  0.3484 -0.1320
 1414ntf    fn412030   6.355   3.784   4.226  0.5740 -0.3625  0.3607
 1415ntf    cn112031   2.677   3.510   0.007  0.0102  0.2319  0.1168
 1415ntf    sn212032   2.822   3.611  -0.035  0.1872 -0.0453  0.0604
 1415ntf    nn312033   2.890   3.530  -0.150 -0.4802 -0.0028 -0.3667
 1415ntf    sn212034   2.900   3.544  -0.306 -0.0641 -0.0559 -0.3452
 1415ntf    cn112035   2.825   3.390  -0.368 -0.4621 -0.1506  0.3683
 1415ntf    fn412036   2.714   3.389   0.047  0.2580  0.1520 -0.3467
 1415ntf    fn412037   2.603   3.569   0.099 -0.1076 -0.1259  0.2547
 1415ntf    fn412038   2.595   3.492  -0.096 -0.2277  0.9147  0.1789
 1415ntf    on512039   2.780   3.745  -0.070  0.1889 -0.0483  0.0470
 1415ntf    on512040   2.906   3.607   0.083  0.2460  0.3148  0.0313
 1415ntf    on512041   2.816   3.649  -0.356 -0.4171 -0.0306  0.2924
 1415ntf    on512042   3.036   3.545  -0.355 -0.0906  0.4461 -0.4134
 1415ntf    fn412043   2.859   3.377  -0.495 -0.5913  0.6998  0.2424
 1415ntf    fn412044   2.694   3.378  -0.368 -0.4934  0.1462 -0.3606
 1415ntf    fn412045   2.876   3.286  -0.303  0.7190 -0.0764 -0.4040
 1416ntf    cn112046   5.778   2.157   4.267 -0.0254  0.0047  0.2875
 1416ntf    sn212047   5.887   2.277   4.349 -0.0748  0.1167  0.1890
 1416ntf    nn312048   5.774   2.352   4.429 -0.3201 -0.0111 -0.0382
 1416ntf    sn212049   5.775   2.398   4.579 -0.0137 -0.2421  0.0329
 1416ntf    cn112050   5.648   2.527   4.557  0.1653 -0.0566  0.0800
 1416ntf    fn412051   5.842   2.071   4.189  0.4218  0.3842  0.2281
 1416ntf    fn412052   5.707   2.076   4.344 -0.0775 -0.2477 -0.0264
 1416ntf    fn412053   5.696   2.217   4.183  0.2960  0.1701  0.0923
 1416ntf    on512054   5.979   2.197   4.425  0.0874  0.1446  0.0204
 1416ntf    on512055   5.941   2.344   4.234 -0.0523 -0.2106  0.0103
 1416ntf    on512056   5.731   2.303   4.677 -0.3175 -0.0003  0.1338
 1416ntf    on512057   5.889   2.476   4.620  0.2505 -0.5534 -0.1046
 1416ntf    fn412058   5.648   2.613   4.658 -0.2350  0.0174  0.0207
 1416ntf    fn412059   5.523   2.482   4.551 -0.1300  0.7980 -0.3077
 1416ntf    fn412060   5.671   2.599   4.448  0.0433  0.3738  0.3373
 1417ntf    cn112061   2.543   6.263   0.884 -0.2863  0.0550 -0.2212
 1417ntf    sn212062   2.510   6.095   0.946  0.5530 -0.0567 -0.0634
 1417ntf    nn312063   2.432   6.129   1.078 -0.0239 -0.1065 -0.3896
 1417ntf    sn212064   2.278   6.155   1.100 -0.0164 -0.3873 -0.0040
 1417ntf    cn112065   2.260   6.044   1.243  0.0655 -0.1074  0.2242
 1417ntf    fn412066   2.628   6.268   0.783 -0.0404  0.3399 -0.0008
 1417ntf    fn412067   2.431   6.322   0.847 -0.4236  0.0582  0.1970
 1417ntf    fn412068   2.592   6.339   0.980 -0.1663  0.4143 -0.5649
 1417ntf    on512069   2.435   6.036   0.838  0.2845  0.0436  0.0660
 1417ntf    on512070   2.643   6.043   0.967  0.4822 -0.1192  0.2461
 1417ntf    on512071   2.247   6.287   1.149 -0.3289 -0.4500 -0.0307
 1417ntf    on512072   2.189   6.089   1.008 -0.6282 -0.6173  0.7415
 1417ntf    fn412073   2.141   6.056   1.299  0.0771  0.1791  0.1889
 1417ntf    fn412074   2.349   6.076   1.335  0.5631  0.0695 -0.3135
 1417ntf    fn412075   2.269   5.915   1.212  0.1610 -0.0333 -0.0546
 1418ntf    cn112076   6.105   0.609   3.954 -0.0909  0.1199 -0.1516
 1418ntf    sn212077   5.954   0.613   4.054 -0.0007 -0.2543 -0.0015
 1418ntf    nn312078   6.017   0.716   4.154  0.9897 -0.5681 -0.2875
 1418ntf    sn212079   6.049   0.705   4.308 -0.3226 -0.0145  0.0408
 1418ntf    cn112080   6.213   0.784   4.304 -0.2925 -0.0810 -0.0620
 1418ntf    fn412081   6.215   0.571   4.018 -0.0496 -0.1321 -0.3737
 1418ntf    fn412082   6.087   0.524   3.854 -0.0316  0.1861 -0.2196
 1418ntf    fn412083   6.140   0.730   3.912 -0.2929  0.3338  0.2908
 1418ntf    on512084   5.844   0.665   3.977 -0.2154  0.0409  0.4932
 1418ntf    on512085   5.932   0.478   4.100  0.3629 -0.1751  0.4194
 1418ntf    on512086   5.976   0.791   4.398  0.2163  0.4181  0.0717
 1418ntf    on512087   6.079   0.573   4.356  0.5214  0.0723 -0.2242
 1418ntf    fn412088   6.245   0.838   4.421  0.2159  0.3822 -0.4095
 1418ntf    fn412089   6.222   0.879   4.213 -0.2533 -0.2243 -0.2072
 1418ntf    fn412090   6.307   0.696   4.273  0.1911  0.3956  0.0283
 1419ntf    cn112091   2.074   6.197   2.055  0.0888 -0.3117  0.1975
 1419ntf    sn212092   2.098   6.050   2.158 -0.2110 -0.4317  0.0990
 1419ntf    nn312093   2.246   6.016   2.118 -0.1830  0.3926 -0.5236
 1419ntf    sn212094   2.379   6.036   2.199 -0.3890  0.3526 -0.1740
 1419ntf    cn112095   2.493   5.938   2.097 -0.2941  0.3551 -0.0707
 1419ntf    fn412096   2.134   6.193   1.937 -0.4025 -0.1734 -0.0648
 1419ntf    fn412097   1.945   6.219   2.034  0.0690 -0.4630  0.1634
 1419ntf    fn412098   2.116   6.310   2.110 -0.7109  0.1354 -0.0827
 1419ntf    on512099   2.067   6.093   2.292 -0.4518  0.1405 -0.1379
 1419ntf    on512100   2.008   5.947   2.113 -1.0758  0.3949 -0.0949
 1419ntf    on512101   2.433   6.169   2.181 -0.6085  0.4956  0.2070
 1419ntf    on512102   2.393   5.974   2.328 -0.7730  0.4602 -0.0789
 1419ntf    fn412103   2.424   5.846   2.031 -0.1958  0.4776 -0.3454
 1419ntf    fn412104   2.592   5.881   2.163 -0.9838 -0.0073  0.6731
 1419ntf    fn412105   2.549   6.012   2.003 -0.0415  0.2778  0.0176
 1420ntf    cn112106   4.779   0.983   0.665  0.2713 -0.0707  0.4095
 1420ntf    sn212107   4.922   1.086   0.621  0.0037  0.0103 -0.2806
 1420ntf    nn312108   4.991   1.104   0.761 -0.3345  0.0762 -0.1217
 1420ntf    sn212109   4.946   1.191   0.883  0.1425  0.0427  0.0802
 1420ntf    cn112110   5.086   1.305   0.898  0.3112 -0.1766  0.1712
 1420ntf    fn412111   4.673   1.046   0.713 -0.4590 -0.2088 -0.9862
 1420ntf    fn412112   4.736   0.917   0.559 -0.2980  0.0849  0.5379
 1420ntf    fn412113   4.812   0.887   0.750 -0.3092  0.1066  0.8431
 1420ntf    on512114   4.995   1.010   0.522  0.2065 -0.1352 -0.0209
 1420ntf    on512115   4.850   1.201   0.573 -0.2901 -0.0421  0.0316
 1420ntf    on512116   4.830   1.275   0.862  0.1327  0.0047 -0.0185
 1420ntf    on512117   4.948   1.108   1.001  0.1573  0.3356  0.2886
 1420ntf    fn412118   5.202   1.246   0.924  0.3356  0.0106  0.5056
 1420ntf    fn412119   5.057   1.377   1.005 -0.5620 -0.4004  0.0917
 1420ntf    fn412120   5.110   1.383   0.794 -0.1030  0.1708  0.3335
 1421ntf    cn112121   5.378   1.129   3.136 -0.3343  0.2715  0.0621
 1421ntf    sn212122   5.207   1.075   3.167 -0.1770 -0.2180  0.0885
 1421ntf    nn312123   5.138   1.079   3.025 -0.3009  0.0866  0.1567
 1421ntf    sn212124   5.124   0.963   2.921  0.3887 -0.0014  0.1536
 1421ntf    cn112125   4.975   1.024   2.835  0.3293 -0.2856  0.0547
 1421ntf    fn412126   5.396   1.246   3.078  0.0781 -0.0585 -0.4847
 1421ntf    fn412127   5.443   1.148   3.250  0.2219  0.2478 -0.2490
 1421ntf    fn412128   5.444   1.052   3.052 -0.7883  0.0002 -0.0470
 1421ntf    on512129   5.214   0.942   3.222 -0.4608 -0.2841 -0.0311
 1421ntf    on512130   5.156   1.176   3.257  0.4172 -0.1798  0.3841
 1421ntf    on512131   5.221   0.958   2.814  0.2991  0.1927  0.0614
 1421ntf    on512132   5.073   0.840   2.976  0.2900 -0.0355 -0.0121
 1421ntf    fn412133   5.001   1.132   2.764 -0.0428 -0.2502 -0.0309
 1421ntf    fn412134   4.879   1.063   2.917  0.2429 -0.6581  0.1329
 1421ntf    fn412135   4.920   0.940   2.749 -0.0433  0.0701 -0.0572
 1422ntf    cn112136   5.240   6.363   5.182 -0.1024  0.2288 -0.1202
 1422ntf    sn212137   5.405   6.418   5.128  0.0621  0.2646  0.4081
 1422ntf    nn312138   5.400   6.570   5.165  0.4258  0.4517 -0.2851
 1422ntf    sn212139   5.481   6.632   5.285 -0.2685  0.0925  0.3792
 1422ntf    cn112140   5.514   6.796   5.213 -0.1449 -0.0653  0.0747
 1422ntf    fn412141   5.231   6.234   5.152 -0.1077  0.1381  0.2627
 1422ntf    fn412142   5.214   6.369   5.312 -0.5194 -0.4921 -0.1667
 1422ntf    fn412143   5.141   6.423   5.119 -0.5682 -0.5441 -0.1433
 1422ntf    on512144   5.491   6.331   5.205  0.2808  0.0640 -0.0572
 1422ntf    on512145   5.416   6.400   4.985  0.4992 -0.0969  0.4852
 1422ntf    on512146   5.403   6.666   5.401 -0.3440  0.1828  0.3016
 1422ntf    on512147   5.611   6.579   5.317 -0.0764  0.2874 -0.0740
 1422ntf    fn412148   5.587   6.776   5.104 -0.2879 -0.1571 -0.0058
 1422ntf    fn412149   5.595   6.873   5.283  0.5281 -0.7170  0.0212
 1422ntf    fn412150   5.408   6.868   5.178  0.0550 -0.0725 -0.5688
 1423ntf    cn112151   4.504   4.973   2.320  0.3119  0.4168  0.0879
 1423ntf    sn212152   4.431   4.969   2.154  0.1841 -0.3392  0.1599
 1423ntf    nn312153   4.346   4.837   2.160 -0.4167  0.0236 -0.2869
 1423ntf    sn212154   4.400   4.690   2.153 -0.1731  0.0989  0.0203
 1423ntf    cn112155   4.362   4.647   2.326 -0.4130  0.0190 -0.0525
 1423ntf    fn412156   4.588   5.074   2.337  0.2566  0.4292  0.2949
 1423ntf    fn412157   4.407   4.994   2.408  0.3373 -0.5956  0.3701
 1423ntf    fn412158   4.564   4.860   2.353  0.0663  0.3624  0.3601
 1423ntf    on512159   4.354   5.091   2.149  0.0686 -0.4084  0.2690
 1423ntf    on512160   4.530   4.959   2.049 -0.2856 -0.2084 -0.2978
 1423ntf    on512161   4.311   4.594   2.093 -0.1432 -0.0373  0.1919
 1423ntf    on512162   4.540   4.668   2.127 -0.1266 -0.0101  0.3498
 1423ntf    fn412163   4.343   4.517   2.341 -0.0110  0.0107  0.3894
 1423ntf    fn412164   4.256   4.716   2.365 -0.2527  0.2641 -0.0530
 1423ntf    fn412165   4.464   4.685   2.401  0.3575 -0.0411 -1.0462
 1424ntf    cn112166   1.369   2.611   2.431 -0.3020  0.3028  0.0438
 1424ntf    sn212167   1.365   2.648   2.253  0.0479  0.2410  0.0229
 1424ntf    nn312168   1.282   2.529   2.195  0.0870 -0.1933  0.8425
 1424ntf    sn212169   1.125   2.526   2.187  0.1199 -0.2348  0.1736
 1424ntf    cn112170   1.079   2.370   2.268 -0.1728 -0.1796  0.1172
 1424ntf    fn412171   1.417   2.712   2.503 -0.1710  0.1217  0.2124
 1424ntf    fn412172   1.253   2.573   2.482 -0.3290  0.0950 -0.1708
 1424ntf    fn412173   1.451   2.511   2.458  0.0362  0.4194 -0.5287
 1424ntf    on512174   1.300   2.777   2.250 -0.5337 -0.0501 -0.0775
 1424ntf    on512175   1.507   2.645   2.231  0.0599 -0.2881  0.1562
 1424ntf    on512176   1.058   2.626   2.267 -0.3208 -0.3068 -0.0973
 1424ntf    on512177   1.076   2.503   2.053  0.2183  0.0092  0.0942
 1424ntf    fn412178   1.113   2.364   2.395 -0.4350 -0.3590  0.1784
 1424ntf    fn412179   1.133   2.259   2.219 -0.3288 -0.4800  0.6237
 1424ntf    fn412180   0.948   2.354   2.258 -0.1915 -0.0615  0.1842
 1425ntf    cn112181   0.783   3.204   3.771 -0.0696 -0.1616  0.2946
 1425ntf    sn212182   0.933   3.251   3.680 -0.2572 -0.2111 -0.0400
 1425ntf    nn312183   0.936   3.132   3.577  0.0009 -0.1082 -0.1510
 1425ntf    sn212184   1.014   2.996   3.585  0.2528  0.0578  0.1941
 1425ntf    cn112185   0.873   2.884   3.563  0.2758  0.0636  0.0179
 1425ntf    fn412186   0.791   3.087   3.833 -0.2404 -0.0350  0.5600
 1425ntf    fn412187   0.762   3.297   3.862  0.5133 -0.1098  0.3796
 1425ntf    fn412188   0.671   3.202   3.700  0.2700  0.2826 -0.2519
 1425ntf    on512189   0.902   3.379   3.621 -0.1034  0.1684  0.6931
 1425ntf    on512190   1.036   3.262   3.779 -0.1247 -0.2476 -0.1735
 1425ntf    on512191   1.088   2.961   3.466 -0.6119  0.0861 -0.3566
 1425ntf    on512192   1.065   2.952   3.713 -0.8519  0.0580  0.6458
 1425ntf    fn412193   0.785   2.895   3.661  0.1835  0.0000 -0.0582
 1425ntf    fn412194   0.921   2.761   3.565 -0.2637 -0.1434  0.4073
 1425ntf    fn412195   0.818   2.901   3.444  0.3647 -0.7553 -0.1449
 1426ntf    cn112196   0.409   1.804   4.408 -0.1366 -0.1028 -0.2026
 1426ntf    sn212197   0.454   1.629   4.420  0.0555 -0.0460 -0.0823
 1426ntf    nn312198   0.599   1.637   4.363  0.0476 -0.3876 -0.1532
 1426ntf    sn212199   0.650   1.611   4.216  0.2491  0.0280 -0.1589
 1426ntf    cn112200   0.681   1.433   4.240  0.2774  0.0683  0.1134
 1426ntf    fn412201   0.454   1.873   4.304 -0.1188 -0.0001 -0.1266
 1426ntf    fn412202   0.277   1.805   4.402 -0.1180 -0.1250 -0.6253
 1426ntf    fn412203   0.443   1.874   4.515 -0.2035 -0.0462 -0.2188
 1426ntf    on512204   0.446   1.609   4.563 -0.5299 -0.1739 -0.1289
 1426ntf    on512205   0.352   1.565   4.340 -0.0485 -0.4756  0.3827
 1426ntf    on512206   0.566   1.631   4.101  0.8459 -0.3354 -0.6654
 1426ntf    on512207   0.787   1.655   4.205  0.2600  0.1837  0.5302
 1426ntf    fn412208   0.570   1.371   4.274  0.0532  0.1421 -0.4666
 1426ntf    fn412209   0.781   1.409   4.323  0.2986 -0.1604  0.0220
 1426ntf    fn412210   0.726   1.390   4.123  0.2737  0.1321  0.0881
 1427ntf    cn112211   1.981   0.260   1.973  0.0069  0.1845  0.0326
 1427ntf    sn212212   1.976   0.082   1.935  0.2700  0.1257  0.2667
 1427ntf    nn312213   1.964   0.088   1.778  0.2699 -0.4412  0.2434
 1427ntf    sn212214   2.074   0.075   1.667  0.0968 -0.3351  0.0594
 1427ntf    cn112215   2.057  -0.102   1.627 -0.2316 -0.2601 -0.1425
 1427ntf    fn412216   1.989   0.289   2.102 -0.1543  0.1861  0.0425
 1427ntf    fn412217   2.076   0.327   1.910  0.1413  0.2312  0.2815
 1427ntf    fn412218   1.869   0.313   1.928  0.2056  0.3668 -0.2453
 1427ntf    on512219   2.096   0.029   1.995  0.6299  0.4731 -0.1335
 1427ntf    on512220   1.857   0.038   2.004  0.2293 -0.0250  0.1012
 1427ntf    on512221   2.042   0.135   1.540 -0.3279 -0.2556  0.2025
 1427ntf    on512222   2.210   0.090   1.710  0.0538 -0.4443  0.2346
 1427ntf    fn412223   1.933  -0.121   1.586 -0.2678  0.5241 -0.4151
 1427ntf    fn412224   2.067  -0.174   1.738  0.0241 -0.1521 -0.0951
 1427ntf    fn412225   2.146  -0.147   1.541 -0.0589 -0.0293 -0.0854
 1428ntf    cn112226   1.529   6.260   1.361  0.2033  0.3150 -0.0685
 1428ntf    sn212227   1.635   6.135   1.440 -0.1973 -0.0736 -0.1412
 1428ntf    nn312228   1.603   6.024   1.334  0.7470 -0.4745 -0.0149
 1428ntf    sn212229   1.500   5.906   1.342  0.1957  0.0255  0.2629
 1428ntf    cn112230   1.612   5.772   1.392  0.6871  0.3008 -0.1018
 1428ntf    fn412231   1.412   6.211   1.323  0.4622 -0.0259 -0.4327
 1428ntf    fn412232   1.503   6.367   1.434  0.1204  0.2699 -0.0316
 1428ntf    fn412233   1.573   6.300   1.243 -0.2834  0.0405 -0.3444
 1428ntf    on512234   1.769   6.185   1.425 -0.0582 -0.3667  0.1012
 1428ntf    on512235   1.577   6.121   1.572 -0.2491 -0.1946 -0.1768
 1428ntf    on512236   1.395   5.907   1.442  0.4375 -0.6946  0.5310
 1428ntf    on512237   1.462   5.863   1.210  0.1527  0.0987  0.2510
 1428ntf    fn412238   1.551   5.658   1.418 -0.0568  0.6184 -0.4092
 1428ntf    fn412239   1.687   5.801   1.497  0.0458 -0.5338  0.5938
 1428ntf    fn412240   1.694   5.739   1.293 -0.1726 -0.2801 -0.6297
 1429ntf    cn112241   6.495   5.256   2.077  0.3394  0.2342  0.2384
 1429ntf    sn212242   6.429   5.411   2.009 -0.1212 -0.0745 -0.0226
 1429ntf    nn312243   6.320   5.452   2.113  0.0184  0.1560  0.0339
 1429ntf    sn212244   6.210   5.563   2.097 -0.2528 -0.1274 -0.0723
 1429ntf    cn112245   6.067   5.456   2.132 -0.1106 -0.2844  0.0323
 1429ntf    fn412246   6.542   5.255   2.200 -0.3425  0.2420  0.5029
 1429ntf    fn412247   6.399   5.166   2.087  0.3381  0.2054 -0.0138
 1429ntf    fn412248   6.593   5.196   2.010 -0.5071 -0.2328 -0.6073
 1429ntf    on512249   6.542   5.500   2.007  0.4185 -0.7546 -0.2458
 1429ntf    on512250   6.383   5.374   1.877 -0.1583 -0.1769  0.0191
 1429ntf    on512251   6.211   5.660   2.203  0.8995 -0.4730  0.2467
 1429ntf    on512252   6.190   5.617   1.965 -0.4929  0.1042  0.0582
 1429ntf    fn412253   5.955   5.523   2.156 -0.4443 -0.8261  0.0098
 1429ntf    fn412254   6.096   5.383   2.238  0.5936 -0.4411 -0.2660
 1429ntf    fn412255   6.041   5.371   2.034  0.7529  0.0508 -0.4919
 1430ntf    cn112256   1.089   3.019   4.471 -0.0969  0.5615  0.0621
 1430ntf    sn212257   1.265   3.065   4.465  0.0966 -0.0862  0.5812
 1430ntf    nn312258   1.259   3.217   4.505 -0.0644  0.0819 -0.0630
 1430ntf    sn212259   1.219   3.341   4.417  0.0566  0.2360  0.0986
 1430ntf    cn112260   1.383   3.403   4.368  0.1924  0.0199  0.2776
 1430ntf    fn412261   1.009   3.110   4.418 -0.2899  0.3267 -0.0514
 1430ntf    fn412262   1.076   2.907   4.401  0.0227  0.6859 -0.1578
 1430ntf    fn412263   1.049   2.988   4.593  0.1731  0.0515  0.0248
 1430ntf    on512264   1.328   2.979   4.561  0.0011 -0.6049  0.1843
 1430ntf    on512265   1.296   3.046   4.326 -0.8311 -0.0167  0.3580
 1430ntf    on512266   1.162   3.309   4.288  0.3751  0.1132 -0.0153
 1430ntf    on512267   1.154   3.450   4.484 -0.3709  0.0502 -0.0145
 1430ntf    fn412268   1.462   3.327   4.294  0.2315  0.0969  0.2399
 1430ntf    fn412269   1.452   3.442   4.474 -0.3242  0.9003  0.2935
 1430ntf    fn412270   1.367   3.521   4.311  0.1308 -0.1746 -0.1040
 1431ntf    cn112271   1.327   0.161   3.072  0.1650  0.0514  0.1623
 1431ntf    sn212272   1.170   0.086   3.124  0.1893 -0.1772 -0.0953
 1431ntf    nn312273   1.062   0.171   3.048 -0.3397 -0.1567  0.6645
 1431ntf    sn212274   0.984   0.301   3.091 -0.2538  0.1622 -0.1297
 1431ntf    cn112275   0.834   0.218   3.151  0.1687 -0.3514  0.2249
 1431ntf    fn412276   1.330   0.169   2.940  0.3202  0.4607  0.1887
 1431ntf    fn412277   1.352   0.284   3.116  0.1249  0.0118  0.2960
 1431ntf    fn412278   1.431   0.081   3.088 -0.2137 -0.4573  0.1045
 1431ntf    on512279   1.182  -0.046   3.066  0.5063 -0.2715  0.1838
 1431ntf    on512280   1.174   0.103   3.267 -0.3502  0.0985 -0.1099
 1431ntf    on512281   1.029   0.374   3.206  0.4723  0.0404 -0.3292
 1431ntf    on512282   0.932   0.374   2.978 -0.3662 -0.2704 -0.3612
 1431ntf    fn412283   0.773   0.148   3.057 -0.3455 -0.0755  0.3523
 1431ntf    fn412284   0.755   0.310   3.205  0.1385 -0.0770 -0.2857
 1431ntf    fn412285   0.849   0.135   3.253  0.0661 -0.2190  0.3480
 1432ntf    cn112286   1.160   2.184   5.908  0.3747  0.1762  0.2126
 1432ntf    sn212287   1.276   2.044   5.908 -0.0212 -0.1543  0.2486
 1432ntf    nn312288   1.209   1.950   6.014  0.4055 -0.6564  0.0790
 1432ntf    sn212289   1.094   1.846   5.991  0.1174 -0.3894  0.3086
 1432ntf    cn112290   1.172   1.690   6.043 -0.0214 -0.4713  0.2729
 1432ntf    fn412291   1.144   2.246   6.024 -0.1538  0.0506  0.2071
 1432ntf    fn412292   1.195   2.284   5.829 -0.0425  0.2271  0.0904
 1432ntf    fn412293   1.038   2.145   5.875  0.3662  0.3820  0.0024
 1432ntf    on512294   1.290   1.991   5.774  0.2337 -0.7487  0.5046
 1432ntf    on512295   1.399   2.093   5.965  0.0210  0.1061 -0.0624
 1432ntf    on512296   0.987   1.858   6.087 -0.2862  0.4134 -0.2306
 1432ntf    on512297   1.056   1.815   5.856 -0.3297  0.1242  0.3106
 1432ntf    fn412298   1.185   1.682   6.175 -0.0868 -0.2299  0.2954
 1432ntf    fn412299   1.286   1.662   5.983 -0.2773 -0.1646 -0.3618
 1432ntf    fn412300   1.086   1.598   6.006  0.1362 -0.4584 -0.1261
 1433ntf    cn112301   4.743   2.030   0.029 -0.2528 -0.1993 -0.3740
 1433ntf    sn212302   4.866   2.155   0.077 -0.2820 -0.2787 -0.0927
 1433ntf    nn312303   4.786   2.289   0.090  0.3081  0.0971 -0.3061
 1433ntf    sn212304   4.705   2.352   0.209  0.3313 -0.0942 -0.1890
 1433ntf    cn112305   4.537   2.387   0.149  0.1525 -0.1645  0.2650
 1433ntf    fn412306   4.655   2.064  -0.064 -0.2994 -0.5475 -0.4615
 1433ntf    fn412307   4.803   1.925  -0.026 -0.3596 -0.3426 -0.2143
 1433ntf    fn412308   4.672   1.991   0.133 -0.3772  0.3506 -0.2488
 1433ntf    on512309   4.918   2.105   0.202  0.5695 -0.1998 -0.4083
 1433ntf    on512310   4.954   2.164  -0.037 -0.1214 -0.6871 -0.0022
 1433ntf    on512311   4.684   2.265   0.322  0.2660  0.2335  0.0538
 1433ntf    on512312   4.751   2.486   0.237  0.1675 -0.0858  0.0375
 1433ntf    fn412313   4.534   2.462   0.040  0.3687  0.5877  0.7715
 1433ntf    fn412314   4.470   2.461   0.235  0.0067 -0.0984  0.0964
 1433ntf    fn412315   4.468   2.275   0.137  0.1936 -0.1422 -0.1987
 1434ntf    cn112316   1.831   4.667   5.348 -0.2269 -0.2677 -0.0103
 1434ntf    sn212317   1.686   4.756   5.412  0.1166  0.3607 -0.0985
 1434ntf    nn312318   1.581   4.644   5.379  0.5516 -0.1252  0.1504
 1434ntf    sn212319   1.465   4.662   5.274  0.3394 -0.1321  0.3851
 1434ntf    cn112320   1.316   4.610   5.364 -0.0269 -0.0676 -0.1848
 1434ntf    fn412321   1.812   4.615   5.227  0.2894  0.1645 -0.2792
 1434ntf    fn412322   1.928   4.753   5.322 -0.3528 -0.2026 -0.2727
 1434ntf    fn412323   1.875   4.564   5.418 -0.1780 -0.2061  0.0469
 1434ntf    on512324   1.715   4.757   5.554 -0.1499 -0.8049 -0.0221
 1434ntf    on512325   1.678   4.883   5.346 -0.2855  0.5886  0.3862
 1434ntf    on512326   1.434   4.798   5.238  0.1980 -0.2674  0.0006
 1434ntf    on512327   1.479   4.576   5.160 -0.6019  0.4718 -0.1981
 1434ntf    fn412328   1.208   4.621   5.289 -0.2220 -0.3066  0.0593
 1434ntf    fn412329   1.296   4.680   5.475  0.8506 -0.0718 -0.0167
 1434ntf    fn412330   1.326   4.485   5.405  0.6521 -0.1321 -0.5320
 1435ntf    cn112331   5.480   0.258   3.439 -0.0189 -0.2785 -0.2326
 1435ntf    sn212332   5.371   0.119   3.396  0.0528 -0.3685 -0.1261
 1435ntf    nn312333   5.268   0.186   3.298  0.0123 -0.1936  0.0332
 1435ntf    sn212334   5.168   0.125   3.193 -0.1733 -0.0088  0.1028
 1435ntf    cn112335   5.005   0.138   3.273 -0.1151 -0.4880  0.3047
 1435ntf    fn412336   5.553   0.307   3.340 -0.1272  0.5489  0.0869
 1435ntf    fn412337   5.417   0.360   3.495  1.0498  0.1985  0.1410
 1435ntf    fn412338   5.574   0.227   3.528  0.0299 -0.1499 -0.2396
 1435ntf    on512339   5.461   0.033   3.324  0.0482 -0.2852 -0.2313
 1435ntf    on512340   5.320   0.067   3.520 -0.0607  0.1424  0.0472
 1435ntf    on512341   5.160   0.213   3.080  0.2368  0.6859  0.6072
 1435ntf    on512342   5.181  -0.015   3.160  0.1771  0.1078 -0.2695
 1435ntf    fn412343   4.978   0.258   3.322  0.2683 -0.0719 -0.4853
 1435ntf    fn412344   5.007   0.050   3.372  0.6346 -0.3836  0.3862
 1435ntf    fn412345   4.909   0.111   3.186  0.0767 -0.1117 -0.0281
 1436ntf    cn112346   1.754   1.481   0.552 -0.1090 -0.2184  0.5547
 1436ntf    sn212347   1.742   1.374   0.698  0.0771 -0.2741  0.5298
 1436ntf    nn312348   1.771   1.484   0.806  0.0688  0.1929  0.0580
 1436ntf    sn212349   1.663   1.553   0.897  0.1173 -0.0360  0.2913
 1436ntf    cn112350   1.643   1.413   1.010 -0.1716 -0.3820 -0.1845
 1436ntf    fn412351   1.878   1.503   0.509 -0.2497 -0.2544  0.1221
 1436ntf    fn412352   1.693   1.438   0.443  0.0502 -0.4264  0.5450
 1436ntf    fn412353   1.698   1.599   0.569  0.6780  0.2802 -0.2043
 1436ntf    on512354   1.611   1.314   0.686  0.0758 -0.2389  0.3672
 1436ntf    on512355   1.852   1.281   0.692  0.2369 -0.0220 -0.7415
 1436ntf    on512356   1.728   1.660   0.968 -0.0080 -0.3273  0.8467
 1436ntf    on512357   1.533   1.577   0.841  0.2142  0.4288  0.2557
 1436ntf    fn412358   1.564   1.321   0.957  0.3321 -0.5085 -0.7249
 1436ntf    fn412359   1.582   1.456   1.120 -0.0093 -0.5197 -0.0388
 1436ntf    fn412360   1.756   1.353   1.043 -0.1328 -0.2662 -0.1061
 1437ntf    cn112361   5.247   6.548   5.888  0.0349 -0.1846  0.4027
 1437ntf    sn212362   5.207   6.547   6.065 -0.3019  0.1883  0.3298
 1437ntf    nn312363   5.183   6.701   6.081 -0.7728  0.1237  0.2620
 1437ntf    sn212364   5.264   6.798   6.174 -0.1083  0.0083 -0.1905
 1437ntf    cn112365   5.411   6.842   6.076  0.1498  0.2207  0.2912
 1437ntf    fn412366   5.336   6.641   5.855 -0.7498  0.3306 -0.2815
 1437ntf    fn412367   5.294   6.429   5.854 -0.2279 -0.2910  0.4126
 1437ntf    fn412368   5.140   6.567   5.813  0.0782  0.5648  0.5223
 1437ntf    on512369   5.081   6.476   6.070  0.0497 -0.4650 -0.0748
 1437ntf    on512370   5.319   6.487   6.133 -0.0437  0.0197 -0.2355
 1437ntf    on512371   5.196   6.924   6.192  0.5375  0.3551 -0.1480
 1437ntf    on512372   5.317   6.745   6.297  0.0794 -0.3247 -0.4144
 1437ntf    fn412373   5.493   6.923   6.141  0.1053  0.5325 -0.0415
 1437ntf    fn412374   5.378   6.908   5.967  0.0471 -0.3702 -0.0406
 1437ntf    fn412375   5.487   6.737   6.048  0.2907  0.5204 -0.4677
 1438ntf    cn112376   0.046   4.175   3.020  0.0783 -0.3264  0.0267
 1438ntf    sn212377  -0.086   4.294   2.978  0.2692 -0.1453 -0.0632
 1438ntf    nn312378  -0.119   4.263   2.828  0.0793  0.1340 -0.0789
 1438ntf    sn212379  -0.228   4.164   2.773  0.2047 -0.1298  0.1478
 1438ntf    cn112380  -0.386   4.253   2.782  0.4664  0.3376  0.1259
 1438ntf    fn412381   0.011   4.048   3.016  0.4946 -0.4642  0.5885
 1438ntf    fn412382   0.152   4.186   2.943  0.2246 -0.3750  0.2211
 1438ntf    fn412383   0.095   4.192   3.141  0.1096  0.0538 -0.0388
 1438ntf    on512384  -0.199   4.278   3.066  0.1484 -0.2805 -0.2430
 1438ntf    on512385  -0.009   4.415   2.984 -0.4469  0.2933  0.3814
 1438ntf    on512386  -0.209   4.144   2.632 -0.4811  0.1368  0.0142
 1438ntf    on512387  -0.245   4.042   2.849 -0.6661  0.3342  0.7212
 1438ntf    fn412388  -0.483   4.193   2.715  0.6805  0.4812 -0.3150
 1438ntf    fn412389  -0.374   4.370   2.721  0.4336  0.1981 -0.1494
 1438ntf    fn412390  -0.429   4.283   2.904 -0.6238  0.1828 -0.2103
 1439ntf    cn112391   2.699   5.590   5.298  0.2603  0.0178  0.4806
 1439ntf    sn212392   2.620   5.455   5.206  0.1276  0.3393  0.1180
 1439ntf    nn312393   2.540   5.394   5.327 -0.3459  0.5661 -0.0763
 1439ntf    sn212394   2.401   5.323   5.324 -0.0286 -0.0769  0.2185
 1439ntf    cn112395   2.444   5.147   5.347 -0.1252 -0.1557 -0.1993
 1439ntf    fn412396   2.777   5.668   5.224  0.2034 -0.2044  0.1817
 1439ntf    fn412397   2.607   5.667   5.352  0.0808  0.1883 -0.0644
 1439ntf    fn412398   2.772   5.541   5.397 -0.0724 -0.3213  0.5562
 1439ntf    on512399   2.539   5.528   5.112 -0.4720 -0.3411  0.0895
 1439ntf    on512400   2.733   5.384   5.152 -0.0494  0.0357  0.1382
 1439ntf    on512401   2.316   5.362   5.434  0.3863  1.0325  0.1564
 1439ntf    on512402   2.338   5.331   5.195  0.5081  0.0228 -0.0363
 1439ntf    fn412403   2.542   5.107   5.268 -0.1313 -0.1691 -0.2005
 1439ntf    fn412404   2.337   5.072   5.329 -0.0799 -0.3146  0.1935
 1439ntf    fn412405   2.487   5.127   5.471  0.0387  0.2765 -0.1824
 1440ntf    cn112406   0.739   0.100   0.790  0.1625 -0.0716 -0.1252
 1440ntf    sn212407   0.681   0.252   0.707 -0.1765 -0.2511 -0.2179
 1440ntf    nn312408   0.530   0.252   0.747  0.0654 -0.0685  0.7199
 1440ntf    sn212409   0.432   0.371   0.779  0.1955  0.2273  0.0245
 1440ntf    cn112410   0.314   0.360   0.640  0.4270 -0.5273 -0.1166
 1440ntf    fn412411   0.667  -0.006   0.760 -0.1385 -0.0072  0.3677
 1440ntf    fn412412   0.861   0.064   0.753  0.2104  0.2739 -0.3140
 1440ntf    fn412413   0.742   0.102   0.922  0.5179 -0.3663 -0.1257
 1440ntf    on512414   0.753   0.358   0.773 -0.5875  0.1378 -0.3971
 1440ntf    on512415   0.710   0.237   0.566 -0.0130 -0.1982 -0.1908
 1440ntf    on512416   0.356   0.336   0.896 -0.0634  0.3819 -0.0976
 1440ntf    on512417   0.480   0.506   0.772 -0.0187  0.3217  0.3651
 1440ntf    fn412418   0.280   0.237   0.606 -0.5789 -0.2568 -0.1149
 1440ntf    fn412419   0.349   0.424   0.531  0.0105 -0.1825 -0.0486
 1440ntf    fn412420   0.200   0.414   0.678  0.4404 -0.4873 -0.1343
 1441ntf    cn112421   3.595   0.501   1.057  0.2489 -0.4135  0.3462
 1441ntf    sn212422   3.471   0.508   0.923  0.1739  0.2774  0.4478
 1441ntf    nn312423   3.498   0.384   0.832  0.3322  0.2681  0.5070
 1441ntf    sn212424   3.396   0.280   0.773  0.3380  0.2845  0.4679
 1441ntf    cn112425   3.482   0.202   0.634  0.2874  0.3055  0.4250
 1441ntf    fn412426   3.626   0.616   1.115  0.4077 -0.2833  0.0034
 1441ntf    fn412427   3.553   0.420   1.152 -0.3616 -0.3849  0.1069
 1441ntf    fn412428   3.708   0.452   1.010  0.3155 -0.2341  0.3197
 1441ntf    on512429   3.344   0.502   0.991  0.0911 -0.1354  0.2553
 1441ntf    on512430   3.501   0.634   0.860 -0.2084  0.7037  1.1064
 1441ntf    on512431   3.366   0.170   0.862 -0.3853 -0.1364 -0.2892
 1441ntf    on512432   3.279   0.336   0.710  0.1661 -0.1172  0.4269
 1441ntf    fn412433   3.518   0.292   0.543  0.0267 -0.0722 -0.0612
 1441ntf    fn412434   3.423   0.105   0.565  0.1212  0.6629  0.0585
 1441ntf    fn412435   3.597   0.151   0.673  0.1649  0.2537  0.7173
 1442ntf    cn112436   1.776   5.141   3.419 -0.0318 -0.2323 -0.3146
 1442ntf    sn212437   1.786   5.322   3.430  0.4180 -0.2733  0.0490
 1442ntf    nn312438   1.814   5.348   3.582  0.0762  0.9668 -0.0866
 1442ntf    sn212439   1.717   5.358   3.706  0.0810 -0.2213  0.0295
 1442ntf    cn112440   1.711   5.537   3.737 -0.0705 -0.2170 -0.0228
 1442ntf    fn412441   1.870   5.083   3.494 -0.2990 -0.2936 -0.0238
 1442ntf    fn412442   1.657   5.101   3.460 -0.0359  0.2498  0.1537
 1442ntf    fn412443   1.794   5.098   3.295 -0.2635  0.2858 -0.5282
 1442ntf    on512444   1.903   5.350   3.351  0.2699  0.1868 -0.0119
 1442ntf    on512445   1.662   5.374   3.377  0.9266  0.3647 -0.5385
 1442ntf    on512446   1.580   5.324   3.677  0.0401 -0.3007  0.3223
 1442ntf    on512447   1.775   5.310   3.829 -0.1785  0.4255  0.4052
 1442ntf    fn412448   1.822   5.607   3.751  0.0352 -0.3077 -0.3965
 1442ntf    fn412449   1.636   5.563   3.843  0.1023 -0.5256  0.1786
 1442ntf    fn412450   1.648   5.602   3.641 -0.0592  0.1618  0.2242
 1443ntf    cn112451   4.088   3.327   4.815  0.0553  0.2285  0.1016
 1443ntf    sn212452   4.120   3.323   4.994 -0.0142  0.0720  0.1113
 1443ntf    nn312453   4.019   3.214   5.046  0.0173 -0.1293 -0.2487
 1443ntf    sn212454   3.872   3.234   5.095  0.1009  0.0384 -0.0646
 1443ntf    cn112455   3.900   3.256   5.273  0.2423 -0.3547 -0.0362
 1443ntf    fn412456   4.122   3.209   4.766  0.0472  0.3371 -0.1658
 1443ntf    fn412457   3.961   3.346   4.782  0.0302 -0.1917 -0.0540
 1443ntf    fn412458   4.164   3.415   4.754  0.5010 -0.0551  0.2431
 1443ntf    on512459   4.260   3.289   4.998  0.1296  0.5908 -0.5026
 1443ntf    on512460   4.086   3.455   5.039 -0.1444 -0.2119  0.8730
 1443ntf    on512461   3.797   3.349   5.050  0.1876 -0.0332 -0.3907
 1443ntf    on512462   3.807   3.105   5.093 -0.3838  0.2687  0.4859
 1443ntf    fn412463   3.788   3.272   5.342  0.4970 -0.3912  0.3896
 1443ntf    fn412464   3.978   3.356   5.310  0.2027 -0.2304 -0.2865
 1443ntf    fn412465   3.959   3.147   5.318  0.8310 -0.0374 -0.0283
 1444ntf    cn112466   2.517   3.311   3.001 -0.2511 -0.1316  0.2490
 1444ntf    sn212467   2.610   3.456   3.060  0.0236 -0.2268  0.0514
 1444ntf    nn312468   2.575   3.446   3.213 -0.0812  0.1140  0.0506
 1444ntf    sn212469   2.670   3.472   3.335 -0.0926  0.1420  0.0535
 1444ntf    cn112470   2.727   3.302   3.363 -0.3770  0.0458  0.0504
 1444ntf    fn412471   2.539   3.286   2.873  0.2342  0.3719  0.2305
 1444ntf    fn412472   2.553   3.201   3.066  0.0804 -0.3933 -0.3689
 1444ntf    fn412473   2.386   3.322   3.018 -0.4004 -0.4594 -0.6311
 1444ntf    on512474   2.743   3.425   3.016  0.2086  0.1987  0.3059
 1444ntf    on512475   2.548   3.568   2.995  0.4159  0.0473  0.1509
 1444ntf    on512476   2.790   3.544   3.301  0.1418 -0.2750 -0.0134
 1444ntf    on512477   2.605   3.511   3.458 -0.1967  0.4131 -0.0872
 1444ntf    fn412478   2.626   3.217   3.374 -0.1590 -0.2145  0.0768
 1444ntf    fn412479   2.800   3.282   3.471  0.2244  0.0352 -0.3516
 1444ntf    fn412480   2.803   3.257   3.264 -0.6554  0.3943 -0.3228
 1445ntf    cn112481   5.724   4.146   2.807  0.2339 -0.5804 -0.1835
 1445ntf    sn212482   5.627   4.173   2.656 -0.0586  0.0021  0.1024
 1445ntf    nn312483   5.734   4.168   2.541 -0.0411  0.2736  0.1058
 1445ntf    sn212484   5.768   4.040   2.456 -0.0869  0.3611 -0.0462
 1445ntf    cn112485   5.645   4.046   2.323 -0.0394 -0.0157 -0.1103
 1445ntf    fn412486   5.807   4.249   2.810 -0.0544 -0.3569  0.5373
 1445ntf    fn412487   5.657   4.159   2.921 -0.1312 -0.1197 -0.4473
 1445ntf    fn412488   5.785   4.029   2.804  0.5712 -0.3935 -0.6106
 1445ntf    on512489   5.539   4.058   2.662 -0.0570  0.0273  0.6605
 1445ntf    on512490   5.571   4.304   2.674 -0.0854 -0.0772  0.6128
 1445ntf    on512491   5.893   4.058   2.386  0.0647  0.1100  0.1563
 1445ntf    on512492   5.744   3.913   2.521 -0.3954 -0.0578 -0.9636
 1445ntf    fn412493   5.521   4.008   2.352  0.0299 -0.2185 -0.0878
 1445ntf    fn412494   5.681   3.957   2.233  0.1361 -0.3569  0.2938
 1445ntf    fn412495   5.642   4.163   2.261 -0.4072  0.0405  0.0063
 1446ntf    cn112496   0.869   4.781   3.651  0.4048  0.1509 -0.3647
 1446ntf    sn212497   0.829   4.873   3.803 -0.0994  0.0024 -0.4032
 1446ntf    nn312498   0.958   4.963   3.802 -0.2152  0.1712 -0.2199
 1446ntf    sn212499   0.966   5.118   3.781  0.1204  0.1751 -0.0815
 1446ntf    cn112500   0.955   5.131   3.600  0.2909  0.0740 -0.0998
 1446ntf    fn412501   0.984   4.717   3.661  0.1797 -0.1477  0.3875
 1446ntf    fn412502   0.783   4.685   3.619 -0.0359  0.5005 -0.2380
 1446ntf    fn412503   0.887   4.856   3.544 -0.0512  0.3999 -0.2714
 1446ntf    on512504   0.710   4.946   3.769 -0.1237  0.3832  0.4826
 1446ntf    on512505   0.829   4.769   3.903  0.2640  0.3862  0.0041
 1446ntf    on512506   0.857   5.196   3.836  0.3444  0.0981  0.4770
 1446ntf    on512507   1.099   5.163   3.814  0.0486  0.4287 -0.1355
 1446ntf    fn412508   0.851   5.064   3.552 -0.2479  0.4142  0.5597
 1446ntf    fn412509   1.067   5.088   3.546  0.2291  0.2688 -0.3880
 1446ntf    fn412510   0.938   5.258   3.567  0.3286  0.1599  0.2058
 1447ntf    cn112511   3.075   4.794   3.651 -0.5291 -0.1389 -0.1887
 1447ntf    sn212512   3.200   4.923   3.677 -0.3333 -0.3775  0.0567
 1447ntf    nn312513   3.334   4.844   3.650 -0.1509 -0.2026  0.4436
 1447ntf    sn212514   3.425   4.855   3.523 -0.4946 -0.0085  0.2107
 1447ntf    cn112515   3.581   4.792   3.591 -0.2380  0.4476  0.0491
 1447ntf    fn412516   3.091   4.690   3.732  0.4366 -0.1521 -0.3893
 1447ntf    fn412517   2.951   4.837   3.669 -0.2494  0.3446  0.6593
 1447ntf    fn412518   3.085   4.749   3.528 -0.5238  0.6943 -0.4995
 1447ntf    on512519   3.166   5.020   3.575  0.3993 -0.2344 -0.0585
 1447ntf    on512520   3.185   4.967   3.813 -0.4070  0.0964 -0.1052
 1447ntf    on512521   3.395   4.752   3.426  0.4511 -0.1932  0.1053
 1447ntf    on512522   3.452   4.991   3.485 -1.1805  0.2112  0.4976
 1447ntf    fn412523   3.569   4.667   3.633 -0.5235  0.4280 -0.0954
 1447ntf    fn412524   3.621   4.866   3.693  0.2909 -0.2538  0.3633
 1447ntf    fn412525   3.683   4.782   3.507 -0.2617 -0.3475  0.1015
 1448ntf    cn112526   4.946   0.140   4.539 -0.1185  0.0567 -0.3567
 1448ntf    sn212527   4.902   0.242   4.683  0.3847 -0.2746  0.0305
 1448ntf    nn312528   4.747   0.221   4.676  0.2837  0.4247  0.1240
 1448ntf    sn212529   4.645   0.300   4.586  0.0481  0.0314  0.0393
 1448ntf    cn112530   4.569   0.152   4.513  0.3031 -0.2412  0.3208
 1448ntf    fn412531   4.932   0.193   4.418 -0.4324  0.5056 -0.1276
 1448ntf    fn412532   5.068   0.094   4.556 -0.3126 -0.3985 -0.1724
 1448ntf    fn412533   4.869   0.032   4.546 -0.2421  0.1777  0.1575
 1448ntf    on512534   4.965   0.173   4.793  0.0477 -0.6302  0.0050
 1448ntf    on512535   4.946   0.376   4.656  0.9539 -0.4606  0.0127
 1448ntf    on512536   4.533   0.359   4.655 -0.6132  0.2608 -1.2190
 1448ntf    on512537   4.703   0.368   4.473  0.5340 -0.6106 -0.1017
 1448ntf    fn412538   4.657   0.080   4.445 -0.2777 -0.3964 -0.2737
 1448ntf    fn412539   4.471   0.182   4.429  0.2776 -0.5763  0.2313
 1448ntf    fn412540   4.516   0.068   4.600 -0.4988 -0.2569 -0.1780
 1449ntf    cn112541   0.352   3.797   4.728 -0.3493  0.1453 -0.0201
 1449ntf    sn212542   0.416   3.964   4.762 -0.1427  0.0385  0.1188
 1449ntf    nn312543   0.570   3.936   4.764 -0.1820 -0.1456  0.9713
 1449ntf    sn212544   0.650   3.826   4.842  0.6644 -0.1786  0.0725
 1449ntf    cn112545   0.816   3.901   4.846  0.4290  0.3434  0.1153
 1449ntf    fn412546   0.228   3.790   4.682 -0.2565 -0.4252 -0.1933
 1449ntf    fn412547   0.427   3.730   4.644 -0.1185  0.0718  0.2416
 1449ntf    fn412548   0.354   3.722   4.838 -0.3707 -0.5920 -0.5165
 1449ntf    on512549   0.376   4.041   4.647 -0.0566  0.0107  0.0704
 1449ntf    on512550   0.363   3.998   4.892 -0.1026  0.0520  0.1318
 1449ntf    on512551   0.616   3.831   4.982 -0.1472 -0.1509 -0.1216
 1449ntf    on512552   0.693   3.703   4.779  0.2533 -0.4027  0.2319
 1449ntf    fn412553   0.825   4.023   4.896  0.4720  0.3597  0.0672
 1449ntf    fn412554   0.872   3.914   4.727 -0.1656 -0.6060 -0.2815
 1449ntf    fn412555   0.892   3.820   4.917  0.1999  0.1809  0.1759
 1450ntf    cn112556   0.388   0.437   3.813  0.0518 -0.5700  0.1877
 1450ntf    sn212557   0.493   0.329   3.712  0.5549 -0.0594  0.1588
 1450ntf    nn312558   0.451   0.183   3.752 -0.0092 -0.0178 -0.2801
 1450ntf    sn212559   0.355   0.089   3.670 -0.2069 -0.1005  0.0443
 1450ntf    cn112560   0.469   0.028   3.542 -0.2489 -0.0685 -0.0082
 1450ntf    fn412561   0.372   0.394   3.937 -0.2670  0.0045  0.3532
 1450ntf    fn412562   0.436   0.560   3.820 -0.3048 -0.4040 -0.2335
 1450ntf    fn412563   0.269   0.438   3.754  0.2105  0.1429 -0.1324
 1450ntf    on512564   0.466   0.364   3.575 -0.1602 -0.5476  0.1684
 1450ntf    on512565   0.624   0.354   3.768  0.4814  0.2678  0.1846
 1450ntf    on512566   0.319  -0.032   3.740  0.1951 -0.2743 -0.0445
 1450ntf    on512567   0.242   0.154   3.609 -0.3685 -0.6613 -0.2647
 1450ntf    fn412568   0.573  -0.032   3.597 -0.3028 -0.3412 -0.2047
 1450ntf    fn412569   0.529   0.129   3.481 -0.2437 -0.0383  0.0470
 1450ntf    fn412570   0.416  -0.054   3.452  0.3189 -0.1851 -0.2363
 1451ntf    cn112571   3.146   5.616   0.654  0.0975  0.0467  0.0926
 1451ntf    sn212572   2.996   5.514   0.662  0.1370 -0.0301 -0.1454
 1451ntf    nn312573   2.955   5.538   0.812  0.0253 -0.2587 -0.1394
 1451ntf    sn212574   2.905   5.432   0.917 -0.1409 -0.1263 -0.0837
 1451ntf    cn112575   3.061   5.392   1.001 -0.2150 -0.0104  0.1079
 1451ntf    fn412576   3.240   5.594   0.745  0.7937 -0.2465 -0.6846
 1451ntf    fn412577   3.205   5.608   0.536 -0.2635  0.0795 -0.0894
 1451ntf    fn412578   3.121   5.744   0.670  0.2971  0.0747  0.1903
 1451ntf    on512579   2.907   5.566   0.561  0.1124  0.5625  0.1756
 1451ntf    on512580   3.045   5.381   0.636 -0.2641 -0.1421 -0.3444
 1451ntf    on512581   2.826   5.498   1.018  0.0279 -0.2627  0.1398
 1451ntf    on512582   2.857   5.303   0.874 -0.0777 -0.2116  0.1005
 1451ntf    fn412583   3.151   5.333   0.924  0.0348  0.3247  0.1405
 1451ntf    fn412584   3.036   5.303   1.096  0.5421 -0.3369  0.0108
 1451ntf    fn412585   3.117   5.498   1.058 -0.0750  0.1487 -0.3211
 1452ntf    cn112586   1.725   4.020   1.654  0.1673 -0.2193 -0.8015
 1452ntf    sn212587   1.778   3.931   1.803 -0.5891  0.6709  0.0171
 1452ntf    nn312588   1.916   4.002   1.829 -0.2346 -0.0877  0.2681
 1452ntf    sn212589   1.941   4.129   1.918  0.1320  0.0628 -0.0423
 1452ntf    cn112590   2.011   4.054   2.068  0.3202  0.4881  0.0836
 1452ntf    fn412591   1.741   4.152   1.663  0.1525 -0.3122  1.0724
 1452ntf    fn412592   1.794   3.988   1.546 -0.1102  0.1820 -1.1005
 1452ntf    fn412593   1.597   3.997   1.635  0.0169  0.0619 -0.1667
 1452ntf    on512594   1.672   3.941   1.899 -0.4807 -0.5598  0.2775
 1452ntf    on512595   1.805   3.803   1.743 -0.2108  0.3757  0.7965
 1452ntf    on512596   2.046   4.208   1.860  0.1512 -0.1013 -0.2312
 1452ntf    on512597   1.822   4.196   1.965  0.1825 -0.0030  0.1822
 1452ntf    fn412598   2.042   4.145   2.159 -0.0385  0.0829  0.6161
 1452ntf    fn412599   2.116   3.977   2.045 -0.2360 -0.6024  1.0721
 1452ntf    fn412600   1.919   3.977   2.124 -0.0324  0.6370 -0.2915
 1453ntf    cn112601   1.914   5.295   2.458  0.0474  0.4250 -0.0323
 1453ntf    sn212602   1.972   5.123   2.461  0.0689  0.4295 -0.1629
 1453ntf    nn312603   1.871   5.076   2.572  0.0808  0.1186 -0.2831
 1453ntf    sn212604   1.881   5.005   2.712 -0.1057  0.3066 -0.1748
 1453ntf    cn112605   1.848   5.144   2.825 -0.4591 -0.2700  0.4359
 1453ntf    fn412606   1.997   5.372   2.389 -0.1295  0.2715 -0.4211
 1453ntf    fn412607   1.795   5.313   2.403  0.1816 -0.2644 -0.5617
 1453ntf    fn412608   1.913   5.338   2.583  0.1087  0.0561  0.0977
 1453ntf    on512609   1.946   5.076   2.327  0.6295  0.5686 -0.3216
 1453ntf    on512610   2.109   5.128   2.506  0.0181 -0.2632  0.0930
 1453ntf    on512611   1.770   4.918   2.740 -0.4744  0.9028  0.2596
 1453ntf    on512612   2.010   4.956   2.755  0.3785  0.7227 -1.1201
 1453ntf    fn412613   1.920   5.251   2.798 -0.0933 -0.6110  0.0329
 1453ntf    fn412614   1.866   5.119   2.954  0.2203  0.5911  0.5204
 1453ntf    fn412615   1.720   5.174   2.817 -0.4227 -0.2331 -0.0448
 1454ntf    cn112616   6.473   2.152   4.926 -0.1401 -0.4305 -0.6532
 1454ntf    sn212617   6.530   1.985   4.970  0.2496 -0.0939  0.1575
 1454ntf    nn312618   6.544   1.996   5.126 -0.3210  0.0024  0.2050
 1454ntf    sn212619   6.649   1.922   5.217 -0.1009 -0.2760 -0.2670
 1454ntf    cn112620   6.546   1.892   5.364  0.1478 -0.0023 -0.0365
 1454ntf    fn412621   6.560   2.252   4.937 -0.3191 -0.3127 -0.2755
 1454ntf    fn412622   6.441   2.156   4.798  0.2141  0.4162 -0.7286
 1454ntf    fn412623   6.369   2.192   4.997  0.3386 -0.0301 -0.1625
 1454ntf    on512624   6.430   1.890   4.930  0.2036  0.1010 -0.2000
 1454ntf    on512625   6.656   1.978   4.899 -0.0100  0.4589 -0.3753
 1454ntf    on512626   6.682   1.789   5.171 -0.4034 -0.2042 -0.7010
 1454ntf    on512627   6.756   2.008   5.259 -0.3912 -0.0062 -0.0748
 1454ntf    fn412628   6.447   1.807   5.342  0.0986  0.0968 -0.2026
 1454ntf    fn412629   6.504   2.005   5.419 -0.3974 -0.2356  0.0365
 1454ntf    fn412630   6.623   1.825   5.447 -0.4719 -0.1577  0.4145
 1455ntf    cn112631   4.865   6.283   1.713 -0.1459 -0.3218 -0.0407
 1455ntf    sn212632   4.978   6.373   1.823 -0.1003 -0.2084 -0.1814
 1455ntf    nn312633   5.093   6.269   1.850 -0.2696 -0.3499 -0.0105
 1455ntf    sn212634   5.237   6.274   1.789 -0.2638 -0.1623  0.0185
 1455ntf    cn112635   5.328   6.313   1.942 -0.2851 -0.0083 -0.0081
 1455ntf    fn412636   4.902   6.292   1.587 -0.4084  0.2415 -0.0810
 1455ntf    fn412637   4.870   6.153   1.737  0.0057 -0.2836  0.1388
 1455ntf    fn412638   4.740   6.327   1.717  0.0834  0.2997  0.3812
 1455ntf    on512639   5.000   6.501   1.760 -0.0995 -0.0044  0.2311
 1455ntf    on512640   4.900   6.373   1.944 -0.3191 -0.4382 -0.3231
 1455ntf    on512641   5.277   6.138   1.763 -0.0170 -0.1342  0.2452
 1455ntf    on512642   5.271   6.376   1.693  0.1113  0.1833  0.5117
 1455ntf    fn412643   5.308   6.437   1.984 -0.2298 -0.1491  0.4314
 1455ntf    fn412644   5.459   6.306   1.927 -0.3500 -0.4650 -0.3709
 1455ntf    fn412645   5.291   6.235   2.042  0.0515 -0.0227  0.1081
 1456ntf    cn112646   4.926   0.491   1.947  0.6338  0.0156  0.0003
 1456ntf    sn212647   5.002   0.530   2.107  0.0838  0.0342  0.2574
 1456ntf    nn312648   5.122   0.430   2.095  0.2158  0.2324 -0.0688
 1456ntf    sn212649   5.149   0.297   2.174 -0.3888  0.0705 -0.1297
 1456ntf    cn112650   5.170   0.362   2.342 -0.0443 -0.0790 -0.1139
 1456ntf    fn412651   4.994   0.525   1.838 -0.0445 -0.0537 -0.4520
 1456ntf    fn412652   4.895   0.363   1.935 -0.2527  0.1925  0.3048
 1456ntf    fn412653   4.814   0.562   1.939  0.3788 -0.3144  0.5843
 1456ntf    on512654   5.035   0.668   2.080  0.4886  0.0781  0.9295
 1456ntf    on512655   4.888   0.503   2.192  0.1667 -0.1927  0.2975
 1456ntf    on512656   5.037   0.206   2.184 -0.5620  0.2758 -0.1960
 1456ntf    on512657   5.279   0.247   2.135 -0.0707  0.3516  0.5719
 1456ntf    fn412658   5.064   0.437   2.368  0.1554  0.0911  0.2236
 1456ntf    fn412659   5.278   0.436   2.360 -0.0859 -0.0576  0.0530
 1456ntf    fn412660   5.177   0.268   2.435 -0.3338  0.0028 -0.0084
 1457ntf    cn112661   4.524   1.683   1.457 -0.3079  0.0376  0.2362
 1457ntf    sn212662   4.678   1.589   1.481 -0.1305  0.2343 -0.1151
 1457ntf    nn312663   4.698   1.621   1.634  0.1982 -0.3100 -0.0440
 1457ntf    sn212664   4.786   1.734   1.697 -0.1022  0.0724 -0.3079
 1457ntf    cn112665   4.944   1.643   1.702 -0.2988 -0.2384  0.2776
 1457ntf    fn412666   4.432   1.638   1.540  0.0329 -0.4731  0.3437
 1457ntf    fn412667   4.539   1.815   1.464  0.0373  0.0242 -0.1798
 1457ntf    fn412668   4.471   1.669   1.337 -0.0999 -0.2943  0.1829
 1457ntf    on512669   4.633   1.454   1.461  0.1342  0.1504 -0.1472
 1457ntf    on512670   4.769   1.646   1.385 -0.3044  0.0602 -0.3818
 1457ntf    on512671   4.810   1.851   1.616 -0.4613  0.2574 -0.1482
 1457ntf    on512672   4.755   1.747   1.837  0.9835  0.2603 -0.0721
 1457ntf    fn412673   5.003   1.626   1.585 -0.1406 -0.2612  0.3607
 1457ntf    fn412674   4.938   1.528   1.768 -0.2342 -0.3750  0.0444
 1457ntf    fn412675   5.038   1.709   1.767 -0.2930  0.1605 -0.1367
 1458ntf    cn112676   2.533   4.785   0.609 -0.2127 -0.0943 -0.2075
 1458ntf    sn212677   2.600   4.928   0.520  0.2676 -0.0354  0.2444
 1458ntf    nn312678   2.711   4.972   0.623  0.1586 -0.4604  0.5461
 1458ntf    sn212679   2.866   4.947   0.620  0.2260  0.0397 -0.3856
 1458ntf    cn112680   2.882   4.872   0.784 -0.3855  0.4788 -0.1210
 1458ntf    fn412681   2.403   4.763   0.595 -0.1994 -0.0720 -0.3704
 1458ntf    fn412682   2.599   4.676   0.574 -0.5260 -0.1389 -0.6693
 1458ntf    fn412683   2.552   4.799   0.739  0.3541 -0.3422 -0.2623
 1458ntf    on512684   2.645   4.877   0.393  0.6080  0.2817  0.2353
 1458ntf    on512685   2.480   5.008   0.525 -0.0823 -0.5584  0.3321
 1458ntf    on512686   2.923   4.851   0.528 -0.0690 -0.2305 -0.2870
 1458ntf    on512687   2.936   5.073   0.631  0.5601 -0.1568 -0.2879
 1458ntf    fn412688   2.854   4.953   0.886 -0.0309  0.6575 -0.1655
 1458ntf    fn412689   3.011   4.852   0.804 -0.4825  0.4916  0.5581
 1458ntf    fn412690   2.814   4.760   0.800  0.1416  0.2737  0.7598
 1459ntf    cn112691   3.760   2.748   2.795 -0.2212 -0.1380  0.0583
 1459ntf    sn212692   3.890   2.656   2.708 -0.1270  0.3625 -0.3397
 1459ntf    nn312693   3.991   2.620   2.823 -0.6119 -0.1151 -0.0607
 1459ntf    sn212694   4.019   2.480   2.888 -0.1116  0.0615  0.1065
 1459ntf    cn112695   4.174   2.503   2.981  0.1048  0.1552 -0.2761
 1459ntf    fn412696   3.805   2.854   2.862  0.0454  0.0494 -0.4087
 1459ntf    fn412697   3.671   2.778   2.703  0.0479 -0.2633 -0.2456
 1459ntf    fn412698   3.701   2.675   2.887 -0.3916 -0.1650 -0.0719
 1459ntf    on512699   3.817   2.544   2.654 -0.5779  0.4767  0.0310
 1459ntf    on512700   3.940   2.756   2.617 -0.2696  0.3772 -0.4013
 1459ntf    on512701   3.921   2.458   2.991 -0.4315  0.2242 -0.1616
 1459ntf    on512702   4.044   2.376   2.791 -0.1470 -0.1296  0.3003
 1459ntf    fn412703   4.213   2.628   3.005  0.3012  0.0731 -0.1664
 1459ntf    fn412704   4.270   2.455   2.904  0.3542 -0.0283  0.1491
 1459ntf    fn412705   4.177   2.435   3.094 -0.6443 -0.0721 -0.3830
 1460ntf    cn112706   0.883   2.272   3.831 -0.1951  0.3520 -0.2636
 1460ntf    sn212707   0.936   2.421   3.920  0.3145 -0.2779  0.5135
 1460ntf    nn312708   0.813   2.515   3.891  0.3496 -0.2501  0.4525
 1460ntf    sn212709   0.680   2.533   3.973 -0.0628  0.0871 -0.2819
 1460ntf    cn112710   0.734   2.678   4.069  0.0292 -0.2543  0.1869
 1460ntf    fn412711   0.976   2.178   3.819  0.1125  0.6672 -0.3734
 1460ntf    fn412712   0.770   2.226   3.882 -0.1556  0.6159  0.0670
 1460ntf    fn412713   0.849   2.302   3.707 -0.7187  0.5693 -0.0713
 1460ntf    on512714   0.961   2.383   4.056  0.5776 -0.0383  0.5348
 1460ntf    on512715   1.050   2.460   3.839 -0.3260  0.8063  0.1002
 1460ntf    on512716   0.571   2.585   3.894  0.0069  0.4198 -0.1631
 1460ntf    on512717   0.654   2.433   4.074  0.0751  0.2243 -0.1107
 1460ntf    fn412718   0.840   2.653   4.144  0.4391  0.1243 -0.2624
 1460ntf    fn412719   0.641   2.730   4.147  0.2014  0.3119  0.0206
 1460ntf    fn412720   0.782   2.775   3.993 -0.4950 -0.6747 -0.7046
 1461ntf    cn112721   2.846   0.921   0.791 -0.2623  0.3450  0.0848
 1461ntf    sn212722   2.695   0.847   0.724  0.0793 -0.2258 -0.0560
 1461ntf    nn312723   2.587   0.872   0.836  0.1821  0.1055 -0.0316
 1461ntf    sn212724   2.440   0.922   0.812  0.0675 -0.0882  0.2747
 1461ntf    cn112725   2.375   0.876   0.976 -0.2595 -0.2051  0.1115
 1461ntf    fn412726   2.902   0.843   0.883 -0.4672 -0.1003 -0.1668
 1461ntf    fn412727   2.930   0.953   0.694  0.0960  0.1219  0.3219
 1461ntf    fn412728   2.825   1.035   0.856  0.1548  0.3666  0.1876
 1461ntf    on512729   2.671   0.917   0.600  0.1865 -0.2126 -0.0693
 1461ntf    on512730   2.725   0.706   0.709 -0.4323 -0.3426 -0.0003
 1461ntf    on512731   2.415   1.064   0.811 -0.0981 -0.1187 -0.0767
 1461ntf    on512732   2.361   0.832   0.732  0.1481  0.1507 -0.0718
 1461ntf    fn412733   2.263   0.937   1.013 -0.1261  0.0345  0.1262
 1461ntf    fn412734   2.464   0.921   1.062  0.1699 -0.3986 -0.2262
 1461ntf    fn412735   2.366   0.745   0.993  0.1794 -0.2565 -0.0458
 1462ntf    cn112736   0.091   0.699   3.140  0.0463  0.2033 -0.1971
 1462ntf    sn212737   0.208   0.637   3.015 -0.2100 -0.0721 -0.3005
 1462ntf    nn312738   0.148   0.498   2.973  0.0582 -0.2088 -0.2292
 1462ntf    sn212739   0.056   0.459   2.852  0.0251  0.0238 -0.2797
 1462ntf    cn112740  -0.051   0.334   2.931  0.1586  0.0168 -0.1086
 1462ntf    fn412741  -0.023   0.727   3.080 -0.0543 -0.3436 -0.2620
 1462ntf    fn412742   0.070   0.615   3.241 -0.3813  0.3504 -0.1610
 1462ntf    fn412743   0.135   0.813   3.192 -0.6293  0.2990  0.1734
 1462ntf    on512744   0.210   0.739   2.913  0.3060  0.1790 -0.0416
 1462ntf    on512745   0.332   0.626   3.088 -0.2605 -0.6834 -0.2998
 1462ntf    on512746  -0.040   0.560   2.815 -0.2868 -0.1081  0.1604
 1462ntf    on512747   0.127   0.389   2.749  0.2503 -0.1829  0.0141
 1462ntf    fn412748   0.016   0.227   2.970  0.0054 -0.1019 -0.1728
 1462ntf    fn412749  -0.146   0.293   2.849  0.1598  0.9425 -0.5863
 1462ntf    fn412750  -0.112   0.382   3.038  0.0514 -0.3726  0.0037
 1463ntf    cn112751   1.372   1.086   2.954  0.0412 -0.7009 -0.2793
 1463ntf    sn212752   1.402   1.043   3.128 -0.3006  0.5407  0.1025
 1463ntf    nn312753   1.522   1.137   3.168 -0.0797  0.2386  0.1575
 1463ntf    sn212754   1.676   1.117   3.146 -0.1284  0.1414 -0.1010
 1463ntf    cn112755   1.720   1.089   3.320 -0.1679 -0.0080 -0.1138
 1463ntf    fn412756   1.484   1.117   2.891 -0.1077  0.0416 -0.1906
 1463ntf    fn412757   1.311   0.996   2.879 -0.7726 -0.6786  0.3420
 1463ntf    fn412758   1.301   1.197   2.945 -0.0513 -0.7191  0.1766
 1463ntf    on512759   1.281   1.078   3.198 -0.6347  0.1712 -0.2818
 1463ntf    on512760   1.429   0.902   3.113  0.3543  0.6579  0.1226
 1463ntf    on512761   1.720   0.995   3.082 -0.5480 -0.1343  0.1277
 1463ntf    on512762   1.741   1.243   3.123  0.1300 -0.0367 -0.3575
 1463ntf    fn412763   1.666   0.976   3.361  0.1339 -0.0143  0.2750
 1463ntf    fn412764   1.688   1.186   3.405 -0.2103 -0.1462  0.0276
 1463ntf    fn412765   1.850   1.067   3.332 -0.1502  0.0287 -0.2419
 1464ntf    cn112766   3.940   2.163   0.105 -0.2977  0.4199 -0.0184
 1464ntf    sn212767   3.934   2.162   0.287 -0.0905  0.1066 -0.0119
 1464ntf    nn312768   4.028   2.281   0.330  0.2640 -0.3048  0.3505
 1464ntf    sn212769   3.980   2.427   0.360  0.0946 -0.1948 -0.4331
 1464ntf    cn112770   4.131   2.509   0.300  0.0100  0.0957 -0.2541
 1464ntf    fn412771   3.880   2.052   0.063 -0.0125  0.2857 -0.0718
 1464ntf    fn412772   3.879   2.267   0.051 -0.5929  0.3274  0.1351
 1464ntf    fn412773   4.064   2.149   0.062 -0.2827  0.4323  0.0210
 1464ntf    on512774   3.794   2.179   0.315 -0.0878 -0.2134  0.1946
 1464ntf    on512775   3.995   2.042   0.338 -0.5551  0.1110  0.5630
 1464ntf    on512776   3.878   2.463   0.265  0.2455  0.2721 -0.4231
 1464ntf    on512777   3.971   2.450   0.502 -0.3999  0.3088 -0.5448
 1464ntf    fn412778   4.145   2.467   0.175 -0.4610 -0.5582 -0.0984
 1464ntf    fn412779   4.233   2.469   0.374 -0.2647  0.7247  0.4803
 1464ntf    fn412780   4.132   2.641   0.297 -0.3742  0.1165  0.3943
 1465ntf    cn112781   2.200   6.156   6.074 -0.0505 -0.2301  0.0337
 1465ntf    sn212782   2.363   6.081   6.045  0.0345 -0.0975  0.1633
 1465ntf    nn312783   2.318   5.931   6.051 -0.5863  0.0674 -0.3229
 1465ntf    sn212784   2.338   5.829   6.168  0.0256  0.2547 -0.2623
 1465ntf    cn112785   2.507   5.762   6.156  0.0697  0.2376  0.3914
 1465ntf    fn412786   2.131   6.089   6.165 -0.3320 -0.0170 -0.0214
 1465ntf    fn412787   2.211   6.281   6.116  0.0655 -0.3146  0.2576
 1465ntf    fn412788   2.126   6.149   5.965  0.1538 -0.1214 -0.1131
 1465ntf    on512789   2.387   6.108   5.905 -0.1709 -0.2006  0.1076
 1465ntf    on512790   2.461   6.129   6.139  0.0116 -0.2391  0.2593
 1465ntf    on512791   2.334   5.894   6.297  0.0422  0.1855 -0.2269
 1465ntf    on512792   2.248   5.718   6.150  0.2894  0.0801 -0.5146
 1465ntf    fn412793   2.523   5.693   6.045 -0.2022  0.3654  0.2712
 1465ntf    fn412794   2.547   5.682   6.253 -0.3127 -0.6526 -0.1788
 1465ntf    fn412795   2.597   5.859   6.147  0.3617 -0.0612  0.0877
 1466ntf    cn112796   3.937   4.334   1.116 -0.0607 -0.6799 -0.2217
 1466ntf    sn212797   3.978   4.364   0.941  0.0970  0.0077 -0.0696
 1466ntf    nn312798   4.124   4.418   0.963 -0.0044  0.1703  0.2254
 1466ntf    sn212799   4.205   4.510   0.865 -0.1393  0.2799  0.2167
 1466ntf    cn112800   4.337   4.399   0.805 -0.3898 -0.2186  0.5827
 1466ntf    fn412801   3.934   4.444   1.190  0.2844 -0.6358 -0.2700
 1466ntf    fn412802   3.824   4.266   1.126 -0.2717 -0.2901  0.0666
 1466ntf    fn412803   4.033   4.266   1.177  0.4112  0.4233  0.3021
 1466ntf    on512804   3.965   4.233   0.882 -0.2786  0.0976 -0.1894
 1466ntf    on512805   3.881   4.467   0.911 -0.4501 -0.5620 -0.2777
 1466ntf    on512806   4.147   4.543   0.737  0.7030 -0.1918 -0.2963
 1466ntf    on512807   4.274   4.616   0.934 -0.5470  0.8318 -0.2218
 1466ntf    fn412808   4.427   4.383   0.901  0.7597 -0.2758 -0.4876
 1466ntf    fn412809   4.396   4.439   0.694  0.0321 -0.3907  0.7447
 1466ntf    fn412810   4.281   4.282   0.779  0.0094 -0.2350 -0.2048
 1467ntf    cn112811   3.741   2.291   4.568  0.4556 -0.2436  0.1186
 1467ntf    sn212812   3.748   2.325   4.747  0.0619 -0.1116  0.1087
 1467ntf    nn312813   3.682   2.468   4.755  0.3902  0.0296  0.3045
 1467ntf    sn212814   3.532   2.492   4.794  0.2240  0.2117 -0.4293
 1467ntf    cn112815   3.532   2.668   4.749  0.2325  0.3532  0.1129
 1467ntf    fn412816   3.617   2.295   4.523  0.5196  0.4376 -0.0054
 1467ntf    fn412817   3.799   2.389   4.500 -0.1326 -0.1253 -0.2176
 1467ntf    fn412818   3.799   2.177   4.534  0.0802 -0.2631 -0.4670
 1467ntf    on512819   3.675   2.217   4.808  0.5850 -0.6617 -0.2387
 1467ntf    on512820   3.889   2.334   4.775  0.0805 -0.3380  0.0831
 1467ntf    on512821   3.431   2.427   4.714 -0.1310 -0.2333  0.3654
 1467ntf    on512822   3.505   2.495   4.936 -0.4663  0.5817 -0.5623
 1467ntf    fn412823   3.408   2.712   4.763  0.0469 -0.0280 -0.3179
 1467ntf    fn412824   3.568   2.686   4.623 -0.6076  0.0271 -0.1760
 1467ntf    fn412825   3.613   2.743   4.823  0.1792  0.1871  0.3387
 1468ntf    cn112826   5.517   0.862   5.058 -0.3204 -0.2240 -0.0907
 1468ntf    sn212827   5.489   0.682   5.047  0.0250 -0.3015  0.2718
 1468ntf    nn312828   5.546   0.646   4.905 -0.2885 -0.2495  0.1311
 1468ntf    sn212829   5.604   0.510   4.852  0.0275 -0.0491 -0.0410
 1468ntf    cn112830   5.510   0.384   4.944 -0.2077 -0.0433 -0.2738
 1468ntf    fn412831   5.496   0.919   4.940 -0.3919 -0.1798 -0.0566
 1468ntf    fn412832   5.431   0.921   5.138 -0.1340  0.0859 -0.1213
 1468ntf    fn412833   5.640   0.888   5.099 -0.2259 -0.1978 -0.3859
 1468ntf    on512834   5.564   0.639   5.162 -0.1179 -0.3244  0.3566
 1468ntf    on512835   5.346   0.663   5.045  0.0503 -0.4776  0.0940
 1468ntf    on512836   5.561   0.487   4.716  0.4524  0.4493 -0.2616
 1468ntf    on512837   5.743   0.491   4.886  0.1117  0.0991 -0.3008
 1468ntf    fn412838   5.382   0.406   4.916 -0.3009  0.3181  0.4002
 1468ntf    fn412839   5.524   0.401   5.074 -0.1975 -0.4109 -0.2271
 1468ntf    fn412840   5.538   0.258   4.916 -0.4811 -0.1954  0.1314
 1469ntf    cn112841   5.739   4.638   3.995  0.4789 -0.3275 -0.0241
 1469ntf    sn212842   5.910   4.591   3.956  0.3855 -0.5861 -0.1222
 1469ntf    nn312843   5.973   4.582   4.100 -0.2887  0.0922  0.2195
 1469ntf    sn212844   6.072   4.687   4.161 -0.1291 -0.1064  0.3009
 1469ntf    cn112845   5.959   4.813   4.227  0.0410  0.0984  0.2051
 1469ntf    fn412846   5.726   4.770   4.004  0.6395 -0.3375  0.3921
 1469ntf    fn412847   5.654   4.605   3.900  0.6238  0.2210 -0.3483
 1469ntf    fn412848   5.696   4.592   4.111  0.1440  0.5792  0.2207
 1469ntf    on512849   5.896   4.462   3.892 -0.0082 -0.3017 -0.6101
 1469ntf    on512850   5.946   4.706   3.877 -0.9212 -0.4072 -0.4793
 1469ntf    on512851   6.119   4.635   4.287  0.1573  0.5536  0.4701
 1469ntf    on512852   6.166   4.745   4.068  0.0595 -0.4361  0.2806
 1469ntf    fn412853   6.026   4.902   4.298 -0.3958  0.1760  0.5264
 1469ntf    fn412854   5.868   4.768   4.312 -0.2739 -0.3513 -0.3602
 1469ntf    fn412855   5.894   4.877   4.131 -0.3091 -0.1516  0.2707
 1470ntf    cn112856   4.306   4.993   3.820  0.2722  0.0514  0.0837
 1470ntf    sn212857   4.270   4.993   3.642 -0.0199 -0.1833  0.1404
 1470ntf    nn312858   4.126   5.055   3.643 -0.0518 -0.2561  0.0605
 1470ntf    sn212859   4.026   5.097   3.529 -0.0082 -0.0654  0.0911
 1470ntf    cn112860   3.920   4.950   3.532 -0.2968  0.1440  0.1779
 1470ntf    fn412861   4.305   5.119   3.861  0.0959  0.1006 -0.0714
 1470ntf    fn412862   4.206   4.933   3.883 -0.1298  0.0484 -0.5401
 1470ntf    fn412863   4.419   4.934   3.854  0.3905  0.2629  0.0592
 1470ntf    on512864   4.366   5.077   3.574 -0.2535 -0.5114 -0.6065
 1470ntf    on512865   4.272   4.853   3.610  0.5433  0.0024 -0.6808
 1470ntf    on512866   3.950   5.204   3.590  0.4710 -0.0720  0.7116
 1470ntf    on512867   4.083   5.116   3.398  0.2080  0.0799  0.2053
 1470ntf    fn412868   3.859   4.939   3.650 -0.4368 -0.5143  0.0490
 1470ntf    fn412869   3.978   4.835   3.502 -0.3762  0.0955  0.2073
 1470ntf    fn412870   3.827   4.957   3.438 -0.4935 -0.0222  0.3546
 1471ntf    cn112871   3.475   4.899   6.177 -0.0920 -0.3885  0.0174
 1471ntf    sn212872   3.561   5.023   6.074 -0.2182 -0.0608  0.3066
 1471ntf    nn312873   3.644   4.922   5.988 -0.6488 -0.1509 -0.0048
 1471ntf    sn212874   3.629   4.867   5.841  0.0345  0.0147 -0.1377
 1471ntf    cn112875   3.800   4.846   5.784  0.0818 -0.0884  0.0398
 1471ntf    fn412876   3.406   4.957   6.274 -0.5375  0.2017 -0.6330
 1471ntf    fn412877   3.389   4.832   6.102 -0.5779  0.1114  0.1162
 1471ntf    fn412878   3.559   4.808   6.222  0.0706 -0.0840  0.3333
 1471ntf    on512879   3.462   5.090   5.992 -0.3557 -0.1270  0.4180
 1471ntf    on512880   3.639   5.104   6.165 -0.6119  0.0766  0.5289
 1471ntf    on512881   3.585   4.730   5.844  0.1687 -0.0323 -0.3183
 1471ntf    on512882   3.574   4.958   5.744  0.1927  0.3033  0.0394
 1471ntf    fn412883   3.873   4.753   5.844  0.2412 -0.0701 -0.1256
 1471ntf    fn412884   3.874   4.955   5.768 -0.1290  0.0169 -0.2385
 1471ntf    fn412885   3.783   4.801   5.661  0.2528  0.3011 -0.1288
 1472ntf    cn112886   1.839   1.444   5.761 -0.3026  0.1111 -0.0092
 1472ntf    sn212887   1.833   1.425   5.942  0.1706  0.4243  0.0407
 1472ntf    nn312888   1.849   1.271   5.967  0.1081  0.5593  0.9484
 1472ntf    sn212889   1.978   1.188   5.998 -0.0432 -0.0021  0.1131
 1472ntf    cn112890   1.977   1.185   6.180 -0.3055 -0.0820  0.1101
 1472ntf    fn412891   1.740   1.381   5.699 -0.2633 -0.5190  0.5533
 1472ntf    fn412892   1.838   1.572   5.729 -0.0471  0.2115  0.3753
 1472ntf    fn412893   1.955   1.396   5.720 -0.0874  0.1857  0.5055
 1472ntf    on512894   1.929   1.516   6.000 -0.1298  0.3389  0.6810
 1472ntf    on512895   1.699   1.460   5.982  0.1064  0.3486 -0.1077
 1472ntf    on512896   1.955   1.051   5.960 -0.4114  0.0239  0.2456
 1472ntf    on512897   2.109   1.242   5.973 -0.3947  0.8717  0.1369
 1472ntf    fn412898   2.083   1.116   6.219  0.0233  0.2545 -0.1792
 1472ntf    fn412899   1.876   1.123   6.239 -0.1992  0.0576  0.4460
 1472ntf    fn412900   1.987   1.309   6.226 -0.0352 -0.1053  0.1179
 1473ntf    cn112901   2.387   3.312   5.857  0.2270  0.0391 -0.3064
 1473ntf    sn212902   2.254   3.284   5.736 -0.1912  0.0210  0.1505
 1473ntf    nn312903   2.338   3.276   5.603 -0.3455 -0.8929  0.1025
 1473ntf    sn212904   2.285   3.298   5.457 -0.1220  0.2271  0.1864
 1473ntf    cn112905   2.142   3.185   5.456  0.0176  0.0515  0.1305
 1473ntf    fn412906   2.477   3.216   5.845  0.4300  0.0991  0.6419
 1473ntf    fn412907   2.454   3.424   5.838  0.6121 -0.2346 -0.5775
 1473ntf    fn412908   2.346   3.304   5.983 -0.4642  0.1139 -0.5213
 1473ntf    on512909   2.179   3.170   5.783  0.3123 -0.2842  0.2239
 1473ntf    on512910   2.196   3.416   5.738 -0.2593 -0.0073  0.0586
 1473ntf    on512911   2.223   3.426   5.431 -0.0518  0.0980 -0.6135
 1473ntf    on512912   2.376   3.238   5.364 -0.4272 -0.1189  0.1097
 1473ntf    fn412913   2.044   3.233   5.531  0.0340 -0.3634  0.4162
 1473ntf    fn412914   2.175   3.068   5.509  0.0336  0.1312  0.2993
 1473ntf    fn412915   2.087   3.170   5.337 -0.1483 -0.3851  0.2613
 1474ntf    cn112916   3.847   4.011   2.114  0.0166  0.2323  0.0028
 1474ntf    sn212917   3.981   3.944   2.010  0.2118  0.3059  0.2067
 1474ntf    nn312918   3.943   4.010   1.873  0.0448 -0.0685  0.0716
 1474ntf    sn212919   4.023   4.087   1.762  0.0967 -0.2778 -0.0381
 1474ntf    cn112920   3.924   4.238   1.782  0.3404 -0.1201 -0.0163
 1474ntf    fn412921   3.726   3.979   2.070  0.0692 -0.0564  0.0673
 1474ntf    fn412922   3.858   3.963   2.236 -0.3815 -0.1880 -0.1223
 1474ntf    fn412923   3.851   4.142   2.130 -0.1344  0.2201  0.1358
 1474ntf    on512924   4.104   4.003   2.057  0.3825  0.4142 -0.3718
 1474ntf    on512925   3.972   3.800   2.008 -0.0573  0.3311 -0.5880
 1474ntf    on512926   4.157   4.132   1.793 -0.2140  0.1927  0.6438
 1474ntf    on512927   3.988   4.040   1.631 -0.1656 -0.1674 -0.0083
 1474ntf    fn412928   3.942   4.286   1.903  0.3032 -0.8507  0.2831
 1474ntf    fn412929   3.797   4.203   1.772  0.3499 -0.2462  0.3174
 1474ntf    fn412930   3.943   4.330   1.688  0.2300 -0.0575  0.0215
 1475ntf    cn112931   1.515   5.986   3.461 -0.2363 -0.1679 -0.4193
 1475ntf    sn212932   1.344   5.971   3.522 -0.0603  0.0731  0.1350
 1475ntf    nn312933   1.272   6.072   3.426  0.3274  0.0860 -0.1499
 1475ntf    sn212934   1.199   6.045   3.290  0.2224 -0.3163 -0.0157
 1475ntf    cn112935   1.027   6.007   3.336  0.1237  0.0371 -0.0912
 1475ntf    fn412936   1.529   5.968   3.330  0.2119  0.2037 -0.4259
 1475ntf    fn412937   1.560   6.108   3.484  0.0735 -0.4152  0.3025
 1475ntf    fn412938   1.592   5.899   3.523 -0.2104  0.4067  0.3663
 1475ntf    on512939   1.309   5.833   3.501 -0.3971  0.1993 -0.1468
 1475ntf    on512940   1.358   6.016   3.658 -0.5084  0.1319  0.1624
 1475ntf    on512941   1.176   6.169   3.219  0.2951 -0.6417 -0.6099
 1475ntf    on512942   1.235   5.930   3.211  0.2040 -0.1107 -0.3262
 1475ntf    fn412943   0.935   6.041   3.248 -0.4239  0.0478  0.4754
 1475ntf    fn412944   1.006   6.076   3.448 -0.6188 -0.0218 -0.1891
 1475ntf    fn412945   1.012   5.880   3.368  0.0005  0.1731  0.4061
 1476ntf    cn112946   3.562   0.282   4.219  0.2329  0.4335 -0.0571
 1476ntf    sn212947   3.601   0.455   4.258  0.3437  0.3618  0.1506
 1476ntf    nn312948   3.746   0.447   4.317  0.3669  0.0672  0.0566
 1476ntf    sn212949   3.882   0.519   4.285  0.1617  0.3757 -0.1304
 1476ntf    cn112950   3.968   0.521   4.445  0.2158 -0.0222 -0.1528
 1476ntf    fn412951   3.440   0.281   4.168  0.2300 -0.2061 -0.0511
 1476ntf    fn412952   3.642   0.230   4.127 -0.4976 -0.7551 -0.0392
 1476ntf    fn412953   3.554   0.208   4.328  0.2680 -0.1711 -0.4603
 1476ntf    on512954   3.585   0.520   4.130 -0.1769  0.2922  0.1784
 1476ntf    on512955   3.506   0.494   4.360 -0.1757  0.1887 -0.2671
 1476ntf    on512956   3.972   0.438   4.207  0.0718 -0.2444  0.3964
 1476ntf    on512957   3.868   0.657   4.246 -0.4716  0.3845  0.1121
 1476ntf    fn412958   4.090   0.572   4.434  0.3531 -0.1897  0.4990
 1476ntf    fn412959   3.979   0.403   4.505 -0.4756 -0.2831 -0.5334
 1476ntf    fn412960   3.904   0.603   4.527 -0.2746 -0.5353 -0.0178
 1477ntf    cn112961   1.216   4.099   0.007 -0.1050 -0.1952 -0.2008
 1477ntf    sn212962   1.283   4.186   0.152 -0.2474  0.0308 -0.2710
 1477ntf    nn312963   1.413   4.102   0.174 -0.2419  0.1068 -0.0030
 1477ntf    sn212964   1.429   3.970   0.258  0.3661  0.1788  0.0041
 1477ntf    cn112965   1.479   4.048   0.414 -0.1476  0.6920 -0.0802
 1477ntf    fn412966   1.262   4.159  -0.102  0.2860 -0.5681 -0.2435
 1477ntf    fn412967   1.242   3.970  -0.007  0.0109 -0.1733 -0.1927
 1477ntf    fn412968   1.085   4.112  -0.001 -0.0298  0.2678 -0.7239
 1477ntf    on512969   1.302   4.322   0.109 -0.7295 -0.0622 -0.7799
 1477ntf    on512970   1.185   4.173   0.257  0.1642 -0.1261  0.0963
 1477ntf    on512971   1.306   3.906   0.297  0.2711  0.1356 -0.3634
 1477ntf    on512972   1.537   3.891   0.206  0.1493 -0.4515  0.5006
 1477ntf    fn412973   1.479   3.963   0.516 -0.3912  0.6446 -0.1202
 1477ntf    fn412974   1.397   4.147   0.447  0.1633  0.8593  0.2007
 1477ntf    fn412975   1.602   4.096   0.409  0.1766 -0.1369 -0.2007
 1478ntf    cn112976   4.286   3.551   0.664  0.0672 -0.4247 -0.4416
 1478ntf    sn212977   4.460   3.501   0.679  0.1830  0.1165  0.0740
 1478ntf    nn312978   4.460   3.378   0.582 -0.5199 -0.0712  0.3107
 1478ntf    sn212979   4.439   3.224   0.608  0.2254 -0.3075 -0.4063
 1478ntf    cn112980   4.602   3.179   0.673  0.1210  0.1594  0.1913
 1478ntf    fn412981   4.267   3.595   0.540 -0.0434  0.7586 -0.0225
 1478ntf    fn412982   4.201   3.453   0.683 -0.2536 -0.0470  0.0849
 1478ntf    fn412983   4.263   3.649   0.750  0.0713 -0.8724  0.0722
 1478ntf    on512984   4.528   3.619   0.630  0.2149  0.2312  0.3923
 1478ntf    on512985   4.482   3.468   0.818 -0.1407 -0.2440  0.0403
 1478ntf    on512986   4.340   3.189   0.707  0.8883  0.4490  0.5396
 1478ntf    on512987   4.437   3.151   0.484 -0.4770 -0.0364 -0.5597
 1478ntf    fn412988   4.619   3.053   0.710 -0.1196 -0.0361 -0.3613
 1478ntf    fn412989   4.630   3.242   0.786  0.6402  0.9960 -0.3876
 1478ntf    fn412990   4.701   3.206   0.590  0.2226 -0.4037  0.1280
 1479ntf    cn112991   2.292   2.285   5.056  0.0382  0.2821 -0.4765
 1479ntf    sn212992   2.134   2.210   5.006 -0.0934  0.1835  0.0801
 1479ntf    nn312993   2.183   2.108   4.897  0.0253  0.4882 -0.1529
 1479ntf    sn212994   2.143   2.104   4.745 -0.2680  0.3884 -0.0725
 1479ntf    cn112995   2.284   2.189   4.668  0.0654 -0.0560  0.0378
 1479ntf    fn412996   2.275   2.390   5.136  0.0059  0.2395 -0.4275
 1479ntf    fn412997   2.361   2.197   5.126  0.0628  0.4544 -0.2814
 1479ntf    fn412998   2.360   2.330   4.952  0.2464 -0.1382 -0.5210
 1479ntf    on512999   2.088   2.145   5.126 -0.1935  0.0806 -0.0140
 1479ntf    on513000   2.056   2.325   4.967 -0.1187 -0.0230 -0.4826
 1479ntf    on513001   2.149   1.970   4.691 -0.0711  0.2328  0.3259
 1479ntf    on513002   2.033   2.181   4.693 -0.5090 -0.0175 -0.1747
 1479ntf    fn413003   2.300   2.315   4.707  0.0818 -0.0273 -0.0630
 1479ntf    fn413004   2.271   2.183   4.537  0.4707 -0.5445  0.0176
 1479ntf    fn413005   2.404   2.139   4.692  0.0478  0.0731  0.3999
 1480ntf    cn113006   4.835   5.205   4.033 -0.3278  0.0104 -0.2312
 1480ntf    sn213007   4.921   5.365   4.034 -0.0517 -0.1368  0.1184
 1480ntf    nn313008   5.022   5.362   3.913 -0.1108  0.4767  0.0510
 1480ntf    sn213009   5.178   5.344   3.917 -0.1471  0.2354  0.4083
 1480ntf    cn113010   5.236   5.513   3.950  0.1397  0.1339  0.4191
 1480ntf    fn413011   4.793   5.170   3.913  0.0661  0.1815 -0.4206
 1480ntf    fn413012   4.921   5.110   4.069 -0.2726  0.4545  0.8605
 1480ntf    fn413013   4.732   5.204   4.116  0.0311 -0.0400  0.2189
 1480ntf    on513014   4.813   5.455   4.002 -0.2683 -0.5135 -0.2164
 1480ntf    on513015   4.983   5.387   4.162 -0.2966 -0.0482  0.2218
 1480ntf    on513016   5.237   5.262   4.020 -0.1498 -0.2677  0.0076
 1480ntf    on513017   5.226   5.324   3.783 -0.1669  0.1480  0.4143
 1480ntf    fn413018   5.363   5.513   3.987  0.2141 -0.2379  0.1752
 1480ntf    fn413019   5.163   5.570   4.044 -0.4564  0.1376 -0.0370
 1480ntf    fn413020   5.223   5.598   3.849  0.0965 -0.1881  0.1525
 1481ntf    cn113021   5.149   0.378   1.283 -0.0424  0.0180 -0.1289
 1481ntf    sn213022   5.049   0.405   1.133 -0.0556  0.0709 -0.1098
 1481ntf    nn313023   4.912   0.354   1.190  0.2764 -0.0462  0.5905
 1481ntf    sn213024   4.849   0.211   1.171  0.2008  0.0684 -0.0199
 1481ntf    cn113025   4.744   0.240   1.025  0.1999  0.1799  0.0022
 1481ntf    fn413026   5.198   0.255   1.289  0.7380  0.3129 -0.3291
 1481ntf    fn413027   5.252   0.457   1.305  0.2359 -0.3010 -0.2702
 1481ntf    fn413028   5.070   0.389   1.388  0.5588  0.0650  0.3212
 1481ntf    on513029   5.057   0.548   1.110  0.0846  0.0293 -0.3212
 1481ntf    on513030   5.113   0.324   1.033  0.3558  0.5694 -0.2576
 1481ntf    on513031   4.944   0.111   1.131  0.0846  0.1448 -0.4920
 1481ntf    on513032   4.768   0.172   1.284  0.0399  0.4109 -0.0145
 1481ntf    fn413033   4.666   0.347   1.024  0.1522  0.1480  0.1981
 1481ntf    fn413034   4.670   0.134   0.998 -0.0973  0.4011 -0.0584
 1481ntf    fn413035   4.818   0.246   0.915  0.4286  0.2825  0.1594
 1482ntf    cn113036   1.417   3.987   4.869  0.2307 -0.5260 -0.1580
 1482ntf    sn213037   1.450   4.121   4.751 -0.1264 -0.1082  0.2096
 1482ntf    nn313038   1.333   4.096   4.649 -0.0423  0.2622  0.0193
 1482ntf    sn213039   1.272   4.196   4.545  0.0972 -0.0028 -0.3187
 1482ntf    cn113040   1.302   4.097   4.395  0.0209 -0.3197 -0.1237
 1482ntf    fn413041   1.285   3.991   4.882  0.2593 -0.0545  0.0238
 1482ntf    fn413042   1.460   3.873   4.819  0.0444 -0.5898 -0.1751
 1482ntf    fn413043   1.464   3.992   4.992 -0.3434 -0.2195  0.0504
 1482ntf    on513044   1.437   4.237   4.836 -0.1798  0.2156 -0.2366
 1482ntf    on513045   1.576   4.078   4.695  0.0482  0.6097  0.0422
 1482ntf    on513046   1.129   4.209   4.557  0.1586  0.1946  0.2123
 1482ntf    on513047   1.351   4.316   4.530  0.1102 -0.0041 -0.2588
 1482ntf    fn413048   1.429   4.094   4.360 -0.1471  0.1378 -0.7902
 1482ntf    fn413049   1.236   4.144   4.291 -0.1139 -0.2921 -0.0267
 1482ntf    fn413050   1.256   3.974   4.413  0.0932 -0.3337 -0.0338
 1483ntf    cn113051   3.987   3.342   5.751 -0.1122 -0.0057  0.5835
 1483ntf    sn213052   4.001   3.395   5.924  0.2453  0.2904  0.4650
 1483ntf    nn313053   3.862   3.468   5.932  0.2122  0.2613  0.1340
 1483ntf    sn213054   3.783   3.510   6.061  0.1132  0.1884  0.0981
 1483ntf    cn113055   3.660   3.376   6.063  0.4084 -0.0863 -0.0099
 1483ntf    fn413056   4.003   3.444   5.669 -0.2208 -0.3777  0.0921
 1483ntf    fn413057   4.083   3.257   5.719 -0.0661  0.0858  0.4801
 1483ntf    fn413058   3.869   3.289   5.724  0.1646 -0.2843 -0.0946
 1483ntf    on513059   4.015   3.270   5.994  0.3366  0.1516  0.1989
 1483ntf    on513060   4.114   3.482   5.942  0.6813 -0.2659  0.4364
 1483ntf    on513061   3.861   3.502   6.183 -0.1155 -0.3516  0.2131
 1483ntf    on513062   3.698   3.623   6.036 -0.4285 -0.2314  0.0249
 1483ntf    fn413063   3.719   3.257   6.062  0.1489 -0.2265  0.5785
 1483ntf    fn413064   3.574   3.385   5.963  0.1727 -0.3394  0.1666
 1483ntf    fn413065   3.582   3.380   6.170 -0.2243 -0.2388 -0.4580
 1484ntf    cn113066   6.512   3.856   0.220 -0.0376 -0.0017 -0.1578
 1484ntf    sn213067   6.590   3.811   0.378  0.1643  0.4094 -0.1389
 1484ntf    nn313068   6.597   3.954   0.443 -0.5896  0.3668  0.0359
 1484ntf    sn213069   6.508   4.024   0.552 -0.1307  0.4459  0.3581
 1484ntf    cn113070   6.621   4.026   0.695  0.5768  0.4359 -0.1958
 1484ntf    fn413071   6.402   3.927   0.233 -0.1063 -0.1486  0.0637
 1484ntf    fn413072   6.592   3.926   0.141  0.1692 -0.0040  0.0474
 1484ntf    fn413073   6.469   3.747   0.159  0.2738 -0.1908 -0.0435
 1484ntf    on513074   6.506   3.713   0.442  0.2802  0.2930 -0.1631
 1484ntf    on513075   6.724   3.773   0.338  0.0277  0.2140 -0.4144
 1484ntf    on513076   6.497   4.164   0.518 -0.2363  0.4630  0.4625
 1484ntf    on513077   6.388   3.954   0.588  0.0969  0.0090  0.2740
 1484ntf    fn413078   6.562   4.036   0.813 -0.0709  0.4407 -0.5145
 1484ntf    fn413079   6.724   4.109   0.687  0.2150  0.8292 -0.8197
 1484ntf    fn413080   6.676   3.906   0.704  0.0719  0.1918 -0.3012
 1485ntf    cn113081   3.615   5.583   1.408 -0.1448 -0.0184  0.1560
 1485ntf    sn213082   3.531   5.725   1.483  0.0872 -0.0118  0.4029
 1485ntf    nn313083   3.658   5.814   1.509 -0.0664  0.2426  0.2910
 1485ntf    sn213084   3.719   5.938   1.434  0.3084 -0.0850  0.0476
 1485ntf    cn113085   3.658   6.064   1.550 -0.0523 -0.2890  0.0825
 1485ntf    fn413086   3.532   5.497   1.351  0.1172  0.2210 -0.6078
 1485ntf    fn413087   3.708   5.611   1.318 -0.4948 -0.1465 -0.2496
 1485ntf    fn413088   3.685   5.516   1.498  0.3094 -0.2021 -0.3287
 1485ntf    on513089   3.436   5.764   1.383  0.0016  0.0064  0.4909
 1485ntf    on513090   3.483   5.673   1.608  0.3428  0.2597  0.6178
 1485ntf    on513091   3.863   5.945   1.444  0.2955  0.6033 -0.1832
 1485ntf    on513092   3.671   5.975   1.303 -0.3245  0.6013  0.4686
 1485ntf    fn413093   3.729   6.176   1.542 -0.8094  0.2114  0.2531
 1485ntf    fn413094   3.664   6.024   1.676  0.6382  0.1957  0.2147
 1485ntf    fn413095   3.532   6.100   1.534 -0.0391  0.0015  0.6303
 1486ntf    cn113096   6.147   6.243   4.992 -0.0151 -0.4013 -0.2269
 1486ntf    sn213097   6.122   6.377   4.872  0.0157 -0.1713  0.0228
 1486ntf    nn313098   6.101   6.300   4.737  0.0055 -0.2881  0.0916
 1486ntf    sn213099   6.210   6.245   4.639  0.2019 -0.2190  0.2697
 1486ntf    cn113100   6.105   6.130   4.544  0.2778  0.1836 -0.3089
 1486ntf    fn413101   6.035   6.174   5.000 -0.2505  0.0006 -0.0268
 1486ntf    fn413102   6.241   6.157   4.957 -0.0685 -0.8017  0.5767
 1486ntf    fn413103   6.185   6.286   5.112  0.3066  0.2431 -0.5529
 1486ntf    on513104   6.007   6.449   4.920  0.1541 -0.1221  0.2827
 1486ntf    on513105   6.247   6.451   4.867 -0.1769  0.1498 -0.0839
 1486ntf    on513106   6.248   6.340   4.537 -0.0246  0.1692  0.5448
 1486ntf    on513107   6.314   6.157   4.686  0.3090 -0.4251 -0.3455
 1486ntf    fn413108   6.180   6.057   4.464  0.2240 -0.2198  0.0091
 1486ntf    fn413109   6.016   6.198   4.473 -0.1908  0.2898  0.3723
 1486ntf    fn413110   6.040   6.049   4.625  0.6165  0.3716  0.1549
 1487ntf    cn113111   2.047   3.357   3.444 -0.2022  0.2785  0.3319
 1487ntf    sn213112   1.970   3.218   3.532  0.5065 -0.3894 -0.0852
 1487ntf    nn313113   1.970   3.261   3.684 -0.2539  0.1792 -0.2360
 1487ntf    sn213114   1.854   3.321   3.771 -0.2268  0.0575 -0.1157
 1487ntf    cn113115   1.765   3.179   3.840  0.0897  0.0645  0.3100
 1487ntf    fn413116   2.087   3.327   3.321 -0.2826  0.2013  0.3244
 1487ntf    fn413117   1.967   3.460   3.418 -0.0865  0.3673  0.3281
 1487ntf    fn413118   2.149   3.410   3.509  0.1753 -0.3941  0.2962
 1487ntf    on513119   1.841   3.217   3.468  0.3115 -0.0316  0.2912
 1487ntf    on513120   2.063   3.110   3.512  0.0706 -0.8430  0.3038
 1487ntf    on513121   1.907   3.377   3.893  0.1876 -0.0971 -0.2208
 1487ntf    on513122   1.764   3.406   3.697  0.1026  0.8655  0.3962
 1487ntf    fn413123   1.684   3.122   3.753  0.3400 -0.1533  0.2195
 1487ntf    fn413124   1.689   3.209   3.944 -0.1848  0.2290  0.0627
 1487ntf    fn413125   1.848   3.082   3.876  0.2123  0.1170  0.1654
 1488ntf    cn113126   6.158   5.044   6.527 -0.2731 -0.2082  0.3788
 1488ntf    sn213127   5.993   5.085   6.590 -0.3971 -0.2266  0.0648
 1488ntf    nn313128   5.954   5.209   6.502  0.0969 -0.2356 -0.1668
 1488ntf    sn213129   5.868   5.206   6.371 -0.4247  0.1050  0.1651
 1488ntf    cn113130   5.707   5.218   6.455 -0.3684 -0.1356  0.3117
 1488ntf    fn413131   6.182   5.079   6.401 -0.0409 -0.0384  0.4690
 1488ntf    fn413132   6.252   5.098   6.603  0.2654 -0.2470 -0.2495
 1488ntf    fn413133   6.179   4.914   6.525 -0.2283 -0.1977 -0.2150
 1488ntf    on513134   5.917   4.964   6.570 -0.6629 -0.0424 -0.0560
 1488ntf    on513135   6.021   5.130   6.724  0.3278  0.3474 -0.2713
 1488ntf    on513136   5.870   5.321   6.284 -0.3453  0.4569  0.6321
 1488ntf    on513137   5.868   5.081   6.298  0.3814  0.4050 -0.3664
 1488ntf    fn413138   5.688   5.338   6.508 -0.5303 -0.0932  0.1579
 1488ntf    fn413139   5.706   5.137   6.559 -0.0533 -0.0674  0.3696
 1488ntf    fn413140   5.604   5.196   6.376 -0.3555 -0.2831  0.3370
 1489ntf    cn113141   1.862   4.433   0.995 -0.1050 -0.1489  0.0007
 1489ntf    sn213142   1.910   4.346   1.147  0.1062 -0.0845 -0.0290
 1489ntf    nn313143   1.981   4.218   1.089  0.5160  0.2946 -0.3756
 1489ntf    sn213144   1.924   4.080   1.040  0.5248  0.0467  0.3053
 1489ntf    cn113145   1.973   3.966   1.173 -0.0271 -0.2430  0.2626
 1489ntf    fn413146   1.797   4.544   1.028  0.1203 -0.1045  0.2927
 1489ntf    fn413147   1.963   4.458   0.913 -0.3706  0.8287 -0.0402
 1489ntf    fn413148   1.776   4.358   0.928  0.0239 -0.2737 -0.0244
 1489ntf    on513149   2.005   4.442   1.199 -0.0919  0.1103 -0.0278
 1489ntf    on513150   1.791   4.317   1.222 -0.2295  0.3358 -0.3907
 1489ntf    on513151   1.780   4.074   1.044  0.5016  0.0778 -0.3314
 1489ntf    on513152   1.982   4.024   0.921 -0.2589 -0.2207  0.0432
 1489ntf    fn413153   1.918   4.000   1.288  0.0605  0.0161  0.2296
 1489ntf    fn413154   2.103   3.946   1.187  0.1711  0.3061 -0.6937
 1489ntf    fn413155   1.925   3.845   1.149  0.2597 -0.2799 -0.1419
 1490ntf    cn113156   3.469   4.726   1.806  0.3491  0.7173  0.1577
 1490ntf    sn213157   3.314   4.746   1.899  0.1191  0.0341 -0.0746
 1490ntf    nn313158   3.236   4.845   1.806 -0.2882 -0.1501  0.0700
 1490ntf    sn213159   3.263   4.997   1.777 -0.1808 -0.1205  0.3208
 1490ntf    cn113160   3.110   5.079   1.831 -0.1283  0.1017  0.1391
 1490ntf    fn413161   3.547   4.833   1.813  0.7758  0.3762  0.6701
 1490ntf    fn413162   3.547   4.631   1.853 -0.4358 -0.0746 -0.1064
 1490ntf    fn413163   3.452   4.704   1.676  0.3543 -0.1071  0.2924
 1490ntf    on513164   3.255   4.615   1.891  0.0228  0.0777 -0.0741
 1490ntf    on513165   3.349   4.797   2.029  0.0743 -0.1727  0.0181
 1490ntf    on513166   3.373   5.061   1.844 -0.0445 -0.4526  0.4140
 1490ntf    on513167   3.252   5.014   1.634 -0.3062 -0.1485  0.3274
 1490ntf    fn413168   3.068   5.041   1.951 -0.2404 -0.0890  0.0402
 1490ntf    fn413169   3.010   5.052   1.749 -0.2312  0.4695  0.1418
 1490ntf    fn413170   3.118   5.211   1.839  0.2682  0.0707  0.3114
 1491ntf    cn113171   4.016   1.565   1.693  0.0879  0.1752  0.0829
 1491ntf    sn213172   3.974   1.577   1.869  0.2093  0.1755  0.1117
 1491ntf    nn313173   3.821   1.608   1.853  0.1345 -0.0615  0.3665
 1491ntf    sn213174   3.760   1.752   1.848  0.2630 -0.0312 -0.4648
 1491ntf    cn113175   3.675   1.744   1.687  0.4069  0.3131 -0.5584
 1491ntf    fn413176   3.938   1.479   1.629 -0.1182  0.2445  0.2381
 1491ntf    fn413177   4.004   1.682   1.631 -0.2976  0.1099  0.0313
 1491ntf    fn413178   4.140   1.524   1.673  0.1051  0.1754  0.1909
 1491ntf    on513179   3.998   1.443   1.917 -0.3607  0.2409  0.5988
 1491ntf    on513180   4.066   1.680   1.913  0.5584 -0.1064  0.0482
 1491ntf    on513181   3.648   1.764   1.938  0.1866 -0.4031 -0.5079
 1491ntf    on513182   3.845   1.867   1.833  0.4055 -0.0091  0.4749
 1491ntf    fn413183   3.758   1.715   1.587  0.4324 -0.4272 -0.3266
 1491ntf    fn413184   3.617   1.859   1.657 -0.4395  0.1174  0.2988
 1491ntf    fn413185   3.577   1.655   1.684  0.3029  0.3943  0.2668
 1492ntf    cn113186   2.893   5.497   5.724 -0.4405 -0.0682  0.1199
 1492ntf    sn213187   3.006   5.379   5.805 -0.2026  0.0976  0.0307
 1492ntf    nn313188   2.911   5.329   5.919  0.1721 -0.0515  0.2756
 1492ntf    sn213189   2.898   5.378   6.068 -0.1193 -0.0866  0.2628
 1492ntf    cn113190   2.717   5.381   6.086 -0.1557  0.1007 -0.1287
 1492ntf    fn413191   2.795   5.434   5.660 -0.0327 -0.2550 -0.3281
 1492ntf    fn413192   2.841   5.584   5.809  0.6194  0.8305 -0.1186
 1492ntf    fn413193   2.952   5.577   5.637 -0.0522 -0.0102  0.4359
 1492ntf    on513194   3.020   5.275   5.706  0.0533 -0.3780  0.5660
 1492ntf    on513195   3.120   5.457   5.846  0.1619 -0.5523  0.2561
 1492ntf    on513196   2.940   5.282   6.167  0.1789  0.3075  0.5217
 1492ntf    on513197   2.939   5.514   6.090  0.3926 -0.1773 -0.0949
 1492ntf    fn413198   2.688   5.399   6.214  0.5807 -0.1242  0.0741
 1492ntf    fn413199   2.666   5.268   6.041  0.1227 -0.2696  0.4629
 1492ntf    fn413200   2.662   5.481   6.019  0.0230  0.3329  0.0676
 1493ntf    cn113201   2.528   4.550   3.106  0.0949  0.0853 -0.0731
 1493ntf    sn213202   2.361   4.610   3.148  0.0921 -0.1349  0.2273
 1493ntf    nn313203   2.271   4.499   3.083  0.1380  0.1059 -0.2500
 1493ntf    sn213204   2.257   4.350   3.130 -0.3276  0.2340  0.0239
 1493ntf    cn113205   2.093   4.361   3.208 -0.2058  0.2732  0.2739
 1493ntf    fn413206   2.628   4.629   3.140  0.4440 -0.2912 -0.2087
 1493ntf    fn413207   2.557   4.429   3.150  0.5944  0.2178 -0.0339
 1493ntf    fn413208   2.530   4.546   2.973 -0.0704 -0.2144 -0.0687
 1493ntf    on513209   2.352   4.618   3.292 -0.3196 -0.3125  0.2132
 1493ntf    on513210   2.346   4.736   3.080 -0.0992 -0.4131 -0.2440
 1493ntf    on513211   2.234   4.260   3.019  0.2311  0.3872 -0.2203
 1493ntf    on513212   2.346   4.298   3.231 -0.4434  0.6045  0.3175
 1493ntf    fn413213   1.997   4.389   3.122  0.0107  0.2455  0.0224
 1493ntf    fn413214   2.088   4.456   3.300  0.0030  0.5635 -0.0125
 1493ntf    fn413215   2.063   4.247   3.266 -0.0793 -0.1665 -0.5075
 1494ntf    cn113216   5.719   5.313   1.348 -0.0054  0.2072 -0.0242
 1494ntf    sn213217   5.548   5.362   1.310  0.0234  0.4028  0.0958
 1494ntf    nn313218   5.507   5.433   1.444 -0.1858  0.2039  0.1371
 1494ntf    sn213219   5.520   5.584   1.485 -0.1935  0.1525  0.3279
 1494ntf    cn113220   5.598   5.561   1.648  0.4569  0.1429  0.0175
 1494ntf    fn413221   5.800   5.417   1.363  0.4159 -0.1485  0.2053
 1494ntf    fn413222   5.729   5.242   1.459 -0.2178  0.4058  0.1233
 1494ntf    fn413223   5.773   5.245   1.248 -0.4481  0.3596 -0.3654
 1494ntf    on513224   5.563   5.440   1.190  0.1986  0.0406 -0.1193
 1494ntf    on513225   5.489   5.231   1.296  0.7601  0.0596  0.1395
 1494ntf    on513226   5.624   5.657   1.418 -0.0586 -0.4660 -0.1417
 1494ntf    on513227   5.395   5.648   1.518 -0.1208  0.0674  0.7856
 1494ntf    fn413228   5.534   5.476   1.726 -0.1182 -0.1027 -0.7092
 1494ntf    fn413229   5.613   5.673   1.717 -0.2211  0.2831 -0.0510
 1494ntf    fn413230   5.720   5.511   1.638  0.5147  0.2844  0.0114
 1495ntf    cn113231   4.794   1.113   6.571  0.0534  0.0631 -0.5474
 1495ntf    sn213232   4.967   1.112   6.516  0.0759  0.0108 -0.4736
 1495ntf    nn313233   4.957   1.009   6.398 -0.1225 -0.1411 -0.3260
 1495ntf    sn213234   5.063   0.905   6.345 -0.0779 -0.3142  0.1014
 1495ntf    cn113235   5.066   0.944   6.168 -0.0665 -0.0094  0.1678
 1495ntf    fn413236   4.749   0.995   6.611  0.2016 -0.0082 -0.5919
 1495ntf    fn413237   4.776   1.193   6.674  0.4264 -0.2463 -0.2381
 1495ntf    fn413238   4.711   1.152   6.475 -0.0441 -0.4004 -0.6552
 1495ntf    on513239   4.977   1.249   6.471 -0.0148  0.2585  0.2556
 1495ntf    on513240   5.044   1.062   6.627 -0.6286  0.5278  0.2532
 1495ntf    on513241   5.197   0.927   6.393 -0.0383  0.4681 -0.3487
 1495ntf    on513242   5.019   0.767   6.345 -0.5914 -0.1533  0.1150
 1495ntf    fn413243   5.123   0.842   6.104 -0.0048  0.0300  0.1593
 1495ntf    fn413244   5.146   1.046   6.140 -0.3546  0.1738  0.0117
 1495ntf    fn413245   4.948   0.963   6.112 -0.0881  0.2837  0.3123
 1496ntf    cn113246   4.194   1.710   0.940 -0.0930 -0.1182  0.1055
 1496ntf    sn213247   4.256   1.580   0.829  0.1117 -0.0978  0.1965
 1496ntf    nn313248   4.385   1.652   0.776 -0.1586  0.1263 -0.1586
 1496ntf    sn213249   4.396   1.752   0.655  0.3680  0.0150 -0.2052
 1496ntf    cn113250   4.422   1.638   0.515 -0.2806  0.1603 -0.4471
 1496ntf    fn413251   4.295   1.771   0.998 -0.0535 -0.0185 -0.0668
 1496ntf    fn413252   4.132   1.806   0.873 -0.8643 -0.3847  0.4180
 1496ntf    fn413253   4.113   1.663   1.033 -0.4773 -0.2269 -0.2801
 1496ntf    on513254   4.293   1.473   0.918 -0.2984  0.4085  0.9855
 1496ntf    on513255   4.149   1.554   0.737 -0.2152  0.3751  0.4385
 1496ntf    on513256   4.280   1.827   0.615  0.0994 -0.3513 -0.1200
 1496ntf    on513257   4.518   1.828   0.655  0.1158  0.4201 -0.2758
 1496ntf    fn413258   4.314   1.574   0.474 -0.3980  0.0248  0.0654
 1496ntf    fn413259   4.512   1.547   0.550 -0.3538  0.4997  0.6662
 1496ntf    fn413260   4.479   1.698   0.412  0.3221  0.1598 -0.1223
 1497ntf    cn113261   0.063   2.225   0.983  0.0714  0.4101 -0.1626
 1497ntf    sn213262   0.157   2.122   0.866 -0.1507  0.2819 -0.2293
 1497ntf    nn313263   0.094   2.170   0.730 -0.2243 -0.2393 -0.3783
 1497ntf    sn213264   0.151   2.221   0.593 -0.1881  0.1822 -0.2079
 1497ntf    cn113265   0.018   2.164   0.481  0.1750  0.0482 -0.5736
 1497ntf    fn413266  -0.066   2.194   0.976  0.2150 -0.2284 -0.0890
 1497ntf    fn413267   0.101   2.197   1.107  0.0623 -0.4785 -0.3555
 1497ntf    fn413268   0.076   2.355   0.964 -0.0750  0.4283 -0.1438
 1497ntf    on513269   0.289   2.178   0.883  0.0056  0.0869 -0.7754
 1497ntf    on513270   0.134   1.988   0.912  0.1589  0.2447 -0.1817
 1497ntf    on513271   0.143   2.364   0.584 -0.1916  0.2421  0.6839
 1497ntf    on513272   0.270   2.157   0.543 -0.4493 -0.1484 -0.4131
 1497ntf    fn413273  -0.018   2.040   0.510 -0.6549  0.3848 -0.1266
 1497ntf    fn413274   0.058   2.164   0.355  0.1292 -0.0335 -0.5882
 1497ntf    fn413275  -0.090   2.239   0.496 -0.0139 -0.3692  0.1996
 1498ntf    cn113276   5.436   3.540   1.800  0.1358 -0.0927  0.0660
 1498ntf    sn213277   5.344   3.695   1.775  0.1799 -0.0619  0.0922
 1498ntf    nn313278   5.458   3.789   1.828  0.3999 -0.1610 -0.1967
 1498ntf    sn213279   5.564   3.862   1.740  0.2999  0.0794 -0.1198
 1498ntf    cn113280   5.468   4.000   1.671  0.2291  0.0594 -0.0609
 1498ntf    fn413281   5.510   3.535   1.910 -0.3468 -0.4285  0.3787
 1498ntf    fn413282   5.357   3.435   1.815  0.2453 -0.0824  0.7301
 1498ntf    fn413283   5.514   3.521   1.695  0.3525 -0.0282  0.2138
 1498ntf    on513284   5.321   3.707   1.633  0.3603 -0.0605  0.0623
 1498ntf    on513285   5.228   3.686   1.860 -0.0088 -0.4379 -0.2005
 1498ntf    on513286   5.650   3.930   1.834  0.4507  0.0089 -0.2055
 1498ntf    on513287   5.622   3.793   1.627  0.1655 -0.3968  0.1050
 1498ntf    fn413288   5.382   4.048   1.759 -0.2472 -0.2348 -0.3583
 1498ntf    fn413289   5.403   3.952   1.566  0.2867  0.1785 -0.1520
 1498ntf    fn413290   5.548   4.098   1.630  0.0475  0.0512 -0.4373
 1499ntf    cn113291   3.038   0.540   1.559 -0.0231 -0.1187 -0.4388
 1499ntf    sn213292   2.947   0.432   1.444 -0.5053 -0.3739  0.1740
 1499ntf    nn313293   2.809   0.507   1.452 -0.2757  0.0493  0.2064
 1499ntf    sn213294   2.711   0.543   1.335  0.1101  0.0772 -0.1123
 1499ntf    cn113295   2.565   0.604   1.425  0.1113  0.3573 -0.2996
 1499ntf    fn413296   2.997   0.539   1.684  0.2327  0.5975 -0.3443
 1499ntf    fn413297   3.168   0.514   1.563 -0.1188 -0.4820  0.5093
 1499ntf    fn413298   3.028   0.667   1.523  0.3830  0.2333  0.6822
 1499ntf    on513299   3.022   0.442   1.320  0.3839 -0.0332  0.7275
 1499ntf    on513300   2.961   0.306   1.512  0.4334 -0.2435  0.2347
 1499ntf    on513301   2.749   0.654   1.252  0.5157  0.0168 -0.0080
 1499ntf    on513302   2.658   0.422   1.277  0.7355 -0.1510 -0.2184
 1499ntf    fn413303   2.588   0.722   1.482  0.1085  0.2601 -0.0959
 1499ntf    fn413304   2.528   0.521   1.521 -0.9286  0.4972 -0.5710
 1499ntf    fn413305   2.460   0.612   1.345 -0.2083  0.4301  0.1269
 1500ntf    cn113306   0.378   3.568   2.913  0.1592 -0.1693  0.2705
 1500ntf    sn213307   0.332   3.416   2.825 -0.0172 -0.1237  0.2833
 1500ntf    nn313308   0.352   3.303   2.932  1.0705 -0.2583 -0.0533
 1500ntf    sn213309   0.329   3.148   2.926 -0.2841 -0.0564 -0.4235
 1500ntf    cn113310   0.500   3.087   2.911 -0.1388  0.3179 -0.3149
 1500ntf    fn413311   0.359   3.675   2.837  0.2263 -0.1202  0.3232
 1500ntf    fn413312   0.312   3.583   3.027 -0.2962  0.0981 -0.0198
 1500ntf    fn413313   0.506   3.577   2.945  0.1885 -0.5433  0.2614
 1500ntf    on513314   0.193   3.433   2.789  0.1418 -0.0343 -0.2929
 1500ntf    on513315   0.427   3.421   2.717 -0.3295  0.2632  0.0217
 1500ntf    on513316   0.286   3.096   3.053  0.0464  0.5060 -0.0762
 1500ntf    on513317   0.265   3.106   2.804 -0.0538 -0.2172 -0.4906
 1500ntf    fn413318   0.565   3.151   2.816  0.7234 -0.3732 -0.2062
 1500ntf    fn413319   0.502   2.957   2.887 -0.1759  0.1975  0.3008
 1500ntf    fn413320   0.568   3.102   3.024  0.3526 -0.8581 -0.4355
 1501ntf    cn113321   3.483   0.223   5.169 -0.1207  0.0777 -0.1167
 1501ntf    sn213322   3.395   0.382   5.171 -0.0539  0.1134 -0.0309
 1501ntf    nn313323   3.361   0.404   5.020 -0.1584  0.3985  0.0333
 1501ntf    sn213324   3.224   0.397   4.944 -0.2220  0.2624  0.1618
 1501ntf    cn113325   3.164   0.568   4.955 -0.3349  0.2229  0.1556
 1501ntf    fn413326   3.562   0.223   5.063  0.3994 -0.5544  0.2618
 1501ntf    fn413327   3.556   0.202   5.277 -0.1102 -0.0238 -0.1436
 1501ntf    fn413328   3.394   0.126   5.160 -0.8028  0.6353  0.4555
 1501ntf    on513329   3.284   0.358   5.259 -0.3930  0.0948 -0.4630
 1501ntf    on513330   3.499   0.468   5.224 -0.1233  0.1816 -0.0058
 1501ntf    on513331   3.255   0.383   4.803  0.2732 -0.0179  0.2968
 1501ntf    on513332   3.127   0.312   5.007  0.3498 -0.4810  0.0592
 1501ntf    fn413333   3.137   0.604   5.079 -0.2089 -0.0515  0.2641
 1501ntf    fn413334   3.054   0.589   4.884 -0.0927  0.4564 -0.1500
 1501ntf    fn413335   3.256   0.656   4.921 -0.1277 -0.0570 -0.0118
 1502ntf    cn113336   0.002   1.592   0.290  0.2384 -0.4755  0.0969
 1502ntf    sn213337  -0.168   1.645   0.323  0.3085 -0.1400 -0.0765
 1502ntf    nn313338  -0.237   1.504   0.325  0.5711 -0.2624  0.2324
 1502ntf    sn213339  -0.270   1.409   0.446  0.0073 -0.0709  0.2298
 1502ntf    cn113340  -0.442   1.380   0.396  0.0331  0.4249 -0.1612
 1502ntf    fn413341   0.075   1.543   0.389  0.5963 -0.5720 -0.2099
 1502ntf    fn413342  -0.004   1.501   0.194 -0.0653  0.0296 -0.3664
 1502ntf    fn413343   0.077   1.689   0.239  0.2824 -0.5197  0.0768
 1502ntf    on513344  -0.152   1.729   0.439  0.0238  0.1739 -0.2599
 1502ntf    on513345  -0.211   1.717   0.205 -0.4757 -0.2838  0.1128
 1502ntf    on513346  -0.216   1.276   0.431 -0.1477 -0.1378  0.2601
 1502ntf    on513347  -0.287   1.466   0.577 -0.0410 -0.3773  0.3570
 1502ntf    fn413348  -0.495   1.302   0.489  0.5326 -0.3562 -0.5165
 1502ntf    fn413349  -0.447   1.317   0.280  0.1910  0.0795  0.0157
 1502ntf    fn413350  -0.516   1.489   0.393 -0.7069 -0.0620 -0.0107
 1503ntf    cn113351   4.957   1.509   3.011  0.2893 -0.4875 -0.2649
 1503ntf    sn213352   5.090   1.559   3.126 -0.1122  0.3503 -0.1586
 1503ntf    nn313353   5.043   1.707   3.150 -0.2173  0.3261 -0.2120
 1503ntf    sn213354   5.135   1.830   3.182  0.1659 -0.0208  0.0455
 1503ntf    cn113355   5.180   1.889   3.016 -0.1819 -0.4941 -0.2184
 1503ntf    fn413356   4.837   1.498   3.066  0.0629  0.3958 -0.5724
 1503ntf    fn413357   4.941   1.588   2.907 -0.3176  0.6829  0.6898
 1503ntf    fn413358   4.981   1.392   2.955 -0.3434 -0.3827 -0.7610
 1503ntf    on513359   5.058   1.473   3.237  0.1140 -0.0708 -0.4151
 1503ntf    on513360   5.206   1.535   3.043 -0.0565  0.1160 -0.0127
 1503ntf    on513361   5.050   1.938   3.228 -0.1179  0.0853 -0.7068
 1503ntf    on513362   5.270   1.814   3.230  0.1469 -0.0800  0.0784
 1503ntf    fn413363   5.070   1.870   2.944 -0.3150  0.4030 -0.2655
 1503ntf    fn413364   5.273   1.821   2.951  0.3337 -0.4957  0.5165
 1503ntf    fn413365   5.210   2.017   3.002  0.0118 -0.5581 -0.3873
 1504ntf    cn113366   3.497   4.376   1.581  0.1020 -0.2788 -0.1208
 1504ntf    sn213367   3.327   4.312   1.579 -0.0371  0.0886 -0.1053
 1504ntf    nn313368   3.280   4.361   1.437  0.4232  0.3012 -0.1862
 1504ntf    sn213369   3.294   4.294   1.296  0.0993  0.2904 -0.2136
 1504ntf    cn113370   3.133   4.209   1.287  0.3698 -0.2125 -0.3064
 1504ntf    fn413371   3.554   4.363   1.700  0.1329 -0.4532 -0.1541
 1504ntf    fn413372   3.578   4.313   1.498 -0.1153 -0.4518 -0.2034
 1504ntf    fn413373   3.506   4.504   1.549 -0.0200 -0.1740  0.2584
 1504ntf    on513374   3.340   4.169   1.579 -0.2471  0.0675 -0.7598
 1504ntf    on513375   3.263   4.378   1.690 -0.5244  0.0493 -0.3613
 1504ntf    on513376   3.288   4.390   1.189  0.4335 -0.1135 -0.5977
 1504ntf    on513377   3.394   4.190   1.286  0.4068  0.5583  0.0580
 1504ntf    fn413378   3.028   4.288   1.288  0.5186 -0.0174 -0.1512
 1504ntf    fn413379   3.119   4.119   1.383  0.4259 -0.1444 -0.2349
 1504ntf    fn413380   3.125   4.140   1.174 -0.4108 -0.1352 -0.2974
 1505ntf    cn113381   6.059   2.320   1.366  0.2129  0.1831  0.4477
 1505ntf    sn213382   6.209   2.396   1.435  0.5681 -0.0287 -0.0898
 1505ntf    nn313383   6.276   2.447   1.302 -0.1045  0.2002 -0.3445
 1505ntf    sn213384   6.394   2.377   1.227 -0.2236 -0.1253 -0.2258
 1505ntf    cn113385   6.374   2.452   1.063  0.0664 -0.2005 -0.2966
 1505ntf    fn413386   6.083   2.200   1.316  0.1611  0.3880 -0.0726
 1505ntf    fn413387   5.955   2.303   1.446 -0.0480 -0.1577  0.0431
 1505ntf    fn413388   6.010   2.389   1.264  0.0642 -0.5757  0.0009
 1505ntf    on513389   6.157   2.505   1.513  1.0119  0.0951  0.0369
 1505ntf    on513390   6.279   2.293   1.508 -0.4159 -0.2688  0.5342
 1505ntf    on513391   6.532   2.407   1.256 -0.3180  0.4543 -0.3752
 1505ntf    on513392   6.368   2.236   1.205 -1.1404 -0.0110  0.0809
 1505ntf    fn413393   6.255   2.435   1.007 -0.0657 -0.0293 -0.0690
 1505ntf    fn413394   6.468   2.407   0.982  0.0497  0.1733 -0.5235
 1505ntf    fn413395   6.386   2.583   1.056  0.4228 -0.2343 -0.3514
 1506ntf    cn113396   4.394   0.706   3.097  0.0205 -0.3093  0.0306
 1506ntf    sn213397   4.350   0.775   3.260  0.2812 -0.1903  0.0516
 1506ntf    nn313398   4.417   0.667   3.351 -0.1915 -0.1903  0.4051
 1506ntf    sn213399   4.351   0.533   3.401 -0.2411 -0.2508  0.1753
 1506ntf    cn113400   4.287   0.596   3.559  0.0226 -0.0436  0.1999
 1506ntf    fn413401   4.351   0.778   2.995 -0.0272 -0.2637  0.0825
 1506ntf    fn413402   4.526   0.703   3.083  0.0385  0.0741  0.0995
 1506ntf    fn413403   4.349   0.583   3.078 -0.3565 -0.1824  0.0873
 1506ntf    on513404   4.413   0.904   3.259 -0.0441 -0.0297  0.1481
 1506ntf    on513405   4.206   0.775   3.254  0.2594 -0.5939  0.4949
 1506ntf    on513406   4.230   0.481   3.342 -0.3168  0.0619  0.0510
 1506ntf    on513407   4.446   0.428   3.429 -0.1400 -0.1795  0.1024
 1506ntf    fn413408   4.193   0.687   3.540  0.2792  0.1906  0.0448
 1506ntf    fn413409   4.376   0.649   3.641  0.0751  0.2180 -0.0239
 1506ntf    fn413410   4.225   0.497   3.620  0.1702 -0.2447  0.0247
 1507ntf    cn113411   0.633   3.972   2.434 -0.2035 -0.4925  0.0677
 1507ntf    sn213412   0.532   4.077   2.326  0.2071  0.2197  0.3662
 1507ntf    nn313413   0.476   3.961   2.236  0.4632  0.1480  0.2987
 1507ntf    sn213414   0.554   3.883   2.124 -0.0550 -0.2887  0.2410
 1507ntf    cn113415   0.468   3.938   1.974 -0.0466 -0.2355  0.2559
 1507ntf    fn413416   0.726   4.046   2.492 -0.2014 -0.3386 -0.1289
 1507ntf    fn413417   0.570   3.923   2.539 -0.2057  0.1590  0.3802
 1507ntf    fn413418   0.699   3.872   2.378  0.0402 -0.2408 -0.0980
 1507ntf    on513419   0.424   4.129   2.406 -0.4344 -0.0223 -0.3224
 1507ntf    on513420   0.626   4.168   2.265  0.5596 -0.8059 -0.6588
 1507ntf    on513421   0.690   3.927   2.104 -0.1278  0.0070  0.3921
 1507ntf    on513422   0.538   3.740   2.135 -0.2589 -0.2564  0.3886
 1507ntf    fn413423   0.510   3.869   1.870  0.3777 -0.1979  0.4007
 1507ntf    fn413424   0.493   4.066   1.952  0.0311 -0.2921  0.0142
 1507ntf    fn413425   0.337   3.917   1.982  0.0135 -0.8148 -0.2059
 1508ntf    cn113426   1.235   0.782   6.345 -0.1675  0.0527  0.2114
 1508ntf    sn213427   1.287   0.910   6.226 -0.3217 -0.0926 -0.0125
 1508ntf    nn313428   1.252   0.845   6.087 -0.1063  0.1326 -0.1732
 1508ntf    sn213429   1.338   0.759   5.988 -0.0608  0.2756 -0.2576
 1508ntf    cn113430   1.217   0.626   5.964  0.4592 -0.2706  0.1293
 1508ntf    fn413431   1.273   0.814   6.467 -0.5117  0.3196  0.2518
 1508ntf    fn413432   1.103   0.771   6.347 -0.1735  0.1585  0.4486
 1508ntf    fn413433   1.277   0.659   6.323  0.0975  0.1440  0.2099
 1508ntf    on513434   1.202   1.021   6.262  0.1189  0.2164  0.0785
 1508ntf    on513435   1.429   0.927   6.246 -0.3625  0.0797  0.1306
 1508ntf    on513436   1.358   0.823   5.860 -0.6009  0.3962 -0.2841
 1508ntf    on513437   1.443   0.689   6.057 -0.3808  0.3207  0.2864
 1508ntf    fn413438   1.266   0.549   5.868  0.1848 -0.6614  0.2974
 1508ntf    fn413439   1.098   0.667   5.924  0.4492 -0.0227  0.4129
 1508ntf    fn413440   1.195   0.558   6.076 -0.1669  0.0639  0.2097
 1509ntf    cn113441   0.457   0.404   5.662  0.4776  0.0778 -0.1313
 1509ntf    sn213442   0.291   0.392   5.736  0.3584 -0.0728 -0.4226
 1509ntf    nn313443   0.230   0.528   5.685  0.4218  0.0986 -0.0403
 1509ntf    sn213444   0.244   0.666   5.758  0.0399  0.0093  0.2098
 1509ntf    cn113445   0.097   0.676   5.864 -0.0894 -0.1222  0.0427
 1509ntf    fn413446   0.447   0.410   5.530 -0.3649  0.2430 -0.0706
 1509ntf    fn413447   0.527   0.510   5.697 -0.4382  0.4610  0.6084
 1509ntf    fn413448   0.533   0.298   5.685 -0.3195 -0.3921  0.4011
 1509ntf    on513449   0.233   0.281   5.663 -0.4381 -0.0187  0.1087
 1509ntf    on513450   0.316   0.371   5.876  0.0531 -0.0711 -0.3653
 1509ntf    on513451   0.347   0.687   5.856 -0.0616  0.2446  0.2675
 1509ntf    on513452   0.218   0.772   5.663  0.6094 -0.2371 -0.2273
 1509ntf    fn413453  -0.016   0.679   5.795  0.1330  0.3210 -0.3012
 1509ntf    fn413454   0.100   0.784   5.940  0.4639 -0.1701  0.0906
 1509ntf    fn413455   0.092   0.575   5.950 -0.6912 -0.0328  0.1171
 1510ntf    cn113456   0.063   6.206   5.834 -0.0320 -0.0051  0.1264
 1510ntf    sn213457   0.156   6.169   5.986  0.3111  0.1940 -0.0364
 1510ntf    nn313458   0.274   6.273   5.982  0.6036 -0.1394 -0.1527
 1510ntf    sn213459   0.260   6.420   6.034 -0.1849 -0.1986 -0.1823
 1510ntf    cn113460   0.337   6.399   6.197  0.0712  0.3036 -0.2365
 1510ntf    fn413461  -0.041   6.124   5.824 -0.2495  0.2852  0.0008
 1510ntf    fn413462   0.002   6.323   5.849 -0.3309 -0.1471  0.0227
 1510ntf    fn413463   0.144   6.210   5.730  0.3723 -0.5724  0.4119
 1510ntf    on513464   0.068   6.176   6.099  0.3627  0.7131 -0.0262
 1510ntf    on513465   0.214   6.038   5.964 -0.5616 -0.0247 -1.1361
 1510ntf    on513466   0.350   6.516   5.974  0.0993 -0.5925 -0.3850
 1510ntf    on513467   0.127   6.466   6.067 -0.0748  0.2012 -0.2881
 1510ntf    fn413468   0.295   6.292   6.262  0.2223  0.5004  0.1967
 1510ntf    fn413469   0.315   6.507   6.271 -0.2335 -0.1483  0.3437
 1510ntf    fn413470   0.468   6.383   6.187  0.1428  0.3118  0.6005
 1511ntf    cn113471   6.205   1.985   5.313  0.0290 -0.0363 -0.0262
 1511ntf    sn213472   6.046   2.070   5.331  0.1149  0.1365 -0.0878
 1511ntf    nn313473   6.039   2.073   5.488 -0.5498  0.3391 -0.1167
 1511ntf    sn213474   6.114   2.165   5.591 -0.2451  0.0452 -0.0763
 1511ntf    cn113475   5.981   2.277   5.642 -0.0355  0.3487 -0.1956
 1511ntf    fn413476   6.309   2.050   5.363  0.1220 -0.3819  0.2354
 1511ntf    fn413477   6.190   1.872   5.381 -0.8554  0.0254 -0.1152
 1511ntf    fn413478   6.243   1.954   5.190  0.3582 -0.3740  0.1596
 1511ntf    on513479   6.071   2.197   5.267  0.0467 -0.1680 -0.7259
 1511ntf    on513480   5.942   1.993   5.269  0.5285 -0.1428 -0.4332
 1511ntf    on513481   6.151   2.103   5.716  0.0789  0.6266  0.1162
 1511ntf    on513482   6.212   2.255   5.535  0.0815 -0.1417  0.1863
 1511ntf    fn413483   5.900   2.208   5.721  0.1395 -0.0736 -0.3880
 1511ntf    fn413484   5.906   2.322   5.542 -0.0787 -0.0389 -0.3373
 1511ntf    fn413485   6.015   2.378   5.721  0.1926  0.1570 -0.0497
 1512ntf    cn113486   0.802   6.168   0.873 -0.3109 -0.0170 -0.0149
 1512ntf    sn213487   0.849   6.161   0.697 -0.1521  0.1734  0.0203
 1512ntf    nn313488   0.910   6.305   0.687 -0.1934  0.2063  0.2357
 1512ntf    sn213489   1.057   6.359   0.678 -0.1700  0.0966 -0.0456
 1512ntf    cn113490   1.058   6.459   0.829 -0.3618 -0.0963  0.0828
 1512ntf    fn413491   0.910   6.177   0.948 -0.1695 -0.2857 -0.1834
 1512ntf    fn413492   0.730   6.275   0.903 -0.0649  0.1934 -0.1756
 1512ntf    fn413493   0.738   6.064   0.925 -0.4944  0.1336  0.0602
 1512ntf    on513494   0.935   6.046   0.676 -0.3600  0.1746 -0.8822
 1512ntf    on513495   0.721   6.162   0.632 -0.1069 -0.1904 -0.0774
 1512ntf    on513496   1.166   6.268   0.705  0.0793  0.1996 -0.6738
 1512ntf    on513497   1.069   6.453   0.569 -0.1940  0.3758  0.1942
 1512ntf    fn413498   0.943   6.514   0.864  0.1300  0.6216  0.6130
 1512ntf    fn413499   1.151   6.552   0.816 -0.3002 -0.2227 -0.3930
 1512ntf    fn413500   1.092   6.379   0.929  0.3461  0.4399  0.2796
 1513ntf    cn113501   2.245   5.566   0.052  0.1612 -0.3293  0.4697
 1513ntf    sn213502   2.396   5.659   0.010 -0.3042  0.3253  0.2359
 1513ntf    nn313503   2.423   5.728   0.148  0.1656  0.0908  0.2624
 1513ntf    sn213504   2.388   5.875   0.192  0.0385  0.2012 -0.2046
 1513ntf    cn113505   2.331   5.850   0.363 -0.0391  0.3306 -0.2119
 1513ntf    fn413506   2.210   5.504  -0.059  0.3353  0.1999  0.1156
 1513ntf    fn413507   2.265   5.468   0.139 -0.5023 -0.3163  0.6440
 1513ntf    fn413508   2.154   5.652   0.096  0.4769  0.1574  0.1855
 1513ntf    on513509   2.496   5.561  -0.024 -0.3511  0.2207  0.3995
 1513ntf    on513510   2.357   5.746  -0.099 -0.2203 -0.0346 -0.0837
 1513ntf    on513511   2.499   5.966   0.195 -0.1140  0.3741  0.2872
 1513ntf    on513512   2.276   5.929   0.119 -0.4158 -0.0167  0.3187
 1513ntf    fn413513   2.224   5.773   0.372  0.0458  0.2143 -0.2024
 1513ntf    fn413514   2.296   5.962   0.425 -0.0843  0.4098 -0.3812
 1513ntf    fn413515   2.428   5.800   0.438 -0.1108 -0.2257 -0.4870
 1514ntf    cn113516   1.683   2.903   4.179 -0.3417 -0.2452  0.0187
 1514ntf    sn213517   1.773   2.745   4.176 -0.0513 -0.0724 -0.4575
 1514ntf    nn313518   1.920   2.795   4.200 -0.2138  0.3999 -0.4433
 1514ntf    sn213519   2.058   2.726   4.170 -0.0560  0.5213 -0.0036
 1514ntf    cn113520   2.137   2.716   4.333  0.4116 -0.2633 -0.2719
 1514ntf    fn413521   1.701   2.983   4.075  0.3900 -0.0494  0.2935
 1514ntf    fn413522   1.554   2.873   4.179 -0.2796 -0.5173 -0.0596
 1514ntf    fn413523   1.705   2.976   4.287  0.4331 -0.1586 -0.1925
 1514ntf    on513524   1.721   2.680   4.294  0.4085  0.1387 -0.1368
 1514ntf    on513525   1.744   2.688   4.046 -0.1145 -0.2787 -0.3529
 1514ntf    on513526   2.059   2.589   4.125  0.4760  0.5257 -0.0131
 1514ntf    on513527   2.142   2.818   4.097  0.1365  0.5066  0.1987
 1514ntf    fn413528   2.196   2.828   4.371  0.1659 -0.2824  0.1704
 1514ntf    fn413529   2.231   2.624   4.344  0.4035 -0.2327  0.0731
 1514ntf    fn413530   2.044   2.682   4.420 -0.3271  0.3506 -0.8102
 1515ntf    cn113531   3.918   0.656   4.949 -0.2225 -0.1466  0.3811
 1515ntf    sn213532   4.031   0.733   5.069  0.1227  0.0371 -0.0568
 1515ntf    nn313533   4.079   0.601   5.140  0.2133 -0.1483 -0.4594
 1515ntf    sn213534   4.222   0.563   5.193  0.0070 -0.2255  0.0475
 1515ntf    cn113535   4.294   0.722   5.244 -0.0045 -0.1039 -0.3159
 1515ntf    fn413536   3.980   0.590   4.852 -0.5728 -0.3606  0.3000
 1515ntf    fn413537   3.825   0.575   4.997 -0.5398 -0.2983 -0.4615
 1515ntf    fn413538   3.850   0.751   4.887  0.0215 -0.1318  0.1325
 1515ntf    on513539   4.124   0.801   4.982  0.1836 -0.5072 -0.4231
 1515ntf    on513540   3.946   0.815   5.151  0.4646 -0.0130  0.3508
 1515ntf    on513541   4.224   0.486   5.315  0.2961 -0.2368  0.0368
 1515ntf    on513542   4.309   0.524   5.086  0.9576  0.4759  0.5502
 1515ntf    fn413543   4.210   0.804   5.306  0.3475 -0.1381  0.2091
 1515ntf    fn413544   4.356   0.793   5.150 -0.3262  0.4332 -0.1243
 1515ntf    fn413545   4.390   0.690   5.329  0.1572  0.3642 -0.3179
 1516ntf    cn113546   3.203   2.352   5.393 -0.1675 -0.0903 -0.6696
 1516ntf    sn213547   3.083   2.215   5.393  0.1056 -0.3306 -0.4974
 1516ntf    nn313548   3.128   2.155   5.531  0.6405  0.1798 -0.4456
 1516ntf    sn213549   3.206   2.020   5.548  0.3286  0.0322 -0.1841
 1516ntf    cn113550   3.277   2.045   5.714  0.0208  0.1630 -0.0705
 1516ntf    fn413551   3.149   2.452   5.460 -0.3924 -0.3994 -0.3892
 1516ntf    fn413552   3.312   2.313   5.457 -0.3657  0.6589  0.1433
 1516ntf    fn413553   3.245   2.405   5.279  0.3779 -0.0448 -0.4524
 1516ntf    on513554   2.954   2.279   5.402  0.0567 -0.3622 -0.9721
 1516ntf    on513555   3.117   2.152   5.268  0.3953  0.1552 -0.6691
 1516ntf    on513556   3.127   1.901   5.569  0.3997 -0.0149 -0.1839
 1516ntf    on513557   3.323   2.009   5.464  0.0587 -0.2122 -0.5283
 1516ntf    fn413558   3.367   1.954   5.750 -0.4222 -0.2222  0.0775
 1516ntf    fn413559   3.180   2.049   5.803 -0.0123 -0.4013 -0.0728
 1516ntf    fn413560   3.338   2.161   5.728 -0.4488  0.3998  0.0139
 1517ntf    cn113561   5.738   4.091   6.639 -0.3085 -0.1041 -0.1179
 1517ntf    sn213562   5.709   4.127   6.815  0.2013 -0.0732 -0.0384
 1517ntf    nn313563   5.748   4.279   6.815  0.3462 -0.1049  0.5991
 1517ntf    sn213564   5.884   4.356   6.817  0.0865  0.3878 -0.1363
 1517ntf    cn113565   5.890   4.378   6.997  0.3793 -0.1663 -0.0759
 1517ntf    fn413566   5.863   4.063   6.605 -0.4700 -0.4938 -0.3892
 1517ntf    fn413567   5.661   3.989   6.607  0.0952 -0.5678  0.3548
 1517ntf    fn413568   5.696   4.189   6.560 -0.3003 -0.0946 -0.1110
 1517ntf    on513569   5.567   4.116   6.836  0.2111 -0.1382 -0.0059
 1517ntf    on513570   5.796   4.053   6.903 -0.3364 -0.4900  0.1430
 1517ntf    on513571   6.005   4.283   6.790 -0.1810 -0.1953  0.2391
 1517ntf    on513572   5.869   4.491   6.767 -0.0790  0.2680 -0.4087
 1517ntf    fn413573   5.802   4.472   7.028  0.1026 -0.3838 -0.2023
 1517ntf    fn413574   6.006   4.425   7.039  0.1691  0.6012 -0.3343
 1517ntf    fn413575   5.853   4.275   7.071 -0.1586  0.5368  0.6592
 1518ntf    cn113576   1.868   6.507   3.435 -0.3602  0.2768 -0.2396
 1518ntf    sn213577   1.966   6.658   3.457  0.1999 -0.1192 -0.0013
 1518ntf    nn313578   1.864   6.775   3.481 -0.2149 -0.4364 -0.2001
 1518ntf    sn213579   1.837   6.898   3.388 -0.2272 -0.2126  0.0952
 1518ntf    cn113580   1.985   6.996   3.425 -0.2984 -0.1040  0.0918
 1518ntf    fn413581   1.762   6.517   3.357 -0.3843 -0.0493 -0.2506
 1518ntf    fn413582   1.942   6.416   3.374 -0.0425  0.2072  0.2384
 1518ntf    fn413583   1.818   6.455   3.547  0.2528  0.1388 -0.0277
 1518ntf    on513584   2.043   6.630   3.576  0.6705 -0.0576 -0.2874
 1518ntf    on513585   2.048   6.665   3.338 -0.2958  0.1896 -0.3269
 1518ntf    on513586   1.850   6.872   3.246  0.9434  0.6264  0.0404
 1518ntf    on513587   1.730   6.980   3.438 -0.0930  0.0293 -0.0115
 1518ntf    fn413588   2.087   6.946   3.358  0.0993  0.3008  0.3873
 1518ntf    fn413589   2.020   6.999   3.553  0.3413  0.6900 -0.0885
 1518ntf    fn413590   1.975   7.120   3.381 -0.2971 -0.2571 -0.3463
 1519ntf    cn113591   0.387   6.348   1.996 -0.0403  0.2721  0.1764
 1519ntf    sn213592   0.299   6.275   2.137  0.1391  0.1300  0.2153
 1519ntf    nn313593   0.152   6.279   2.082  0.0326  0.0930  0.4965
 1519ntf    sn213594   0.064   6.149   2.082  0.1910 -0.0174 -0.2393
 1519ntf    cn113595   0.110   6.062   1.929  0.0145 -0.4004 -0.0760
 1519ntf    fn413596   0.353   6.287   1.883  0.1307  0.0616  0.2386
 1519ntf    fn413597   0.356   6.475   1.974  0.2644  0.3375  0.1072
 1519ntf    fn413598   0.519   6.345   2.006  0.0104  0.2517 -0.4315
 1519ntf    on513599   0.356   6.143   2.144 -0.2805 -0.0933 -0.4340
 1519ntf    on513600   0.326   6.368   2.243  0.1685  0.1802  0.1631
 1519ntf    on513601   0.085   6.057   2.192 -0.0100 -0.0622 -0.2390
 1519ntf    on513602  -0.072   6.183   2.051  0.0921  0.0775  0.2909
 1519ntf    fn413603   0.136   6.148   1.832 -0.2349 -0.0123  0.2019
 1519ntf    fn413604   0.012   5.987   1.881 -0.1986 -0.1040 -0.1081
 1519ntf    fn413605   0.216   5.983   1.938  0.4298  0.1100 -0.4118
 1520ntf    cn113606   3.670   1.517   4.743 -0.4175  0.0981  0.0551
 1520ntf    sn213607   3.700   1.392   4.615 -0.2155  0.1728  0.0293
 1520ntf    nn313608   3.645   1.262   4.682 -0.2875  0.0252 -0.3127
 1520ntf    sn213609   3.515   1.179   4.651 -0.2477 -0.1288 -0.0751
 1520ntf    cn113610   3.578   1.074   4.516  0.3938 -0.1086  0.2038
 1520ntf    fn413611   3.743   1.489   4.850 -0.3212  0.7669  0.1722
 1520ntf    fn413612   3.701   1.638   4.697  0.1563 -0.0881 -0.0595
 1520ntf    fn413613   3.541   1.509   4.772 -0.3379 -0.4608  0.2689
 1520ntf    on513614   3.626   1.441   4.501 -0.0943 -0.0981 -0.1685
 1520ntf    on513615   3.842   1.380   4.594 -0.2455  0.0105 -0.0793
 1520ntf    on513616   3.481   1.090   4.759 -0.2771  0.1141  0.1155
 1520ntf    on513617   3.405   1.250   4.590  0.1292  0.4454 -0.0949
 1520ntf    fn413618   3.471   1.017   4.464  0.4463 -0.0887  0.0752
 1520ntf    fn413619   3.662   0.977   4.547  0.1411 -0.3053  0.2818
 1520ntf    fn413620   3.632   1.143   4.417  0.2236 -0.5529 -0.2022
 1521ntf    cn113621   1.636   4.514   3.024 -0.4359 -0.3813 -0.3123
 1521ntf    sn213622   1.530   4.578   3.157  0.5934 -0.1438  0.4017
 1521ntf    nn313623   1.601   4.517   3.283  0.4692 -0.8270  0.1435
 1521ntf    sn213624   1.640   4.577   3.423 -0.0157  0.2129 -0.1585
 1521ntf    cn113625   1.820   4.564   3.406 -0.0245 -0.0623 -0.0599
 1521ntf    fn413626   1.766   4.531   3.043 -0.4678 -0.5861  0.0843
 1521ntf    fn413627   1.621   4.384   3.007  0.2074 -0.5577  0.4014
 1521ntf    fn413628   1.610   4.574   2.908  0.0152  0.1794 -0.1293
 1521ntf    on513629   1.543   4.721   3.140  0.0831 -0.1091  0.3012
 1521ntf    on513630   1.407   4.508   3.134  0.4157  0.3735 -0.2512
 1521ntf    on513631   1.616   4.716   3.451 -0.7064  0.1561 -0.4379
 1521ntf    on513632   1.604   4.486   3.529  0.0779  0.1577 -0.1737
 1521ntf    fn413633   1.850   4.641   3.302  0.1277 -0.2088 -0.1241
 1521ntf    fn413634   1.874   4.446   3.382 -0.0702 -0.0743 -0.1079
 1521ntf    fn413635   1.888   4.625   3.502  0.0952 -0.2119 -0.0501
 1522ntf    cn113636   1.307   1.940   0.014  0.0502  0.1716  0.0474
 1522ntf    sn213637   1.295   1.822   0.153  0.1382 -0.0931 -0.1694
 1522ntf    nn313638   1.402   1.718   0.104  0.2348 -0.3567  0.6008
 1522ntf    sn213639   1.381   1.585   0.022 -0.2121 -0.0110  0.1510
 1522ntf    cn113640   1.377   1.476   0.167 -0.1329 -0.0852  0.0969
 1522ntf    fn413641   1.211   2.029   0.034  0.1906  0.3609 -0.1215
 1522ntf    fn413642   1.421   2.007   0.013  0.2750 -0.2079  0.0651
 1522ntf    fn413643   1.292   1.891  -0.108  0.1591 -0.1679  0.1666
 1522ntf    on513644   1.333   1.906   0.264 -0.6413 -0.0496  0.0658
 1522ntf    on513645   1.158   1.780   0.141  0.1670 -0.1872 -0.1655
 1522ntf    on513646   1.262   1.565  -0.056  0.1255  0.1580 -0.4159
 1522ntf    on513647   1.501   1.547  -0.048 -0.2154 -0.0407  0.1613
 1522ntf    fn413648   1.341   1.350   0.152  0.1857 -0.1839  0.1352
 1522ntf    fn413649   1.298   1.526   0.260 -0.6241  0.2022 -0.4750
 1522ntf    fn413650   1.495   1.465   0.227 -0.1947  0.0845  0.2491
 1523ntf    cn113651   3.139   1.656   4.864 -0.3184 -0.3373  0.2268
 1523ntf    sn213652   3.069   1.797   4.772  0.1060 -0.3143 -0.0672
 1523ntf    nn313653   2.962   1.846   4.876  0.5017  0.3201  0.0420
 1523ntf    sn213654   2.810   1.812   4.890  0.5302  0.1878  0.0334
 1523ntf    cn113655   2.746   1.953   4.794 -0.0875 -0.1443 -0.0451
 1523ntf    fn413656   3.224   1.701   4.955  0.2498 -0.3005 -0.3121
 1523ntf    fn413657   3.046   1.585   4.924 -0.6000 -0.2032 -0.0506
 1523ntf    fn413658   3.206   1.568   4.792 -0.0405  0.1515 -0.1213
 1523ntf    on513659   3.177   1.892   4.768 -0.0910 -0.1106 -0.5908
 1523ntf    on513660   3.017   1.745   4.648  0.3357 -0.6335 -0.0319
 1523ntf    on513661   2.765   1.689   4.830 -0.0710  0.1228  0.6028
 1523ntf    on513662   2.753   1.844   5.019 -0.1997  0.5240 -0.3634
 1523ntf    fn413663   2.771   2.069   4.852 -0.0136 -0.1254 -0.1149
 1523ntf    fn413664   2.615   1.943   4.777 -0.1327  0.4732 -0.0717
 1523ntf    fn413665   2.808   1.955   4.677  0.1974 -0.2738  0.1011
 1524ntf    cn113666   0.095   6.215   0.559 -0.0596 -0.0163 -0.2282
 1524ntf    sn213667  -0.026   6.216   0.695  0.0523  0.1320 -0.1292
 1524ntf    nn313668  -0.163   6.207   0.620  0.1294 -0.1597 -0.2389
 1524ntf    sn213669  -0.291   6.116   0.618  0.1867 -0.2501  0.2563
 1524ntf    cn113670  -0.415   6.249   0.613  0.3699 -0.0677  0.5064
 1524ntf    fn413671   0.221   6.227   0.598 -0.0559 -0.1566 -0.1988
 1524ntf    fn413672   0.093   6.110   0.478  0.1971 -0.2464  0.0608
 1524ntf    fn413673   0.068   6.316   0.478  0.2113  0.1564 -0.1035
 1524ntf    on513674   0.010   6.098   0.769 -0.1779  0.3885  0.3902
 1524ntf    on513675  -0.006   6.344   0.759  0.1239 -0.0132  0.1386
 1524ntf    on513676  -0.318   6.060   0.489  0.3263  0.3740 -0.0498
 1524ntf    on513677  -0.321   6.042   0.738 -0.2116 -0.5935 -0.0530
 1524ntf    fn413678  -0.411   6.319   0.725  0.6359  0.3555  0.2401
 1524ntf    fn413679  -0.539   6.205   0.601  0.2640  0.3584 -0.0366
 1524ntf    fn413680  -0.398   6.327   0.507 -0.4971  0.1770  0.5372
 1525ntf    cn113681   2.040   2.208   5.639  0.0385 -0.0013 -0.1210
 1525ntf    sn213682   2.168   2.125   5.541  0.0594 -0.0820 -0.0257
 1525ntf    nn313683   2.239   2.254   5.488 -0.4276  0.1472 -0.1233
 1525ntf    sn213684   2.376   2.318   5.532 -0.1694 -0.1935 -0.4206
 1525ntf    cn113685   2.358   2.489   5.473  0.0818  0.1298  0.4187
 1525ntf    fn413686   1.941   2.254   5.564 -0.0203 -0.2626 -0.2070
 1525ntf    fn413687   1.982   2.125   5.724 -0.0123  0.1148 -0.0423
 1525ntf    fn413688   2.083   2.306   5.716  0.1332 -0.5078  0.4767
 1525ntf    on513689   2.243   2.034   5.624  0.5181 -0.1196 -0.4769
 1525ntf    on513690   2.085   2.072   5.435 -0.4295  0.3459  0.1419
 1525ntf    on513691   2.388   2.342   5.674 -0.1540 -0.5128 -0.3675
 1525ntf    on513692   2.489   2.268   5.459 -0.0319  0.0613 -0.3838
 1525ntf    fn413693   2.389   2.508   5.345  0.3383 -0.5083  0.3853
 1525ntf    fn413694   2.432   2.573   5.543  0.5878  0.1466 -0.1288
 1525ntf    fn413695   2.231   2.525   5.481 -0.1835 -0.5681 -0.4455
 1526ntf    cn113696   1.435   3.227   0.962 -0.4330  0.2175 -0.1041
 1526ntf    sn213697   1.586   3.243   0.861 -0.2577  0.0083  0.1216
 1526ntf    nn313698   1.673   3.326   0.962  0.0817 -0.1296 -0.0581
 1526ntf    sn213699   1.699   3.480   0.965 -0.0907 -0.0970 -0.1844
 1526ntf    cn113700   1.658   3.513   1.139 -0.6392  0.1616 -0.3603
 1526ntf    fn413701   1.460   3.163   1.075  0.2140  0.3548 -0.1616
 1526ntf    fn413702   1.394   3.348   0.997  0.2330  0.3880  0.1005
 1526ntf    fn413703   1.336   3.167   0.898 -0.0086  0.0406 -0.6050
 1526ntf    on513704   1.624   3.104   0.859 -0.2687  0.0045  0.1660
 1526ntf    on513705   1.534   3.303   0.740 -0.1937  0.0708  0.1251
 1526ntf    on513706   1.841   3.508   0.961 -0.1212  0.0207 -0.4580
 1526ntf    on513707   1.604   3.561   0.894  0.1097 -0.1059 -0.4631
 1526ntf    fn413708   1.533   3.483   1.171 -0.4586 -0.1017  0.1191
 1526ntf    fn413709   1.678   3.640   1.172  0.0057  0.1134 -0.5446
 1526ntf    fn413710   1.732   3.442   1.223 -0.7015  0.5138 -0.0058
 1527ntf    cn113711   2.532   2.643   1.341  0.2967  0.0160 -0.0790
 1527ntf    sn213712   2.533   2.688   1.165  0.0403  0.3697  0.0081
 1527ntf    nn313713   2.397   2.767   1.161 -0.1536  0.0786  0.6296
 1527ntf    sn213714   2.253   2.721   1.121 -0.0819  0.1317  0.3019
 1527ntf    cn113715   2.271   2.726   0.940 -0.2334  0.4948  0.2973
 1527ntf    fn413716   2.551   2.752   1.414  0.0018 -0.2200  0.3543
 1527ntf    fn413717   2.425   2.576   1.381 -0.0085  0.1620 -0.6357
 1527ntf    fn413718   2.639   2.570   1.366  0.0548 -0.5318 -0.6005
 1527ntf    on513719   2.645   2.778   1.162 -0.1500  0.5958 -0.3628
 1527ntf    on513720   2.543   2.566   1.088 -0.0611  0.0650  0.4755
 1527ntf    on513721   2.222   2.584   1.157  0.8368 -0.1292  0.1248
 1527ntf    on513722   2.148   2.818   1.141  0.3210  0.6013  0.1612
 1527ntf    fn413723   2.157   2.700   0.879  0.2966  0.1343 -0.5502
 1527ntf    fn413724   2.362   2.645   0.890 -0.9248  0.2388 -0.5548
 1527ntf    fn413725   2.301   2.848   0.897  0.2274  0.4085  0.3683
 1528ntf    cn113726   6.173   3.279   1.879  0.0162 -0.0253 -0.0057
 1528ntf    sn213727   6.050   3.145   1.887 -0.0738  0.0377 -0.3449
 1528ntf    nn313728   6.006   3.169   2.035 -0.2104 -0.3024 -0.3305
 1528ntf    sn213729   5.868   3.228   2.081  0.1238  0.2170  0.0143
 1528ntf    cn113730   5.759   3.085   2.104  0.5392 -0.1270 -0.1562
 1528ntf    fn413731   6.242   3.269   1.992  0.0284 -0.5206 -0.0540
 1528ntf    fn413732   6.253   3.266   1.774  0.1771  0.0182  0.1112
 1528ntf    fn413733   6.122   3.400   1.877  0.1102  0.0102 -0.4070
 1528ntf    on513734   5.947   3.156   1.787 -0.2986 -0.1304 -0.1315
 1528ntf    on513735   6.135   3.029   1.872  0.2472  0.2319 -0.0514
 1528ntf    on513736   5.876   3.290   2.211  0.1068  0.1422  0.0506
 1528ntf    on513737   5.797   3.301   1.978  0.0269  0.0690 -0.0235
 1528ntf    fn413738   5.766   3.008   1.997 -0.4853 -0.1830 -0.1891
 1528ntf    fn413739   5.630   3.109   2.118  0.4937 -0.0150 -0.7403
 1528ntf    fn413740   5.800   3.007   2.204  0.0597  0.2259  0.3197
 1529ntf    cn113741   2.169   3.108   1.889 -0.1560 -0.1360  0.1098
 1529ntf    sn213742   2.009   3.170   1.949 -0.0291  0.1194  0.1891
 1529ntf    nn313743   2.034   3.139   2.100  0.1965  0.2808  0.1857
 1529ntf    sn213744   1.964   3.201   2.226 -0.0790  0.0886  0.1278
 1529ntf    cn113745   2.112   3.278   2.297  0.1319  0.0561 -0.2756
 1529ntf    fn413746   2.275   3.151   1.956 -0.1267  0.3752 -0.2498
 1529ntf    fn413747   2.191   2.979   1.871  0.2989 -0.0022 -0.3187
 1529ntf    fn413748   2.185   3.145   1.762  0.1564  0.1801  0.2395
 1529ntf    on513749   2.010   3.309   1.910 -1.4258 -0.0096 -0.3640
 1529ntf    on513750   1.914   3.083   1.883  0.6501 -0.5807  0.1247
 1529ntf    on513751   1.878   3.315   2.206 -0.1995 -0.0074  0.0970
 1529ntf    on513752   1.934   3.113   2.337  0.6509  0.0426  0.2899
 1529ntf    fn413753   2.213   3.193   2.303  0.2410  0.1681 -0.4974
 1529ntf    fn413754   2.087   3.326   2.418 -0.0878 -0.3341 -0.1678
 1529ntf    fn413755   2.159   3.379   2.226  0.3581  0.1405 -0.0090
 1530ntf    cn113756   1.227   3.503   1.990 -0.1078  0.5866  0.1611
 1530ntf    sn213757   1.274   3.497   2.165  0.1474 -0.1283  0.0736
 1530ntf    nn313758   1.371   3.621   2.170  0.3705 -0.2947 -0.1537
 1530ntf    sn213759   1.372   3.735   2.277  0.3405 -0.2815 -0.1672
 1530ntf    cn113760   1.267   3.863   2.202  0.5121 -0.1445 -0.1751
 1530ntf    fn413761   1.149   3.605   1.958  0.3525  0.7976 -0.3024
 1530ntf    fn413762   1.326   3.505   1.902 -0.5530 -0.3411 -0.3719
 1530ntf    fn413763   1.160   3.394   1.957  0.0646  0.5535 -0.0839
 1530ntf    on513764   1.144   3.503   2.228  0.1494 -0.4629  0.1095
 1530ntf    on513765   1.354   3.378   2.161  0.5074  0.1068  0.2069
 1530ntf    on513766   1.305   3.709   2.401  0.4608 -0.3417 -0.1145
 1530ntf    on513767   1.500   3.803   2.275 -0.0352  0.4231 -0.5809
 1530ntf    fn413768   1.310   3.908   2.085 -0.2510 -0.0186 -0.4119
 1530ntf    fn413769   1.270   3.968   2.284 -0.3402  0.1335 -0.4922
 1530ntf    fn413770   1.138   3.834   2.196  0.4655  0.1535 -0.6418
 1531ntf    cn113771   1.140   0.132   1.010 -0.1482  0.4178  0.1860
 1531ntf    sn213772   1.285   0.075   1.104 -0.3228 -0.0423  0.1817
 1531ntf    nn313773   1.226   0.116   1.243 -0.2734  0.6116  0.0138
 1531ntf    sn213774   1.285   0.205   1.359  0.0885  0.1852  0.1614
 1531ntf    cn113775   1.355   0.075   1.465  0.0539 -0.3160 -0.4231
 1531ntf    fn413776   1.042   0.047   1.040 -0.0389  0.2136 -0.0287
 1531ntf    fn413777   1.094   0.253   1.038 -0.4395  0.3407  0.0519
 1531ntf    fn413778   1.160   0.128   0.879  0.6703  0.4864  0.3036
 1531ntf    on513779   1.293  -0.066   1.075  0.8825  0.1131 -0.2924
 1531ntf    on513780   1.388   0.163   1.053 -0.1005 -0.0534  0.6089
 1531ntf    on513781   1.395   0.294   1.330  0.3040 -0.0714  0.1875
 1531ntf    on513782   1.180   0.259   1.442  0.1928  0.2227  0.2685
 1531ntf    fn413783   1.265   0.001   1.525 -0.2984  0.4170 -0.0337
 1531ntf    fn413784   1.414   0.136   1.567 -0.0537 -0.1283 -0.4724
 1531ntf    fn413785   1.440  -0.008   1.406  0.3402 -0.2932 -0.0470
 1532ntf    cn113786   0.164   4.760   6.083 -0.2682  0.4671  0.0301
 1532ntf    sn213787   0.312   4.675   6.143 -0.4616  0.1080  0.0054
 1532ntf    nn313788   0.337   4.578   6.022 -0.1374 -0.1836  0.2995
 1532ntf    sn213789   0.441   4.584   5.904 -0.4485 -0.2293  0.0224
 1532ntf    cn113790   0.553   4.449   5.952 -0.1186  0.1158  0.2213
 1532ntf    fn413791   0.181   4.811   5.962  0.2820 -0.2248 -0.1879
 1532ntf    fn413792   0.059   4.680   6.069 -0.4007  0.5411  0.5736
 1532ntf    fn413793   0.124   4.859   6.161 -0.2355  0.8791 -0.4728
 1532ntf    on513794   0.401   4.787   6.160 -0.2748  0.0695 -0.6788
 1532ntf    on513795   0.263   4.604   6.258  0.7392 -0.4099  0.2220
 1532ntf    on513796   0.388   4.542   5.776 -0.1410  0.9462 -0.5043
 1532ntf    on513797   0.528   4.698   5.900 -0.0917 -0.5186 -0.6107
 1532ntf    fn413798   0.498   4.333   5.984  0.5166 -0.0253  0.8277
 1532ntf    fn413799   0.624   4.475   6.061 -0.0171 -0.4400  0.2916
 1532ntf    fn413800   0.650   4.424   5.866  0.1213  0.3154  0.4338
 1533ntf    cn113801   6.393   2.200   4.211  0.0637 -0.0734  0.1509
 1533ntf    sn213802   6.538   2.107   4.151 -0.0778 -0.1983 -0.0003
 1533ntf    nn313803   6.657   2.204   4.179 -0.4918  0.2192  0.3280
 1533ntf    sn213804   6.731   2.228   4.316  0.0300 -0.1766  0.1176
 1533ntf    cn113805   6.867   2.109   4.293  0.0169 -0.1749  0.0304
 1533ntf    fn413806   6.379   2.313   4.143 -0.0325 -0.2984 -0.2083
 1533ntf    fn413807   6.282   2.129   4.203  0.1576 -0.2033 -0.0118
 1533ntf    fn413808   6.403   2.234   4.338  0.5734 -0.1433  0.1311
 1533ntf    on513809   6.543   1.980   4.219  0.5234 -0.2118 -0.0679
 1533ntf    on513810   6.508   2.106   4.010 -0.1390 -0.2437  0.0132
 1533ntf    on513811   6.797   2.355   4.303 -0.7374  0.2233  0.0747
 1533ntf    on513812   6.661   2.190   4.436 -0.2971 -0.3218 -0.1170
 1533ntf    fn413813   6.947   2.098   4.398  0.3600  0.2172 -0.1875
 1533ntf    fn413814   6.951   2.150   4.200  0.4177 -0.0864  0.4252
 1533ntf    fn413815   6.825   1.988   4.258  0.3602 -0.2585 -0.0910
 1534ntf    cn113816   4.826   5.291   6.118 -0.2733  0.2967  0.2536
 1534ntf    sn213817   4.738   5.364   5.977 -0.2356 -0.0822  0.0324
 1534ntf    nn313818   4.592   5.328   6.024 -0.3448  0.3439  0.0244
 1534ntf    sn213819   4.517   5.191   6.005 -0.3067  0.3425 -0.1172
 1534ntf    cn113820   4.365   5.228   6.097 -0.1319 -0.4584  0.4957
 1534ntf    fn413821   4.813   5.160   6.126  0.1843  0.2144 -0.2640
 1534ntf    fn413822   4.955   5.319   6.104 -0.1135 -0.4498  0.1559
 1534ntf    fn413823   4.786   5.344   6.233 -0.3929 -0.2978  0.4891
 1534ntf    on513824   4.760   5.506   5.979 -0.2873 -0.0739  0.0188
 1534ntf    on513825   4.788   5.292   5.863  0.3002 -0.0293  0.2352
 1534ntf    on513826   4.472   5.162   5.871 -0.4917 -0.4450  0.1143
 1534ntf    on513827   4.574   5.085   6.084  0.3400  0.6061 -0.2138
 1534ntf    fn413828   4.287   5.122   6.107 -0.3546 -0.3607 -0.1688
 1534ntf    fn413829   4.290   5.317   6.036  0.2413  0.1522  0.9187
 1534ntf    fn413830   4.378   5.272   6.221  0.1289  0.0029  0.3050
 1535ntf    cn113831   6.140   1.619   1.018  0.1402 -0.1302  0.0947
 1535ntf    sn213832   5.982   1.708   1.012  0.3370  0.1917 -0.3010
 1535ntf    nn313833   5.986   1.743   1.165 -0.2461 -0.4186 -0.1434
 1535ntf    sn213834   5.862   1.765   1.258 -0.2226  0.3685 -0.2869
 1535ntf    cn113835   5.906   1.927   1.327 -0.0567  0.4404 -0.5630
 1535ntf    fn413836   6.185   1.586   0.898 -0.4438 -0.6869  0.0227
 1535ntf    fn413837   6.237   1.687   1.078  0.3873  0.0871 -0.5354
 1535ntf    fn413838   6.121   1.501   1.075  0.0609  0.0234  0.3872
 1535ntf    on513839   6.006   1.811   0.913  0.2641 -0.1874 -0.7172
 1535ntf    on513840   5.886   1.607   0.974 -0.5468  0.9546 -0.1300
 1535ntf    on513841   5.741   1.802   1.190 -0.5688 -0.1757  0.0184
 1535ntf    on513842   5.854   1.685   1.379 -0.6366  0.1874 -0.4317
 1535ntf    fn413843   6.002   1.911   1.417 -0.2584 -0.1423 -0.4440
 1535ntf    fn413844   5.800   1.984   1.383 -0.2335 -0.6748  0.2712
 1535ntf    fn413845   5.954   2.013   1.239  0.0213  0.9489 -0.0341
 1536ntf    cn113846   6.022   3.653   0.988 -0.2839  0.2270 -0.2306
 1536ntf    sn213847   6.029   3.641   1.169  0.2708 -0.2770 -0.2832
 1536ntf    nn313848   6.165   3.563   1.179  0.5104  0.1578 -0.1305
 1536ntf    sn213849   6.200   3.425   1.246 -0.0190  0.1442  0.1278
 1536ntf    cn113850   6.160   3.310   1.111  0.1617 -0.1086  0.2889
 1536ntf    fn413851   5.893   3.667   0.964 -0.2110  0.3543 -0.5636
 1536ntf    fn413852   6.088   3.755   0.934  0.1423  0.5500  0.8639
 1536ntf    fn413853   6.047   3.545   0.916 -0.1712  0.4014 -0.4565
 1536ntf    on513854   6.046   3.778   1.208  0.1130 -0.2248 -0.3959
 1536ntf    on513855   5.905   3.570   1.195  0.1483  0.1457  0.3051
 1536ntf    on513856   6.340   3.403   1.272 -0.1530 -0.2735  0.5255
 1536ntf    on513857   6.115   3.381   1.354 -0.0376 -0.0454  0.0359
 1536ntf    fn413858   6.172   3.188   1.161  0.0946 -0.0206  0.5201
 1536ntf    fn413859   6.240   3.326   1.007  0.3107  0.0079  0.4191
 1536ntf    fn413860   6.036   3.331   1.069  0.1478  0.0074  0.3866
 1537ntf    cn113861   4.994   5.045   4.502  0.0289  0.3573  0.2955
 1537ntf    sn213862   5.080   4.903   4.575  0.0156  0.0039 -0.3647
 1537ntf    nn313863   5.184   4.979   4.664  0.0815 -0.5373  0.0274
 1537ntf    sn213864   5.338   5.009   4.645  0.0308 -0.2188  0.1023
 1537ntf    cn113865   5.414   4.896   4.766 -0.1072 -0.1632  0.2407
 1537ntf    fn413866   4.934   5.120   4.593 -0.4265 -0.1772  0.4342
 1537ntf    fn413867   5.073   5.123   4.430  0.0211 -0.1377 -0.2528
 1537ntf    fn413868   4.901   5.009   4.415  0.0429 -0.4459  0.6078
 1537ntf    on513869   4.979   4.838   4.655 -0.2769  0.6352 -0.2104
 1537ntf    on513870   5.130   4.829   4.462 -0.2972 -0.7944  0.0132
 1537ntf    on513871   5.402   4.976   4.520 -0.5739  0.0833 -0.2909
 1537ntf    on513872   5.377   5.139   4.692 -0.0273 -0.4151  0.7175
 1537ntf    fn413873   5.328   4.862   4.861 -0.1581  0.3948  0.3984
 1537ntf    fn413874   5.521   4.948   4.826 -0.5615  0.6067  0.4058
 1537ntf    fn413875   5.452   4.781   4.714 -0.0519 -0.1039  0.1501
 1538ntf    cn113876   6.604   4.595   4.766 -0.1515 -0.1881 -0.2099
 1538ntf    sn213877   6.653   4.619   4.593  0.1404 -0.1301 -0.1198
 1538ntf    nn313878   6.732   4.750   4.627 -0.2404  0.0952 -0.1084
 1538ntf    sn213879   6.729   4.885   4.547 -0.1124  0.2441  0.1354
 1538ntf    cn113880   6.883   4.961   4.607 -0.0608  0.0416  0.2582
 1538ntf    fn413881   6.516   4.688   4.802  0.0317  0.2086 -0.7724
 1538ntf    fn413882   6.541   4.479   4.779 -0.1134 -0.2324 -0.4324
 1538ntf    fn413883   6.702   4.616   4.853 -0.3406  0.0954 -0.0621
 1538ntf    on513884   6.738   4.503   4.577  0.1733 -0.1395  0.1149
 1538ntf    on513885   6.533   4.621   4.514 -0.1368 -0.3941  0.2870
 1538ntf    on513886   6.758   4.868   4.406  0.1290  0.2540  0.1827
 1538ntf    on513887   6.626   4.970   4.600 -0.5918 -0.1824 -0.1042
 1538ntf    fn413888   6.909   5.062   4.527 -1.1554  0.0559 -0.0933
 1538ntf    fn413889   6.984   4.875   4.606  0.0008  0.1187 -0.8247
 1538ntf    fn413890   6.871   5.005   4.731 -0.0089  0.3791  0.1437
 1539ntf    cn113891   6.103   6.372   3.773  0.1257  0.2365  0.2645
 1539ntf    sn213892   5.948   6.379   3.677  0.3019 -0.0307 -0.0404
 1539ntf    nn313893   5.995   6.285   3.560  0.3601  0.1535 -0.1661
 1539ntf    sn213894   5.918   6.247   3.429  0.0532  0.0416  0.0449
 1539ntf    cn113895   5.829   6.095   3.472 -0.2687  0.2951  0.2832
 1539ntf    fn413896   6.214   6.402   3.708 -0.0263  0.6551  0.1920
 1539ntf    fn413897   6.093   6.449   3.880 -0.3036  0.0752  0.3426
 1539ntf    fn413898   6.128   6.251   3.818 -0.0627  0.1316  0.0887
 1539ntf    on513899   5.846   6.320   3.759 -0.0224  0.1279 -0.3302
 1539ntf    on513900   5.936   6.519   3.646  0.1910  0.0408  0.3215
 1539ntf    on513901   5.811   6.337   3.392  0.2541  0.1478 -0.2800
 1539ntf    on513902   6.005   6.211   3.320  0.1099  0.4616 -0.0513
 1539ntf    fn413903   5.739   6.060   3.381  0.3197 -0.3001 -0.0783
 1539ntf    fn413904   5.771   6.100   3.591 -0.5984 -0.1274  0.1431
 1539ntf    fn413905   5.912   5.992   3.485 -0.3387  0.1691 -0.2708
 1540ntf    cn113906   4.133   1.316   2.795 -0.0408 -0.1454 -0.0250
 1540ntf    sn213907   4.265   1.440   2.806 -0.1114 -0.0832  0.1295
 1540ntf    nn313908   4.229   1.488   2.951  0.3370 -0.1907  0.2795
 1540ntf    sn213909   4.247   1.631   3.014 -0.3239 -0.0470  0.1471
 1540ntf    cn113910   4.316   1.584   3.176 -0.1889 -0.2208  0.0392
 1540ntf    fn413911   4.135   1.248   2.682  0.1000  0.0116 -0.1182
 1540ntf    fn413912   4.120   1.227   2.892 -0.8781  0.1639  0.1586
 1540ntf    fn413913   4.011   1.368   2.791  0.1821  0.3675 -0.3747
 1540ntf    on513914   4.380   1.353   2.796 -0.5966 -0.7039 -0.0926
 1540ntf    on513915   4.232   1.525   2.695  0.3601  0.0947  0.1201
 1540ntf    on513916   4.355   1.712   2.966  0.0464 -0.3047  0.5382
 1540ntf    on513917   4.124   1.701   3.044 -0.2931  0.3288 -0.5935
 1540ntf    fn413918   4.354   1.688   3.247 -0.2638 -0.0173 -0.2157
 1540ntf    fn413919   4.419   1.502   3.170 -0.2542 -0.2900 -0.1678
 1540ntf    fn413920   4.229   1.529   3.260 -0.2640 -0.3773 -0.1387
 1541ntf    cn113921   1.170   3.490   0.197 -0.1800 -0.1973 -0.1000
 1541ntf    sn213922   1.101   3.351   0.102 -0.2238  0.0564 -0.4433
 1541ntf    nn313923   1.142   3.229   0.192  0.0220  0.1490 -0.4288
 1541ntf    sn213924   1.280   3.155   0.180  0.0130  0.0631 -0.0096
 1541ntf    cn113925   1.317   3.148   0.358 -0.0934  0.0761  0.0128
 1541ntf    fn413926   1.181   3.602   0.126  0.0693 -0.0458  0.1754
 1541ntf    fn413927   1.101   3.517   0.307 -0.1584  0.3019 -0.2028
 1541ntf    fn413928   1.294   3.467   0.237 -0.1963 -0.6281 -0.2965
 1541ntf    on513929   0.958   3.366   0.096 -0.2431 -0.2284 -0.7094
 1541ntf    on513930   1.165   3.353  -0.027  0.0272 -0.3181 -0.3274
 1541ntf    on513931   1.269   3.014   0.154 -0.4188  0.0938  0.0081
 1541ntf    on513932   1.399   3.216   0.124 -0.4655  0.4003 -0.6719
 1541ntf    fn413933   1.405   3.052   0.380  0.0636  0.0069 -0.8840
 1541ntf    fn413934   1.206   3.115   0.423 -0.1080  0.5422  0.2331
 1541ntf    fn413935   1.354   3.264   0.411 -0.4848  0.2940 -0.1823
 1542ntf    cn113936   4.685   2.606   2.863 -0.1999 -0.3768  0.4658
 1542ntf    sn213937   4.849   2.668   2.910 -0.0788 -0.2288 -0.1512
 1542ntf    nn313938   4.828   2.655   3.065  0.4861  0.3033 -0.0247
 1542ntf    sn213939   4.807   2.767   3.173 -0.1624  0.2528 -0.0941
 1542ntf    cn113940   4.980   2.823   3.179 -0.2015  0.3522  0.1157
 1542ntf    fn413941   4.674   2.483   2.911 -0.1143 -0.5378  0.0781
 1542ntf    fn413942   4.588   2.678   2.916  0.0039  0.1415  0.1333
 1542ntf    fn413943   4.648   2.601   2.736  0.3370 -0.2955  0.3044
 1542ntf    on513944   4.928   2.560   2.856  0.3827 -0.0202  0.0992
 1542ntf    on513945   4.856   2.800   2.852  0.2506 -0.2435 -0.1496
 1542ntf    on513946   4.725   2.880   3.136 -0.2941  0.0918 -0.2952
 1542ntf    on513947   4.793   2.710   3.304  0.1346  0.4120  0.0069
 1542ntf    fn413948   5.020   2.869   3.061  0.2194 -0.3525 -0.0228
 1542ntf    fn413949   5.070   2.735   3.218 -0.8019 -0.1144  0.4564
 1542ntf    fn413950   4.988   2.923   3.266 -0.9123  0.4616  0.0676
 1543ntf    cn113951   3.914   1.141   3.770  0.1028  0.3413 -0.0544
 1543ntf    sn213952   4.011   1.255   3.874  0.3781  0.0589  0.0006
 1543ntf    nn313953   3.987   1.391   3.798  0.5345 -0.0750 -0.2910
 1543ntf    sn213954   4.066   1.523   3.827 -0.1596  0.2382  0.2225
 1543ntf    cn113955   4.164   1.541   3.675  0.0228  0.4769  0.3668
 1543ntf    fn413956   3.901   1.180   3.644  0.0325  0.1529 -0.1052
 1543ntf    fn413957   3.972   1.023   3.770 -0.3598  0.1107  0.4178
 1543ntf    fn413958   3.791   1.124   3.816  0.1335 -0.0547 -0.1228
 1543ntf    on513959   3.941   1.253   4.001  0.1531 -0.3658 -0.1280
 1543ntf    on513960   4.140   1.193   3.862  0.0423 -0.5710 -0.4332
 1543ntf    on513961   3.980   1.638   3.818 -0.0383  0.3506  0.4992
 1543ntf    on513962   4.163   1.521   3.933  0.0112  0.1765  0.0660
 1543ntf    fn413963   4.223   1.658   3.660  0.4456  0.2520  0.2429
 1543ntf    fn413964   4.072   1.528   3.580  0.3770  0.4335  0.0225
 1543ntf    fn413965   4.261   1.452   3.654 -0.1042  0.3879  0.1503
 1544ntf    cn113966   0.799   6.426   4.427 -0.0174 -0.2175 -0.1431
 1544ntf    sn213967   0.722   6.444   4.264 -0.3861 -0.0690  0.0456
 1544ntf    nn313968   0.841   6.517   4.190 -0.1785 -0.0607  0.3848
 1544ntf    sn213969   0.966   6.443   4.131 -0.1458  0.0225  0.3508
 1544ntf    cn113970   1.095   6.568   4.159 -0.0784  0.0118  0.0867
 1544ntf    fn413971   0.889   6.332   4.453  0.0055 -0.0657  0.3532
 1544ntf    fn413972   0.858   6.539   4.462  0.2513 -0.3346 -0.2178
 1544ntf    fn413973   0.708   6.403   4.521  0.0928 -0.4314 -0.0871
 1544ntf    on513974   0.688   6.308   4.229 -0.2964  0.0758 -0.6203
 1544ntf    on513975   0.617   6.536   4.299 -0.3830  0.0368 -0.2135
 1544ntf    on513976   1.014   6.330   4.207  0.2444 -0.1327 -0.1212
 1544ntf    on513977   0.981   6.431   3.988 -0.0636  0.2244  0.3417
 1544ntf    fn413978   1.212   6.520   4.118 -0.1077 -0.0119  0.0313
 1544ntf    fn413979   1.109   6.592   4.288 -0.5325  0.3571  0.0706
 1544ntf    fn413980   1.072   6.683   4.098  0.1005  0.2993  0.5550
 1545ntf    cn113981   1.668   2.183   5.368  0.2371 -0.0781  0.4861
 1545ntf    sn213982   1.628   2.009   5.402 -0.1177 -0.0808  0.0682
 1545ntf    nn313983   1.617   1.952   5.256  0.2706 -0.7976  0.3118
 1545ntf    sn213984   1.725   1.895   5.157  0.0244 -0.1001 -0.3686
 1545ntf    cn113985   1.709   1.714   5.169 -0.4922 -0.0206  0.2079
 1545ntf    fn413986   1.716   2.239   5.478  0.3882 -0.0900  0.4261
 1545ntf    fn413987   1.756   2.197   5.270 -0.2650  0.0479  0.0468
 1545ntf    fn413988   1.564   2.258   5.337  0.3013 -0.0085  0.4362
 1545ntf    on513989   1.740   1.958   5.478  0.1521 -0.6409 -0.6929
 1545ntf    on513990   1.502   1.999   5.471  0.0804 -1.0311  0.3035
 1545ntf    on513991   1.686   1.918   5.020  0.3015  0.1147 -0.4119
 1545ntf    on513992   1.862   1.929   5.187 -0.0963 -0.1049  0.2061
 1545ntf    fn413993   1.820   1.651   5.133 -0.2189  0.2430  0.5657
 1545ntf    fn413994   1.604   1.659   5.111 -0.2484  0.2731 -0.5196
 1545ntf    fn413995   1.694   1.685   5.298 -0.4044  0.3215  0.2971
 1546ntf    cn113996   5.800   6.376   2.251 -0.2584 -0.5471  0.1564
 1546ntf    sn213997   5.905   6.233   2.213  0.1281 -0.1381 -0.3209
 1546ntf    nn313998   5.795   6.124   2.186  0.2936 -0.3914  0.0230
 1546ntf    sn213999   5.748   6.009   2.282 -0.0145 -0.0111  0.3274
 1546ntf    cn114000   5.780   5.872   2.168  0.3567  0.3274  0.0228
 1546ntf    fn414001   5.747   6.391   2.371 -0.6091  0.6458 -0.1296
 1546ntf    fn414002   5.862   6.492   2.235 -0.1804 -0.5348  0.5505
 1546ntf    fn414003   5.691   6.382   2.176  0.0612  0.4401 -0.2547
 1546ntf    on514004   5.972   6.291   2.099 -0.1324  0.0402 -0.3846
 1546ntf    on514005   5.980   6.217   2.335 -0.1265 -0.7035 -0.2347
 1546ntf    on514006   5.834   5.980   2.393  0.0175 -0.5159  0.1713
 1546ntf    on514007   5.605   6.004   2.302 -0.0545 -0.4516 -0.0591
 1546ntf    fn414008   5.909   5.867   2.139  0.3952  0.0532  0.2394
 1546ntf    fn414009   5.707   5.879   2.058  0.2530  0.1252  0.0776
 1546ntf    fn414010   5.756   5.751   2.217 -0.2577  0.3479 -0.2130
 1547ntf    cn114011   5.895   6.498   0.178  0.0540  0.0983  0.3889
 1547ntf    sn214012   5.754   6.384   0.166  0.1714  0.0198 -0.2855
 1547ntf    nn314013   5.803   6.306   0.039 -0.1256 -0.0517 -0.3564
 1547ntf    sn214014   5.726   6.210  -0.059 -0.2392 -0.2933 -0.0344
 1547ntf    cn114015   5.836   6.065  -0.065 -0.1146 -0.1844 -0.3819
 1547ntf    fn414016   6.006   6.433   0.205  0.2133  0.2999  0.2224
 1547ntf    fn414017   5.918   6.556   0.061 -0.1591 -0.2006  0.1984
 1547ntf    fn414018   5.885   6.590   0.274 -0.3445  0.0979  0.3524
 1547ntf    on514019   5.756   6.304   0.287  0.0996  0.0114 -0.2898
 1547ntf    on514020   5.646   6.475   0.140 -0.2600 -0.4356 -0.1154
 1547ntf    on514021   5.605   6.154  -0.006  0.1522 -0.6716  0.4646
 1547ntf    on514022   5.737   6.248  -0.198  0.1233  0.4766  0.1974
 1547ntf    fn414023   5.870   6.027   0.057 -0.0364 -0.1834 -0.4040
 1547ntf    fn414024   5.948   6.092  -0.130  0.0216  0.1292 -0.0201
 1547ntf    fn414025   5.792   5.954  -0.121  0.3922 -0.2276 -0.6954
 1548ntf    cn114026   5.478   6.243   1.143  0.0810  0.1728  0.0215
 1548ntf    sn214027   5.310   6.223   1.077  0.0815 -0.0582  0.0881
 1548ntf    nn314028   5.330   6.148   0.941 -0.4224 -0.0947  0.0294
 1548ntf    sn214029   5.331   6.211   0.797  0.0056  0.3606  0.2261
 1548ntf    cn114030   5.467   6.122   0.718 -0.1555 -0.0713  0.4346
 1548ntf    fn414031   5.563   6.285   1.052 -0.0112  0.0707 -0.1108
 1548ntf    fn414032   5.485   6.331   1.242  0.4177  0.4528 -0.2542
 1548ntf    fn414033   5.531   6.130   1.187 -0.1690  0.1611  0.3041
 1548ntf    on514034   5.244   6.136   1.172  0.3213 -0.3086  0.0256
 1548ntf    on514035   5.266   6.361   1.071 -0.3596 -0.2360 -0.9390
 1548ntf    on514036   5.221   6.161   0.718  0.2712  0.2176 -0.0546
 1548ntf    on514037   5.358   6.352   0.778  0.5726  0.2527  0.2401
 1548ntf    fn414038   5.567   6.122   0.805  0.2194  0.1713  0.0106
 1548ntf    fn414039   5.507   6.185   0.609 -0.2840  0.5704  0.7581
 1548ntf    fn414040   5.437   5.997   0.685  0.7190 -0.0068 -0.6960
 1549ntf    cn114041   1.628   2.475   0.745 -0.1328 -0.2639  0.0819
 1549ntf    sn214042   1.657   2.349   0.617 -0.2341 -0.0807 -0.1239
 1549ntf    nn314043   1.810   2.326   0.640 -0.1368  0.1328 -0.5546
 1549ntf    sn214044   1.922   2.291   0.536  0.1237 -0.2465 -0.1520
 1549ntf    cn114045   2.006   2.452   0.532 -0.4682  0.0611 -0.3066
 1549ntf    fn414046   1.512   2.538   0.735 -0.1093 -0.3298 -0.7140
 1549ntf    fn414047   1.635   2.428   0.868 -0.0006  0.0718  0.2029
 1549ntf    fn414048   1.721   2.569   0.733 -0.7416  0.3502  0.1168
 1549ntf    on514049   1.579   2.236   0.663 -0.2594  0.1569  0.4225
 1549ntf    on514050   1.613   2.418   0.499  0.6127  0.0813 -0.3462
 1549ntf    on514051   2.024   2.204   0.588  0.4682  0.3222  0.1261
 1549ntf    on514052   1.882   2.257   0.401  0.4371 -0.5641 -0.1676
 1549ntf    fn414053   2.042   2.501   0.650  0.2145 -0.7217 -0.1799
 1549ntf    fn414054   1.927   2.547   0.486  0.1190  0.4457 -0.5306
 1549ntf    fn414055   2.110   2.450   0.451 -0.1389  0.6527  0.0955
 1550ntf    cn114056   5.876   2.338   0.190 -0.0027 -0.3766 -0.4065
 1550ntf    sn214057   5.883   2.262   0.355  0.2347 -0.0598 -0.2690
 1550ntf    nn314058   5.935   2.388   0.434  0.5706 -0.2531 -0.1811
 1550ntf    sn214059   6.012   2.393   0.570  0.5087 -0.2291 -0.1467
 1550ntf    cn114060   5.880   2.461   0.675  0.5046 -0.1688 -0.1908
 1550ntf    fn414061   5.842   2.253   0.095 -0.4294  0.1548 -0.7389
 1550ntf    fn414062   5.802   2.447   0.174  0.0234 -0.3744 -0.5140
 1550ntf    fn414063   5.997   2.382   0.158  0.1514 -0.1251  0.4989
 1550ntf    on514064   5.748   2.225   0.388  0.1489  0.3580 -0.1429
 1550ntf    on514065   5.981   2.157   0.339  0.5439  0.2529 -0.4467
 1550ntf    on514066   6.044   2.273   0.643  0.2043  0.0516  0.4526
 1550ntf    on514067   6.110   2.499   0.572  0.4944 -0.2141 -0.2353
 1550ntf    fn414068   5.767   2.394   0.667  0.3030  0.1878 -0.3588
 1550ntf    fn414069   5.852   2.587   0.649  0.4075 -0.1021  0.2435
 1550ntf    fn414070   5.921   2.460   0.801 -0.1588  0.2185  0.0325
 1551ntf    cn114071   2.577   1.024   3.210  0.2225  0.1916  0.0736
 1551ntf    sn214072   2.481   1.177   3.192  0.1738  0.1237 -0.2522
 1551ntf    nn314073   2.565   1.264   3.292  0.1188 -0.5017  0.3476
 1551ntf    sn214074   2.676   1.371   3.260 -0.1067 -0.2565  0.3912
 1551ntf    cn114075   2.583   1.528   3.265 -0.0991 -0.2365 -0.0426
 1551ntf    fn414076   2.517   0.934   3.134  0.1075  0.2577  0.0876
 1551ntf    fn414077   2.703   1.032   3.168  0.1286 -0.3218 -0.3077
 1551ntf    fn414078   2.571   0.976   3.333  0.4711 -0.1199 -0.0325
 1551ntf    on514079   2.481   1.216   3.053  0.2165  0.7996 -0.0628
 1551ntf    on514080   2.356   1.131   3.248  0.2886 -0.4171 -0.4355
 1551ntf    on514081   2.758   1.372   3.378 -0.1106 -0.7165  0.3981
 1551ntf    on514082   2.736   1.360   3.130 -0.5744 -0.5191  0.1935
 1551ntf    fn414083   2.511   1.544   3.156  0.0233 -0.0670 -0.0986
 1551ntf    fn414084   2.666   1.630   3.274  0.0422 -0.3627  0.0972
 1551ntf    fn414085   2.507   1.534   3.373 -0.1036  0.7789 -0.0913
 1552ntf    cn114086   4.106   3.942   6.641  0.3805 -0.0101  0.0934
 1552ntf    sn214087   4.139   4.042   6.790 -0.0789  0.0554  0.1538
 1552ntf    nn314088   4.217   4.168   6.738 -0.5373  0.1994 -0.1863
 1552ntf    sn214089   4.207   4.323   6.762 -0.0780  0.2318 -0.1991
 1552ntf    cn114090   4.382   4.369   6.751  0.2445 -0.8242  0.3998
 1552ntf    fn414091   4.205   3.915   6.557  0.0563 -0.5063 -0.1302
 1552ntf    fn414092   4.053   3.825   6.673  0.3028  0.0931  0.3470
 1552ntf    fn414093   4.025   4.013   6.564 -0.0856 -0.0882  0.5106
 1552ntf    on514094   4.000   4.055   6.824 -0.0635  0.0139  0.2323
 1552ntf    on514095   4.219   3.946   6.862  0.2580 -0.1262 -0.4492
 1552ntf    on514096   4.140   4.395   6.657  0.3812  0.2484 -0.4829
 1552ntf    on514097   4.181   4.357   6.899 -0.3247 -0.7579  0.0114
 1552ntf    fn414098   4.446   4.305   6.848  0.7185  0.4417  0.9417
 1552ntf    fn414099   4.397   4.500   6.767  0.0983 -0.7404 -0.1439
 1552ntf    fn414100   4.437   4.340   6.634  0.0553 -0.0506  0.1148
 1553ntf    cn114101   2.621   2.577   3.756  0.0680 -0.2853 -0.1128
 1553ntf    sn214102   2.515   2.646   3.625  0.1276 -0.0146 -0.0204
 1553ntf    nn314103   2.417   2.523   3.614 -0.1077  0.1328  0.3957
 1553ntf    sn214104   2.458   2.382   3.557 -0.0591  0.1664  0.3469
 1553ntf    cn114105   2.394   2.417   3.391 -0.1463  0.1608  0.3790
 1553ntf    fn414106   2.738   2.535   3.708  0.3879  0.0469  0.3673
 1553ntf    fn414107   2.662   2.668   3.843 -0.1633 -0.1483 -0.1463
 1553ntf    fn414108   2.571   2.478   3.828 -0.5094  0.2368  0.2133
 1553ntf    on514109   2.451   2.758   3.689  0.0274  0.0353 -0.2073
 1553ntf    on514110   2.601   2.677   3.514  0.2879  0.7829  0.3266
 1553ntf    on514111   2.595   2.348   3.531 -0.3222 -0.4686 -0.2179
 1553ntf    on514112   2.369   2.277   3.598 -0.2713  0.0231 -0.4676
 1553ntf    fn414113   2.444   2.524   3.331  0.1681 -0.1470  0.0847
 1553ntf    fn414114   2.264   2.440   3.387 -0.1333  0.1288 -0.4010
 1553ntf    fn414115   2.414   2.317   3.307  0.1236  0.6743 -0.1863
 1554ntf    cn114116   1.601   4.620   4.394 -0.0243  0.3314 -0.5776
 1554ntf    sn214117   1.508   4.718   4.272 -0.4444  0.4207 -0.1892
 1554ntf    nn314118   1.458   4.838   4.361 -0.2122  0.2055  0.2330
 1554ntf    sn214119   1.538   4.969   4.393 -0.0038  0.1855 -0.1920
 1554ntf    cn114120   1.400   5.077   4.344  0.1842  0.1650 -0.7693
 1554ntf    fn414121   1.713   4.676   4.436 -0.0383 -0.2420  0.2451
 1554ntf    fn414122   1.525   4.597   4.501  0.0497  0.4855 -0.4918
 1554ntf    fn414123   1.642   4.501   4.353  0.4754  0.5132 -0.6085
 1554ntf    on514124   1.611   4.738   4.174 -0.0020 -0.0243  0.1810
 1554ntf    on514125   1.397   4.639   4.227 -0.1991  0.2287 -0.4563
 1554ntf    on514126   1.559   4.992   4.534 -0.1350 -0.3866 -0.0760
 1554ntf    on514127   1.650   5.013   4.314  0.1819 -0.0164 -0.0423
 1554ntf    fn414128   1.338   5.026   4.239 -0.1331 -0.5721 -0.2362
 1554ntf    fn414129   1.427   5.203   4.315  0.2404  0.2389 -0.4067
 1554ntf    fn414130   1.305   5.075   4.437  0.4791 -0.5076 -0.4767
 1555ntf    cn114131   5.439   5.643   5.689 -0.0673  0.0542 -0.0534
 1555ntf    sn214132   5.292   5.745   5.720  0.0870  0.1598  0.3403
 1555ntf    nn314133   5.354   5.885   5.750 -0.0727  0.3463 -0.1872
 1555ntf    sn214134   5.359   5.956   5.890 -0.3725  0.3371 -0.1710
 1555ntf    cn114135   5.246   6.096   5.861 -0.4685  0.2360 -0.2837
 1555ntf    fn414136   5.423   5.513   5.712  0.1880  0.0431  0.0612
 1555ntf    fn414137   5.484   5.649   5.565 -0.0081  0.4761 -0.0106
 1555ntf    fn414138   5.538   5.684   5.767 -0.0448  0.1427 -0.1285
 1555ntf    on514139   5.230   5.761   5.591  0.7239 -0.2578 -0.0231
 1555ntf    on514140   5.225   5.667   5.822  0.3298 -0.5125 -0.0051
 1555ntf    on514141   5.301   5.888   6.003 -0.5872  0.5887 -0.1287
 1555ntf    on514142   5.491   6.014   5.896 -0.2901  0.1648 -0.2992
 1555ntf    fn414143   5.257   6.135   5.735 -0.9008 -0.0562 -0.4133
 1555ntf    fn414144   5.266   6.200   5.940 -0.6795 -0.1462  0.2826
 1555ntf    fn414145   5.122   6.059   5.886 -0.2308 -0.3744  0.0381
 1556ntf    cn114146   1.146   3.312   5.446  0.2132 -0.6007 -0.2337
 1556ntf    sn214147   1.155   3.397   5.285 -0.2921  0.1618  0.1341
 1556ntf    nn314148   1.285   3.324   5.235  0.0011  0.9584 -0.2844
 1556ntf    sn214149   1.433   3.355   5.276  0.1623  0.2053 -0.2706
 1556ntf    cn114150   1.493   3.470   5.148  0.2141  0.0191 -0.4144
 1556ntf    fn414151   1.240   3.357   5.528 -0.3384 -0.0456  0.0935
 1556ntf    fn414152   1.041   3.348   5.517  0.3779 -0.1423 -0.2160
 1556ntf    fn414153   1.169   3.182   5.451  0.0509 -0.6267 -0.1757
 1556ntf    on514154   1.043   3.362   5.201  0.1048 -0.6773 -0.0539
 1556ntf    on514155   1.174   3.538   5.308 -0.4536  0.1949  0.0660
 1556ntf    on514156   1.447   3.433   5.397 -0.5796  0.2775 -0.2279
 1556ntf    on514157   1.518   3.239   5.268  0.2435  0.1929  0.6919
 1556ntf    fn414158   1.407   3.566   5.116  0.1883  0.1296 -0.0143
 1556ntf    fn414159   1.526   3.404   5.038  0.1548 -0.0954 -0.3631
 1556ntf    fn414160   1.597   3.543   5.185 -0.1628 -0.1081  0.9348
 1557ntf    cn114161   4.471   0.366   6.150 -0.2160 -0.2482 -0.0249
 1557ntf    sn214162   4.463   0.347   6.331  0.0284 -0.1059  0.0020
 1557ntf    nn314163   4.375   0.468   6.375 -0.0444 -0.0233 -0.3641
 1557ntf    sn214164   4.417   0.601   6.448 -0.2827 -0.0942 -0.0937
 1557ntf    cn114165   4.385   0.553   6.621 -0.2872 -0.0613 -0.0854
 1557ntf    fn414166   4.348   0.378   6.103 -0.1539  0.3355 -0.0392
 1557ntf    fn414167   4.541   0.469   6.106 -0.4387 -0.0656  0.0468
 1557ntf    fn414168   4.525   0.263   6.087  0.5759  0.2072 -0.1089
 1557ntf    on514169   4.383   0.228   6.346  0.1842 -0.0909  0.9970
 1557ntf    on514170   4.598   0.343   6.383  0.0433 -0.8166 -0.0816
 1557ntf    on514171   4.556   0.638   6.439 -0.4985  0.7342 -0.0505
 1557ntf    on514172   4.324   0.708   6.428  0.2277  0.3926  0.1063
 1557ntf    fn414173   4.327   0.436   6.637 -0.2845 -0.1115 -0.4388
 1557ntf    fn414174   4.315   0.646   6.684 -0.2734  0.0097 -0.1748
 1557ntf    fn414175   4.499   0.548   6.689 -0.0339  0.5083 -0.4601
 1558ntf    cn114176   0.208   3.008   0.495  0.0399  0.2364  0.0541
 1558ntf    sn214177   0.042   2.951   0.447 -0.0196  0.3083  0.1738
 1558ntf    nn314178  -0.052   3.063   0.504  0.0770  0.4710  0.0142
 1558ntf    sn214179  -0.128   3.062   0.642  0.0470 -0.2007 -0.0042
 1558ntf    cn114180  -0.291   2.999   0.589  0.0540 -0.2348  0.0129
 1558ntf    fn414181   0.293   2.907   0.490 -0.3678 -0.0986 -0.1730
 1558ntf    fn414182   0.252   3.112   0.426  0.3554 -0.5939 -1.0287
 1558ntf    fn414183   0.197   3.041   0.623 -0.0911 -0.2103  0.1609
 1558ntf    on514184   0.044   2.963   0.303 -0.0260  0.3080  0.1737
 1558ntf    on514185   0.040   2.816   0.499  0.1637  0.2962  0.1513
 1558ntf    on514186  -0.081   2.978   0.749  0.3919  0.6007  0.4768
 1558ntf    on514187  -0.165   3.197   0.676 -0.0683 -0.2828  0.1988
 1558ntf    fn414188  -0.375   2.971   0.687  0.0077 -0.5128 -0.1067
 1558ntf    fn414189  -0.277   2.879   0.535  0.0274 -0.0283 -0.4503
 1558ntf    fn414190  -0.354   3.081   0.507  0.0014 -0.0713  0.2144
 1559ntf    cn114191   2.833   2.470   4.158 -0.2928  0.0184 -0.0746
 1559ntf    sn214192   2.713   2.372   4.252 -0.1465  0.0119  0.1067
 1559ntf    nn314193   2.766   2.395   4.398  0.6320  0.6615 -0.2760
 1559ntf    sn214194   2.722   2.510   4.495  0.0429  0.0499  0.1883
 1559ntf    cn114195   2.565   2.436   4.549 -0.1778  0.0077 -0.5033
 1559ntf    fn414196   2.853   2.592   4.206  0.1737 -0.1772  0.2314
 1559ntf    fn414197   2.953   2.415   4.156  0.0153  0.6432  0.5440
 1559ntf    fn414198   2.806   2.489   4.030 -0.0979  0.1563 -0.0947
 1559ntf    on514199   2.587   2.438   4.228  0.0490  0.2297 -0.3176
 1559ntf    on514200   2.725   2.238   4.200  0.1744 -0.0161  0.2541
 1559ntf    on514201   2.808   2.511   4.610 -0.4211 -0.3574  0.5410
 1559ntf    on514202   2.697   2.639   4.436  0.0726  0.0844  0.2508
 1559ntf    fn414203   2.492   2.527   4.610  0.3312  0.0209  0.0924
 1559ntf    fn414204   2.582   2.346   4.645  0.0272 -0.0288 -0.5740
 1559ntf    fn414205   2.496   2.381   4.449 -0.0765  0.0519 -0.5974
 1560ntf    cn114206   0.833   2.586   0.376  0.3197  0.1021 -0.2177
 1560ntf    sn214207   0.969   2.549   0.492  0.2236 -0.0786 -0.1615
 1560ntf    nn314208   0.971   2.681   0.578 -1.1316  0.2027 -0.5321
 1560ntf    sn214209   0.877   2.721   0.697 -0.1755  0.3970  0.1720
 1560ntf    cn114210   0.971   2.681   0.847 -0.1354 -0.0304  0.0351
 1560ntf    fn414211   0.837   2.708   0.325 -0.2138  0.2579  0.1102
 1560ntf    fn414212   0.843   2.497   0.278  0.1650 -0.5217  0.3263
 1560ntf    fn414213   0.718   2.577   0.439  0.4988 -0.1140  0.0824
 1560ntf    on514214   0.920   2.426   0.548 -0.2266  0.3893  0.4839
 1560ntf    on514215   1.079   2.540   0.399  0.4141  0.2397  0.0311
 1560ntf    on514216   0.860   2.864   0.691  0.0407  0.3940 -0.6330
 1560ntf    on514217   0.754   2.644   0.705 -0.0384  0.1508 -0.0489
 1560ntf    fn414218   1.064   2.771   0.873 -0.4023  0.2396  0.0576
 1560ntf    fn414219   1.039   2.568   0.836  0.3048  0.2254  0.0767
 1560ntf    fn414220   0.897   2.676   0.956  0.0899  0.0435  0.1923
 1561ntf    cn114221   3.001   5.956   2.625 -0.3779  0.3438  0.0675
 1561ntf    sn214222   3.136   5.947   2.504 -0.2810  0.4480  0.1684
 1561ntf    nn314223   3.049   5.937   2.374  0.0523  0.2685 -0.0430
 1561ntf    sn214224   3.109   5.940   2.229  0.0258  0.0628 -0.0578
 1561ntf    cn114225   3.103   5.760   2.203  0.2943  0.0299  0.1039
 1561ntf    fn414226   3.044   5.977   2.748  0.1248 -0.2143 -0.0111
 1561ntf    fn414227   2.926   6.061   2.599 -0.0179  0.7328  0.5916
 1561ntf    fn414228   2.930   5.844   2.631  0.1626 -0.0032  0.0487
 1561ntf    on514229   3.203   6.072   2.531  0.0639  0.2570  0.2024
 1561ntf    on514230   3.204   5.826   2.545  0.0308  0.5048 -0.1776
 1561ntf    on514231   3.013   5.989   2.133 -0.2786 -0.0484  0.1847
 1561ntf    on514232   3.246   5.974   2.201 -0.1052  1.0412  0.4478
 1561ntf    fn414233   2.980   5.714   2.183  0.2957 -0.0763  0.3356
 1561ntf    fn414234   3.158   5.691   2.302  0.2214  0.0525  0.1606
 1561ntf    fn414235   3.169   5.718   2.096  0.5232 -0.4822  0.4407
 1562ntf    cn114236   4.525   4.268   3.092 -0.3089  0.1131 -0.3639
 1562ntf    sn214237   4.522   4.414   3.202  0.4762  0.1389 -0.3709
 1562ntf    nn314238   4.674   4.455   3.208  0.5927 -0.3464  0.0739
 1562ntf    sn214239   4.750   4.564   3.125 -0.0709  0.0655  0.0028
 1562ntf    cn114240   4.691   4.715   3.206 -0.3617 -0.0639  0.0341
 1562ntf    fn414241   4.553   4.305   2.968 -0.0901 -0.1287 -0.3885
 1562ntf    fn414242   4.611   4.178   3.136 -1.2439 -0.4108  0.4255
 1562ntf    fn414243   4.409   4.208   3.072 -0.4437  0.2895 -0.1161
 1562ntf    on514244   4.430   4.506   3.141  0.1997 -0.0969 -0.3070
 1562ntf    on514245   4.473   4.350   3.321 -0.1002 -0.0954 -0.7279
 1562ntf    on514246   4.891   4.569   3.151 -0.0144  0.4279 -0.3515
 1562ntf    on514247   4.701   4.588   2.991  0.3532 -0.1425 -0.1884
 1562ntf    fn414248   4.560   4.730   3.214 -0.3856 -0.3892  0.2668
 1562ntf    fn414249   4.742   4.825   3.153  0.0665 -0.3332 -0.1109
 1562ntf    fn414250   4.730   4.710   3.333  0.0897  0.2188 -0.0897
 1563ntf    cn114251   3.896   0.426   6.028 -0.0555  0.0681  0.0392
 1563ntf    sn214252   3.811   0.549   6.132 -0.1295 -0.2398  0.3475
 1563ntf    nn314253   3.666   0.526   6.077  0.0476 -0.2094 -0.1381
 1563ntf    sn214254   3.569   0.636   6.021  0.1820  0.0992  0.2359
 1563ntf    cn114255   3.633   0.631   5.851 -0.1500  0.0558  0.1115
 1563ntf    fn414256   3.820   0.317   6.028  0.6267 -0.4115  0.3235
 1563ntf    fn414257   3.912   0.458   5.901 -0.5575 -0.0082 -0.0462
 1563ntf    fn414258   4.017   0.404   6.077 -0.1290  0.4016  0.3763
 1563ntf    on514259   3.822   0.504   6.268  0.6931  0.1652  0.4225
 1563ntf    on514260   3.881   0.672   6.104 -0.2103 -0.2220  0.2236
 1563ntf    on514261   3.435   0.585   6.007  0.1999  0.1504 -0.1238
 1563ntf    on514262   3.589   0.772   6.066  0.0016  0.1845  0.0603
 1563ntf    fn414263   3.636   0.506   5.807 -0.5565 -0.0473  0.3680
 1563ntf    fn414264   3.756   0.680   5.841 -0.4941  0.9372  0.1380
 1563ntf    fn414265   3.559   0.692   5.760  0.4199  0.8293  0.1630
 1564ntf    cn114266   0.454   6.116   0.262 -0.1723 -0.0497 -0.3745
 1564ntf    sn214267   0.407   6.200   0.108  0.2076  0.3142 -0.2953
 1564ntf    nn314268   0.526   6.302   0.104  0.4443  0.0400 -0.3069
 1564ntf    sn214269   0.524   6.452   0.058 -0.0471  0.1156 -0.0519
 1564ntf    cn114270   0.701   6.467   0.020 -0.0361  0.0486 -0.0266
 1564ntf    fn414271   0.577   6.066   0.266 -0.2948 -0.3243  0.0162
 1564ntf    fn414272   0.441   6.202   0.362  0.3138 -0.0052 -0.3445
 1564ntf    fn414273   0.370   6.016   0.281  0.6555 -0.6256  0.3406
 1564ntf    on514274   0.431   6.094   0.012  0.7035  0.1296  0.0290
 1564ntf    on514275   0.280   6.262   0.135  0.2630  0.0016  0.6994
 1564ntf    on514276   0.462   6.478  -0.070  0.7077 -0.7527 -0.6046
 1564ntf    on514277   0.506   6.546   0.166 -0.4271  0.0390 -0.0471
 1564ntf    fn414278   0.782   6.442   0.121  0.1334 -0.5253 -0.3017
 1564ntf    fn414279   0.729   6.593  -0.007  0.1305  0.0190  0.0077
 1564ntf    fn414280   0.736   6.384  -0.076 -0.0731  0.4752 -0.4122
 1565ntf    cn114281   5.806   5.856   0.602  0.3944  0.4532 -0.2577
 1565ntf    sn214282   5.806   5.676   0.626  0.1478  0.4635 -0.1679
 1565ntf    nn314283   5.936   5.642   0.545 -0.0138  0.1831 -0.3114
 1565ntf    sn214284   6.052   5.538   0.570 -0.2434  0.0549  0.2315
 1565ntf    cn114285   6.154   5.652   0.669 -0.1819  0.2946 -0.1038
 1565ntf    fn414286   5.732   5.919   0.692  0.2752  0.3528 -0.2849
 1565ntf    fn414287   5.928   5.905   0.611  0.4299  0.3208  0.0092
 1565ntf    fn414288   5.759   5.881   0.481 -0.5539 -0.9313 -0.1977
 1565ntf    on514289   5.811   5.655   0.769  0.0760 -0.3340 -0.2767
 1565ntf    on514290   5.686   5.642   0.554  0.1391  0.1461 -0.0052
 1565ntf    on514291   6.013   5.426   0.652  0.5464 -0.4123 -0.0266
 1565ntf    on514292   6.135   5.513   0.455  0.1119 -0.2115  0.5450
 1565ntf    fn414293   6.196   5.760   0.606  0.3253 -0.0684 -0.4012
 1565ntf    fn414294   6.257   5.591   0.725 -0.1417  0.2517 -0.2227
 1565ntf    fn414295   6.091   5.697   0.776  0.3742 -0.2895  0.4783
 1566ntf    cn114296   1.687   0.924   0.390 -0.0846  0.0649  0.0839
 1566ntf    sn214297   1.800   0.789   0.345 -0.0665  0.0615  0.1391
 1566ntf    nn314298   1.924   0.860   0.279  0.2337 -0.1965  0.4286
 1566ntf    sn214299   2.007   0.828   0.150 -0.1750 -0.4352  0.2237
 1566ntf    cn114300   1.935   0.947   0.033  0.0365 -0.3039  0.2266
 1566ntf    fn414301   1.590   0.879   0.468 -0.1379 -0.4923 -0.2994
 1566ntf    fn414302   1.747   1.029   0.444 -0.0442  0.1286 -0.0851
 1566ntf    fn414303   1.625   0.964   0.280  0.5330  0.4839 -0.1145
 1566ntf    on514304   1.826   0.733   0.475 -0.6774 -0.1169  0.1851
 1566ntf    on514305   1.722   0.707   0.256  0.9327  0.0188 -0.7269
 1566ntf    on514306   2.140   0.882   0.169 -0.1272 -0.4011 -0.1930
 1566ntf    on514307   1.991   0.697   0.091 -0.2096 -0.5184  0.4160
 1566ntf    fn414308   1.970   0.917  -0.091 -0.3781 -0.0096  0.0376
 1566ntf    fn414309   1.983   1.069   0.051 -0.1985 -0.2173  0.2691
 1566ntf    fn414310   1.803   0.951   0.037  0.0561 -0.2299  0.9633
 1567ntf    cn114311   2.775   5.081   2.744  0.0574  0.1643 -0.0007
 1567ntf    sn214312   2.940   5.128   2.684 -0.0722  0.3575 -0.2064
 1567ntf    nn314313   2.954   5.047   2.550 -0.3941 -0.4982  0.2713
 1567ntf    sn214314   3.078   5.003   2.464 -0.2713  0.1170  0.1292
 1567ntf    cn114315   3.110   4.833   2.519 -0.1318  0.1394  0.1174
 1567ntf    fn414316   2.727   5.170   2.829 -0.0235 -0.1534  0.2890
 1567ntf    fn414317   2.680   5.073   2.653  0.1940 -0.1112 -0.1210
 1567ntf    fn414318   2.783   4.964   2.806 -0.2830  0.0497 -0.1768
 1567ntf    on514319   2.937   5.271   2.668  0.2404  0.3630 -0.2248
 1567ntf    on514320   3.021   5.073   2.790 -0.2287 -0.3801 -0.4606
 1567ntf    on514321   3.043   4.989   2.325  0.0795  0.2616  0.0250
 1567ntf    on514322   3.198   5.079   2.491 -0.0000 -0.2946  0.0938
 1567ntf    fn414323   3.219   4.782   2.464 -0.2373  0.1554 -0.1065
 1567ntf    fn414324   3.012   4.750   2.488 -0.3419  0.3094  0.3273
 1567ntf    fn414325   3.130   4.826   2.650  0.6995  0.5069  0.0168
 1568ntf    cn114326   0.615   6.210   1.210 -0.2008  0.0880  0.1949
 1568ntf    sn214327   0.589   6.078   1.332  0.1318 -0.2027 -0.0453
 1568ntf    nn314328   0.719   6.108   1.415 -0.0461  0.1733  0.1006
 1568ntf    sn214329   0.737   6.202   1.540  0.2171  0.2802 -0.0178
 1568ntf    cn114330   0.678   6.092   1.672  0.2385  0.2049 -0.0705
 1568ntf    fn414331   0.616   6.332   1.261  0.6323  0.2284 -0.1353
 1568ntf    fn414332   0.735   6.188   1.157 -0.3013 -0.2485  0.1004
 1568ntf    fn414333   0.534   6.213   1.105 -0.2724  0.3150  0.2560
 1568ntf    on514334   0.458   6.098   1.388  0.4053  0.8688  0.2283
 1568ntf    on514335   0.612   5.960   1.252 -0.3977 -0.1234 -0.3185
 1568ntf    on514336   0.880   6.204   1.559  0.2657 -0.3158 -0.2852
 1568ntf    on514337   0.660   6.324   1.537  0.1977  0.2651 -0.1400
 1568ntf    fn414338   0.562   6.035   1.645  0.2421  0.1970 -0.0695
 1568ntf    fn414339   0.679   6.153   1.790  0.1016  0.1146 -0.0223
 1568ntf    fn414340   0.748   5.980   1.675  0.4191  0.3201  0.0373
 1569ntf    cn114341   5.121   3.583   2.760  0.4062 -0.0291  0.2944
 1569ntf    sn214342   5.272   3.482   2.771  0.4385 -0.0296 -0.1213
 1569ntf    nn314343   5.218   3.346   2.827 -0.3362  0.2163 -0.2543
 1569ntf    sn214344   5.252   3.200   2.778  0.1074  0.1336  0.2856
 1569ntf    cn114345   5.135   3.192   2.640  0.1754  0.0755  0.2310
 1569ntf    fn414346   5.085   3.626   2.880  0.3941  0.1998  0.2072
 1569ntf    fn414347   5.125   3.688   2.680  0.1594 -0.5441 -0.4068
 1569ntf    fn414348   5.017   3.509   2.723  0.2649  0.1768  0.2825
 1569ntf    on514349   5.318   3.489   2.635 -0.0794 -0.5439 -0.3262
 1569ntf    on514350   5.353   3.547   2.871  0.4010  0.0326 -0.1320
 1569ntf    on514351   5.382   3.194   2.717 -0.1151 -0.8306 -0.1076
 1569ntf    on514352   5.222   3.091   2.867 -0.4555 -0.1598 -0.2590
 1569ntf    fn414353   5.021   3.233   2.694 -0.3247  0.0719 -0.7787
 1569ntf    fn414354   5.119   3.067   2.600 -0.0076  0.0516  0.3766
 1569ntf    fn414355   5.160   3.276   2.540 -0.0323 -0.2339 -0.0871
 1570ntf    cn114356   0.326   3.183   1.445  0.1868 -0.2256  0.2974
 1570ntf    sn214357   0.186   3.067   1.439 -0.1065  0.1501 -0.2045
 1570ntf    nn314358   0.257   2.939   1.383  0.1121 -0.0488  0.5171
 1570ntf    sn214359   0.269   2.899   1.232 -0.1891  0.2904  0.4013
 1570ntf    cn114360   0.113   2.810   1.202 -0.0039  0.1267 -0.0956
 1570ntf    fn414361   0.419   3.144   1.530 -0.0394 -0.4161  0.4578
 1570ntf    fn414362   0.381   3.192   1.325 -0.3491  0.1029  0.0727
 1570ntf    fn414363   0.286   3.305   1.476 -0.0342 -0.0989 -0.4720
 1570ntf    on514364   0.155   3.050   1.579 -0.1458  0.2716 -0.1985
 1570ntf    on514365   0.097   3.139   1.351 -0.1872  0.1139 -0.1527
 1570ntf    on514366   0.275   3.008   1.138  0.3005 -0.0875 -0.0134
 1570ntf    on514367   0.376   2.803   1.220  0.1560  0.6795  0.3634
 1570ntf    fn414368   0.077   2.762   1.084 -0.0701 -0.4688  0.1662
 1570ntf    fn414369   0.007   2.885   1.228 -0.0094  0.1425 -0.1640
 1570ntf    fn414370   0.115   2.699   1.274  0.3509  0.1420 -0.0800
 1571ntf    cn114371   4.188   5.199   0.901 -0.3960 -0.1885 -0.0537
 1571ntf    sn214372   4.092   5.334   0.975 -0.2141 -0.0734 -0.0283
 1571ntf    nn314373   4.198   5.451   0.982  0.0824 -0.3271 -0.2379
 1571ntf    sn214374   4.181   5.590   0.912  0.1119 -0.3080 -0.2067
 1571ntf    cn114375   4.254   5.557   0.748 -0.3430  0.0227 -0.4797
 1571ntf    fn414376   4.247   5.237   0.789 -0.1662  0.2699  0.2187
 1571ntf    fn414377   4.281   5.156   0.985 -0.3233  0.1670  0.0482
 1571ntf    fn414378   4.113   5.095   0.866 -0.7429 -0.0938  0.3943
 1571ntf    on514379   3.982   5.355   0.885  0.0641  0.5039 -0.2399
 1571ntf    on514380   4.059   5.292   1.109  0.0079  0.3962  0.1790
 1571ntf    on514381   4.047   5.640   0.892  0.2797 -0.0507 -0.7286
 1571ntf    on514382   4.272   5.689   0.964  0.0536  0.1770 -0.9989
 1571ntf    fn414383   4.365   5.486   0.764 -0.3418  0.1968  0.3526
 1571ntf    fn414384   4.291   5.659   0.674 -0.1321  0.0824 -0.2933
 1571ntf    fn414385   4.181   5.483   0.667 -0.4178 -0.3341 -0.0931
 1572ntf    cn114386   1.190   1.226   1.395 -0.1230 -0.0987 -0.0772
 1572ntf    sn214387   1.138   1.385   1.468  0.1898 -0.0202 -0.0254
 1572ntf    nn314388   1.066   1.334   1.597 -0.0649  0.1151 -0.1133
 1572ntf    sn214389   0.925   1.267   1.606  0.0090 -0.0424 -0.1355
 1572ntf    cn114390   0.824   1.416   1.630 -0.0038 -0.0988  0.1623
 1572ntf    fn414391   1.250   1.242   1.278 -0.3330 -0.5234 -0.2427
 1572ntf    fn414392   1.271   1.153   1.470 -0.2934 -0.2155 -0.0066
 1572ntf    fn414393   1.086   1.147   1.378 -0.0906 -0.3661  0.9039
 1572ntf    on514394   1.265   1.451   1.486  0.0236  0.2737  0.0718
 1572ntf    on514395   1.055   1.438   1.363 -0.4536 -0.2812  0.3512
 1572ntf    on514396   0.874   1.206   1.486  0.3779  0.3707 -0.5024
 1572ntf    on514397   0.901   1.186   1.723 -0.3187  0.2782  0.0209
 1572ntf    fn414398   0.843   1.505   1.535  0.1870 -0.2063  0.1009
 1572ntf    fn414399   0.844   1.474   1.748  0.2045 -0.1253  0.1402
 1572ntf    fn414400   0.699   1.373   1.629  0.0790 -0.3291 -0.2721
 1573ntf    cn114401   1.147   1.448   4.672  0.0901  0.0102 -0.1191
 1573ntf    sn214402   1.105   1.271   4.673  0.1062  0.0054 -0.2680
 1573ntf    nn314403   1.208   1.219   4.567  0.3924 -1.1145  0.5372
 1573ntf    sn214404   1.185   1.141   4.432  0.1007 -0.1328  0.0093
 1573ntf    cn114405   1.334   1.037   4.445  0.1589 -0.0596 -0.0789
 1573ntf    fn414406   1.277   1.466   4.683  0.0059  0.2804  0.4449
 1573ntf    fn414407   1.113   1.505   4.557  0.3638  0.0902 -0.1601
 1573ntf    fn414408   1.089   1.515   4.770 -0.0386 -0.1267 -0.1004
 1573ntf    on514409   1.146   1.220   4.802  0.1020 -0.0393 -0.2842
 1573ntf    on514410   0.964   1.279   4.644  0.0156 -0.3512  0.0639
 1573ntf    on514411   1.073   1.050   4.424 -0.2910  0.3804 -0.3631
 1573ntf    on514412   1.214   1.202   4.304  0.1577 -0.1022  0.0366
 1573ntf    fn414413   1.336   0.962   4.553 -0.6768 -0.6067 -0.4378
 1573ntf    fn414414   1.442   1.113   4.446 -0.1612  0.3976  0.0510
 1573ntf    fn414415   1.354   0.958   4.341  0.2221 -0.0353 -0.0858
 1574ntf    cn114416   3.871   4.611   1.547 -0.0695 -0.2458  0.5037
 1574ntf    sn214417   3.990   4.721   1.629 -0.0370  0.0992 -0.0013
 1574ntf    nn314418   3.983   4.838   1.524  0.1075  0.1495  0.0441
 1574ntf    sn214419   3.948   4.989   1.550  0.1475  0.1611  0.0303
 1574ntf    cn114420   3.921   5.047   1.380 -0.0649  0.1762  0.0687
 1574ntf    fn414421   3.914   4.580   1.426 -0.5152 -0.1646  0.3210
 1574ntf    fn414422   3.840   4.500   1.611  0.4655 -0.9057 -0.3586
 1574ntf    fn414423   3.757   4.677   1.533  0.1496  0.0561  0.1241
 1574ntf    on514424   3.929   4.746   1.758 -0.2624  0.2473 -0.1358
 1574ntf    on514425   4.117   4.654   1.618 -0.0009  0.2238 -0.3530
 1574ntf    on514426   3.819   5.006   1.612  0.3242 -0.3002  0.5389
 1574ntf    on514427   4.058   5.073   1.590  0.0014  0.5809 -0.4387
 1574ntf    fn414428   3.825   4.978   1.320 -0.3568  0.4110  0.2666
 1574ntf    fn414429   4.029   5.030   1.306  0.0993  0.1010  0.3234
 1574ntf    fn414430   3.890   5.175   1.368 -0.6217  0.0546  0.1537
 1575ntf    cn114431   2.731   4.583   5.284  0.2997 -0.0960  0.2323
 1575ntf    sn214432   2.896   4.553   5.354  0.3988 -0.2101 -0.0479
 1575ntf    nn314433   2.856   4.565   5.505  0.2352 -0.1123 -0.0980
 1575ntf    sn214434   2.926   4.632   5.629  0.3699 -0.2272 -0.1121
 1575ntf    cn114435   3.073   4.527   5.652  0.2682 -0.4003 -0.2459
 1575ntf    fn414436   2.645   4.497   5.334  0.0424  0.0164 -0.0164
 1575ntf    fn414437   2.694   4.706   5.314 -0.2752 -0.3275  0.4795
 1575ntf    fn414438   2.729   4.571   5.152  0.0809  0.3737  0.1908
 1575ntf    on514439   2.928   4.417   5.321 -0.0184 -0.2972 -0.0972
 1575ntf    on514440   2.978   4.664   5.309  0.1717  0.0337  0.1348
 1575ntf    on514441   2.973   4.767   5.609  0.5272 -0.3346 -0.4878
 1575ntf    on514442   2.847   4.605   5.746 -0.5605  0.4280 -0.5727
 1575ntf    fn414443   3.036   4.402   5.673  0.1055 -0.3512 -0.2417
 1575ntf    fn414444   3.157   4.558   5.750 -0.0161  0.0156 -0.1318
 1575ntf    fn414445   3.153   4.535   5.546  0.0638  0.6014 -0.3339
 1576ntf    cn114446   3.170   3.484   5.343  0.0806  0.4368  0.0538
 1576ntf    sn214447   3.213   3.552   5.506  0.0618  0.2155  0.1511
 1576ntf    nn314448   3.198   3.421   5.591 -0.4382 -0.0008 -0.2642
 1576ntf    sn214449   3.070   3.337   5.625 -0.2303 -0.3543 -0.3543
 1576ntf    cn114450   3.102   3.310   5.802 -0.1107 -0.3593 -0.3764
 1576ntf    fn414451   3.149   3.586   5.262 -0.0923  0.2928 -0.0862
 1576ntf    fn414452   3.257   3.400   5.290 -0.2127  0.0830  0.1243
 1576ntf    fn414453   3.060   3.410   5.350  0.2239  0.1769 -0.3611
 1576ntf    on514454   3.349   3.596   5.489  0.0638  0.4237  0.6988
 1576ntf    on514455   3.111   3.644   5.547 -0.2487  0.1425 -0.4384
 1576ntf    on514456   2.950   3.417   5.623  0.3831  0.6117  0.8459
 1576ntf    on514457   3.071   3.201   5.576 -0.7686 -0.5933  0.2692
 1576ntf    fn414458   3.123   3.422   5.869  0.6103 -0.4152 -0.5044
 1576ntf    fn414459   3.212   3.238   5.817 -0.1032 -0.1018  0.9472
 1576ntf    fn414460   3.012   3.244   5.873 -0.2194 -0.4540 -0.6016
 1577ntf    cn114461   6.618   4.922   0.271 -0.1453 -0.1539 -0.2348
 1577ntf    sn214462   6.685   4.758   0.229 -0.1344 -0.1307 -0.3079
 1577ntf    nn314463   6.584   4.698   0.126 -0.9557  0.3679  0.1950
 1577ntf    sn214464   6.604   4.593   0.011 -0.3481  0.3773  0.2883
 1577ntf    cn114465   6.625   4.703  -0.132 -0.0384  0.0580  0.0866
 1577ntf    fn414466   6.494   4.920   0.316 -0.1637 -0.8859 -0.2982
 1577ntf    fn414467   6.687   4.982   0.366  0.3573  0.3467 -0.9016
 1577ntf    fn414468   6.628   5.003   0.167 -0.5847  0.9406  0.5635
 1577ntf    on514469   6.816   4.790   0.177  0.0101 -0.0991  0.0682
 1577ntf    on514470   6.684   4.692   0.358 -0.1776 -0.0111 -0.2461
 1577ntf    on514471   6.725   4.515   0.018 -0.4964  0.0618 -0.5178
 1577ntf    on514472   6.486   4.513  -0.009 -0.3071  0.1581  0.9060
 1577ntf    fn414473   6.729   4.782  -0.115  0.1094 -0.1188  0.0083
 1577ntf    fn414474   6.521   4.781  -0.157  0.0458  0.0874 -0.1808
 1577ntf    fn414475   6.650   4.640  -0.246 -0.4778 -0.4628  0.2710
 1578ntf    cn114476   3.839   5.911   3.949 -0.0938 -0.3229 -0.4066
 1578ntf    sn214477   3.890   5.807   4.089  0.0535  0.1685 -0.0939
 1578ntf    nn314478   3.847   5.894   4.213 -0.1071  0.3326 -0.2644
 1578ntf    sn214479   3.731   5.889   4.318 -0.0114 -0.0445 -0.1749
 1578ntf    cn114480   3.799   5.776   4.444  0.0776  0.1489 -0.0488
 1578ntf    fn414481   3.903   6.027   3.954 -0.0370 -0.3658 -0.1151
 1578ntf    fn414482   3.854   5.848   3.833 -0.7018 -0.8093 -0.2236
 1578ntf    fn414483   3.713   5.947   3.958 -0.0003 -0.0583 -0.1356
 1578ntf    on514484   3.821   5.682   4.064 -0.0607  0.1995  0.0654
 1578ntf    on514485   4.033   5.803   4.071  0.0517 -0.3047 -0.0243
 1578ntf    on514486   3.729   6.011   4.395 -0.0076 -0.1520 -0.0020
 1578ntf    on514487   3.603   5.838   4.275 -0.1795 -0.0776  0.3535
 1578ntf    fn414488   3.714   5.771   4.544 -0.1856  0.1962 -0.2701
 1578ntf    fn414489   3.913   5.821   4.493 -0.1686  0.1683  0.5053
 1578ntf    fn414490   3.819   5.651   4.406 -0.4900  0.1146 -0.2450
 1579ntf    cn114491   4.763   6.386   4.427 -0.1840 -0.1138 -0.1810
 1579ntf    sn214492   4.759   6.227   4.515 -0.1888  0.0734  0.1582
 1579ntf    nn314493   4.635   6.156   4.450  0.1177 -0.1214 -0.2224
 1579ntf    sn214494   4.624   6.025   4.364  0.2504 -0.3091  0.0407
 1579ntf    cn114495   4.573   5.921   4.503 -0.2289 -0.0208  0.0814
 1579ntf    fn414496   4.721   6.373   4.302  0.4514  0.2518 -0.4363
 1579ntf    fn414497   4.691   6.486   4.474  0.3403  0.4851 -0.6348
 1579ntf    fn414498   4.885   6.437   4.422 -0.2209 -0.0357 -0.2768
 1579ntf    on514499   4.886   6.161   4.493 -0.1831  0.2012 -0.1928
 1579ntf    on514500   4.724   6.260   4.651  0.0248 -0.2780  0.3019
 1579ntf    on514501   4.505   6.018   4.283  0.2222 -0.1838  0.0712
 1579ntf    on514502   4.748   5.972   4.311  0.0745 -0.2198 -0.4740
 1579ntf    fn414503   4.677   5.887   4.576  0.2249  0.2149 -0.4521
 1579ntf    fn414504   4.530   5.802   4.463  0.1409 -0.1181 -0.0237
 1579ntf    fn414505   4.478   5.979   4.575 -0.6575 -0.6029 -0.0016
 1580ntf    cn114506   6.516   2.911   5.272 -0.4268 -0.0198  0.1387
 1580ntf    sn214507   6.568   2.869   5.441  0.1828  0.1041 -0.0150
 1580ntf    nn314508   6.471   2.963   5.521 -0.0850 -0.1706 -0.0144
 1580ntf    sn214509   6.488   3.059   5.644 -0.2838 -0.2228  0.0562
 1580ntf    cn114510   6.526   3.208   5.547 -0.0809 -0.3363 -0.0399
 1580ntf    fn414511   6.399   2.858   5.241 -0.2165  0.0449 -0.7893
 1580ntf    fn414512   6.506   3.042   5.255 -0.6007 -0.0690 -0.1294
 1580ntf    fn414513   6.599   2.873   5.177 -0.0143 -0.3871  0.6379
 1580ntf    on514514   6.537   2.729   5.461  0.2371  0.2107  0.8650
 1580ntf    on514515   6.707   2.907   5.435  0.0997  0.4653  0.2769
 1580ntf    on514516   6.365   3.098   5.706 -0.1318  0.2291  0.0775
 1580ntf    on514517   6.608   3.037   5.722 -0.3275  0.4403  0.3179
 1580ntf    fn414518   6.628   3.187   5.465 -0.4298 -0.5922 -0.4142
 1580ntf    fn414519   6.552   3.317   5.618 -0.2898 -0.5681  0.3901
 1580ntf    fn414520   6.421   3.253   5.480  0.0507  0.3466  0.1994
 1581ntf    cn114521   1.194   0.085   5.793 -0.1034  0.1067  0.1382
 1581ntf    sn214522   1.126   0.025   5.951 -0.1289 -0.0245  0.0787
 1581ntf    nn314523   1.259   0.013   6.034  0.0644  0.0023 -0.2231
 1581ntf    sn214524   1.327  -0.123   6.074 -0.0535  0.0846  0.2711
 1581ntf    cn114525   1.505  -0.089   6.057  0.0394 -0.4652  0.1185
 1581ntf    fn414526   1.214   0.215   5.795  0.3489  0.0457 -0.2678
 1581ntf    fn414527   1.313   0.032   5.770 -0.0848  0.2068  0.0002
 1581ntf    fn414528   1.125   0.061   5.682  0.5707  0.7477 -0.4280
 1581ntf    on514529   1.037   0.132   5.990 -0.3269 -0.2338  0.2038
 1581ntf    on514530   1.062  -0.100   5.922 -0.0313 -0.0175 -0.1721
 1581ntf    on514531   1.309  -0.155   6.213 -0.7831  0.2430  0.2138
 1581ntf    on514532   1.310  -0.230   5.980 -0.0162 -0.1001  0.4741
 1581ntf    fn414533   1.550   0.008   6.135  0.5781  0.1823 -0.9822
 1581ntf    fn414534   1.539  -0.046   5.937  0.9760 -0.0205  0.5283
 1581ntf    fn414535   1.584  -0.191   6.087  0.0134 -0.5328 -0.0448
 1582ntf    cn114536   5.059   2.525   5.759 -0.5241 -0.1313  0.1904
 1582ntf    sn214537   4.960   2.591   5.896 -0.0171  0.5865  0.2136
 1582ntf    nn314538   4.846   2.485   5.914  0.2096  0.3203  0.0836
 1582ntf    sn214539   4.696   2.488   5.867  0.2443  0.0046 -0.0505
 1582ntf    cn114540   4.663   2.310   5.883  0.0060  0.0909  0.4497
 1582ntf    fn414541   5.094   2.399   5.783 -0.0561 -0.0986 -0.2919
 1582ntf    fn414542   4.994   2.536   5.645 -0.1433 -0.4579 -0.0643
 1582ntf    fn414543   5.172   2.594   5.751 -0.5832 -0.0041  0.4497
 1582ntf    on514544   5.056   2.590   6.004  0.0351 -0.0942  0.1626
 1582ntf    on514545   4.913   2.721   5.856 -0.0347  0.6383  0.4008
 1582ntf    on514546   4.607   2.551   5.961  0.1146  0.3478 -0.4049
 1582ntf    on514547   4.675   2.524   5.730  0.3034  0.3552  0.0313
 1582ntf    fn414548   4.763   2.243   5.829  0.0676  0.5810 -0.0526
 1582ntf    fn414549   4.552   2.290   5.814  0.1764  0.1407  0.1566
 1582ntf    fn414550   4.648   2.273   6.009 -0.4778 -0.2168  0.3051
 1583ntf    cn114551   3.152   3.226   0.599  0.1314 -0.1332  0.2367
 1583ntf    sn214552   3.016   3.112   0.559 -0.0905  0.2687 -0.1680
 1583ntf    nn314553   2.931   3.128   0.690 -0.3086  0.0674 -0.2836
 1583ntf    sn214554   2.822   3.233   0.733 -0.0828  0.1975 -0.0248
 1583ntf    cn114555   2.886   3.307   0.886 -0.4610 -0.2149  0.3343
 1583ntf    fn414556   3.214   3.205   0.713 -0.0784 -0.2057  0.3389
 1583ntf    fn414557   3.246   3.226   0.506 -0.0086 -0.2610  0.0917
 1583ntf    fn414558   3.112   3.352   0.609  0.2418 -0.0960  0.2040
 1583ntf    on514559   2.962   3.172   0.439 -0.7952 -0.3272 -0.1611
 1583ntf    on514560   3.087   2.987   0.552  0.0264  0.2846  0.5948
 1583ntf    on514561   2.817   3.344   0.640  0.0304  0.2741  0.0598
 1583ntf    on514562   2.704   3.163   0.777 -0.1900  0.0585 -0.5282
 1583ntf    fn414563   2.800   3.386   0.948 -0.1090 -0.0466  0.6150
 1583ntf    fn414564   2.990   3.385   0.861 -0.5734 -0.0583  0.3507
 1583ntf    fn414565   2.929   3.220   0.976 -0.2435 -0.2968  0.1511
 1584ntf    cn114566   6.204   3.071   4.106 -0.1271 -0.0787 -0.1099
 1584ntf    sn214567   6.129   3.044   3.943  0.2766 -0.1869 -0.2781
 1584ntf    nn314568   6.036   3.170   3.925 -0.1975 -0.5175 -0.1760
 1584ntf    sn214569   6.072   3.299   3.844  0.0561 -0.4028  0.1131
 1584ntf    cn114570   5.971   3.420   3.934 -0.3091 -0.5094 -0.1501
 1584ntf    fn414571   6.287   3.174   4.114  0.0181 -0.2330  0.4440
 1584ntf    fn414572   6.114   3.098   4.200 -0.1541 -0.0757 -0.1368
 1584ntf    fn414573   6.265   2.964   4.153 -0.3435 -0.2845 -0.2985
 1584ntf    on514574   6.243   3.027   3.857 -0.1316 -0.3477 -0.7985
 1584ntf    on514575   6.039   2.932   3.957  0.3445 -0.2625 -0.4377
 1584ntf    on514576   6.205   3.351   3.860 -0.2489  0.4810 -0.1342
 1584ntf    on514577   6.021   3.294   3.709 -0.3259 -0.1415  0.2450
 1584ntf    fn414578   5.844   3.384   3.941 -0.3780 -0.1893  0.3093
 1584ntf    fn414579   5.984   3.542   3.885  0.1269 -0.5054 -0.0269
 1584ntf    fn414580   6.019   3.445   4.055 -0.1223  0.4746 -0.4198
 1585ntf    cn114581   5.692   1.868   0.222 -0.0335 -0.1003 -0.1125
 1585ntf    sn214582   5.693   1.688   0.200 -0.0032 -0.0673 -0.3822
 1585ntf    nn314583   5.542   1.667   0.163 -0.2363 -0.5529  0.8022
 1585ntf    sn214584   5.460   1.554   0.091 -0.1538 -0.3200  0.3408
 1585ntf    cn114585   5.443   1.640  -0.069  0.0734 -0.2806  0.3363
 1585ntf    fn414586   5.811   1.908   0.263 -0.0197 -0.3288  0.0703
 1585ntf    fn414587   5.664   1.940   0.114 -0.3533 -0.0895 -0.0229
 1585ntf    fn414588   5.595   1.905   0.305  0.6778 -0.0018  0.6839
 1585ntf    on514589   5.784   1.673   0.089  0.1344 -0.5148 -0.2128
 1585ntf    on514590   5.733   1.646   0.332 -0.4507  0.1086 -0.1889
 1585ntf    on514591   5.537   1.436   0.060  0.2636  0.0644 -0.1183
 1585ntf    on514592   5.327   1.541   0.144 -0.2792 -0.0211  0.1065
 1585ntf    fn414593   5.352   1.587  -0.149  0.2730  0.3227 -0.2933
 1585ntf    fn414594   5.561   1.636  -0.127 -0.0402 -0.6968  0.1275
 1585ntf    fn414595   5.411   1.766  -0.043 -0.2734 -0.1816 -0.5566
 1586ntf    cn114596   2.058   0.269   5.826 -0.5780  0.0471 -0.0996
 1586ntf    sn214597   2.016   0.222   5.996  0.1064 -0.1297  0.0245
 1586ntf    nn314598   2.080   0.347   6.066 -0.3492  0.1062  0.0249
 1586ntf    sn214599   2.020   0.457   6.160 -0.0964  0.3596 -0.1093
 1586ntf    cn114600   2.084   0.405   6.322 -0.2688 -0.3541 -0.2690
 1586ntf    fn414601   2.012   0.182   5.738 -0.6290  0.1190 -0.1451
 1586ntf    fn414602   2.001   0.385   5.796 -0.5014  0.1992  0.3392
 1586ntf    fn414603   2.187   0.280   5.797 -0.4697  0.5988  0.5521
 1586ntf    on514604   1.872   0.210   6.002  0.1661 -0.5886  0.6914
 1586ntf    on514605   2.097   0.104   6.015  0.1728 -0.1054 -0.1073
 1586ntf    on514606   2.078   0.587   6.137 -0.3413  0.5123  0.1211
 1586ntf    on514607   1.876   0.458   6.172 -0.0839 -0.1727  0.1176
 1586ntf    fn414608   2.216   0.393   6.316 -0.1885  0.1245  0.4328
 1586ntf    fn414609   2.036   0.286   6.353  0.1356 -0.4622 -0.0495
 1586ntf    fn414610   2.046   0.484   6.421  0.0748  0.0373 -0.4423
 1587ntf    cn114611   2.856   5.576   4.232  0.1130 -0.3624  0.2409
 1587ntf    sn214612   3.007   5.486   4.186  0.2744 -0.0111  0.0731
 1587ntf    nn314613   2.995   5.349   4.263 -0.5460 -0.2051 -0.3835
 1587ntf    sn214614   2.907   5.224   4.229 -0.1801 -0.5141 -0.2002
 1587ntf    cn114615   3.031   5.118   4.147  0.2809 -0.2643  0.1710
 1587ntf    fn414616   2.836   5.672   4.142  0.3706 -0.1448  0.4142
 1587ntf    fn414617   2.746   5.503   4.237 -0.3144  0.2118 -0.4651
 1587ntf    fn414618   2.873   5.634   4.350  0.2861 -0.2945  0.1820
 1587ntf    on514619   3.016   5.476   4.043 -0.5443 -0.5309  0.0499
 1587ntf    on514620   3.105   5.572   4.247  0.3413 -0.1426  0.1522
 1587ntf    on514621   2.874   5.146   4.346 -0.3216 -0.0636  0.0618
 1587ntf    on514622   2.811   5.240   4.123 -0.4605  0.2130  0.1557
 1587ntf    fn414623   2.991   4.994   4.126  0.1459 -0.1907 -0.0093
 1587ntf    fn414624   3.143   5.109   4.217  0.0678 -0.5816  0.4774
 1587ntf    fn414625   3.061   5.164   4.027  0.1740 -0.1172  0.2002
 1588ntf    cn114626   6.280   3.630   6.535 -0.2392 -0.1278 -0.1537
 1588ntf    sn214627   6.338   3.538   6.389 -0.1666  0.0028 -0.2071
 1588ntf    nn314628   6.311   3.642   6.274 -0.1316 -0.1450 -0.3483
 1588ntf    sn214629   6.226   3.634   6.142  0.0149  0.3782 -0.4775
 1588ntf    cn114630   6.345   3.596   6.009  0.3617 -0.0053 -0.0634
 1588ntf    fn414631   6.159   3.683   6.530 -0.2076 -0.0803 -0.4424
 1588ntf    fn414632   6.280   3.552   6.642  0.2401 -0.5171 -0.4363
 1588ntf    fn414633   6.361   3.732   6.559 -0.1941 -0.2190  0.0803
 1588ntf    on514634   6.480   3.520   6.404 -0.1166  0.5761  0.0311
 1588ntf    on514635   6.258   3.419   6.400  0.1148 -0.1379  0.3247
 1588ntf    on514636   6.134   3.523   6.142  0.0529  0.3453 -0.1983
 1588ntf    on514637   6.170   3.761   6.105 -0.2818  0.4320  0.1558
 1588ntf    fn414638   6.380   3.469   6.013  0.0359 -0.1005 -0.1822
 1588ntf    fn414639   6.458   3.664   6.017 -0.0664  0.6565  0.5771
 1588ntf    fn414640   6.293   3.611   5.889 -0.5844 -0.0308  0.3328
 1589ntf    cn114641   2.506   0.842   4.211  0.1811 -0.0141 -0.1344
 1589ntf    sn214642   2.584   0.915   4.064 -0.0427  0.0410 -0.2257
 1589ntf    nn314643   2.733   0.871   4.086 -0.0180  0.1186 -0.2363
 1589ntf    sn214644   2.845   0.949   4.164 -0.0467 -0.1199  0.0479
 1589ntf    cn114645   2.959   0.979   4.025 -0.0435  0.3675  0.1531
 1589ntf    fn414646   2.518   0.710   4.203 -0.0852 -0.0341 -0.1946
 1589ntf    fn414647   2.564   0.883   4.323 -0.6242  0.0085  0.2782
 1589ntf    fn414648   2.377   0.864   4.226  0.1013 -0.3825 -0.2621
 1589ntf    on514649   2.525   0.838   3.958  0.1176 -0.5680  0.1269
 1589ntf    on514650   2.547   1.055   4.067 -0.0098  0.0453 -0.0154
 1589ntf    on514651   2.813   1.077   4.220 -0.2582 -0.0542 -0.2203
 1589ntf    on514652   2.928   0.863   4.245 -0.0386 -0.0473  0.1165
 1589ntf    fn414653   3.083   0.979   4.069  0.0675 -0.4195 -0.1370
 1589ntf    fn414654   2.935   1.097   3.971  0.1932  0.5166  0.3759
 1589ntf    fn414655   2.948   0.881   3.936  0.1598  0.1212  0.3978
 1590ntf    cn114656   5.499   0.237   2.860  0.1001  0.3289 -0.0788
 1590ntf    sn214657   5.549   0.242   2.686  0.1049 -0.0901 -0.0914
 1590ntf    nn314658   5.705   0.241   2.708  0.1400 -0.1728 -0.3434
 1590ntf    sn214659   5.794   0.112   2.724 -0.0354 -0.2368  0.1291
 1590ntf    cn114660   5.815   0.064   2.550 -0.0476 -0.3264  0.1522
 1590ntf    fn414661   5.518   0.117   2.913 -0.0494  0.4472  0.2449
 1590ntf    fn414662   5.568   0.320   2.936 -0.1736  0.3625  0.1352
 1590ntf    fn414663   5.372   0.272   2.872  0.0002 -0.1597  0.3562
 1590ntf    on514664   5.482   0.125   2.636 -0.0941 -0.0548  0.0918
 1590ntf    on514665   5.507   0.372   2.640 -0.1714 -0.1662 -0.0517
 1590ntf    on514666   5.926   0.150   2.766 -0.1111  0.3576 -0.1563
 1590ntf    on514667   5.732  -0.005   2.782 -0.0883 -0.3007 -0.0526
 1590ntf    fn414668   5.889  -0.045   2.536  0.3140 -0.0572 -0.0756
 1590ntf    fn414669   5.867   0.159   2.472 -0.5834 -0.1958 -0.0501
 1590ntf    fn414670   5.699   0.036   2.494  0.2099 -0.4382 -0.3330
 1591ntf    cn114671   5.438   1.708   5.188 -0.1780 -0.2155 -0.2107
 1591ntf    sn214672   5.320   1.832   5.251 -0.1582 -0.2880 -0.0318
 1591ntf    nn314673   5.335   1.940   5.138 -0.7579 -0.0966  0.0684
 1591ntf    sn214674   5.397   2.084   5.127  0.1854 -0.4676  0.4024
 1591ntf    cn114675   5.250   2.191   5.119  0.5836  0.0504 -0.0544
 1591ntf    fn414676   5.556   1.757   5.156 -0.1811  0.2511  0.4531
 1591ntf    fn414677   5.463   1.618   5.282 -0.3210  0.0387  0.0761
 1591ntf    fn414678   5.389   1.644   5.084 -0.0896 -0.3555 -0.1653
 1591ntf    on514679   5.197   1.757   5.245 -0.1515 -0.3516  0.5443
 1591ntf    on514680   5.369   1.868   5.382 -0.3301 -0.2764  0.0297
 1591ntf    on514681   5.477   2.121   5.240 -0.0418 -0.0307  0.4213
 1591ntf    on514682   5.457   2.103   4.997  0.2986 -0.1496  0.5007
 1591ntf    fn414683   5.191   2.182   5.237  0.3516  0.1740 -0.1588
 1591ntf    fn414684   5.164   2.160   5.023  0.1704  0.8841  0.0359
 1591ntf    fn414685   5.271   2.319   5.094 -0.0428  0.0696 -0.5065
 1592ntf    cn114686   0.235   5.513   4.860  0.0238 -0.4693  0.0607
 1592ntf    sn214687   0.208   5.483   5.037  0.1188 -0.1279  0.1340
 1592ntf    nn314688   0.353   5.477   5.098  0.5363 -0.3069 -0.8545
 1592ntf    sn214689   0.433   5.601   5.152  0.0221 -0.3891  0.1340
 1592ntf    cn114690   0.356   5.628   5.314 -0.2795  0.0291 -0.0758
 1592ntf    fn414691   0.328   5.604   4.835 -0.0803 -0.5133 -0.4843
 1592ntf    fn414692   0.270   5.403   4.796  0.1940 -0.3091 -0.1247
 1592ntf    fn414693   0.126   5.543   4.792 -0.0465  0.1163  0.4231
 1592ntf    on514694   0.126   5.593   5.080 -0.7266 -0.7254  0.0716
 1592ntf    on514695   0.143   5.355   5.031 -0.0538 -0.0342  0.0082
 1592ntf    on514696   0.568   5.562   5.181  0.0767 -0.3335 -0.0430
 1592ntf    on514697   0.426   5.720   5.071  0.1373 -0.6302 -0.2353
 1592ntf    fn414698   0.424   5.704   5.398  0.0948 -0.4707  0.0776
 1592ntf    fn414699   0.344   5.513   5.379 -0.3505  0.0698 -0.0156
 1592ntf    fn414700   0.233   5.677   5.314 -0.3486 -0.1381  0.3390
 1593ntf    cn114701   0.392   6.000   3.739  0.0046 -0.0113 -0.2288
 1593ntf    sn214702   0.478   5.847   3.692 -0.2942 -0.2021 -0.1560
 1593ntf    nn314703   0.462   5.859   3.536 -0.3846  0.4833 -0.0940
 1593ntf    sn214704   0.572   5.867   3.424 -0.0885 -0.3595  0.1273
 1593ntf    cn114705   0.567   5.695   3.366  0.5349 -0.4132  0.2356
 1593ntf    fn414706   0.272   6.003   3.683 -0.4243  0.2800  0.6858
 1593ntf    fn414707   0.371   6.012   3.869  0.1062  0.1395 -0.2262
 1593ntf    fn414708   0.450   6.115   3.712 -0.1312 -0.0518 -0.7080
 1593ntf    on514709   0.611   5.859   3.747 -0.3080 -0.7818  0.0184
 1593ntf    on514710   0.399   5.739   3.746  0.1290 -0.7220 -0.5623
 1593ntf    on514711   0.526   5.948   3.313 -0.0139 -0.6213 -0.0942
 1593ntf    on514712   0.706   5.886   3.474 -0.1579  0.0717  0.1583
 1593ntf    fn414713   0.580   5.617   3.472  0.2380 -0.3118  0.3474
 1593ntf    fn414714   0.672   5.667   3.290  0.1989 -0.2512 -0.2903
 1593ntf    fn414715   0.457   5.673   3.296  0.3488  0.3960  0.2697
 1594ntf    cn114716   5.328   4.720   0.639 -0.1369  0.2356  0.2941
 1594ntf    sn214717   5.412   4.821   0.513 -0.0136  0.2626  0.3975
 1594ntf    nn314718   5.369   4.965   0.556 -0.5019  0.2553 -0.0496
 1594ntf    sn214719   5.396   5.101   0.482  0.2825  0.1647  0.0580
 1594ntf    cn114720   5.462   5.190   0.625  0.0064 -0.1764  0.3991
 1594ntf    fn414721   5.364   4.594   0.622  0.1838  0.3011  0.4670
 1594ntf    fn414722   5.356   4.766   0.760  0.1249  0.1062  0.2848
 1594ntf    fn414723   5.196   4.719   0.631 -0.1159  0.0190 -0.0356
 1594ntf    on514724   5.555   4.803   0.527  0.1356  0.2267 -1.0009
 1594ntf    on514725   5.351   4.781   0.388  0.3553  0.6243  0.0978
 1594ntf    on514726   5.509   5.109   0.392 -0.2968  0.6481 -0.6402
 1594ntf    on514727   5.277   5.177   0.452 -0.1998 -0.6567 -0.1706
 1594ntf    fn414728   5.367   5.232   0.708 -0.2390 -0.1363  0.0992
 1594ntf    fn414729   5.543   5.289   0.590  0.1908 -0.4554  0.0386
 1594ntf    fn414730   5.544   5.116   0.698  0.2482 -0.5916 -0.2877
 1595ntf    cn114731   4.759   0.813   5.632  0.0778 -0.1208  0.0623
 1595ntf    sn214732   4.903   0.709   5.593  0.1816 -0.0321  0.2075
 1595ntf    nn314733   4.843   0.577   5.653  0.7634 -0.2332  0.3555
 1595ntf    sn214734   4.847   0.431   5.596 -0.0304 -0.2275  0.2805
 1595ntf    cn114735   4.686   0.424   5.511  0.0914 -0.1753  0.0468
 1595ntf    fn414736   4.734   0.822   5.762 -0.0876  0.6382 -0.0184
 1595ntf    fn414737   4.791   0.932   5.586 -0.4956 -0.0118 -0.0531
 1595ntf    fn414738   4.646   0.786   5.570  0.0765 -0.2185  0.1050
 1595ntf    on514739   4.911   0.705   5.449 -0.4094 -0.2506  0.1789
 1595ntf    on514740   5.004   0.775   5.673  0.1567  0.2698 -0.0078
 1595ntf    on514741   4.943   0.398   5.494 -0.0135  0.1165  0.1860
 1595ntf    on514742   4.819   0.332   5.698  0.0313  0.2597  0.7730
 1595ntf    fn414743   4.589   0.385   5.591  0.0442 -0.0053  0.0738
 1595ntf    fn414744   4.691   0.347   5.404  0.1856  0.1342 -0.1756
 1595ntf    fn414745   4.665   0.543   5.456 -0.1184  0.0367  0.5800
 1596ntf    cn114746   3.737   5.945   5.998  0.0841 -0.1024  0.2167
 1596ntf    sn214747   3.591   5.925   6.105 -0.3429  0.0792 -0.3282
 1596ntf    nn314748   3.616   6.054   6.191 -0.2919 -0.2522  0.1579
 1596ntf    sn214749   3.648   6.073   6.344  0.2832  0.1545 -0.0130
 1596ntf    cn114750   3.498   6.146   6.416  0.2989  0.0156  0.1606
 1596ntf    fn414751   3.737   5.854   5.903 -0.1874 -0.3853  0.4834
 1596ntf    fn414752   3.732   6.064   5.940 -0.0767 -0.1701  0.0905
 1596ntf    fn414753   3.855   5.952   6.057  0.1920  0.2982 -0.0436
 1596ntf    on514754   3.477   5.944   6.018 -0.5813  0.4372  0.0605
 1596ntf    on514755   3.612   5.795   6.165  0.1122  0.1533 -0.3253
 1596ntf    on514756   3.671   5.951   6.417  0.7027 -0.1267 -0.6040
 1596ntf    on514757   3.744   6.181   6.355  1.0384 -0.5079 -0.0018
 1596ntf    fn414758   3.457   6.242   6.335  0.2126  0.0231  0.2131
 1596ntf    fn414759   3.517   6.199   6.535 -0.4600 -0.1565  0.3626
 1596ntf    fn414760   3.395   6.064   6.431  0.1466  0.0378 -0.7015
 1597ntf    cn114761   0.116   5.490   2.663  0.1412  0.0109 -0.0510
 1597ntf    sn214762   0.089   5.657   2.730 -0.0870 -0.1163  0.1735
 1597ntf    nn314763  -0.067   5.671   2.730 -0.1165 -0.4357  0.1611
 1597ntf    sn214764  -0.177   5.611   2.826 -0.1145 -0.1954  0.3146
 1597ntf    cn114765  -0.209   5.760   2.925 -0.0317  0.0565 -0.0346
 1597ntf    fn414766   0.247   5.470   2.655  0.1230 -0.2157  0.2039
 1597ntf    fn414767   0.072   5.394   2.743 -0.1850 -0.0757 -0.3340
 1597ntf    fn414768   0.066   5.480   2.541  0.0591  0.4498 -0.0550
 1597ntf    on514769   0.157   5.643   2.857 -0.1472 -0.2434  0.1919
 1597ntf    on514770   0.149   5.746   2.635 -0.3888 -0.6372 -0.5113
 1597ntf    on514771  -0.301   5.585   2.758  0.2150 -0.2885 -0.2621
 1597ntf    on514772  -0.130   5.516   2.923 -0.0614  0.0640  0.5441
 1597ntf    fn414773  -0.254   5.863   2.855  0.0289  0.2794  0.2550
 1597ntf    fn414774  -0.099   5.807   2.980 -0.2040 -0.0046  0.3669
 1597ntf    fn414775  -0.301   5.738   3.017  0.2778  0.1912  0.3078
 1598ntf    cn114776   2.901   6.025   1.331 -0.0307 -0.4849  0.3445
 1598ntf    sn214777   2.989   6.175   1.384  0.2731 -0.4515 -0.2376
 1598ntf    nn314778   2.863   6.267   1.405  0.9889  0.3702  0.5066
 1598ntf    sn214779   2.802   6.317   1.540  0.1125  0.1930  0.1789
 1598ntf    cn114780   2.626   6.288   1.505  0.0827  0.3029  0.2349
 1598ntf    fn414781   2.992   5.929   1.316  0.4153 -0.0579  0.2699
 1598ntf    fn414782   2.799   5.977   1.399 -0.0679 -0.7086  0.1336
 1598ntf    fn414783   2.854   6.046   1.209  0.2761  0.2712  0.3524
 1598ntf    on514784   3.063   6.129   1.499  0.1993  0.3189  0.1248
 1598ntf    on514785   3.049   6.219   1.261  0.1892 -0.2850 -0.2197
 1598ntf    on514786   2.832   6.236   1.656  0.0306  0.0022  0.0661
 1598ntf    on514787   2.816   6.460   1.554  0.3172  0.2080 -0.1765
 1598ntf    fn414788   2.560   6.315   1.616  0.3100  0.2039  0.3951
 1598ntf    fn414789   2.602   6.163   1.470 -0.4758  0.5792 -0.4014
 1598ntf    fn414790   2.580   6.365   1.407 -0.1308  0.1246  0.1944
 1599ntf    cn114791   3.976   2.861   5.623 -0.0444 -0.3050  0.1925
 1599ntf    sn214792   3.936   2.684   5.632  0.3680 -0.4149 -0.0795
 1599ntf    nn314793   3.784   2.702   5.670  0.3652  0.4099 -0.4458
 1599ntf    sn214794   3.648   2.684   5.593  0.1968  0.2624 -0.1134
 1599ntf    cn114795   3.578   2.538   5.676  0.3361  0.1168 -0.2528
 1599ntf    fn414796   4.097   2.882   5.572 -0.1770 -0.0690 -0.0279
 1599ntf    fn414797   3.900   2.929   5.539  0.9498  0.8085  0.1591
 1599ntf    fn414798   3.967   2.932   5.735 -0.0106  0.3143 -0.1898
 1599ntf    on514799   3.965   2.647   5.496  0.3467 -0.2436 -0.1314
 1599ntf    on514800   4.022   2.630   5.734  0.0409 -0.7971 -0.0038
 1599ntf    on514801   3.540   2.774   5.623  0.3958  0.3969  0.2121
 1599ntf    on514802   3.645   2.632   5.459  0.3425 -0.6149  0.2163
 1599ntf    fn414803   3.474   2.487   5.614  0.4764 -0.2558 -0.1825
 1599ntf    fn414804   3.530   2.572   5.794 -0.0882  0.0250 -0.3996
 1599ntf    fn414805   3.667   2.443   5.697  0.1088  0.0283  0.3350
 1600ntf    cn114806   2.329   2.686   1.948  0.2853 -0.3495  0.4314
 1600ntf    sn214807   2.369   2.508   1.952  0.0223 -0.4145  0.2191
 1600ntf    nn314808   2.501   2.518   1.868 -0.2676 -0.0042 -0.1923
 1600ntf    sn214809   2.544   2.461   1.728  0.0197 -0.0989 -0.0659
 1600ntf    cn114810   2.639   2.316   1.784  0.1313 -0.0364 -0.0945
 1600ntf    fn414811   2.207   2.713   1.990  0.3949  0.3501  0.3036
 1600ntf    fn414812   2.414   2.766   2.009  0.1646  0.1234 -0.0147
 1600ntf    fn414813   2.332   2.720   1.820 -0.0981 -0.4339  0.3983
 1600ntf    on514814   2.404   2.494   2.091 -0.2948  0.0863  0.3494
 1600ntf    on514815   2.256   2.443   1.892  0.2600 -0.2326 -0.4347
 1600ntf    on514816   2.434   2.412   1.648 -0.3265 -0.3879  0.5786
 1600ntf    on514817   2.641   2.551   1.670  0.0668 -0.2606 -0.2398
 1600ntf    fn414818   2.725   2.336   1.883  0.2218  0.5673 -0.2896
 1600ntf    fn414819   2.713   2.271   1.684  0.0833 -0.1825 -0.0637
 1600ntf    fn414820   2.561   2.218   1.825  0.4120 -0.0177  0.5008
 1601ntf    cn114821   4.633   1.277   2.408 -0.3144 -0.4625 -0.1354
 1601ntf    sn214822   4.485   1.332   2.317  0.0082  0.1081 -0.3134
 1601ntf    nn314823   4.492   1.238   2.191 -0.0267 -0.0418 -0.2032
 1601ntf    sn214824   4.399   1.119   2.150 -0.0731 -0.0369 -0.1128
 1601ntf    cn114825   4.241   1.206   2.132 -0.3127 -0.4029  0.1959
 1601ntf    fn414826   4.622   1.146   2.427 -0.7667 -0.4209 -0.0888
 1601ntf    fn414827   4.741   1.292   2.334 -0.1266  0.0681  0.2457
 1601ntf    fn414828   4.651   1.336   2.525 -0.3484 -0.2287 -0.2475
 1601ntf    on514829   4.378   1.309   2.411  0.3641 -0.2073  0.0184
 1601ntf    on514830   4.515   1.470   2.285 -0.0488  0.0431 -0.6533
 1601ntf    on514831   4.432   1.070   2.018  0.0395 -0.7510  0.1739
 1601ntf    on514832   4.380   1.016   2.250 -0.0300  0.5300  0.4824
 1601ntf    fn414833   4.152   1.143   2.056 -0.1291  0.0570 -0.4083
 1601ntf    fn414834   4.265   1.318   2.066 -0.2318 -0.6612 -0.2187
 1601ntf    fn414835   4.174   1.234   2.242 -0.2521  0.1090  0.1036
 1602ntf    cn114836   4.241   2.063   5.957  0.1582 -0.1482 -0.0395
 1602ntf    sn214837   4.070   2.002   5.964  0.1616 -0.1556 -0.0130
 1602ntf    nn314838   3.985   2.125   6.013  0.4532 -0.0959  0.3414
 1602ntf    sn214839   3.876   2.129   6.126 -0.0341 -0.2348 -0.1205
 1602ntf    cn114840   3.775   2.265   6.060  0.3290  0.2276  0.2657
 1602ntf    fn414841   4.253   2.142   5.852 -0.2827  0.1502  0.1287
 1602ntf    fn414842   4.275   2.137   6.061 -0.2163  0.5972 -0.4419
 1602ntf    fn414843   4.329   1.965   5.945 -0.0478 -0.3525  0.1069
 1602ntf    on514844   4.040   1.976   5.825  0.1795  0.1286 -0.0704
 1602ntf    on514845   4.071   1.892   6.056 -0.6474 -0.2384 -0.0948
 1602ntf    on514846   3.790   2.013   6.125 -0.8933  0.3876  0.3597
 1602ntf    on514847   3.930   2.178   6.250  0.1480 -0.3413 -0.1559
 1602ntf    fn414848   3.660   2.279   6.125  0.1957 -0.1540  0.1138
 1602ntf    fn414849   3.743   2.245   5.933  0.4837 -0.2911  0.3056
 1602ntf    fn414850   3.837   2.381   6.052  0.1434  0.2968 -0.1993
 1603ntf    cn114851   3.156   1.785   0.215 -0.5470  0.0573  0.2635
 1603ntf    sn214852   3.029   1.661   0.177 -0.0802 -0.2992 -0.1325
 1603ntf    nn314853   3.066   1.543   0.274 -0.4155 -0.1413  0.1906
 1603ntf    sn214854   3.008   1.496   0.412 -0.0457  0.0470  0.4109
 1603ntf    cn114855   2.881   1.382   0.351  0.0928  0.0998  0.0200
 1603ntf    fn414856   3.278   1.752   0.178 -0.6444  0.3558 -0.3341
 1603ntf    fn414857   3.132   1.902   0.157  0.2978  0.2229  0.2364
 1603ntf    fn414858   3.167   1.811   0.345 -0.2999 -0.6525  0.3855
 1603ntf    on514859   2.905   1.730   0.202  0.4588  0.5463  0.2651
 1603ntf    on514860   3.049   1.623   0.039 -0.6561 -0.3103 -0.2157
 1603ntf    on514861   3.102   1.406   0.475  0.3571 -0.2186 -0.5535
 1603ntf    on514862   2.942   1.589   0.501 -0.0827 -0.2874  0.7333
 1603ntf    fn414863   2.805   1.437   0.258  0.5936  0.5242 -0.1428
 1603ntf    fn414864   2.811   1.338   0.455  0.6934 -0.2284  0.2916
 1603ntf    fn414865   2.936   1.272   0.302 -0.0218 -0.0838  0.2955
 1604ntf    cn114866   4.217   2.259   3.468  0.4179 -0.0210  0.2245
 1604ntf    sn214867   4.342   2.131   3.504  0.2407 -0.2676 -0.0315
 1604ntf    nn314868   4.403   2.182   3.639 -0.0687 -0.3347  0.1360
 1604ntf    sn214869   4.507   2.296   3.669 -0.1544 -0.2126 -0.0320
 1604ntf    cn114870   4.648   2.213   3.749 -0.1713 -0.0096  0.2074
 1604ntf    fn414871   4.267   2.381   3.458  0.0407  0.1009 -0.2354
 1604ntf    fn414872   4.151   2.241   3.355  0.1664  0.3173  0.3185
 1604ntf    fn414873   4.131   2.254   3.569  0.0769  0.1792 -0.0526
 1604ntf    on514874   4.265   2.011   3.524 -0.1308 -0.0684 -0.2520
 1604ntf    on514875   4.434   2.129   3.393  0.2914  0.2843 -0.0051
 1604ntf    on514876   4.563   2.361   3.554 -0.5513  0.5509  0.2006
 1604ntf    on514877   4.466   2.374   3.783  0.4025 -0.2691  0.2125
 1604ntf    fn414878   4.693   2.109   3.680  0.5121  0.0450  0.5614
 1604ntf    fn414879   4.607   2.173   3.868  0.0700  0.3301  0.4090
 1604ntf    fn414880   4.747   2.298   3.771 -0.0728 -0.2851  0.8447
 1605ntf    cn114881   0.929   4.448   5.501  0.8284 -0.3261  0.2163
 1605ntf    sn214882   0.932   4.305   5.389  0.0211  0.0295 -0.2741
 1605ntf    nn314883   0.847   4.193   5.459 -0.0401 -0.1497 -0.6325
 1605ntf    sn214884   0.899   4.086   5.560 -0.2550  0.0830 -0.2744
 1605ntf    cn114885   0.763   4.040   5.672  0.0230 -0.2483 -0.0695
 1605ntf    fn414886   0.938   4.417   5.629 -0.0977  0.0564  0.3837
 1605ntf    fn414887   1.012   4.543   5.463  0.2573  0.0453 -0.1331
 1605ntf    fn414888   0.811   4.507   5.489  0.7606 -0.3439  0.7639
 1605ntf    on514889   0.863   4.354   5.272  0.2534  0.2691 -0.3119
 1605ntf    on514890   1.072   4.278   5.366 -0.0362  0.1065 -0.7295
 1605ntf    on514891   0.931   3.965   5.488 -0.4230 -0.2920  0.2703
 1605ntf    on514892   1.001   4.123   5.655 -0.6492 -0.6600  0.4613
 1605ntf    fn414893   0.643   4.032   5.615 -0.1311 -0.1716  0.2416
 1605ntf    fn414894   0.737   4.125   5.769 -0.6616 -0.3007 -0.1958
 1605ntf    fn414895   0.785   3.920   5.722  0.8652  0.0843  0.3696
 1606ntf    cn114896   5.383   0.441   4.084 -0.1537  0.1760  0.5506
 1606ntf    sn214897   5.381   0.598   3.993  0.0162  0.2206  0.6214
 1606ntf    nn314898   5.267   0.563   3.891 -0.2121  0.1875  0.8857
 1606ntf    sn214899   5.119   0.613   3.879 -0.2358  0.0088  0.4039
 1606ntf    cn114900   5.138   0.741   3.752 -0.0752 -0.2865  0.1259
 1606ntf    fn414901   5.490   0.431   4.162 -0.1645  0.1245  0.5585
 1606ntf    fn414902   5.276   0.431   4.160 -0.6621  0.2013 -0.1578
 1606ntf    fn414903   5.375   0.328   4.016 -0.2453  0.4731  0.0615
 1606ntf    on514904   5.363   0.709   4.084 -0.0801  0.9582 -0.2796
 1606ntf    on514905   5.509   0.596   3.927 -0.2398 -0.7474  0.1318
 1606ntf    on514906   5.016   0.534   3.815  0.2114 -0.3313  0.0959
 1606ntf    on514907   5.078   0.689   3.994  0.0084  0.3394  0.2719
 1606ntf    fn414908   5.027   0.785   3.695  0.3279  0.0231 -0.4297
 1606ntf    fn414909   5.216   0.702   3.653 -0.0314  0.1558 -0.0173
 1606ntf    fn414910   5.197   0.848   3.804 -0.1100 -0.1446 -0.1252
 1607ntf    cn114911   3.692   0.866   2.829  0.1789  0.3825 -0.1703
 1607ntf    sn214912   3.666   0.947   2.989 -0.3091 -0.3672  0.1361
 1607ntf    nn314913   3.509   0.937   2.994 -0.3265 -0.3845 -0.3839
 1607ntf    sn214914   3.399   1.033   2.938 -0.0247  0.2027  0.0160
 1607ntf    cn114915   3.320   0.932   2.809  0.0282 -0.0481  0.1799
 1607ntf    fn414916   3.821   0.877   2.802  0.2867 -0.2055  0.0806
 1607ntf    fn414917   3.650   0.741   2.831  0.2203  0.3727  0.0970
 1607ntf    fn414918   3.628   0.927   2.731  0.1109  0.4184 -0.1029
 1607ntf    on514919   3.732   0.855   3.078 -0.0581 -0.5253 -0.2133
 1607ntf    on514920   3.728   1.077   2.982 -0.2494 -0.4030 -0.0043
 1607ntf    on514921   3.301   1.066   3.039  0.0071 -0.1056  0.1478
 1607ntf    on514922   3.456   1.139   2.859 -0.3395  0.6072  0.3281
 1607ntf    fn414923   3.215   0.995   2.760  0.1719 -0.1720 -0.2910
 1607ntf    fn414924   3.275   0.827   2.875 -0.1273  0.1646  0.4153
 1607ntf    fn414925   3.393   0.889   2.707 -0.4581  0.0169 -0.1945
 1608ntf    cn114926   3.244   0.721   0.113  0.1701 -0.4062 -0.1534
 1608ntf    sn214927   3.103   0.655   0.020 -0.1787 -0.0369  0.1133
 1608ntf    nn314928   2.995   0.755   0.075 -0.1664  0.2016 -0.2854
 1608ntf    sn214929   2.840   0.735   0.063 -0.1914  0.0863  0.1840
 1608ntf    cn114930   2.812   0.872  -0.054  0.0072 -0.1542 -0.1490
 1608ntf    fn414931   3.357   0.655   0.091  0.4394 -0.1585  0.4553
 1608ntf    fn414932   3.269   0.845   0.077  0.0604 -0.4230 -0.2859
 1608ntf    fn414933   3.216   0.716   0.242  0.1630 -0.3790 -0.1539
 1608ntf    on514934   3.142   0.672  -0.118 -0.3686 -0.4476  0.0074
 1608ntf    on514935   3.091   0.522   0.072  0.2597 -0.0023  0.3014
 1608ntf    on514936   2.792   0.622  -0.013  0.0689 -0.1278  0.3369
 1608ntf    on514937   2.769   0.779   0.180  0.3291  0.3910  0.3865
 1608ntf    fn414938   2.809   0.987   0.011 -0.0687 -0.0136 -0.4043
 1608ntf    fn414939   2.690   0.873  -0.107  0.0186 -0.2661 -0.1775
 1608ntf    fn414940   2.889   0.882  -0.160 -0.1787 -0.0578 -0.2759
 1609ntf    cn114941   2.249   0.232   5.551 -0.2921 -0.0893 -0.2912
 1609ntf    sn214942   2.290   0.168   5.386 -0.0080 -0.1139 -0.2124
 1609ntf    nn314943   2.408   0.073   5.425  0.2000  0.1416 -0.2188
 1609ntf    sn214944   2.563   0.100   5.428  0.2284 -0.0409  0.0127
 1609ntf    cn114945   2.621  -0.007   5.293 -0.0505  0.2254 -0.3194
 1609ntf    fn414946   2.343   0.314   5.595 -0.4367 -0.0018 -0.1449
 1609ntf    fn414947   2.136   0.301   5.560 -0.0570  0.2670 -0.0190
 1609ntf    fn414948   2.235   0.139   5.644 -0.5839  0.4168  0.1764
 1609ntf    on514949   2.173   0.091   5.350 -0.1624 -0.1489  0.3554
 1609ntf    on514950   2.328   0.283   5.307  0.3654  0.0524  0.2093
 1609ntf    on514951   2.606   0.232   5.389 -0.1676  0.1991  0.3765
 1609ntf    on514952   2.623   0.044   5.546  0.3736  0.4907  0.1944
 1609ntf    fn414953   2.562   0.006   5.175 -0.3266  0.0519 -0.1988
 1609ntf    fn414954   2.609  -0.134   5.325  0.0667  0.2811 -0.0529
 1609ntf    fn414955   2.752   0.005   5.278 -0.0671  0.0048 -0.6386
 1610ntf    cn114956   3.695   6.557   0.076 -0.1978  0.4212 -0.0733
 1610ntf    sn214957   3.811   6.628   0.196 -0.0690  0.0488  0.0242
 1610ntf    nn314958   3.831   6.771   0.135 -0.2141  0.1256  0.1551
 1610ntf    sn214959   3.738   6.895   0.162  0.0025  0.3457 -0.1078
 1610ntf    cn114960   3.822   6.975   0.302 -0.6826  0.3838  0.2837
 1610ntf    fn414961   3.656   6.434   0.106  0.5563  0.1885 -0.0150
 1610ntf    fn414962   3.586   6.625   0.046 -0.7620 -0.2589  0.4068
 1610ntf    fn414963   3.765   6.556  -0.036 -0.2140 -0.5319 -0.0802
 1610ntf    on514964   3.746   6.630   0.325 -0.3668 -0.1528 -0.1216
 1610ntf    on514965   3.920   6.534   0.182 -0.1777  0.0375 -0.7967
 1610ntf    on514966   3.753   6.982   0.048  0.8082  0.1469 -0.1585
 1610ntf    on514967   3.605   6.867   0.209  0.1244 -0.2980 -0.1423
 1610ntf    fn414968   3.772   7.094   0.332 -0.6542  0.4283  0.1543
 1610ntf    fn414969   3.953   6.990   0.288 -0.6230  0.1770  0.6049
 1610ntf    fn414970   3.816   6.911   0.417 -0.1936 -0.0871  0.0496
 1611ntf    cn114971   1.976   5.706   2.935  0.4844  0.2351  0.0268
 1611ntf    sn214972   1.939   5.842   2.821 -0.0131  0.1111  0.0383
 1611ntf    nn314973   1.870   5.949   2.913  0.0277  0.5927 -0.4796
 1611ntf    sn214974   1.947   6.036   3.018  0.0429 -0.0609  0.0609
 1611ntf    cn114975   1.857   6.005   3.173 -0.1134 -0.3665 -0.0903
 1611ntf    fn414976   1.861   5.672   2.990  0.3159  0.0098 -0.4597
 1611ntf    fn414977   2.027   5.599   2.876 -0.1736 -0.0841  0.0348
 1611ntf    fn414978   2.061   5.738   3.032 -0.0601  0.0679  0.5622
 1611ntf    on514979   2.069   5.884   2.774 -0.0147 -0.1211 -0.1796
 1611ntf    on514980   1.855   5.785   2.718  0.0930  0.3128 -0.1619
 1611ntf    on514981   2.083   6.004   3.053  0.3396  0.4546 -0.5966
 1611ntf    on514982   1.921   6.175   2.989 -0.3298 -0.0783  0.3039
 1611ntf    fn414983   1.726   6.008   3.160 -0.0260  0.5212 -0.8253
 1611ntf    fn414984   1.887   6.087   3.272  0.0289 -0.3901 -0.1137
 1611ntf    fn414985   1.890   5.882   3.210  0.2585 -0.3830 -0.4699
 1612ntf    cn114986   5.184   4.705   2.611 -0.1749 -0.0453  0.2564
 1612ntf    sn214987   5.248   4.806   2.749 -0.0420 -0.1349  0.2601
 1612ntf    nn314988   5.196   4.721   2.870 -0.2002  0.3444  0.5304
 1612ntf    sn214989   5.285   4.664   2.987 -0.2393 -0.2195  0.2865
 1612ntf    cn114990   5.352   4.513   2.911 -0.0666 -0.0564  0.1112
 1612ntf    fn414991   5.250   4.592   2.590 -0.2102 -0.0103 -0.0419
 1612ntf    fn414992   5.061   4.664   2.637 -0.3134  0.0124 -0.2963
 1612ntf    fn414993   5.179   4.775   2.499 -0.5429  0.1203  0.3744
 1612ntf    on514994   5.390   4.807   2.724 -0.1218  0.1476 -0.2118
 1612ntf    on514995   5.174   4.929   2.732 -0.3251 -0.2385  0.7413
 1612ntf    on514996   5.395   4.750   3.021 -0.5813  0.0988  0.5893
 1612ntf    on514997   5.210   4.616   3.100 -0.2810 -0.4507  0.1611
 1612ntf    fn414998   5.422   4.442   2.998  0.1694 -0.1791 -0.1769
 1612ntf    fn414999   5.445   4.541   2.821  0.0262  0.1135  0.2593
 1612ntf    fn415000   5.260   4.433   2.860 -0.6040  0.5526  0.1107
 1613ntf    cn115001   1.746   2.434   6.165 -0.3457  0.0185 -0.2436
 1613ntf    sn215002   1.786   2.258   6.144 -0.4843 -0.0448  0.0260
 1613ntf    nn315003   1.863   2.232   6.278 -0.2568 -0.3537 -0.1633
 1613ntf    sn215004   1.864   2.114   6.381  0.0838  0.0104  0.2582
 1613ntf    cn115005   2.032   2.053   6.349  0.0243 -0.0172  0.0013
 1613ntf    fn415006   1.661   2.463   6.262  0.0720  0.4151  0.0070
 1613ntf    fn415007   1.855   2.503   6.194 -0.3982 -0.0196  0.0453
 1613ntf    fn415008   1.689   2.492   6.060 -0.2949  0.0873 -0.2331
 1613ntf    on515009   1.659   2.190   6.132 -0.4920 -0.0241 -0.0121
 1613ntf    on515010   1.874   2.257   6.030  0.2189  0.2113  0.5587
 1613ntf    on515011   1.876   2.168   6.514  0.2881  0.0952  0.2049
 1613ntf    on515012   1.771   2.005   6.365  0.2144 -0.0507 -0.0893
 1613ntf    fn415013   2.091   2.003   6.456  0.3429 -0.3834 -0.3400
 1613ntf    fn415014   2.112   2.148   6.304  0.5054 -0.2778  0.3023
 1613ntf    fn415015   2.040   1.956   6.260  0.3785 -0.0219  0.0382
 1614ntf    cn115016   0.283   4.835   1.431 -0.5737  0.0932  0.0116
 1614ntf    sn215017   0.208   4.717   1.548 -0.0865 -0.0924  0.1367
 1614ntf    nn315018   0.064   4.777   1.562  0.1097  0.5986 -0.6690
 1614ntf    sn215019  -0.055   4.746   1.464 -0.1546 -0.4289 -0.0387
 1614ntf    cn115020  -0.132   4.910   1.448 -0.0219 -0.3720 -0.0847
 1614ntf    fn415021   0.195   4.876   1.341 -0.2719  0.0941 -0.2803
 1614ntf    fn415022   0.318   4.946   1.494  0.1614  0.1135 -0.4224
 1614ntf    fn415023   0.386   4.784   1.367 -0.0495  0.1297  0.8194
 1614ntf    on515024   0.218   4.587   1.488  0.1237 -0.0340  0.0434
 1614ntf    on515025   0.281   4.746   1.669 -0.4399 -0.6277  0.4781
 1614ntf    on515026  -0.017   4.701   1.333 -0.1593  0.2426 -0.2750
 1614ntf    on515027  -0.158   4.665   1.525 -0.1170  0.1882  0.8693
 1614ntf    fn415028  -0.062   4.994   1.373 -0.1620  0.2489  0.4727
 1614ntf    fn415029  -0.137   4.969   1.566  0.6815  0.2483 -0.3586
 1614ntf    fn415030  -0.254   4.901   1.398 -0.4463  0.4712  0.7773
 1615ntf    cn115031   2.259   0.204   0.198 -0.1127 -0.2071 -0.1665
 1615ntf    sn215032   2.299   0.125   0.039  0.0196  0.0270 -0.2510
 1615ntf    nn315033   2.245  -0.019   0.074 -0.0999  0.1101 -0.0911
 1615ntf    sn215034   2.099  -0.073   0.053  0.0369 -0.1615 -0.3556
 1615ntf    cn115035   2.084  -0.201   0.182  0.1363  0.1489 -0.0351
 1615ntf    fn415036   2.339   0.305   0.228  0.2434 -0.5189 -0.0546
 1615ntf    fn415037   2.139   0.258   0.203  0.0993  0.2612 -0.1122
 1615ntf    fn415038   2.276   0.120   0.299  0.4627  0.0235 -0.0644
 1615ntf    on515039   2.229   0.203  -0.060 -0.4779  0.4713  0.4365
 1615ntf    on515040   2.442   0.133   0.032  0.0096  0.5370  0.1023
 1615ntf    on515041   1.999   0.025   0.088  0.3517 -0.0671  0.3042
 1615ntf    on515042   2.076  -0.148  -0.067 -1.0135 -0.0194 -0.2537
 1615ntf    fn415043   2.084  -0.152   0.305 -0.0265  0.3464 -0.1121
 1615ntf    fn415044   2.177  -0.294   0.171 -0.5822 -0.4612 -1.0292
 1615ntf    fn415045   1.967  -0.259   0.161 -0.0946  0.5583  0.1029
 1616ntf    cn115046   4.444   0.732   0.709  0.3190 -0.3276 -0.6748
 1616ntf    sn215047   4.301   0.772   0.604 -0.2612 -0.0295  0.2202
 1616ntf    nn315048   4.308   0.641   0.518  0.2440  0.1393  0.0002
 1616ntf    sn215049   4.185   0.548   0.486  0.0261  0.5346 -0.3160
 1616ntf    cn115050   4.248   0.467   0.336  0.2084  0.0167  0.0366
 1616ntf    fn415051   4.461   0.840   0.783 -0.1914 -0.7313  0.0409
 1616ntf    fn415052   4.411   0.634   0.792  0.2293  0.2951  0.0268
 1616ntf    fn415053   4.552   0.695   0.641  0.1895 -0.5643 -0.7523
 1616ntf    on515054   4.191   0.785   0.696 -0.3087 -0.4047  0.2210
 1616ntf    on515055   4.352   0.884   0.530 -0.1378 -0.1501  0.1203
 1616ntf    on515056   4.160   0.441   0.579  0.5139  0.1438 -0.6326
 1616ntf    on515057   4.076   0.618   0.423 -0.4162 -0.1155 -0.2791
 1616ntf    fn415058   4.181   0.361   0.295 -0.4091  0.3465  0.1909
 1616ntf    fn415059   4.376   0.434   0.346  0.3149  0.4616  0.1802
 1616ntf    fn415060   4.242   0.551   0.233 -0.2287 -0.2517 -0.1601
 1617ntf    cn115061   6.239   4.264   1.587 -0.0486 -0.5388 -0.5019
 1617ntf    sn215062   6.245   4.187   1.751 -0.1346  0.2002 -0.1475
 1617ntf    nn315063   6.386   4.239   1.795 -0.1318  0.1969 -0.1545
 1617ntf    sn215064   6.428   4.297   1.935 -0.1041 -0.0595 -0.0560
 1617ntf    cn115065   6.394   4.472   1.900 -0.3682 -0.1383 -0.1981
 1617ntf    fn415066   6.246   4.396   1.592 -0.1469 -0.5504 -0.0170
 1617ntf    fn415067   6.327   4.219   1.499  0.3502 -0.0798 -0.3441
 1617ntf    fn415068   6.120   4.236   1.537 -0.5700  0.0445  0.3910
 1617ntf    on515069   6.137   4.244   1.828  0.2678  0.6015  0.1257
 1617ntf    on515070   6.233   4.047   1.719  0.2906  0.1678 -0.1764
 1617ntf    on515071   6.342   4.276   2.049  0.1574 -0.8522  0.0018
 1617ntf    on515072   6.570   4.297   1.962 -0.1434  0.0766  0.1521
 1617ntf    fn415073   6.447   4.507   1.784  0.8063 -0.2077  0.3016
 1617ntf    fn415074   6.439   4.554   1.993 -0.4341 -0.3479  0.0189
 1617ntf    fn415075   6.264   4.496   1.892 -0.4130 -0.1021  0.5766
 1618ntf    cn115076   0.681   1.220   2.644  0.0185  0.0507 -0.1057
 1618ntf    sn215077   0.787   1.088   2.576 -0.3041 -0.4108  0.2780
 1618ntf    nn315078   0.926   1.138   2.630 -0.2133  0.0110 -0.3365
 1618ntf    sn215079   1.029   1.244   2.578  0.3139 -0.1877  0.2984
 1618ntf    cn115080   1.168   1.143   2.519  0.0648 -0.2590 -0.1747
 1618ntf    fn415081   0.694   1.332   2.575 -0.1551  0.0974 -0.0630
 1618ntf    fn415082   0.553   1.190   2.655 -0.0214  0.0464 -0.5650
 1618ntf    fn415083   0.707   1.257   2.769  0.2114 -0.8243  0.1221
 1618ntf    on515084   0.742   0.967   2.641 -0.7547 -0.2952  0.1827
 1618ntf    on515085   0.771   1.091   2.433 -0.0297  0.1000  0.2562
 1618ntf    on515086   0.998   1.319   2.459  0.0057 -0.5265  0.1629
 1618ntf    on515087   1.084   1.316   2.691  0.7678  0.2043 -0.1705
 1618ntf    fn415088   1.221   1.083   2.625  0.1382  0.1587  0.0288
 1618ntf    fn415089   1.269   1.216   2.473 -0.1720  0.0146 -0.2605
 1618ntf    fn415090   1.130   1.054   2.429  0.2808 -0.2336 -0.2927
 1619ntf    cn115091   5.414   1.997   0.751  0.0611  0.5293  0.1454
 1619ntf    sn215092   5.238   2.038   0.769 -0.1140 -0.1198 -0.0770
 1619ntf    nn315093   5.173   1.903   0.722  0.0846 -0.2516  0.0237
 1619ntf    sn215094   5.163   1.771   0.805  0.0467 -0.2210  0.0676
 1619ntf    cn115095   5.006   1.806   0.891  0.1897 -0.0734  0.2686
 1619ntf    fn415096   5.494   2.102   0.764  0.4755  0.2495 -0.1316
 1619ntf    fn415097   5.455   1.898   0.829 -0.0726  0.0630 -0.3764
 1619ntf    fn415098   5.433   1.946   0.631  0.8986 -0.5476  0.7145
 1619ntf    on515099   5.220   2.070   0.909 -0.4149  0.1552 -0.1755
 1619ntf    on515100   5.220   2.149   0.678  0.3434  0.1365  0.1415
 1619ntf    on515101   5.129   1.654   0.727 -0.0280 -0.2635  0.1626
 1619ntf    on515102   5.259   1.753   0.911 -0.6536 -0.5819  0.6528
 1619ntf    fn415103   5.014   1.891   0.993 -0.5898  0.2090  0.1002
 1619ntf    fn415104   4.951   1.696   0.937 -0.1799 -0.1326 -0.3059
 1619ntf    fn415105   4.918   1.855   0.805  0.2851  0.0933  0.2639
 1620ntf    cn115106   3.996   3.833   5.506 -0.4683  0.2984  0.2457
 1620ntf    sn215107   4.070   3.983   5.436  0.0480 -0.0479  0.0429
 1620ntf    nn315108   4.031   4.079   5.555  0.0902  0.0740 -0.0419
 1620ntf    sn215109   4.120   4.108   5.681  0.0455  0.0125  0.0036
 1620ntf    cn115110   4.216   4.248   5.618  0.1902 -0.1142 -0.0600
 1620ntf    fn415111   3.867   3.852   5.532 -0.3494  0.4910  0.7029
 1620ntf    fn415112   4.000   3.731   5.422 -0.2530  0.2254  0.3437
 1620ntf    fn415113   4.055   3.798   5.619 -0.8103  0.3268  0.4380
 1620ntf    on515114   4.208   3.944   5.429 -0.1747 -0.8674  0.1170
 1620ntf    on515115   4.006   4.007   5.309  0.1180  0.4839  0.1055
 1620ntf    on515116   4.040   4.173   5.782  0.5534  0.1712  0.3024
 1620ntf    on515117   4.205   3.998   5.718  0.2955  0.1905 -0.0426
 1620ntf    fn415118   4.282   4.225   5.505 -0.4377  0.2096 -0.5048
 1620ntf    fn415119   4.308   4.282   5.706  0.3089 -0.2145 -0.1443
 1620ntf    fn415120   4.142   4.354   5.589  0.0726 -0.1341  0.1684
   6.64168   6.64168   6.64168
