Converted from moscito
25920
    1SOL     ow    1   2.472   1.041   5.778 -0.0583 -0.4357  0.1297
    1SOL     hw    2   2.389   1.007   5.813  0.3397  0.7422  2.3975
    1SOL     hw    3   2.472   1.134   5.802 -0.0574  0.7566 -3.8233
    1SOL     vw    4   2.461   1.049   5.786 -0.0058 -0.1230 -0.0927
    2SOL     ow    5   2.407   5.368   2.447 -0.1713 -1.1410 -0.1967
    2SOL     hw    6   2.422   5.306   2.375 -1.4217 -0.9922 -0.6073
    2SOL     hw    7   2.312   5.372   2.457 -0.0696 -0.2257  0.6578
    2SOL     vw    8   2.397   5.361   2.439 -0.3228 -1.0006 -0.1380
    3SOL     ow    9   2.339   2.273   6.394 -0.6894  0.1555  0.1748
    3SOL     hw   10   2.371   2.195   6.347 -1.1337  0.3487 -0.4657
    3SOL     hw   11   2.370   2.261   6.483  1.2350  0.3793 -0.4292
    3SOL     vw   12   2.347   2.261   6.399 -0.4942  0.2104  0.0107
    4SOL     ow   13   5.195   2.129   1.440 -0.5776 -0.3391 -0.5221
    4SOL     hw   14   5.281   2.168   1.429 -0.6672  0.4786  1.3491
    4SOL     hw   15   5.208   2.036   1.418  0.4308  0.0299 -1.5922
    4SOL     vw   16   5.208   2.122   1.435 -0.4563 -0.1825 -0.4165
    5SOL     ow   17   2.239   7.040   6.901 -0.5583 -0.4964  0.3820
    5SOL     hw   18   2.334   7.045   6.911 -0.3737 -1.5870 -0.5970
    5SOL     hw   19   2.219   7.104   6.833 -0.4393 -0.6774  0.1741
    5SOL     vw   20   2.249   7.049   6.893 -0.5182 -0.6640  0.2253
    6SOL     ow   21   0.138   1.366   2.785 -0.3689  0.4186 -0.1706
    6SOL     hw   22   0.071   1.337   2.723 -0.3760  1.0914 -0.4868
    6SOL     hw   23   0.093   1.368   2.870 -0.4360 -0.2306 -0.1868
    6SOL     vw   24   0.123   1.362   2.788 -0.3787  0.4218 -0.2146
    7SOL     ow   25   5.444   5.164   6.184 -0.1925 -0.2090  0.6279
    7SOL     hw   26   5.403   5.138   6.266  0.2366  0.7604  1.1609
    7SOL     hw   27   5.479   5.082   6.148  1.1508 -0.4063  2.2722
    7SOL     vw   28   5.443   5.149   6.190  0.0417 -0.1070  0.9151
    8SOL     ow   29   4.732   3.096   2.998 -0.1216  0.6455  0.2747
    8SOL     hw   30   4.738   3.027   2.933 -0.9810  0.8765 -0.0588
    8SOL     hw   31   4.801   3.158   2.975 -0.3699  0.6844 -0.3677
    8SOL     vw   32   4.742   3.095   2.987 -0.2680  0.6813  0.1458
    9SOL     ow   33   6.553   1.730   0.782  0.2195 -0.2691 -0.3397
    9SOL     hw   34   6.461   1.705   0.790  0.6043 -1.7050 -0.1041
    9SOL     hw   35   6.557   1.784   0.704 -0.1182 -4.0569 -3.2626
    9SOL     vw   36   6.541   1.734   0.773  0.2255 -0.9583 -0.6943
   10SOL     ow   37   1.186   1.730   6.988 -0.0617 -0.4430 -0.3158
   10SOL     hw   38   1.149   1.810   7.025 -0.0198 -0.0218 -1.1677
   10SOL     hw   39   1.143   1.721   6.903 -0.4748 -1.6267 -0.0073
   10SOL     vw   40   1.175   1.739   6.982 -0.1106 -0.5436 -0.3874
   11SOL     ow   41   6.323   5.624   6.108 -0.5540  0.2593  0.1056
   11SOL     hw   42   6.321   5.647   6.015  1.5984  2.5894  0.5259
   11SOL     hw   43   6.332   5.529   6.109 -3.6792 -0.2138 -1.9234
   11SOL     vw   44   6.324   5.614   6.096 -0.6824  0.5043 -0.1068
   12SOL     ow   45   6.901   5.721   1.110 -0.1800 -0.5970  0.2387
   12SOL     hw   46   6.808   5.739   1.103  0.2211  1.5450 -0.1646
   12SOL     hw   47   6.942   5.779   1.046  1.5269 -0.5143  1.3355
   12SOL     vw   48   6.894   5.731   1.100  0.0980 -0.3035  0.3302
   13SOL     ow   49   2.263   5.914   5.741  0.0771 -0.0215 -0.5885
   13SOL     hw   50   2.275   5.956   5.826 -0.4268 -0.2208 -0.4137
   13SOL     hw   51   2.336   5.945   5.688 -1.2463  2.5312 -1.0614
   13SOL     vw   52   2.274   5.923   5.745 -0.1640  0.2890 -0.6278
   14SOL     ow   53   0.548   5.291   5.322  0.0592  0.1257  0.0230
   14SOL     hw   54   0.522   5.380   5.300  1.1020  0.4796  0.1593
   14SOL     hw   55   0.584   5.255   5.240 -0.5444 -0.2424 -0.0835
   14SOL     vw   56   0.549   5.298   5.308  0.1172  0.1235  0.0272
   15SOL     ow   57   6.536   5.091   3.063  0.6314  0.2544 -0.4113
   15SOL     hw   58   6.485   5.172   3.063  0.5448  0.2254  0.8932
   15SOL     hw   59   6.610   5.110   3.120  1.5430 -0.0404 -1.4748
   15SOL     vw   60   6.539   5.104   3.071  0.7403  0.2117 -0.3794
   16SOL     ow   61   1.142   5.395   2.380 -0.4432 -0.4175  0.6158
   16SOL     hw   62   1.133   5.483   2.418 -0.7583 -0.7595  1.3301
   16SOL     hw   63   1.075   5.392   2.311  0.8648  0.6050 -0.7776
   16SOL     vw   64   1.132   5.406   2.376 -0.3123 -0.3281  0.5262
   17SOL     ow   65   6.070   0.387   6.078 -0.6371  0.1804 -0.4811
   17SOL     hw   66   6.085   0.404   6.171 -1.7204 -0.0275 -0.2604
   17SOL     hw   67   5.977   0.366   6.071 -0.4183 -0.5638 -1.5070
   17SOL     vw   68   6.060   0.387   6.089 -0.7513  0.0548 -0.5872
   18SOL     ow   69   3.438   2.430   3.533 -0.1543 -0.4443 -0.2121
   18SOL     hw   70   3.354   2.386   3.527  0.3383 -1.2162 -2.1431
   18SOL     hw   71   3.457   2.460   3.444  3.0807 -3.2149 -0.6772
   18SOL     vw   72   3.429   2.428   3.521  0.3375 -0.9118 -0.5282
   19SOL     ow   73   4.125   5.025   2.658  0.0681 -0.4535  0.0576
   19SOL     hw   74   4.122   5.006   2.564  0.3887 -0.1711 -0.0137
   19SOL     hw   75   4.160   4.945   2.697  0.6331 -0.3171 -0.1504
   19SOL     vw   76   4.129   5.012   2.651  0.1850 -0.3982  0.0207
   20SOL     ow   77   3.558   1.671   4.011  0.0710 -0.6610  0.1588
   20SOL     hw   78   3.629   1.736   4.014 -1.5432  1.1778  0.3585
   20SOL     hw   79   3.586   1.609   3.943  1.8661 -0.0213  0.2539
   20SOL     vw   80   3.571   1.671   4.002  0.0948 -0.3340  0.1979
   21SOL     ow   81   0.286   5.365   6.711  0.4392  0.0775  0.1613
   21SOL     hw   82   0.249   5.451   6.731  1.5011  0.8181 -0.9324
   21SOL     hw   83   0.276   5.315   6.792 -0.0573  1.2763  0.8675
   21SOL     vw   84   0.280   5.369   6.724  0.5138  0.3331  0.1101
   22SOL     ow   85   4.242   5.144   6.553  0.2354  0.0038  0.3536
   22SOL     hw   86   4.234   5.231   6.593  2.1827  0.4685 -0.1351
   22SOL     hw   87   4.314   5.103   6.600  1.3217 -0.1628 -1.3569
   22SOL     vw   88   4.251   5.150   6.564  0.6356  0.0432  0.0634
   23SOL     ow   89   2.528   0.478   2.510 -0.0078  0.3526  0.6575
   23SOL     hw   90   2.522   0.574   2.506  0.1394  0.3240 -2.2765
   23SOL     hw   91   2.438   0.450   2.527 -0.8666  1.0022 -2.2738
   23SOL     vw   92   2.515   0.487   2.511 -0.1017  0.4345 -0.1162
   24SOL     ow   93   0.361   1.143   1.336 -0.3782  0.1327  0.7547
   24SOL     hw   94   0.400   1.171   1.419  0.3273 -1.2165  0.9048
   24SOL     hw   95   0.342   1.225   1.290 -0.1327  0.8875  1.9466
   24SOL     vw   96   0.364   1.158   1.341 -0.2528  0.0543  0.9318
   25SOL     ow   97   3.059   4.813   1.199 -0.0711  0.0427 -0.1261
   25SOL     hw   98   3.038   4.727   1.164  0.7643  0.4019 -1.5955
   25SOL     hw   99   2.982   4.866   1.181 -0.1718 -0.1255 -0.1942
   25SOL     vw  100   3.046   4.809   1.192  0.0259  0.0679 -0.3290
   26SOL     ow  101   0.393   3.271   2.863  0.3304  0.0249 -0.7990
   26SOL     hw  102   0.433   3.357   2.848  1.2599 -0.0367  1.0531
   26SOL     hw  103   0.359   3.245   2.777  3.0967  0.6734 -2.2049
   26SOL     vw  104   0.394   3.279   2.850  0.8180  0.1023 -0.7401
   27SOL     ow  105   4.912   7.197   4.517 -0.2950  0.1920 -0.4887
   27SOL     hw  106   4.914   7.286   4.553  0.4870 -0.8221  2.2391
   27SOL     hw  107   4.820   7.170   4.527 -0.4589  0.5629 -0.9787
   27SOL     vw  108   4.900   7.205   4.523 -0.2134  0.1070 -0.1936
   28SOL     ow  109   6.496   4.542   6.739  0.6683 -0.5156 -0.0565
   28SOL     hw  110   6.590   4.531   6.726  0.5666 -2.3625  0.5672
   28SOL     hw  111   6.473   4.615   6.682  1.9211 -1.9885 -2.6175
   28SOL     vw  112   6.505   4.551   6.730  0.8199 -0.9537 -0.3121
   29SOL     ow  113   0.708   6.272   6.575 -0.1911  0.2695 -0.3563
   29SOL     hw  114   0.624   6.294   6.617 -0.9117 -2.2118 -0.3219
   29SOL     hw  115   0.695   6.294   6.483 -1.3158 -1.0903 -0.5514
   29SOL     vw  116   0.695   6.278   6.569 -0.4345 -0.2377 -0.3777
   30SOL     ow  117   4.728   1.220   6.326  0.2828 -0.3181 -0.2475
   30SOL     hw  118   4.709   1.203   6.418  1.7371  0.2743  0.1939
   30SOL     hw  119   4.686   1.304   6.307  2.1991  0.8991  0.6629
   30SOL     vw  120   4.720   1.229   6.336  0.7274 -0.0793 -0.0691
   31SOL     ow  121   0.861   4.657   4.519 -0.2717 -0.0974  0.1594
   31SOL     hw  122   0.825   4.697   4.440 -0.6365  1.3031  1.0124
   31SOL     hw  123   0.815   4.573   4.525 -1.3024  0.4036 -0.3361
   31SOL     vw  124   0.850   4.651   4.509 -0.4558  0.1533  0.2067
   32SOL     ow  125   3.991   6.388   4.532 -0.0942 -0.0732  0.4605
   32SOL     hw  126   4.022   6.478   4.546 -1.9275  0.5688  0.7115
   32SOL     hw  127   3.930   6.372   4.604  0.0114 -1.4420  0.2757
   32SOL     vw  128   3.987   6.398   4.543 -0.3221 -0.1688  0.4694
   33SOL     ow  129   3.753   6.284   5.664  0.2662  0.7461  0.3321
   33SOL     hw  130   3.687   6.352   5.679  0.9832  1.0722  2.2411
   33SOL     hw  131   3.743   6.261   5.572 -0.8292  2.5631 -0.0472
   33SOL     vw  132   3.743   6.290   5.654  0.2164  1.0288  0.5338
   34SOL     ow  133   2.973   4.133   0.041 -0.1832  0.0062 -0.2330
   34SOL     hw  134   2.898   4.162   0.094 -1.8458 -0.0885 -2.4053
   34SOL     hw  135   3.003   4.212  -0.004  0.5197 -0.1184  0.0047
   34SOL     vw  136   2.967   4.147   0.042 -0.3098 -0.0226 -0.4883
   35SOL     ow  137   2.544   7.038   6.018  0.0483 -0.0145  0.2687
   35SOL     hw  138   2.464   7.000   5.980 -0.9600 -0.7939  2.9218
   35SOL     hw  139   2.540   7.013   6.111  4.1506 -1.3452  0.2581
   35SOL     vw  140   2.533   7.030   6.026  0.4566 -0.2925  0.6175
   36SOL     ow  141   1.836   1.902   4.096  0.4270 -0.5638 -0.6453
   36SOL     hw  142   1.897   1.829   4.091  1.2813  0.1885 -1.4610
   36SOL     hw  143   1.886   1.978   4.066 -0.0760  0.6016  1.2903
   36SOL     vw  144   1.851   1.903   4.092  0.4734 -0.3108 -0.4976
   37SOL     ow  145   0.732   5.266   0.768 -0.3250 -0.0461  0.2248
   37SOL     hw  146   0.693   5.280   0.854 -0.1663  0.7866  0.1688
   37SOL     hw  147   0.789   5.342   0.754 -0.0456 -0.3630 -0.4487
   37SOL     vw  148   0.734   5.278   0.777 -0.2672  0.0219  0.1285
   38SOL     ow  149   1.526   1.531   2.355 -0.2661  0.3722 -0.1308
   38SOL     hw  150   1.472   1.466   2.398 -3.6635  1.3931 -2.4728
   38SOL     hw  151   1.571   1.484   2.285 -1.8140  0.2785 -1.0921
   38SOL     vw  152   1.525   1.517   2.351 -0.9186  0.4945 -0.5666
   39SOL     ow  153   4.167   1.107   3.394  0.7070 -0.0192  0.3819
   39SOL     hw  154   4.097   1.167   3.367  0.3895 -0.0378  1.1521
   39SOL     hw  155   4.223   1.158   3.451  1.4959  0.0751 -0.4650
   39SOL     vw  156   4.165   1.122   3.398  0.7691 -0.0092  0.3718
   40SOL     ow  157   6.859   4.495   6.121 -0.4916 -0.3471  0.5201
   40SOL     hw  158   6.938   4.538   6.154  0.2705  0.5905 -2.2395
   40SOL     hw  159   6.883   4.402   6.117  0.5149 -0.0817 -0.2591
   40SOL     vw  160   6.873   4.488   6.125 -0.2587 -0.1884  0.0532
   41SOL     ow  161   2.413   6.848   3.200 -0.4525 -0.0734 -0.0867
   41SOL     hw  162   2.355   6.814   3.268 -2.3963  1.1945 -1.0304
   41SOL     hw  163   2.476   6.777   3.185 -1.6275 -1.4477  1.1155
   41SOL     vw  164   2.414   6.834   3.207 -0.8640 -0.0873 -0.0526
   42SOL     ow  165   3.713   7.289   7.093  0.3552  0.0967  0.1945
   42SOL     hw  166   3.738   7.353   7.160 -1.3556 -2.4648  3.6424
   42SOL     hw  167   3.789   7.231   7.086 -0.5372 -1.5545  2.6647
   42SOL     vw  168   3.726   7.290   7.101  0.0118 -0.4587  0.9754
   43SOL     ow  169   5.685   3.256   2.520 -0.5295 -0.4279 -0.3313
   43SOL     hw  170   5.610   3.311   2.498 -1.6189 -1.3923  0.7540
   43SOL     hw  171   5.706   3.279   2.611  0.7011  0.0410 -0.7187
   43SOL     vw  172   5.678   3.266   2.529 -0.5109 -0.4930 -0.2394
   44SOL     ow  173   1.839   2.970   6.235  0.7791  0.2435  0.1836
   44SOL     hw  174   1.896   2.904   6.197 -1.6492 -0.1467 -3.1782
   44SOL     hw  175   1.765   2.921   6.271  0.1516  0.9766 -0.0687
   44SOL     vw  176   1.837   2.955   6.235  0.3759  0.2888 -0.2930
   45SOL     ow  177   0.322   5.220   5.433  0.1192  0.0016 -1.2775
   45SOL     hw  178   0.312   5.276   5.510  2.7040 -0.9284 -0.1427
   45SOL     hw  179   0.402   5.250   5.392  1.0646 -2.1734 -1.1708
   45SOL     vw  180   0.331   5.231   5.438  0.5849 -0.4079 -1.1137
   46SOL     ow  181   5.479   6.319   1.985  0.4835  0.3474  0.0974
   46SOL     hw  182   5.427   6.311   1.905  1.9946 -1.0297 -0.7906
   46SOL     hw  183   5.413   6.328   2.055 -0.9527 -0.8599 -1.0304
   46SOL     vw  184   5.463   6.319   1.984  0.4933  0.0062 -0.1685
   47SOL     ow  185   1.016   1.614   1.065 -0.0834 -0.5056  0.1226
   47SOL     hw  186   1.033   1.544   1.128 -1.2679 -1.0586 -0.1515
   47SOL     hw  187   1.102   1.654   1.049  0.3740 -0.9591  1.3713
   47SOL     vw  188   1.030   1.610   1.071 -0.1793 -0.6384  0.2511
   48SOL     ow  189   2.883   3.222   7.253 -0.3726  0.3958  0.4715
   48SOL     hw  190   2.972   3.229   7.286 -0.2539  2.8327 -0.2113
   48SOL     hw  191   2.841   3.305   7.277 -1.9617 -0.0338 -0.6208
   48SOL     vw  192   2.889   3.234   7.261 -0.5666  0.6605  0.2372
   49SOL     ow  193   2.929   6.064   5.901 -0.2601 -0.2057  0.1919
   49SOL     hw  194   2.908   6.004   5.829 -0.5664 -0.7092  0.6941
   49SOL     hw  195   2.998   6.120   5.866  0.5652 -1.3371 -0.0582
   49SOL     vw  196   2.935   6.063   5.887 -0.1916 -0.4213  0.2251
   50SOL     ow  197   1.209   1.098   0.241  0.2114 -0.3238  0.4105
   50SOL     hw  198   1.157   1.132   0.314  1.4664  2.7844  0.0380
   50SOL     hw  199   1.147   1.089   0.169 -0.4890 -0.4311  1.0172
   50SOL     vw  200   1.194   1.101   0.241  0.2846  0.0721  0.4414
   51SOL     ow  201   2.787   1.498   4.814  0.6500  0.0283  0.6619
   51SOL     hw  202   2.816   1.410   4.840  2.9568  0.0699 -1.3198
   51SOL     hw  203   2.710   1.483   4.759  0.8237 -0.7539  0.6171
   51SOL     vw  204   2.781   1.484   4.810  0.9773 -0.0694  0.3946
   52SOL     ow  205   5.366   0.095   2.788  0.8616  0.4166 -0.2885
   52SOL     hw  206   5.294   0.126   2.843  1.8336  0.9280  0.7249
   52SOL     hw  207   5.384   0.007   2.821  1.9075  0.9863  0.7115
   52SOL     vw  208   5.359   0.087   2.799  1.1275  0.5593 -0.0228
   53SOL     ow  209   4.047   5.710   3.875 -0.2623 -0.1922  0.0945
   53SOL     hw  210   4.079   5.789   3.919 -3.6094  1.5839 -0.3085
   53SOL     hw  211   4.049   5.733   3.782 -1.0262 -0.6616 -0.0422
   53SOL     vw  212   4.052   5.724   3.869 -0.8047 -0.0198  0.0231
   54SOL     ow  213   2.396   2.993   3.583 -0.8309 -0.3659  0.1421
   54SOL     hw  214   2.336   3.023   3.515  0.7400 -0.5438 -1.3980
   54SOL     hw  215   2.462   2.942   3.536  0.3651 -0.4289  1.7964
   54SOL     vw  216   2.397   2.990   3.568 -0.4658 -0.3977  0.1572
   55SOL     ow  217   1.069   3.860   7.057 -0.8108 -0.1989  0.3261
   55SOL     hw  218   1.065   3.842   6.963 -0.7651 -0.3582  0.3544
   55SOL     hw  219   1.122   3.939   7.064  1.9489 -1.9377  0.4225
   55SOL     vw  220   1.075   3.868   7.046 -0.4407 -0.4493  0.3421
   56SOL     ow  221   4.579   3.989   0.774  0.1538  0.1689  0.5731
   56SOL     hw  222   4.570   3.967   0.681  0.5390 -0.6702  0.7243
   56SOL     hw  223   4.492   4.019   0.800 -0.1589 -0.3397  0.1325
   56SOL     vw  224   4.567   3.990   0.765  0.1633 -0.0088  0.5349
   57SOL     ow  225   5.853   6.416   1.032 -0.0721  0.1635 -0.8378
   57SOL     hw  226   5.818   6.464   0.957  1.2649 -0.0240 -1.6042
   57SOL     hw  227   5.891   6.484   1.088  0.1962  0.1716 -1.0289
   57SOL     vw  228   5.853   6.432   1.029  0.1395  0.1397 -0.9640
   58SOL     ow  229   2.715   0.792   4.529 -0.2880 -0.0277 -0.4830
   58SOL     hw  230   2.628   0.790   4.489 -0.1521 -1.7706 -0.7857
   58SOL     hw  231   2.758   0.713   4.495  0.9990  0.1941  0.5693
   58SOL     vw  232   2.709   0.781   4.519 -0.1003 -0.2284 -0.3839
   59SOL     ow  233   6.570   5.004   6.478  0.6731 -0.1379  0.4777
   59SOL     hw  234   6.666   4.996   6.479  0.6672 -0.3127  0.1394
   59SOL     hw  235   6.539   4.920   6.511  0.6375  0.0818  1.0120
   59SOL     vw  236   6.579   4.992   6.482  0.6676 -0.1323  0.5035
   60SOL     ow  237   5.708   6.872   0.386 -0.2919  0.3553  0.2870
   60SOL     hw  238   5.796   6.841   0.408  0.1029 -1.7646 -3.4563
   60SOL     hw  239   5.651   6.799   0.409 -1.1418  1.5659  2.3101
   60SOL     vw  240   5.712   6.858   0.392 -0.3517  0.2353  0.0601
   61SOL     ow  241   6.898   5.755   4.031  0.1038  0.3278  0.2475
   61SOL     hw  242   6.864   5.716   4.112 -1.5540  1.9905  0.4321
   61SOL     hw  243   6.821   5.791   3.988  1.2929  1.7572 -0.7802
   61SOL     vw  244   6.884   5.755   4.036  0.0420  0.7358  0.1361
   62SOL     ow  245   3.581   1.263   1.626 -0.0122 -0.0856  0.0847
   62SOL     hw  246   3.595   1.344   1.577  0.4670  0.0023  0.3584
   62SOL     hw  247   3.549   1.292   1.711 -0.9138 -0.2414 -0.1867
   62SOL     vw  248   3.579   1.277   1.631 -0.0678 -0.0946  0.0850
   63SOL     ow  249   0.433   3.338   2.398  0.2474  0.1424  0.1416
   63SOL     hw  250   0.528   3.327   2.400  0.3591  0.7297 -1.0108
   63SOL     hw  251   0.402   3.293   2.477  1.5802  1.1270  1.2774
   63SOL     vw  252   0.441   3.330   2.409  0.4380  0.3498  0.1395
   64SOL     ow  253   0.376   4.966   5.250  0.7015 -0.3638  0.2490
   64SOL     hw  254   0.328   4.933   5.174  0.0722  0.6949  0.1515
   64SOL     hw  255   0.461   4.924   5.246  1.0861  0.5137 -1.6994
   64SOL     vw  256   0.381   4.956   5.239  0.6692 -0.1082 -0.0207
   65SOL     ow  257   2.323   5.788   0.966 -0.0168  0.0710 -0.1581
   65SOL     hw  258   2.386   5.799   1.037  1.1780 -0.2356 -1.1438
   65SOL     hw  259   2.304   5.694   0.964 -1.8357  0.3508  1.2061
   65SOL     vw  260   2.329   5.777   0.975 -0.0992  0.0672 -0.1082
   66SOL     ow  261   3.138   5.788   1.446 -0.2417  1.1027 -0.2517
   66SOL     hw  262   3.051   5.817   1.474 -0.0987  2.4093 -1.0734
   66SOL     hw  263   3.143   5.810   1.353 -0.5460 -2.7395 -1.3527
   66SOL     vw  264   3.127   5.795   1.438 -0.2630  0.7682 -0.5053
   67SOL     ow  265   1.240   0.787   3.516  0.2195  0.3376 -0.1105
   67SOL     hw  266   1.300   0.852   3.480 -0.2719  1.1632  0.5171
   67SOL     hw  267   1.255   0.709   3.463  3.1698 -0.0989  1.1247
   67SOL     vw  268   1.250   0.786   3.504  0.5440  0.3889  0.1352
   68SOL     ow  269   1.617   1.667   4.095 -0.8225  0.3684  0.2179
   68SOL     hw  270   1.528   1.662   4.129 -0.6075  0.2142  0.7702
   68SOL     hw  271   1.670   1.619   4.159 -0.2095  1.2488  0.4046
   68SOL     vw  272   1.613   1.660   4.108 -0.7132  0.4642  0.3157
   69SOL     ow  273   4.091   0.934   5.692  0.5487  0.3752  0.1309
   69SOL     hw  274   4.006   0.978   5.684  1.3210  1.7674 -0.7213
   69SOL     hw  275   4.136   0.952   5.610  1.7723 -0.1569  0.6534
   69SOL     vw  276   4.086   0.942   5.680  0.8121  0.4887  0.0873
   70SOL     ow  277   0.963   0.623   1.319  0.3885 -0.4967 -0.1588
   70SOL     hw  278   0.877   0.666   1.315 -0.0819 -1.3982 -0.0401
   70SOL     hw  279   1.017   0.674   1.258 -0.5026 -0.5026 -0.9942
   70SOL     vw  280   0.959   0.636   1.310  0.2089 -0.6164 -0.2534
   71SOL     ow  281   2.130   4.135   0.102 -0.2171  0.0318 -0.2767
   71SOL     hw  282   2.201   4.096   0.153 -1.1000 -0.6422  0.4592
   71SOL     hw  283   2.110   4.216   0.149 -0.8883 -0.4846  0.3351
   71SOL     vw  284   2.137   4.141   0.115 -0.4221 -0.1249 -0.0989
   72SOL     ow  285   3.958   0.973   3.220  0.5802 -0.2429  0.0230
   72SOL     hw  286   3.958   0.989   3.126  0.5772 -2.7104 -0.4694
   72SOL     hw  287   3.896   0.900   3.232 -2.3083  2.3099  2.4467
   72SOL     vw  288   3.950   0.965   3.209  0.1987 -0.2316  0.2778
   73SOL     ow  289   3.593   1.619   2.630  0.1236  0.1922  0.8605
   73SOL     hw  290   3.564   1.591   2.543  3.5983 -1.0124 -0.0898
   73SOL     hw  291   3.624   1.709   2.616  0.5821  0.0368  0.8806
   73SOL     vw  292   3.593   1.627   2.617  0.6425  0.0128  0.7378
   74SOL     ow  293   5.220   4.304   1.327  0.2880 -0.4053 -0.3317
   74SOL     hw  294   5.309   4.312   1.293  0.9181 -0.9511  1.0691
   74SOL     hw  295   5.233   4.282   1.420 -1.2947 -1.8666 -0.4233
   74SOL     vw  296   5.234   4.302   1.335  0.1621 -0.6704 -0.1590
   75SOL     ow  297   3.607   4.982   3.575 -0.2774  0.5454 -0.0581
   75SOL     hw  298   3.634   5.019   3.492 -0.9973 -0.5167 -0.7985
   75SOL     hw  299   3.643   4.893   3.575 -2.5566 -0.4598 -0.5186
   75SOL     vw  300   3.615   4.975   3.564 -0.6731  0.2725 -0.2165
   76SOL     ow  301   2.776   2.063   4.648 -0.4230  0.2369  0.2044
   76SOL     hw  302   2.691   2.023   4.664 -1.5109  1.8933 -1.1298
   76SOL     hw  303   2.774   2.144   4.698  0.0654  0.6453 -0.4198
   76SOL     vw  304   2.765   2.068   4.657 -0.5021  0.5094 -0.0541
   77SOL     ow  305   7.081   4.133   2.205  0.2628  0.0831 -0.2366
   77SOL     hw  306   7.140   4.088   2.266 -1.4685  0.3082  1.7395
   77SOL     hw  307   7.126   4.130   2.121  1.6875 -2.4234  0.5136
   77SOL     vw  308   7.095   4.127   2.202  0.2222 -0.2179  0.1230
   78SOL     ow  309   2.608   1.050   0.800 -0.3941 -0.2817 -0.7228
   78SOL     hw  310   2.571   1.000   0.728 -1.1119 -0.2404 -0.3922
   78SOL     hw  311   2.648   1.126   0.759  0.9871 -1.2483 -1.2634
   78SOL     vw  312   2.609   1.053   0.785 -0.3064 -0.4038 -0.7505
   79SOL     ow  313   0.042   0.950   2.697  0.1797  0.3279 -0.2483
   79SOL     hw  314   0.095   0.878   2.729  1.2154  1.4633  0.6992
   79SOL     hw  315  -0.041   0.941   2.745  0.8948  0.6875  1.1104
   79SOL     vw  316   0.038   0.939   2.707  0.4107  0.5251  0.0558
   80SOL     ow  317   5.342   2.526   0.438 -0.0572  0.0380 -0.0334
   80SOL     hw  318   5.354   2.496   0.528 -0.8503 -1.5298 -0.4258
   80SOL     hw  319   5.255   2.494   0.413  0.4051 -0.1109 -1.5639
   80SOL     vw  320   5.332   2.518   0.446 -0.1009 -0.1884 -0.2871
   81SOL     ow  321   3.796   3.118   4.722  0.2663 -0.2338  0.0414
   81SOL     hw  322   3.737   3.178   4.677 -1.5316 -1.2219  0.9668
   81SOL     hw  323   3.816   3.051   4.657  1.7685  0.9715 -0.7944
   81SOL     vw  324   3.791   3.117   4.708  0.2275 -0.2052  0.0534
   82SOL     ow  325   4.956   3.499   5.378  0.2323  0.0145  0.1021
   82SOL     hw  326   4.950   3.405   5.394  0.9258  0.1059  0.9619
   82SOL     hw  327   4.872   3.534   5.409 -0.1885 -0.3500 -0.5843
   82SOL     vw  328   4.944   3.492   5.384  0.2682 -0.0216  0.1249
   83SOL     ow  329   3.862   5.927   4.273 -0.3009 -0.3425 -0.1072
   83SOL     hw  330   3.956   5.936   4.291 -0.4421 -0.2868  0.6559
   83SOL     hw  331   3.853   5.950   4.181  0.2334  1.1635  0.1793
   83SOL     vw  332   3.873   5.932   4.263 -0.2489 -0.1366  0.0312
   84SOL     ow  333   3.463   5.671   1.087  0.1496  0.9087 -0.3230
   84SOL     hw  334   3.424   5.741   1.034 -1.0175 -1.4136 -2.7892
   84SOL     hw  335   3.530   5.633   1.030 -1.5761 -2.1185 -0.5718
   84SOL     vw  336   3.467   5.675   1.072 -0.2320  0.2031 -0.6812
   85SOL     ow  337   2.571   1.813   0.214  0.2220  0.5993 -0.4226
   85SOL     hw  338   2.600   1.824   0.124 -0.4067  1.6072 -0.5170
   85SOL     hw  339   2.499   1.876   0.225  0.0796  0.2825  0.6880
   85SOL     vw  340   2.565   1.823   0.204  0.1204  0.6905 -0.2885
   86SOL     ow  341   1.998   4.922   1.397  0.1112  0.0727 -0.0163
   86SOL     hw  342   1.909   4.956   1.391  0.4397  0.7651 -1.7588
   86SOL     hw  343   2.043   4.963   1.323  1.0780 -2.6420 -1.0332
   86SOL     vw  344   1.992   4.932   1.387  0.2821 -0.1941 -0.3803
   87SOL     ow  345   3.245   5.538   3.060 -0.2177 -0.6102 -0.6465
   87SOL     hw  346   3.299   5.483   3.003  2.0716 -1.7022  2.2805
   87SOL     hw  347   3.288   5.533   3.146 -1.5911  3.4388  0.5159
   87SOL     vw  348   3.258   5.530   3.064 -0.0969 -0.2201 -0.1069
   88SOL     ow  349   0.525   2.982   3.533 -0.0278 -0.0746 -0.0120
   88SOL     hw  350   0.490   2.951   3.616 -1.3652  3.1690  0.8168
   88SOL     hw  351   0.612   3.015   3.555 -0.7631  1.7022  0.4301
   88SOL     vw  352   0.532   2.982   3.547 -0.3012  0.5877  0.1556
   89SOL     ow  353   0.018   0.869   2.446  0.1047 -0.0473 -0.1361
   89SOL     hw  354  -0.066   0.824   2.442  0.3525 -0.5515  0.3489
   89SOL     hw  355   0.023   0.903   2.535  0.0674  0.6639 -0.3986
   89SOL     vw  356   0.007   0.868   2.457  0.1324 -0.0200 -0.1067
   90SOL     ow  357   1.124   6.073   3.806  0.1888  0.4444  0.1485
   90SOL     hw  358   1.207   6.088   3.851  1.0695 -1.3074 -0.7648
   90SOL     hw  359   1.058   6.116   3.861  1.8113  3.1369  0.1666
   90SOL     vw  360   1.126   6.081   3.819  0.5192  0.5684  0.0304
   91SOL     ow  361   2.735   2.437   3.916  0.9077  0.2661  0.0340
   91SOL     hw  362   2.830   2.437   3.928  1.3586  3.5894 -2.2666
   91SOL     hw  363   2.722   2.473   3.829 -2.5301  1.1142  0.7571
   91SOL     vw  364   2.746   2.442   3.906  0.5137  0.8165 -0.1740
   92SOL     ow  365   3.716   4.424   1.508 -0.0026  0.3992 -0.5302
   92SOL     hw  366   3.636   4.377   1.532  0.1425  0.1163 -0.5857
   92SOL     hw  367   3.723   4.495   1.572 -0.0330  0.1246 -0.2190
   92SOL     vw  368   3.706   4.427   1.520  0.0124  0.3257 -0.4964
   93SOL     ow  369   0.326   2.996   3.338 -1.0398 -0.4245 -0.0843
   93SOL     hw  370   0.399   2.976   3.397 -1.4412  0.4731  0.7398
   93SOL     hw  371   0.249   2.999   3.395 -0.9449  4.2788  0.1743
   93SOL     vw  372   0.326   2.994   3.353 -1.0803  0.3146  0.0585
   94SOL     ow  373   5.727   4.679   3.806 -0.1635 -0.3594  0.7739
   94SOL     hw  374   5.796   4.613   3.817 -1.1833 -1.5522  0.3113
   94SOL     hw  375   5.688   4.687   3.893  0.6467  0.4759  1.0894
   94SOL     vw  376   5.731   4.671   3.819 -0.1910 -0.4063  0.7546
   95SOL     ow  377   4.883   1.513   2.343  0.3462 -0.3901  0.6997
   95SOL     hw  378   4.906   1.603   2.319  3.0028 -0.8318  1.2346
   95SOL     hw  379   4.896   1.463   2.263 -0.5036 -0.4042  0.5665
   95SOL     vw  380   4.888   1.519   2.329  0.5846 -0.4503  0.7527
   96SOL     ow  381   1.892   4.339   6.351 -0.0873 -0.4241  0.1193
   96SOL     hw  382   1.864   4.430   6.367 -0.5697 -0.6578  0.6674
   96SOL     hw  383   1.925   4.310   6.436  2.0254 -0.1137 -0.5443
   96SOL     vw  384   1.892   4.347   6.365  0.1277 -0.4139  0.1040
   97SOL     ow  385   1.967   2.481   1.221 -0.0031 -0.8353  0.5056
   97SOL     hw  386   1.984   2.572   1.199 -0.6193 -0.5400  1.1917
   97SOL     hw  387   1.900   2.485   1.290 -0.6339 -1.8268 -0.0195
   97SOL     vw  388   1.960   2.494   1.227 -0.1675 -0.9272  0.5269
   98SOL     ow  389   3.719   3.273   0.533 -0.3985 -0.0573  0.3248
   98SOL     hw  390   3.729   3.356   0.579  1.2028 -1.2330  2.2694
   98SOL     hw  391   3.649   3.227   0.581  0.0293 -0.5741  0.4583
   98SOL     vw  392   3.711   3.278   0.545 -0.1308 -0.2806  0.5990
   99SOL     ow  393   6.346   0.697   3.939  0.6719  0.1191 -0.2042
   99SOL     hw  394   6.387   0.611   3.951  3.8083  1.4726 -0.2906
   99SOL     hw  395   6.278   0.681   3.873  4.4726 -1.5573 -4.2677
   99SOL     vw  396   6.343   0.683   3.932  1.5872  0.0764 -0.7517
  100SOL     ow  397   6.670   5.845   3.922 -1.1216  0.4345 -0.1835
  100SOL     hw  398   6.574   5.849   3.914 -1.1800  0.6495  0.5561
  100SOL     hw  399   6.697   5.936   3.923 -1.0182  0.4021  0.7605
  100SOL     vw  400   6.661   5.857   3.921 -1.1156  0.4590  0.0387
  101SOL     ow  401   2.423   5.763   2.389  0.2162  0.1263 -0.0049
  101SOL     hw  402   2.335   5.767   2.350 -0.2589  0.9163  1.0721
  101SOL     hw  403   2.428   5.843   2.443  0.9077 -0.8096  1.3696
  101SOL     vw  404   2.412   5.774   2.391  0.2446  0.1068  0.3185
  102SOL     ow  405   5.148   2.732   4.931  0.0235 -0.0203  0.3251
  102SOL     hw  406   5.137   2.674   5.006  0.2611  1.1191  1.2551
  102SOL     hw  407   5.241   2.754   4.931  0.1981 -0.6407 -0.7994
  102SOL     vw  408   5.159   2.727   4.941  0.0780  0.0482  0.2995
  103SOL     ow  409   2.984   3.518   2.598  0.6310 -0.4094  0.1928
  103SOL     hw  410   2.954   3.436   2.560 -1.2324  0.6257 -0.6899
  103SOL     hw  411   3.057   3.545   2.542  1.1034 -1.3118  0.3490
  103SOL     vw  412   2.990   3.511   2.586  0.4474 -0.3918  0.0969
  104SOL     ow  413   1.660   0.355   6.254  0.3237 -0.1614  0.0691
  104SOL     hw  414   1.666   0.306   6.336  0.4920  0.9168  0.7172
  104SOL     hw  415   1.726   0.424   6.262 -0.1944  0.4293 -0.6377
  104SOL     vw  416   1.669   0.358   6.266  0.2775  0.0588  0.0615
  105SOL     ow  417   4.652   3.656   0.760 -0.1261 -0.2519  0.2898
  105SOL     hw  418   4.645   3.655   0.664 -1.0976 -1.2762  0.3582
  105SOL     hw  419   4.616   3.741   0.786 -1.7978 -0.8072 -0.1305
  105SOL     vw  420   4.647   3.667   0.751 -0.4747 -0.4604  0.2434
  106SOL     ow  421   5.716   5.809   3.152 -0.3761  0.0571  0.3837
  106SOL     hw  422   5.780   5.808   3.223 -0.1652 -0.1423  0.1889
  106SOL     hw  423   5.763   5.774   3.077 -0.4683  0.6799  0.0308
  106SOL     vw  424   5.731   5.805   3.152 -0.3605  0.1132  0.3115
  107SOL     ow  425   2.236   4.999   3.624 -0.4489  0.3007  0.1799
  107SOL     hw  426   2.327   4.971   3.629 -0.6121 -0.9877 -2.4647
  107SOL     hw  427   2.231   5.053   3.544 -2.0408  0.1273  0.1195
  107SOL     vw  428   2.247   5.003   3.614 -0.6804  0.1078 -0.1770
  108SOL     ow  429   5.681   1.317   1.154  0.2629 -0.2807 -0.0112
  108SOL     hw  430   5.711   1.304   1.064  1.5709  1.3310  0.1373
  108SOL     hw  431   5.635   1.401   1.153  0.1671 -0.3090  0.7965
  108SOL     vw  432   5.679   1.326   1.142  0.4230 -0.0717  0.1150
  109SOL     ow  433   4.163   4.654   1.679  0.4482  0.8233  0.1965
  109SOL     hw  434   4.234   4.670   1.617  0.0566 -0.2188 -0.5534
  109SOL     hw  435   4.084   4.677   1.631  0.0291 -1.2652 -0.2372
  109SOL     vw  436   4.162   4.659   1.665  0.3414  0.4103  0.0404
  110SOL     ow  437   1.899   7.172   1.664 -0.9411  0.5454  0.2026
  110SOL     hw  438   1.860   7.160   1.577 -1.3998 -0.2499  0.5132
  110SOL     hw  439   1.829   7.150   1.725 -0.5815  0.9771  0.7788
  110SOL     vw  440   1.884   7.168   1.660 -0.9542  0.4973  0.3197
  111SOL     ow  441   1.220   0.684   1.468 -0.2579 -0.5703  0.4457
  111SOL     hw  442   1.260   0.597   1.463  0.7229 -0.1280  0.4806
  111SOL     hw  443   1.128   0.668   1.447  0.1175 -1.4637 -0.6577
  111SOL     vw  444   1.213   0.670   1.464 -0.0790 -0.6298  0.3048
  112SOL     ow  445   6.337   0.971   3.805  0.2480 -0.0323 -0.0485
  112SOL     hw  446   6.266   0.989   3.866 -0.7774  2.2729 -1.7757
  112SOL     hw  447   6.356   1.055   3.765  4.7033 -0.2955  0.9730
  112SOL     vw  448   6.331   0.984   3.808  0.7007  0.2372 -0.1416
  113SOL     ow  449   2.453   4.750   1.562  0.2740 -0.4872  0.4293
  113SOL     hw  450   2.508   4.715   1.491  0.6512 -2.6016  1.6718
  113SOL     hw  451   2.508   4.744   1.640 -0.9292 -0.4762  1.3099
  113SOL     vw  452   2.468   4.744   1.563  0.1649 -0.7648  0.7094
  114SOL     ow  453   1.910   5.719   4.220 -0.1330  0.0484  0.4898
  114SOL     hw  454   1.842   5.709   4.153  1.3750  2.2533 -1.5472
  114SOL     hw  455   1.983   5.666   4.187 -0.1927 -0.7814  1.6643
  114SOL     vw  456   1.911   5.711   4.207  0.0581  0.2296  0.3760
  115SOL     ow  457   5.964   4.853   5.567  0.4252  0.4955 -0.2754
  115SOL     hw  458   5.871   4.839   5.584  0.5403 -0.6636 -0.5393
  115SOL     hw  459   5.968   4.874   5.474  0.3563  1.3529 -0.0935
  115SOL     vw  460   5.952   4.854   5.557  0.4313  0.4559 -0.2866
  116SOL     ow  461   6.308   7.257   4.383  0.3800  0.5966 -0.3151
  116SOL     hw  462   6.354   7.174   4.369 -0.7323  0.2925 -2.7754
  116SOL     hw  463   6.376   7.324   4.377  1.3073 -0.0668  1.7901
  116SOL     vw  464   6.323   7.255   4.381  0.3555  0.4690 -0.3617
  117SOL     ow  465   3.369   1.898   4.712  0.2797 -0.1301  0.2472
  117SOL     hw  466   3.369   1.832   4.781  0.3327  1.0010  1.3580
  117SOL     hw  467   3.417   1.972   4.749  0.7069  0.3403 -1.1742
  117SOL     vw  468   3.376   1.899   4.726  0.3431  0.0812  0.2065
  118SOL     ow  469   4.643   1.166   2.260  0.2666  0.5352  0.4038
  118SOL     hw  470   4.638   1.196   2.169  0.5429 -2.0276 -0.5412
  118SOL     hw  471   4.699   1.088   2.256  0.5741  0.5624  2.8551
  118SOL     vw  472   4.650   1.160   2.247  0.3436  0.2007  0.6026
  119SOL     ow  473   5.652   2.198   4.542  0.5804 -0.6894  0.4196
  119SOL     hw  474   5.566   2.204   4.500  0.9599 -0.0867 -0.3038
  119SOL     hw  475   5.647   2.259   4.615  0.5445 -0.2881  0.0891
  119SOL     vw  476   5.640   2.207   4.546  0.6256 -0.5569  0.2806
  120SOL     ow  477   6.452   0.057   0.389  0.4952 -0.3868  0.5677
  120SOL     hw  478   6.508   0.004   0.446  1.6469 -1.0095 -1.0899
  120SOL     hw  479   6.392  -0.007   0.349 -0.1658  0.0191  0.8829
  120SOL     vw  480   6.451   0.041   0.392  0.5598 -0.4154  0.3906
  121SOL     ow  481   1.466   1.200   6.710 -0.5084  0.0532 -0.0263
  121SOL     hw  482   1.502   1.111   6.702 -2.2454 -1.0502  2.6978
  121SOL     hw  483   1.391   1.189   6.770  0.7266  3.7330  2.5209
  121SOL     vw  484   1.461   1.187   6.717 -0.5746  0.3932  0.6692
  122SOL     ow  485   6.189   6.402   5.381 -0.0599  0.3097  0.2234
  122SOL     hw  486   6.256   6.433   5.321 -2.0348  1.3231 -1.6038
  122SOL     hw  487   6.174   6.476   5.440  0.9887 -0.2334  1.2121
  122SOL     vw  488   6.195   6.416   5.381 -0.1819  0.3719  0.1128
  123SOL     ow  489   1.317   0.906   3.246  0.2703  0.1636 -0.2484
  123SOL     hw  490   1.257   0.835   3.225  1.3886 -0.9154  0.0908
  123SOL     hw  491   1.261   0.973   3.287 -1.4491  1.0954 -3.7448
  123SOL     vw  492   1.301   0.906   3.249  0.1910  0.1442 -0.6651
  124SOL     ow  493   4.998   4.570   2.737 -0.4692  0.1327  0.0896
  124SOL     hw  494   4.922   4.512   2.746  0.0379 -1.4743 -4.0583
  124SOL     hw  495   5.074   4.514   2.750  0.0249  0.6424 -0.5276
  124SOL     vw  496   4.998   4.555   2.740 -0.3374 -0.0122 -0.5391
  125SOL     ow  497   5.071   4.248   2.630 -0.0883  0.3182 -0.7281
  125SOL     hw  498   4.976   4.250   2.636 -0.2751  0.0790 -2.8410
  125SOL     hw  499   5.101   4.249   2.720 -2.1625 -2.1944  0.1060
  125SOL     vw  500   5.063   4.248   2.642 -0.3862 -0.0451 -0.8967
  126SOL     ow  501   5.194   5.934   1.075 -0.6171 -0.6857  0.6692
  126SOL     hw  502   5.197   5.971   0.987 -0.0427 -0.2528  0.8653
  126SOL     hw  503   5.106   5.896   1.082 -0.9387 -0.0598  0.1741
  126SOL     vw  504   5.183   5.934   1.064 -0.5834 -0.5462  0.6297
  127SOL     ow  505   6.756   3.426   0.994  0.5410 -0.1222 -0.1552
  127SOL     hw  506   6.821   3.394   1.056  2.5027  2.1068 -0.8895
  127SOL     hw  507   6.781   3.386   0.910 -1.0200 -1.7334  0.1051
  127SOL     vw  508   6.768   3.416   0.991  0.5939 -0.0408 -0.2177
  128SOL     ow  509   7.292   0.305   2.622 -0.4279 -0.2474  0.0987
  128SOL     hw  510   7.298   0.210   2.632 -3.0868 -0.3251  2.3079
  128SOL     hw  511   7.343   0.340   2.695 -0.1216  0.0127 -0.2358
  128SOL     vw  512   7.300   0.297   2.633 -0.7386 -0.2233  0.3462
  129SOL     ow  513   7.202   0.487   4.747  0.3573 -0.1697  0.6803
  129SOL     hw  514   7.253   0.429   4.804 -0.1341 -0.3884  0.9026
  129SOL     hw  515   7.267   0.526   4.688  0.5438 -1.9646 -0.3743
  129SOL     vw  516   7.218   0.484   4.747  0.3171 -0.4354  0.5703
  130SOL     ow  517   5.992   0.699   6.081  0.3281  0.4026 -0.2266
  130SOL     hw  518   6.011   0.734   6.168  1.4671  1.5997 -0.9210
  130SOL     hw  519   6.000   0.604   6.091  1.9489  0.5949  0.6479
  130SOL     vw  520   5.995   0.691   6.094  0.6924  0.5859 -0.2029
  131SOL     ow  521   2.855   2.661   1.789 -0.4944 -0.5193 -0.3864
  131SOL     hw  522   2.820   2.732   1.844  0.2709  0.8884 -1.6582
  131SOL     hw  523   2.788   2.593   1.794 -0.6789 -0.2625  1.8926
  131SOL     vw  524   2.842   2.662   1.797 -0.4178 -0.2997 -0.2535
  132SOL     ow  525   2.905   1.738   1.284  0.2696  0.7546 -0.9606
  132SOL     hw  526   2.844   1.689   1.230  0.3932  0.7414 -1.0875
  132SOL     hw  527   2.851   1.772   1.356  0.3636 -0.3895 -0.3292
  132SOL     vw  528   2.890   1.736   1.287  0.2984  0.6019 -0.8941
  133SOL     ow  529   4.834   5.013   0.070  0.3035 -0.0560 -0.0917
  133SOL     hw  530   4.900   5.021   0.139  0.1107  0.1389  0.0737
  133SOL     hw  531   4.884   4.990  -0.008  0.6616  0.7961 -0.1303
  133SOL     vw  532   4.849   5.011   0.069  0.3252  0.0820 -0.0749
  134SOL     ow  533   3.078   5.328   1.148  0.2619 -0.0073  0.3672
  134SOL     hw  534   2.984   5.338   1.134  0.3852  1.0148  0.1545
  134SOL     hw  535   3.117   5.360   1.067  0.7941 -0.4321  0.4521
  134SOL     vw  536   3.071   5.334   1.135  0.3482  0.0713  0.3504
  135SOL     ow  537   3.828   1.936   5.443  0.1688 -0.5854 -0.2355
  135SOL     hw  538   3.743   1.950   5.402  0.8248  0.8630 -1.2191
  135SOL     hw  539   3.833   1.842   5.459 -2.0407 -0.5740  0.8702
  135SOL     vw  540   3.818   1.925   5.440 -0.0361 -0.3928 -0.2191
  136SOL     ow  541   0.230   6.891   5.043  0.3723 -0.1415  0.2010
  136SOL     hw  542   0.291   6.919   4.975 -1.3539  1.2127 -0.9187
  136SOL     hw  543   0.144   6.893   5.000 -0.8523  1.0824  2.4582
  136SOL     vw  544   0.226   6.895   5.029 -0.0170  0.1986  0.3510
  137SOL     ow  545   0.439   6.067   0.718  0.3902 -0.9492  0.3869
  137SOL     hw  546   0.426   5.975   0.697 -1.3895 -0.7482  0.4352
  137SOL     hw  547   0.467   6.068   0.809 -0.4962 -1.4212  0.6786
  137SOL     vw  548   0.441   6.055   0.727  0.0384 -0.9849  0.4318
  138SOL     ow  549   0.268   4.724   0.988 -0.5137  0.7435 -0.0826
  138SOL     hw  550   0.200   4.700   1.051 -0.1177  1.8455  0.7930
  138SOL     hw  551   0.275   4.647   0.931  0.2060 -0.9681  2.1375
  138SOL     vw  552   0.260   4.710   0.989 -0.3665  0.6633  0.3258
  139SOL     ow  553   5.268   1.168   3.539 -0.5470  1.1097  0.6839
  139SOL     hw  554   5.207   1.143   3.608 -0.8323 -1.1144 -0.2882
  139SOL     hw  555   5.218   1.225   3.482 -1.0047  1.1539  1.1222
  139SOL     vw  556   5.254   1.172   3.541 -0.6452  0.8221  0.6135
  140SOL     ow  557   3.307   4.306   5.597  0.1145  0.3708 -0.2873
  140SOL     hw  558   3.334   4.397   5.585 -0.8644  0.6322 -0.6534
  140SOL     hw  559   3.356   4.258   5.530  0.6701  0.6194 -0.0625
  140SOL     vw  560   3.317   4.312   5.586  0.0585  0.4380 -0.3057
  141SOL     ow  561   3.799   1.959   7.008 -0.1131 -0.3636  0.6640
  141SOL     hw  562   3.735   2.010   7.058 -1.4285 -1.1085 -0.1926
  141SOL     hw  563   3.820   1.885   7.064 -0.3862 -0.3738  0.7549
  141SOL     vw  564   3.794   1.956   7.022 -0.3228 -0.4633  0.5631
  142SOL     ow  565   6.529   3.701   0.959 -0.1802  0.3011  0.4301
  142SOL     hw  566   6.580   3.734   0.884 -0.0332 -2.3609 -0.7762
  142SOL     hw  567   6.505   3.779   1.008 -0.2516  2.2003 -2.3774
  142SOL     vw  568   6.533   3.716   0.955 -0.1700  0.2005 -0.0995
  143SOL     ow  569   7.179   5.236   0.060 -0.2086  0.2114  0.4111
  143SOL     hw  570   7.092   5.226   0.099 -0.3849  0.8097  0.1979
  143SOL     hw  571   7.215   5.314   0.102  0.5489 -0.4862  1.0684
  143SOL     vw  572   7.172   5.245   0.071 -0.1323  0.1981  0.4697
  144SOL     ow  573   3.196   5.918   0.283 -0.0621 -0.2974  0.9665
  144SOL     hw  574   3.104   5.943   0.293  0.5711  2.9117  0.0002
  144SOL     hw  575   3.239   5.956   0.360  0.5037 -1.6915  1.3613
  144SOL     vw  576   3.189   5.927   0.294  0.0961 -0.0577  0.8911
  145SOL     ow  577   3.319   5.580   5.441  0.7062 -0.0826  0.2031
  145SOL     hw  578   3.226   5.561   5.454 -0.1244  3.0392 -0.2086
  145SOL     hw  579   3.337   5.653   5.501  2.5700  0.1421 -0.5617
  145SOL     vw  580   3.309   5.587   5.450  0.8426  0.3588  0.0479
  146SOL     ow  581   3.328   4.868   1.068 -0.3591 -0.2996  0.2638
  146SOL     hw  582   3.417   4.891   1.041  0.1985 -0.1454  2.0910
  146SOL     hw  583   3.320   4.775   1.048  0.1780 -0.2851 -0.0289
  146SOL     vw  584   3.339   4.859   1.062 -0.2148 -0.2775  0.4663
  147SOL     ow  585   7.302   1.753   3.206  0.7424  0.3154  0.0192
  147SOL     hw  586   7.350   1.744   3.124  0.0272  0.1844 -0.3972
  147SOL     hw  587   7.308   1.847   3.226  1.3953  0.2558  0.1187
  147SOL     vw  588   7.309   1.764   3.197  0.7341  0.2903 -0.0225
  148SOL     ow  589   3.231   4.591   3.386 -0.0770  0.1540  0.3380
  148SOL     hw  590   3.261   4.541   3.462 -0.8162 -1.2125 -0.2193
  148SOL     hw  591   3.145   4.624   3.411  0.2678  0.8774  0.5834
  148SOL     vw  592   3.224   4.589   3.399 -0.1290  0.0691  0.2970
  149SOL     ow  593   5.099   6.385   2.093  0.0170  0.1713 -0.1374
  149SOL     hw  594   5.084   6.364   2.000 -1.0726  1.3073 -0.2423
  149SOL     hw  595   5.150   6.466   2.091  1.8691 -0.9130  0.2815
  149SOL     vw  596   5.104   6.393   2.080  0.1178  0.1781 -0.0961
  150SOL     ow  597   4.803   6.723   5.213 -0.2154 -0.2997  0.1059
  150SOL     hw  598   4.778   6.642   5.257  0.6793  0.5715  2.3919
  150SOL     hw  599   4.894   6.708   5.186 -0.0125 -0.0190  0.6332
  150SOL     vw  600   4.812   6.710   5.215 -0.0706 -0.1478  0.4771
  151SOL     ow  601   2.209   7.282   1.652 -0.2695  0.3121  0.0986
  151SOL     hw  602   2.206   7.288   1.557  0.9370 -0.3168  0.0063
  151SOL     hw  603   2.272   7.349   1.678  0.9681 -0.8801  0.2769
  151SOL     vw  604   2.217   7.292   1.643  0.0529  0.0719  0.1099
  152SOL     ow  605   5.587   1.407   2.194 -0.0840  0.4604  0.2515
  152SOL     hw  606   5.635   1.486   2.171 -1.0443  0.6147 -1.3615
  152SOL     hw  607   5.566   1.366   2.110  0.0684 -1.3223  1.0332
  152SOL     vw  608   5.590   1.412   2.180 -0.1905  0.2456  0.1419
  153SOL     ow  609   3.993   6.823   5.683  0.0924 -0.3408 -0.4031
  153SOL     hw  610   3.914   6.771   5.691  0.4542 -0.9044 -0.4345
  153SOL     hw  611   3.969   6.895   5.624 -0.4192 -0.4494 -0.3294
  153SOL     vw  612   3.980   6.826   5.676  0.0726 -0.4294 -0.3974
  154SOL     ow  613   5.576   1.084   5.178  1.2126  0.2830 -0.2236
  154SOL     hw  614   5.584   1.049   5.266  0.3670  0.5660 -0.0273
  154SOL     hw  615   5.495   1.047   5.144  2.0744 -0.7185 -1.3116
  154SOL     vw  616   5.567   1.075   5.185  1.2150  0.1882 -0.3414
  155SOL     ow  617   1.220   1.505   7.142  0.1710 -0.5244  0.0002
  155SOL     hw  618   1.261   1.585   7.110 -0.4239  1.0627  2.8826
  155SOL     hw  619   1.288   1.461   7.192 -0.0992 -0.6846  0.2339
  155SOL     vw  620   1.234   1.510   7.145  0.0569 -0.3362  0.4113
  156SOL     ow  621   6.623   0.582   1.054 -0.0296  0.1143  0.2367
  156SOL     hw  622   6.668   0.498   1.048 -0.6873 -0.2298 -0.0313
  156SOL     hw  623   6.533   0.559   1.077  0.2284  0.8634  2.1258
  156SOL     vw  624   6.617   0.568   1.056 -0.0825  0.1677  0.4506
  157SOL     ow  625   6.341   3.611   1.394 -0.3506  0.4669 -0.4101
  157SOL     hw  626   6.294   3.678   1.443 -0.2240  0.3201 -0.0840
  157SOL     hw  627   6.274   3.547   1.370 -0.3713  0.4238 -0.2329
  157SOL     vw  628   6.326   3.611   1.397 -0.3366  0.4419 -0.3437
  158SOL     ow  629   2.547   6.629   6.190 -0.5907 -0.1538  0.1719
  158SOL     hw  630   2.633   6.590   6.175 -0.3089 -0.0268  1.4045
  158SOL     hw  631   2.486   6.570   6.145 -0.0061 -1.0362  0.5092
  158SOL     vw  632   2.550   6.616   6.182 -0.4765 -0.2534  0.3791
  159SOL     ow  633   0.881   0.318   5.204 -0.5064 -0.2514  0.2407
  159SOL     hw  634   0.892   0.232   5.164 -1.0603  1.2928 -3.7810
  159SOL     hw  635   0.800   0.352   5.166 -0.9308  1.6267  2.6099
  159SOL     vw  636   0.872   0.311   5.194 -0.6355  0.2001  0.0226
  160SOL     ow  637   3.946   1.276   6.213  0.0151 -0.6608 -0.2489
  160SOL     hw  638   3.989   1.292   6.129  0.2452 -0.3828 -0.0813
  160SOL     hw  639   3.853   1.289   6.196 -0.0219 -1.4231 -0.6523
  160SOL     vw  640   3.940   1.279   6.200  0.0407 -0.7247 -0.2799
  161SOL     ow  641   4.322   2.463   6.815  0.5014 -0.0450 -0.1146
  161SOL     hw  642   4.353   2.497   6.731 -0.6136  1.4332  0.0273
  161SOL     hw  643   4.291   2.541   6.862 -1.8253 -1.1896  0.3928
  161SOL     vw  644   4.322   2.478   6.810  0.0472 -0.0010 -0.0288
  162SOL     ow  645   5.045   6.376   5.193  0.3595  0.0302 -0.5641
  162SOL     hw  646   4.961   6.404   5.228  0.4457 -0.8725  0.4153
  162SOL     hw  647   5.073   6.449   5.137  0.2500  1.5791  1.3082
  162SOL     vw  648   5.038   6.390   5.190  0.3564  0.1156 -0.1879
  163SOL     ow  649   3.978   7.014   5.488 -0.4833 -0.3586  0.0411
  163SOL     hw  650   3.904   7.063   5.525 -0.8012 -2.5309  2.5672
  163SOL     hw  651   4.055   7.052   5.530 -0.7662 -2.1687  2.3711
  163SOL     vw  652   3.978   7.026   5.499 -0.5624 -0.8841  0.6821
  164SOL     ow  653   6.860   4.184   2.540 -0.6380 -0.2609  0.2906
  164SOL     hw  654   6.823   4.161   2.455 -1.0746 -2.2484  0.9731
  164SOL     hw  655   6.789   4.166   2.602 -0.0747  0.4440  1.1613
  164SOL     vw  656   6.846   4.179   2.537 -0.6216 -0.4303  0.4956
  165SOL     ow  657   3.824   0.821   2.262  0.3713 -0.0374 -0.2913
  165SOL     hw  658   3.756   0.758   2.286 -0.9795  1.5518  0.1793
  165SOL     hw  659   3.815   0.831   2.167 -0.9294  1.1299 -0.0582
  165SOL     vw  660   3.814   0.814   2.252  0.0213  0.3263 -0.1985
  166SOL     ow  661   4.897   5.753   0.348 -0.6549 -0.0068 -0.1637
  166SOL     hw  662   4.810   5.763   0.310 -0.3781 -1.6849 -1.3528
  166SOL     hw  663   4.882   5.742   0.442 -1.6491  0.5039 -0.2542
  166SOL     vw  664   4.883   5.753   0.355 -0.7496 -0.1609 -0.3325
  167SOL     ow  665   1.840   2.590   0.135 -0.7937 -0.0759 -0.3558
  167SOL     hw  666   1.768   2.531   0.111 -0.8963  0.5940 -1.7882
  167SOL     hw  667   1.917   2.534   0.137 -0.7858 -0.1992 -2.3009
  167SOL     vw  668   1.841   2.575   0.132 -0.8062 -0.0037 -0.8014
  168SOL     ow  669   6.493   1.513   2.269 -0.5817  0.5971 -0.0173
  168SOL     hw  670   6.558   1.584   2.275 -1.3334  1.3785 -0.7835
  168SOL     hw  671   6.531   1.453   2.205  1.2498 -1.0471  2.4437
  168SOL     vw  672   6.507   1.515   2.261 -0.4392  0.4833  0.2065
  169SOL     ow  673   7.140   7.148   0.024  0.7103  0.2797 -0.0947
  169SOL     hw  674   7.119   7.056   0.005  1.1477  0.3453 -0.9466
  169SOL     hw  675   7.057   7.194   0.008  0.7445  0.1599 -0.6426
  169SOL     vw  676   7.126   7.142   0.019  0.7727  0.2725 -0.2794
  170SOL     ow  677   7.091   4.029   5.369  0.4639  0.6863 -0.7558
  170SOL     hw  678   7.098   4.123   5.353  1.1554  0.5697 -1.2046
  170SOL     hw  679   7.042   4.022   5.451 -0.3208  1.4096 -1.1550
  170SOL     vw  680   7.086   4.040   5.378  0.4516  0.7665 -0.8678
  171SOL     ow  681   5.886   5.079   1.195  0.3125  1.0332  0.2034
  171SOL     hw  682   5.847   5.108   1.277 -0.0607  1.1602 -0.0152
  171SOL     hw  683   5.815   5.086   1.131 -0.0095 -1.0294  0.2717
  171SOL     vw  684   5.872   5.084   1.197  0.2208  0.7777  0.1836
  172SOL     ow  685   6.455   1.061   7.298 -0.1698  0.2856  0.2345
  172SOL     hw  686   6.497   1.144   7.320  1.0967 -0.5991  1.3051
  172SOL     hw  687   6.367   1.086   7.269  0.5245  2.0732 -0.5180
  172SOL     vw  688   6.449   1.075   7.297  0.0889  0.4047  0.2763
  173SOL     ow  689   2.972   1.904   4.649 -0.5098 -0.8457 -0.0952
  173SOL     hw  690   2.906   1.970   4.672  1.0115  1.0409 -0.8265
  173SOL     hw  691   3.051   1.955   4.631  1.1156 -2.9924  0.5263
  173SOL     vw  692   2.974   1.920   4.649 -0.0948 -0.8799 -0.1097
  174SOL     ow  693   6.802   0.746   2.705  0.1381 -0.1774 -0.4078
  174SOL     hw  694   6.778   0.828   2.662  0.2731 -0.6841 -1.4892
  174SOL     hw  695   6.837   0.772   2.790 -3.3070  0.6809  0.9055
  174SOL     vw  696   6.803   0.760   2.711 -0.2983 -0.1310 -0.3772
  175SOL     ow  697   6.521   3.714   3.025  0.2396 -0.3237  0.0277
  175SOL     hw  698   6.506   3.789   3.082  0.2900  0.7246 -1.2935
  175SOL     hw  699   6.595   3.739   2.971  0.4174 -1.4392 -0.2765
  175SOL     vw  700   6.529   3.727   3.026  0.2694 -0.3327 -0.1868
  176SOL     ow  701   5.755   6.793   6.851  0.3399  0.1572 -0.0252
  176SOL     hw  702   5.711   6.872   6.819 -1.2231 -0.1351  1.3168
  176SOL     hw  703   5.847   6.807   6.827 -0.1132  1.7307 -1.0607
  176SOL     vw  704   5.762   6.805   6.843  0.0739  0.3264  0.0153
  177SOL     ow  705   4.222   0.766   7.235 -0.4746 -0.9931 -0.6275
  177SOL     hw  706   4.157   0.836   7.237 -0.3033 -0.8544  0.2994
  177SOL     hw  707   4.233   0.747   7.142  0.2374  0.9377 -0.9859
  177SOL     vw  708   4.215   0.773   7.223 -0.3583 -0.7200 -0.5524
  178SOL     ow  709   2.432   5.491   3.071  0.2624 -0.6956  0.4035
  178SOL     hw  710   2.479   5.431   3.014  1.8876  2.6459 -2.1384
  178SOL     hw  711   2.353   5.444   3.096  0.8380 -3.4205 -2.3306
  178SOL     vw  712   2.428   5.477   3.067  0.5528 -0.6144 -0.2927
  179SOL     ow  713   3.025   0.515   4.008  0.1406  0.6792  0.1998
  179SOL     hw  714   3.037   0.420   4.016  2.4997  0.9775  0.9254
  179SOL     hw  715   2.952   0.524   3.947  1.8152 -1.5987 -2.3523
  179SOL     vw  716   3.017   0.503   4.001  0.6728  0.4180 -0.0415
  180SOL     ow  717   1.320   6.702   6.576 -0.5563 -0.2287  1.0823
  180SOL     hw  718   1.356   6.629   6.525  0.3421 -0.9996  2.7424
  180SOL     hw  719   1.347   6.684   6.666 -0.8911  1.8146  1.6415
  180SOL     vw  720   1.328   6.690   6.581 -0.4819 -0.0610  1.3754
  181SOL     ow  721   4.165   0.264   5.290  0.2436  0.4202  0.5919
  181SOL     hw  722   4.207   0.198   5.234 -3.5933 -1.9506  0.1285
  181SOL     hw  723   4.162   0.343   5.236  3.3073  0.5524  0.4585
  181SOL     vw  724   4.170   0.266   5.275  0.1419  0.1248  0.5133
  182SOL     ow  725   6.412   2.158   1.252  1.1957  0.4388 -0.6584
  182SOL     hw  726   6.347   2.170   1.183 -0.6859  0.6583  1.0634
  182SOL     hw  727   6.487   2.211   1.224  0.1359  1.2728 -2.0470
  182SOL     vw  728   6.414   2.166   1.239  0.8073  0.5778 -0.6144
  183SOL     ow  729   6.089   1.273   0.483 -0.1540  0.1061  0.0690
  183SOL     hw  730   6.169   1.236   0.522 -0.2584  0.4009  0.5692
  183SOL     hw  731   6.118   1.310   0.399  0.0841 -0.4785 -0.1156
  183SOL     vw  732   6.103   1.273   0.477 -0.1364  0.0679  0.1106
  184SOL     ow  733   0.288   5.768   1.648 -0.1501 -0.1595 -0.0778
  184SOL     hw  734   0.275   5.817   1.567 -1.3071 -3.5097 -2.1075
  184SOL     hw  735   0.199   5.755   1.682 -0.0719 -2.1948 -0.5400
  184SOL     vw  736   0.274   5.773   1.642 -0.2925 -0.8702 -0.4066
  185SOL     ow  737   0.722   0.309   5.439 -0.1026  0.2643 -0.5496
  185SOL     hw  738   0.794   0.308   5.375 -0.4849  3.2735 -1.1513
  185SOL     hw  739   0.658   0.370   5.403 -2.0174 -0.6879  1.0232
  185SOL     vw  740   0.723   0.317   5.426 -0.4057  0.5357 -0.4215
  186SOL     ow  741   5.819   1.621   6.279  0.2855 -0.3295 -0.0728
  186SOL     hw  742   5.878   1.577   6.340 -0.6299  0.0986  1.1580
  186SOL     hw  743   5.795   1.553   6.216  0.6004 -0.9974  0.5155
  186SOL     vw  744   5.824   1.606   6.279  0.2062 -0.3612  0.1674
  187SOL     ow  745   2.773   7.138   5.822  0.3653 -0.1275  0.0731
  187SOL     hw  746   2.764   7.208   5.758  2.1506  0.4391  0.4120
  187SOL     hw  747   2.850   7.088   5.793  0.4414 -0.6158  1.0763
  187SOL     vw  748   2.782   7.140   5.809  0.6108 -0.1173  0.2503
  188SOL     ow  749   5.506   5.481   6.169 -0.2586  0.0334  0.5504
  188SOL     hw  750   5.488   5.564   6.124 -0.6444 -0.7474 -0.7847
  188SOL     hw  751   5.593   5.456   6.139 -0.4142 -0.3682  0.4272
  188SOL     vw  752   5.515   5.489   6.159 -0.3300 -0.1225  0.3581
  189SOL     ow  753   5.173   3.717   5.220 -0.3705  0.8373  0.3719
  189SOL     hw  754   5.204   3.716   5.129  1.6628  0.6320  1.0198
  189SOL     hw  755   5.176   3.809   5.245 -2.4200  1.1050 -0.1980
  189SOL     vw  756   5.178   3.729   5.211 -0.3724  0.8457  0.3824
  190SOL     ow  757   3.626   5.588   5.327  0.2342 -0.2963  0.8468
  190SOL     hw  758   3.713   5.581   5.367  1.7198  2.7499 -1.3610
  190SOL     hw  759   3.635   5.660   5.263 -4.4444  1.6267  1.9168
  190SOL     vw  760   3.639   5.597   5.323 -0.1870  0.3593  0.6967
  191SOL     ow  761   7.228   2.918   6.179  0.4391 -0.4448  0.2260
  191SOL     hw  762   7.224   2.969   6.098  0.1093 -0.4170  0.2548
  191SOL     hw  763   7.273   2.974   6.241 -0.6870  0.1752  0.5098
  191SOL     vw  764   7.233   2.932   6.176  0.2472 -0.3594  0.2673
  192SOL     ow  765   3.630   7.248   3.770 -0.0933 -0.3168 -0.9159
  192SOL     hw  766   3.539   7.219   3.775 -0.3905  0.4948 -1.4238
  192SOL     hw  767   3.676   7.175   3.730 -0.5791 -0.5984 -0.9713
  192SOL     vw  768   3.624   7.234   3.766 -0.1966 -0.2468 -0.9903
  193SOL     ow  769   3.128   3.546   2.880 -0.3250 -0.9146  0.5750
  193SOL     hw  770   3.123   3.585   2.968 -1.1520 -1.3203  0.7186
  193SOL     hw  771   3.221   3.530   2.866 -0.1006 -0.1070  1.0518
  193SOL     vw  772   3.139   3.549   2.890 -0.4046 -0.8615  0.6568
  194SOL     ow  773   6.674   4.030   6.078  0.0811  0.3586 -0.4218
  194SOL     hw  774   6.678   4.098   6.010 -0.2563 -0.2687 -1.0848
  194SOL     hw  775   6.587   4.040   6.117 -0.3995 -0.3637 -1.2576
  194SOL     vw  776   6.663   4.040   6.074 -0.0269  0.1802 -0.6196
  195SOL     ow  777   6.695   5.714   3.683  0.5820 -0.0303  0.4704
  195SOL     hw  778   6.710   5.748   3.771  0.1196  0.8005  0.2314
  195SOL     hw  779   6.722   5.622   3.688  0.6466  0.0373  1.4522
  195SOL     vw  780   6.700   5.706   3.695  0.5298  0.0885  0.5684
  196SOL     ow  781   1.253   0.630   3.799 -0.2942 -0.5181 -0.3265
  196SOL     hw  782   1.244   0.596   3.888 -1.3183 -0.4347 -0.3885
  196SOL     hw  783   1.339   0.601   3.771 -0.0409 -0.7223  0.6169
  196SOL     vw  784   1.263   0.622   3.807 -0.3958 -0.5341 -0.2104
  197SOL     ow  785   6.852   0.131   2.364 -0.1435 -0.2928 -1.4281
  197SOL     hw  786   6.786   0.100   2.301 -0.3289 -2.0998 -0.3904
  197SOL     hw  787   6.906   0.055   2.383  0.6388  0.5113 -0.2702
  197SOL     vw  788   6.850   0.117   2.358 -0.0648 -0.4251 -1.1384
  198SOL     ow  789   6.551   6.699   0.417  0.2562  0.7160 -0.3442
  198SOL     hw  790   6.491   6.710   0.490 -0.6510 -1.2630 -0.7392
  198SOL     hw  791   6.500   6.724   0.340 -0.0787 -0.9007 -0.6744
  198SOL     vw  792   6.537   6.704   0.416  0.0925  0.2418 -0.4399
  199SOL     ow  793   3.249   0.218   4.808  0.3409  0.8330 -0.2677
  199SOL     hw  794   3.245   0.306   4.845  0.8680  0.3489  1.0222
  199SOL     hw  795   3.213   0.162   4.876  1.0237 -0.0645 -0.6242
  199SOL     vw  796   3.244   0.222   4.822  0.5006  0.6507 -0.1445
  200SOL     ow  797   2.828   3.099   1.582  0.1912 -0.2125 -0.3990
  200SOL     hw  798   2.777   3.147   1.516 -1.3972  2.5861  2.5944
  200SOL     hw  799   2.916   3.136   1.576 -0.4045  1.3930  0.1848
  200SOL     vw  800   2.832   3.110   1.572 -0.0972  0.3686  0.0730
  201SOL     ow  801   1.541   6.618   2.767 -0.3112 -0.3730  0.6829
  201SOL     hw  802   1.590   6.542   2.735 -0.8883 -1.0386  1.3327
  201SOL     hw  803   1.558   6.687   2.703  0.4597 -0.9659  0.2381
  201SOL     vw  804   1.550   6.617   2.754 -0.2856 -0.5388  0.7100
  202SOL     ow  805   5.039   0.890   6.016  0.1895 -0.0662 -0.1277
  202SOL     hw  806   5.102   0.863   6.083 -2.4622  1.2147  3.1520
  202SOL     hw  807   5.063   0.980   5.996  1.9592 -0.9326 -2.2812
  202SOL     vw  808   5.051   0.898   6.022  0.0730 -0.0115  0.0210
  203SOL     ow  809   3.258   1.694   5.851  0.3336 -0.6650  0.4184
  203SOL     hw  810   3.223   1.627   5.910 -0.2337  0.0901  0.9561
  203SOL     hw  811   3.208   1.684   5.771  1.0489 -1.6432  0.0727
  203SOL     vw  812   3.247   1.684   5.849  0.3531 -0.6946  0.4435
  204SOL     ow  813   6.937   6.931   6.204  0.8753  0.0570  0.3650
  204SOL     hw  814   6.970   6.997   6.143  0.1323 -0.5054 -0.6796
  204SOL     hw  815   6.905   6.981   6.278 -0.0267  0.9187 -0.5764
  204SOL     vw  816   6.937   6.946   6.205  0.6583  0.0961  0.1030
  205SOL     ow  817   5.473   4.348   1.257  0.4573  0.4556 -0.1752
  205SOL     hw  818   5.474   4.383   1.346  0.2638 -0.2081  0.0956
  205SOL     hw  819   5.453   4.423   1.201  2.2549  1.2275  0.1767
  205SOL     vw  820   5.470   4.363   1.261  0.6690  0.4697 -0.0929
  206SOL     ow  821   6.743   3.706   1.415 -0.1920  0.2084  0.3088
  206SOL     hw  822   6.834   3.718   1.389 -0.6627  1.5838 -0.8695
  206SOL     hw  823   6.717   3.791   1.452 -0.7166 -0.4834  1.6143
  206SOL     vw  824   6.752   3.719   1.417 -0.3233  0.2986  0.3256
  207SOL     ow  825   3.495   6.071   5.612 -0.1611 -0.3616 -0.3050
  207SOL     hw  826   3.437   6.043   5.540  0.3512 -3.1600  0.2614
  207SOL     hw  827   3.566   6.118   5.568 -1.9842  1.7654 -1.1539
  207SOL     vw  828   3.497   6.074   5.596 -0.3341 -0.4504 -0.3419
  208SOL     ow  829   0.340   4.252   6.679  0.3371  0.1771 -0.0442
  208SOL     hw  830   0.420   4.266   6.729  0.9682 -0.3760 -0.8681
  208SOL     hw  831   0.370   4.239   6.589 -0.8498  2.4558 -0.8252
  208SOL     vw  832   0.355   4.252   6.674  0.2638  0.4046 -0.2561
  209SOL     ow  833   5.812   4.517   1.109  0.6166  0.0299  0.4201
  209SOL     hw  834   5.825   4.573   1.186 -0.7222  0.8304  0.0873
  209SOL     hw  835   5.787   4.577   1.039 -2.6308 -1.0674  0.4830
  209SOL     vw  836   5.810   4.532   1.110  0.0114 -0.0093  0.3845
  210SOL     ow  837   6.684   3.277   7.215  0.3495 -0.1363  0.0880
  210SOL     hw  838   6.695   3.228   7.297 -3.3527 -0.8719  0.3092
  210SOL     hw  839   6.707   3.367   7.238 -0.3052 -0.3774  1.9000
  210SOL     vw  840   6.688   3.282   7.229 -0.2253 -0.2651  0.3564
  211SOL     ow  841   2.986   2.216   3.841 -0.9523 -0.0620 -0.3881
  211SOL     hw  842   3.002   2.304   3.875  0.3294 -0.5647  0.3833
  211SOL     hw  843   3.073   2.185   3.813 -0.7285 -2.2732  2.3557
  211SOL     vw  844   3.000   2.224   3.842 -0.7538 -0.4200  0.0757
  212SOL     ow  845   2.819   0.375   5.699  0.4353 -0.7658 -0.0689
  212SOL     hw  846   2.862   0.432   5.635 -0.0658  0.1312  0.3634
  212SOL     hw  847   2.799   0.433   5.773 -3.3904 -0.5178 -1.0691
  212SOL     vw  848   2.822   0.390   5.700 -0.1355 -0.6147 -0.1438
  213SOL     ow  849   1.282   1.181   1.173 -0.6555  0.3913  0.3084
  213SOL     hw  850   1.346   1.247   1.199 -1.2159  0.0288  2.8112
  213SOL     hw  851   1.200   1.209   1.213 -1.1686 -1.1765  0.4248
  213SOL     vw  852   1.280   1.193   1.181 -0.7971  0.1366  0.6540
  214SOL     ow  853   0.970   0.876   2.065  0.0327  0.3393 -0.4289
  214SOL     hw  854   1.012   0.961   2.078  0.5625  0.2027 -1.2253
  214SOL     hw  855   0.980   0.857   1.972  0.0678 -0.6722 -0.2341
  214SOL     vw  856   0.977   0.885   2.055  0.1072  0.1878 -0.5082
  215SOL     ow  857   5.315   1.491   3.618  0.1094 -0.2635 -0.5835
  215SOL     hw  858   5.251   1.539   3.671 -0.5432 -0.5021 -1.1505
  215SOL     hw  859   5.268   1.469   3.537  1.3981  0.9675 -1.7120
  215SOL     vw  860   5.300   1.495   3.615  0.1936 -0.1326 -0.8072
  216SOL     ow  861   4.598   1.397   0.325  0.1465  0.3529 -0.4869
  216SOL     hw  862   4.509   1.427   0.343 -0.3243 -0.2253 -1.7444
  216SOL     hw  863   4.639   1.392   0.412 -0.4647  2.3281 -0.0412
  216SOL     vw  864   4.592   1.400   0.339  0.0038  0.5372 -0.5940
  217SOL     ow  865   0.130   1.147   0.064 -0.4384  0.1434  0.0205
  217SOL     hw  866   0.057   1.207   0.080  0.2599  0.7558  0.9977
  217SOL     hw  867   0.197   1.200   0.021  0.0913  0.0021  0.6646
  217SOL     vw  868   0.129   1.162   0.060 -0.2764  0.2055  0.2344
  218SOL     ow  869   6.920   3.639   6.637  0.3090 -0.0669 -0.1460
  218SOL     hw  870   6.943   3.717   6.687 -5.2242  0.7540  1.9018
  218SOL     hw  871   6.904   3.572   6.704 -0.5316 -1.1325 -1.3696
  218SOL     vw  872   6.921   3.640   6.653 -0.5319 -0.0992 -0.0372
  219SOL     ow  873   6.093   6.353   4.669 -1.1096 -0.4128  0.3105
  219SOL     hw  874   6.163   6.332   4.730 -1.3295 -0.6216  0.4945
  219SOL     hw  875   6.043   6.422   4.712 -0.3334  0.5851 -0.3363
  219SOL     vw  876   6.096   6.359   4.683 -1.0364 -0.3088  0.2494
  220SOL     ow  877   5.384   7.017   0.202  0.4311 -0.3236  0.2456
  220SOL     hw  878   5.363   7.106   0.173  0.5751 -0.4652 -0.3084
  220SOL     hw  879   5.436   7.029   0.281 -0.8933  0.0533  1.0924
  220SOL     vw  880   5.388   7.030   0.208  0.2754 -0.2923  0.2842
  221SOL     ow  881   2.159   0.408   1.823 -0.7191 -0.4359  0.4505
  221SOL     hw  882   2.076   0.447   1.794 -0.1266 -1.2524 -2.6276
  221SOL     hw  883   2.191   0.359   1.747  2.5867 -0.2204  1.5478
  221SOL     vw  884   2.152   0.407   1.809 -0.2047 -0.5152  0.1891
  222SOL     ow  885   2.787   2.058   3.845 -0.4711 -0.4751 -0.0008
  222SOL     hw  886   2.863   2.116   3.843  1.7740 -3.0636  2.1812
  222SOL     hw  887   2.817   1.978   3.802 -1.3623 -2.1053  2.2103
  222SOL     vw  888   2.801   2.055   3.839 -0.2927 -1.0316  0.5789
  223SOL     ow  889   4.063   0.671   0.127  0.1205  0.0645  0.2748
  223SOL     hw  890   4.129   0.701   0.065  2.5002 -1.3236  1.9782
  223SOL     hw  891   4.040   0.583   0.097  2.2628 -1.1606  1.9194
  223SOL     vw  892   4.068   0.664   0.115  0.7167 -0.2803  0.7165
  224SOL     ow  893   3.242   5.209   2.666 -0.3972  0.2380 -0.0261
  224SOL     hw  894   3.238   5.268   2.741  0.8352  0.7130 -0.3076
  224SOL     hw  895   3.195   5.255   2.597  0.1698  0.7067 -0.1110
  224SOL     vw  896   3.235   5.223   2.667 -0.1599  0.3624 -0.0745
  225SOL     ow  897   2.802   6.792   2.559  0.8506  0.1704  0.2293
  225SOL     hw  898   2.841   6.767   2.642  0.9187 -0.3723  0.0363
  225SOL     hw  899   2.808   6.888   2.557 -0.3103  0.2923  1.4164
  225SOL     vw  900   2.808   6.801   2.569  0.7063  0.1152  0.3606
  226SOL     ow  901   5.159   0.312   6.708 -0.5002 -0.2907  0.4786
  226SOL     hw  902   5.169   0.378   6.639  1.2955 -0.5622  0.4189
  226SOL     hw  903   5.073   0.329   6.745 -0.4677  1.5016 -0.1483
  226SOL     vw  904   5.149   0.323   6.704 -0.2589 -0.0900  0.3881
  227SOL     ow  905   1.279   1.617   0.638 -1.2603 -0.2874  0.3641
  227SOL     hw  906   1.318   1.664   0.565 -0.5221 -0.3973  0.6751
  227SOL     hw  907   1.202   1.668   0.662 -0.9730  0.2610  0.1230
  227SOL     vw  908   1.274   1.630   0.631 -1.1250 -0.2295  0.3733
  228SOL     ow  909   3.947   4.204   3.705  0.3272  0.4864 -0.2085
  228SOL     hw  910   3.923   4.258   3.630 -0.9375 -1.1819 -1.0573
  228SOL     hw  911   3.916   4.253   3.781 -2.2709  0.2861 -1.0509
  228SOL     vw  912   3.940   4.218   3.705 -0.1824  0.2398 -0.4317
  229SOL     ow  913   0.889   0.007   3.668  0.3012 -0.4068 -0.4511
  229SOL     hw  914   0.865   0.095   3.697 -1.5429 -0.8760 -0.3921
  229SOL     hw  915   0.823  -0.015   3.602  2.3608 -0.7115 -2.5294
  229SOL     vw  916   0.877   0.016   3.663  0.3296 -0.5089 -0.7174
  230SOL     ow  917   2.345   6.342   6.387  0.3363  0.3063 -0.1320
  230SOL     hw  918   2.440   6.349   6.378  0.5231 -0.1317  1.2124
  230SOL     hw  919   2.330   6.250   6.407 -0.5009  0.1373 -1.4279
  230SOL     vw  920   2.356   6.331   6.389  0.2505  0.2260 -0.1254
  231SOL     ow  921   3.600   4.395   6.722  0.2328 -0.2151 -0.0794
  231SOL     hw  922   3.534   4.338   6.760  0.3802 -1.4275 -1.5740
  231SOL     hw  923   3.576   4.402   6.630  1.2678  0.6637 -0.3017
  231SOL     vw  924   3.588   4.389   6.715  0.3889 -0.2592 -0.3059
  232SOL     ow  925   1.978   5.060   3.819 -0.6278  0.1745  0.0666
  232SOL     hw  926   1.900   5.048   3.873  0.2395  1.9300  1.8340
  232SOL     hw  927   1.956   5.133   3.761 -0.0463  1.2042  1.1231
  232SOL     vw  928   1.965   5.068   3.818 -0.4366  0.5419  0.4392
  233SOL     ow  929   6.763   2.726   1.854 -0.3364 -0.1626  0.1357
  233SOL     hw  930   6.856   2.740   1.872 -0.1034  0.9954 -1.6458
  233SOL     hw  931   6.763   2.670   1.776 -1.1357 -0.0362  0.0426
  233SOL     vw  932   6.776   2.721   1.846 -0.4113  0.0069 -0.1117
  234SOL     ow  933   0.928   6.337   1.728 -0.3619 -0.1759  0.0497
  234SOL     hw  934   0.891   6.336   1.640  1.1397 -0.3052 -0.6159
  234SOL     hw  935   0.965   6.425   1.737  2.0312 -1.0224 -0.6190
  234SOL     vw  936   0.928   6.349   1.718  0.1520 -0.3049 -0.1264
  235SOL     ow  937   3.254   1.209   5.546  0.2610  0.7867 -0.3754
  235SOL     hw  938   3.292   1.269   5.482  0.5459  1.7464  0.6628
  235SOL     hw  939   3.313   1.214   5.622  0.5677 -1.1753 -0.4241
  235SOL     vw  940   3.267   1.218   5.548  0.3389  0.6545 -0.2451
  236SOL     ow  941   0.343   1.534   2.675  0.0318  0.4723  0.0722
  236SOL     hw  942   0.358   1.600   2.743 -0.0792  0.0705  0.4897
  236SOL     hw  943   0.278   1.475   2.713 -1.0086  0.9707 -0.8784
  236SOL     vw  944   0.336   1.535   2.689 -0.1201  0.4851  0.0018
  237SOL     ow  945   6.979   4.822   4.758  0.0396 -0.2852  0.2909
  237SOL     hw  946   6.996   4.730   4.779  1.7220 -0.1334 -0.2830
  237SOL     hw  947   6.981   4.826   4.663 -4.0611 -0.3253  0.0028
  237SOL     vw  948   6.981   4.811   4.749 -0.2797 -0.2706  0.1769
  238SOL     ow  949   7.129   4.255   6.603  0.0298 -0.0703  0.1656
  238SOL     hw  950   7.059   4.224   6.660 -1.0587  0.6834 -0.7105
  238SOL     hw  951   7.172   4.324   6.653 -1.3139  1.0188 -0.1240
  238SOL     vw  952   7.125   4.260   6.617 -0.2911  0.1726  0.0119
  239SOL     ow  953   0.029   7.196   5.594  0.1809 -0.2625  0.2978
  239SOL     hw  954   0.086   7.272   5.581  1.7876 -1.7999 -2.7807
  239SOL     hw  955   0.067   7.151   5.670  2.3979 -0.5105 -0.8493
  239SOL     vw  956   0.042   7.200   5.603  0.6854 -0.4981 -0.2596
  240SOL     ow  957   5.080   0.841   0.066  0.5099 -0.1078 -0.3414
  240SOL     hw  958   5.158   0.833   0.121  0.1420  2.1358  0.6175
  240SOL     hw  959   5.104   0.906   0.000 -0.6311  0.8678  0.1782
  240SOL     vw  960   5.093   0.849   0.065  0.3111  0.3169 -0.1463
  241SOL     ow  961   1.202   7.280   0.065 -0.0839  0.0436  0.0125
  241SOL     hw  962   1.261   7.298   0.138 -0.2597  0.0193  0.1607
  241SOL     hw  963   1.260   7.261  -0.009  0.1167  0.9228 -0.0774
  241SOL     vw  964   1.218   7.280   0.065 -0.0806  0.1562  0.0202
  242SOL     ow  965   4.896   6.595   2.186  0.7908  0.0087  0.3754
  242SOL     hw  966   4.946   6.674   2.167  0.0963  0.3350 -0.1501
  242SOL     hw  967   4.955   6.523   2.164  1.1933  0.3841  0.2182
  242SOL     vw  968   4.910   6.596   2.180  0.7524  0.1013  0.2853
  243SOL     ow  969   4.743   1.781   5.490  0.1730 -0.0486 -0.1820
  243SOL     hw  970   4.690   1.813   5.418  0.5762 -1.7228 -1.2927
  243SOL     hw  971   4.681   1.768   5.562 -0.7434 -0.8814 -1.0893
  243SOL     vw  972   4.728   1.783   5.490  0.1054 -0.3793 -0.4482
  244SOL     ow  973   0.870   6.513   6.749  1.1156  0.2531 -0.1743
  244SOL     hw  974   0.959   6.534   6.778  0.9615  1.2247 -0.3532
  244SOL     hw  975   0.814   6.578   6.793  0.0641 -2.1484  2.3362
  244SOL     vw  976   0.874   6.525   6.759  0.9565  0.0644  0.1333
  245SOL     ow  977   1.584   1.159   5.213 -0.4127 -0.0060 -0.4250
  245SOL     hw  978   1.500   1.188   5.177 -0.7563 -2.0037 -1.3233
  245SOL     hw  979   1.639   1.144   5.136  0.0489 -0.8171  0.0567
  245SOL     vw  980   1.580   1.161   5.198 -0.3971 -0.3766 -0.4799
  246SOL     ow  981   1.657   6.077   0.837  0.4497 -0.3948  0.3529
  246SOL     hw  982   1.605   6.085   0.758  3.4704  0.0075 -1.7609
  246SOL     hw  983   1.627   5.995   0.877  0.0573 -1.6009 -2.2052
  246SOL     vw  984   1.646   6.067   0.832  0.7965 -0.5007 -0.2635
  247SOL     ow  985   1.741   6.325   6.904  0.0763  0.2289 -0.3008
  247SOL     hw  986   1.687   6.335   6.983 -0.2015  1.7271 -0.6459
  247SOL     hw  987   1.793   6.405   6.900 -0.4587  0.5454 -2.0109
  247SOL     vw  988   1.740   6.337   6.914 -0.0310  0.4683 -0.5722
  248SOL     ow  989   6.065   5.646   2.602  0.0333  0.4079  0.3507
  248SOL     hw  990   6.058   5.709   2.673  1.1290  0.0528  0.7913
  248SOL     hw  991   5.979   5.648   2.559 -0.7438  0.4404  1.8372
  248SOL     vw  992   6.053   5.654   2.605  0.0753  0.3655  0.6049
  249SOL     ow  993   4.764   2.552   4.449 -0.1443  0.3772 -0.7349
  249SOL     hw  994   4.844   2.601   4.466 -1.1395  1.0832  2.6355
  249SOL     hw  995   4.776   2.469   4.496 -2.0423  1.2892  1.5516
  249SOL     vw  996   4.776   2.548   4.457 -0.5260  0.5906  0.0117
  250SOL     ow  997   6.069   7.147   4.897 -0.0837 -0.0093  1.0770
  250SOL     hw  998   6.030   7.115   4.978  1.2472  0.6702  2.0242
  250SOL     hw  999   6.121   7.224   4.924 -1.6552  1.8311 -0.7953
  250SOL     vw 1000   6.071   7.153   4.911 -0.1152  0.3228  0.9551
  251SOL     ow 1001   3.028   0.633   0.853  0.0581  0.1981 -0.4102
  251SOL     hw 1002   3.031   0.716   0.806 -2.4407  0.5118 -0.1401
  251SOL     hw 1003   2.963   0.581   0.807 -1.4519 -0.0170  1.7813
  251SOL     vw 1004   3.020   0.637   0.841 -0.4710  0.2111 -0.0854
  252SOL     ow 1005   2.637   3.143   3.143  0.4144  0.2051 -0.2001
  252SOL     hw 1006   2.592   3.190   3.214  1.8377  0.3929  0.6003
  252SOL     hw 1007   2.674   3.066   3.185 -0.9257 -1.1011 -1.2845
  252SOL     vw 1008   2.636   3.139   3.158  0.4253  0.0576 -0.2376
  253SOL     ow 1009   7.097   5.914   0.205 -0.1150  0.4777 -0.5747
  253SOL     hw 1010   7.130   5.911   0.295  1.3637  0.2924 -1.0830
  253SOL     hw 1011   7.156   5.856   0.156 -1.6923 -0.4596 -1.4360
  253SOL     vw 1012   7.109   5.906   0.210 -0.1283  0.3297 -0.7554
  254SOL     ow 1013   1.108   1.711   6.742 -0.4445 -0.0494  0.3509
  254SOL     hw 1014   1.048   1.657   6.690  0.9857 -0.2480 -1.1793
  254SOL     hw 1015   1.116   1.792   6.691 -0.3570  0.4737  1.1802
  254SOL     vw 1016   1.101   1.714   6.728 -0.2442 -0.0066  0.2584
  255SOL     ow 1017   0.952   3.316   5.323 -0.9214 -0.1670  0.1500
  255SOL     hw 1018   0.966   3.339   5.415  1.3813  1.1123 -0.4236
  255SOL     hw 1019   0.919   3.397   5.283  0.4798  0.0884 -0.5642
  255SOL     vw 1020   0.950   3.330   5.330 -0.4327  0.0354 -0.0200
  256SOL     ow 1021   0.411   0.306   4.566 -0.0172  0.5594 -0.6757
  256SOL     hw 1022   0.408   0.361   4.645  2.6211  0.2245 -0.2229
  256SOL     hw 1023   0.341   0.242   4.578  0.4549  0.3619  1.5702
  256SOL     vw 1024   0.402   0.305   4.578  0.3932  0.4891 -0.3197
  257SOL     ow 1025   2.666   4.590   1.433  0.6571  0.3917 -0.0755
  257SOL     hw 1026   2.711   4.673   1.449 -0.1739  1.0492 -0.9922
  257SOL     hw 1027   2.720   4.545   1.368  0.5177  0.7167 -0.4140
  257SOL     vw 1028   2.679   4.595   1.427  0.5291  0.5214 -0.2411
  258SOL     ow 1029   2.784   6.365   4.836 -0.1668 -0.2857 -0.0826
  258SOL     hw 1030   2.742   6.304   4.775  0.1159 -0.4120 -0.1517
  258SOL     hw 1031   2.837   6.422   4.780  0.3306 -0.5923  0.0711
  258SOL     vw 1032   2.785   6.365   4.821 -0.0639 -0.3426 -0.0718
  259SOL     ow 1033   1.007   0.675   2.294  0.2884 -0.0438  0.4985
  259SOL     hw 1034   1.009   0.750   2.234 -0.0033  0.8123  1.5220
  259SOL     hw 1035   1.087   0.627   2.276  0.0650  0.0392 -0.7642
  259SOL     vw 1036   1.017   0.679   2.284  0.2206  0.0801  0.4669
  260SOL     ow 1037   0.063   1.870   6.143  0.3089 -0.3526 -0.2709
  260SOL     hw 1038   0.152   1.847   6.114  0.3479  0.7997 -1.1303
  260SOL     hw 1039   0.028   1.923   6.072 -2.2279 -3.2327 -1.4162
  260SOL     vw 1040   0.070   1.874   6.130 -0.0206 -0.5805 -0.5355
  261SOL     ow 1041   6.540   4.344   2.308 -0.0975  0.4842 -0.3793
  261SOL     hw 1042   6.474   4.276   2.293  1.8477 -2.1283  1.9254
  261SOL     hw 1043   6.538   4.358   2.402  3.1846 -0.4589 -0.0505
  261SOL     vw 1044   6.531   4.337   2.318  0.5922  0.0150 -0.0319
  262SOL     ow 1045   6.386   2.140   6.658  0.7994 -0.3636  0.3138
  262SOL     hw 1046   6.333   2.083   6.601 -1.2351  1.1625  0.5863
  262SOL     hw 1047   6.461   2.164   6.604  0.8705 -1.9609 -0.3684
  262SOL     vw 1048   6.389   2.135   6.643  0.5405 -0.3729  0.2596
  263SOL     ow 1049   2.698   0.598   3.285 -0.2723 -0.4190 -0.1281
  263SOL     hw 1050   2.702   0.506   3.259  1.3617 -0.0702 -1.2791
  263SOL     hw 1051   2.772   0.609   3.344  0.7009  0.5302 -1.4512
  263SOL     vw 1052   2.708   0.587   3.289  0.0716 -0.2477 -0.4544
  264SOL     ow 1053   5.466   2.443   2.682 -0.0808  0.0748  0.2749
  264SOL     hw 1054   5.387   2.455   2.629 -0.0371 -1.5086 -0.1869
  264SOL     hw 1055   5.435   2.456   2.772 -0.1534  2.7639 -0.0503
  264SOL     vw 1056   5.451   2.446   2.687 -0.0844  0.2208  0.1712
  265SOL     ow 1057   5.163   3.891   1.919 -0.3067 -0.8570 -0.7378
  265SOL     hw 1058   5.134   3.969   1.872 -0.5529 -0.2539  0.3782
  265SOL     hw 1059   5.085   3.836   1.925 -0.5128 -0.5111 -0.2175
  265SOL     vw 1060   5.149   3.894   1.914 -0.3664 -0.7317 -0.5220
  266SOL     ow 1061   6.550   6.777   1.063 -0.3911  0.5528  0.1943
  266SOL     hw 1062   6.477   6.823   1.021 -2.5407 -1.2210  1.7725
  266SOL     hw 1063   6.589   6.725   0.992  0.6267  2.8812 -1.0889
  266SOL     vw 1064   6.546   6.776   1.048 -0.5405  0.6261  0.2332
  267SOL     ow 1065   0.216   7.166   3.677 -0.0876 -0.6518  0.0213
  267SOL     hw 1066   0.282   7.170   3.607 -1.0133  1.4650 -0.8221
  267SOL     hw 1067   0.164   7.245   3.664 -0.5475 -0.4082  2.9085
  267SOL     vw 1068   0.218   7.177   3.666 -0.2704 -0.3405  0.2910
  268SOL     ow 1069   1.386   3.983   7.250  1.0100  0.1444  0.3652
  268SOL     hw 1070   1.396   3.936   7.333 -2.7843  0.0228  0.9526
  268SOL     hw 1071   1.420   4.071   7.268 -0.0350  0.2381  2.2426
  268SOL     vw 1072   1.392   3.988   7.264  0.3715  0.1409  0.6905
  269SOL     ow 1073   4.745   1.308   2.967 -0.3107 -0.4504  0.0620
  269SOL     hw 1074   4.811   1.262   2.915 -2.4293  0.5433 -3.8857
  269SOL     hw 1075   4.662   1.278   2.931 -1.8855  1.9156  1.4994
  269SOL     vw 1076   4.743   1.298   2.955 -0.7977 -0.0070 -0.2692
  270SOL     ow 1077   6.362   6.294   3.627 -0.2324 -0.6811 -0.1407
  270SOL     hw 1078   6.356   6.235   3.552 -0.3523 -0.9110  0.0541
  270SOL     hw 1079   6.396   6.240   3.698  0.6742 -0.2745 -0.2418
  270SOL     vw 1080   6.366   6.279   3.626 -0.1285 -0.6578 -0.1284
  271SOL     ow 1081   4.805   2.466   0.509 -0.3279 -0.2387  0.3129
  271SOL     hw 1082   4.879   2.450   0.568 -1.5526 -0.6909  1.8065
  271SOL     hw 1083   4.783   2.558   0.523 -1.1990 -0.5780  1.3090
  271SOL     vw 1084   4.812   2.476   0.519 -0.6042 -0.3433  0.6414
  272SOL     ow 1085   2.574   1.908   4.815  0.1112  0.5466  0.3072
  272SOL     hw 1086   2.541   1.989   4.854  1.7330  2.0143 -1.1508
  272SOL     hw 1087   2.499   1.869   4.771 -1.1858  0.0871  2.7896
  272SOL     vw 1088   2.560   1.914   4.814  0.1540  0.6797  0.4425
  273SOL     ow 1089   6.740   5.100   0.666 -0.0087  0.1887 -0.1890
  273SOL     hw 1090   6.796   5.120   0.591 -0.8265 -1.8245 -1.3856
  273SOL     hw 1091   6.730   5.005   0.665  0.6984 -0.0539  3.0372
  273SOL     vw 1092   6.746   5.090   0.656 -0.0231 -0.1090  0.0788
  274SOL     ow 1093   7.125   6.557   3.890 -0.7050 -0.2105  0.5682
  274SOL     hw 1094   7.186   6.614   3.844 -0.0863 -1.4072 -0.1452
  274SOL     hw 1095   7.056   6.615   3.921 -1.9346  0.5497 -3.0568
  274SOL     vw 1096   7.124   6.572   3.888 -0.7854 -0.2682 -0.0042
  275SOL     ow 1097   0.282   1.699   2.412  0.1176  0.1679 -0.4548
  275SOL     hw 1098   0.310   1.735   2.328 -2.3141 -1.1261 -1.9672
  275SOL     hw 1099   0.253   1.775   2.463  0.8671  0.9015 -1.1056
  275SOL     vw 1100   0.282   1.713   2.408 -0.1043  0.0938 -0.7402
  276SOL     ow 1101   6.392   4.089   4.120 -0.0242 -0.8111  0.2635
  276SOL     hw 1102   6.315   4.067   4.069  0.5959 -2.7073  0.0582
  276SOL     hw 1103   6.460   4.028   4.089  1.1678 -0.0893  1.3424
  276SOL     vw 1104   6.391   4.078   4.109  0.2148 -0.9661  0.3788
  277SOL     ow 1105   3.672   0.319   5.240 -0.3667  0.1226  0.6055
  277SOL     hw 1106   3.646   0.342   5.330  0.7133  0.3484  0.8731
  277SOL     hw 1107   3.766   0.307   5.245 -0.3587 -0.3062 -0.4209
  277SOL     vw 1108   3.681   0.321   5.253 -0.2230  0.0958  0.5054
  278SOL     ow 1109   0.420   3.815   2.384  0.2575 -0.9433  0.1267
  278SOL     hw 1110   0.446   3.870   2.311  1.6732 -1.5384  0.1507
  278SOL     hw 1111   0.444   3.865   2.462  2.2778 -1.8701  0.1484
  278SOL     vw 1112   0.426   3.829   2.385  0.7108 -1.1443  0.1327
  279SOL     ow 1113   3.119   4.111   5.591  0.1847  0.1685 -0.1739
  279SOL     hw 1114   3.188   4.174   5.614  1.0101 -1.2671  1.5352
  279SOL     hw 1115   3.037   4.157   5.609  0.7668  0.7813  1.0058
  279SOL     vw 1116   3.118   4.125   5.596  0.3704  0.0598  0.2074
  280SOL     ow 1117   4.068   5.124   0.846  0.0627  0.0015  0.0933
  280SOL     hw 1118   4.000   5.175   0.891 -1.2444  0.1081 -1.8623
  280SOL     hw 1119   4.045   5.033   0.866 -0.1022  0.0610  0.1809
  280SOL     vw 1120   4.056   5.119   0.855 -0.1316  0.0234 -0.1531
  281SOL     ow 1121   0.398   5.057   2.928  0.9597  0.1902 -0.1571
  281SOL     hw 1122   0.353   4.983   2.888 -1.6801  1.7793 -0.3907
  281SOL     hw 1123   0.422   5.114   2.855  1.0129  0.5800  0.1573
  281SOL     vw 1124   0.395   5.055   2.913  0.6184  0.4511 -0.1463
  282SOL     ow 1125   2.288   6.760   2.748 -0.3070  0.3924 -0.6348
  282SOL     hw 1126   2.213   6.769   2.689 -0.1142 -0.3973 -1.0213
  282SOL     hw 1127   2.321   6.672   2.730 -0.2898  0.1034  0.7101
  282SOL     vw 1128   2.282   6.750   2.738 -0.2792  0.2499 -0.5083
  283SOL     ow 1129   5.618   3.938   0.353  0.4784 -0.1474 -0.4717
  283SOL     hw 1130   5.616   3.842   0.359 -1.3685 -0.0794  0.5775
  283SOL     hw 1131   5.598   3.968   0.442  1.6305  1.2503 -0.6391
  283SOL     vw 1132   5.615   3.929   0.366  0.3865  0.0459 -0.3554
  284SOL     ow 1133   2.228   3.183   5.173  0.0144  0.3088 -0.6090
  284SOL     hw 1134   2.278   3.154   5.098  0.2611 -0.7160 -0.0616
  284SOL     hw 1135   2.279   3.256   5.210 -0.3238  1.1002 -1.6554
  284SOL     vw 1136   2.241   3.189   5.168  0.0024  0.2781 -0.6747
  285SOL     ow 1137   1.229   3.056   0.390  0.3477 -0.6506  0.0433
  285SOL     hw 1138   1.181   2.996   0.333  0.3908 -0.5518 -0.0977
  285SOL     hw 1139   1.280   3.000   0.447  1.1684 -0.7366 -0.7538
  285SOL     vw 1140   1.229   3.041   0.390  0.4617 -0.6489 -0.0805
  286SOL     ow 1141   0.185   3.737   0.955  0.3576 -0.0789 -0.5951
  286SOL     hw 1142   0.227   3.792   0.889  0.1494 -0.4840 -1.0809
  286SOL     hw 1143   0.157   3.797   1.024  0.3272  0.3918 -1.0153
  286SOL     vw 1144   0.187   3.752   0.955  0.3261 -0.0702 -0.7146
  287SOL     ow 1145   5.918   1.196   0.757 -0.2370 -0.5665 -0.3918
  287SOL     hw 1146   5.931   1.105   0.731 -1.2214 -0.5992 -0.8472
  287SOL     hw 1147   5.846   1.192   0.820  0.0365 -0.1487 -0.0481
  287SOL     vw 1148   5.910   1.184   0.762 -0.3307 -0.5156 -0.4065
  288SOL     ow 1149   0.222   0.649   3.633  0.0287  0.1792  0.1694
  288SOL     hw 1150   0.292   0.589   3.609  1.1732  0.5382  2.3660
  288SOL     hw 1151   0.161   0.596   3.685 -0.0976  0.4139  0.2664
  288SOL     vw 1152   0.223   0.634   3.637  0.1631  0.2575  0.4719
  289SOL     ow 1153   3.444   4.849   0.462 -0.1138 -0.2366 -0.4347
  289SOL     hw 1154   3.522   4.859   0.407  0.8048 -0.1014  0.8591
  289SOL     hw 1155   3.440   4.931   0.512  0.8878 -1.5851  1.9691
  289SOL     vw 1156   3.454   4.861   0.461  0.1397 -0.3967  0.0532
  290SOL     ow 1157   3.104   7.270   4.702 -0.2176 -0.8511  0.1834
  290SOL     hw 1158   3.018   7.257   4.741  0.2338 -0.1521  1.4711
  290SOL     hw 1159   3.156   7.196   4.734 -0.8237 -2.4689 -2.2591
  290SOL     vw 1160   3.100   7.258   4.711 -0.2379 -0.9720  0.0310
  291SOL     ow 1161   2.444   3.597   1.349  0.1359  0.0047  0.7222
  291SOL     hw 1162   2.505   3.560   1.413  0.4006  0.1910  0.5815
  291SOL     hw 1163   2.411   3.520   1.301  0.0490 -0.1215  0.9808
  291SOL     vw 1164   2.448   3.582   1.351  0.1595  0.0125  0.7377
  292SOL     ow 1165   1.285   0.365   5.549 -0.1824  0.5062  0.0107
  292SOL     hw 1166   1.261   0.273   5.545  1.3056  0.1115 -0.1881
  292SOL     hw 1167   1.296   0.383   5.643  1.6396 -0.1169 -0.0464
  292SOL     vw 1168   1.283   0.355   5.561  0.2543  0.3719 -0.0229
  293SOL     ow 1169   1.477   0.857   1.916 -0.0989 -0.6299  0.0832
  293SOL     hw 1170   1.495   0.869   2.009 -1.6956 -0.1050  0.3532
  293SOL     hw 1171   1.547   0.800   1.885 -1.2715 -3.5887  2.3342
  293SOL     vw 1172   1.488   0.851   1.924 -0.4643 -0.9510  0.4158
  294SOL     ow 1173   7.014   6.024   5.896 -0.6406 -0.3024  0.3715
  294SOL     hw 1174   6.953   5.991   5.830 -0.9134  0.2402  0.3389
  294SOL     hw 1175   7.046   6.107   5.859  1.8666 -1.6164 -0.6574
  294SOL     vw 1176   7.010   6.031   5.883 -0.3457 -0.4044  0.2315
  295SOL     ow 1177   5.343   4.292   0.098  0.3561  0.2580 -0.3738
  295SOL     hw 1178   5.275   4.350   0.134 -0.6067 -1.2380  0.3250
  295SOL     hw 1179   5.301   4.249   0.024  1.3847  1.1278 -1.4990
  295SOL     vw 1180   5.328   4.294   0.093  0.3645  0.1752 -0.4300
  296SOL     ow 1181   0.013   2.317   3.506  0.7435 -0.4847  0.2034
  296SOL     hw 1182  -0.002   2.349   3.595  1.1614 -1.3417  0.5884
  296SOL     hw 1183  -0.074   2.306   3.470  0.5709 -0.0481  0.4681
  296SOL     vw 1184  -0.000   2.320   3.513  0.7758 -0.5403  0.2891
  297SOL     ow 1185   3.737   3.479   1.486  0.6190  0.0339  0.2443
  297SOL     hw 1186   3.764   3.543   1.420  0.0171  2.8005  2.4710
  297SOL     hw 1187   3.703   3.532   1.558 -0.9783 -2.8894  1.8377
  297SOL     vw 1188   3.736   3.494   1.487  0.3289  0.0134  0.7483
  298SOL     ow 1189   6.137   0.469   1.585  0.2964 -0.2730 -0.5369
  298SOL     hw 1190   6.174   0.476   1.497 -2.6704  1.4740 -1.7824
  298SOL     hw 1191   6.044   0.453   1.572 -0.3969  0.7522  2.2698
  298SOL     vw 1192   6.130   0.468   1.572 -0.1864  0.0928 -0.3310
  299SOL     ow 1193   3.855   4.205   6.721 -0.3788  0.8926 -0.2226
  299SOL     hw 1194   3.799   4.134   6.690  1.0780  0.1346 -1.2768
  299SOL     hw 1195   3.925   4.210   6.655  2.3299 -0.1076  2.3352
  299SOL     vw 1196   3.857   4.196   6.708  0.1707  0.6604 -0.0243
  300SOL     ow 1197   3.920   3.676   6.108  0.5924 -0.4344 -0.0778
  300SOL     hw 1198   3.901   3.762   6.146  0.6565 -0.3792 -0.1692
  300SOL     hw 1199   4.013   3.679   6.088  0.5956 -0.5281 -0.0764
  300SOL     vw 1200   3.930   3.688   6.110  0.6013 -0.4395 -0.0899
  301SOL     ow 1201   4.894   1.089   6.177  0.7648 -0.3982 -0.8286
  301SOL     hw 1202   4.892   1.144   6.099  0.3652  0.5934 -0.1338
  301SOL     hw 1203   4.843   1.137   6.242  0.0014 -1.8171 -0.3393
  301SOL     vw 1204   4.887   1.102   6.175  0.6113 -0.4545 -0.6726
  302SOL     ow 1205   6.745   6.511   0.287  0.0480  0.2632  0.3544
  302SOL     hw 1206   6.727   6.515   0.193  1.7023  1.0133  0.0330
  302SOL     hw 1207   6.781   6.424   0.301 -0.1246  0.1792  0.2829
  302SOL     vw 1208   6.747   6.500   0.276  0.2437  0.3512  0.3026
  303SOL     ow 1209   4.664   2.996   3.971  0.1438 -0.3140  0.2677
  303SOL     hw 1210   4.666   3.066   3.906  1.0797  0.1911  0.8274
  303SOL     hw 1211   4.712   3.031   4.046  0.8950 -1.6730  0.4430
  303SOL     vw 1212   4.670   3.010   3.972  0.3662 -0.4267  0.3647
  304SOL     ow 1213   5.483   1.626   5.244 -0.8139  0.2371  0.3951
  304SOL     hw 1214   5.491   1.675   5.325  1.6748 -0.2145  0.5034
  304SOL     hw 1215   5.441   1.543   5.270  1.5422 -0.6526  1.6386
  304SOL     vw 1216   5.478   1.621   5.258 -0.1750  0.0602  0.5736
  305SOL     ow 1217   2.495   6.538   5.483 -0.2375 -0.0274 -0.4750
  305SOL     hw 1218   2.522   6.568   5.396 -0.7757 -0.7522 -0.9025
  305SOL     hw 1219   2.400   6.526   5.476 -0.2492 -0.3473  0.1336
  305SOL     vw 1220   2.486   6.540   5.471 -0.3101 -0.1652 -0.4513
  306SOL     ow 1221   3.892   6.121   6.903 -0.0088  0.1600 -0.3585
  306SOL     hw 1222   3.867   6.210   6.876 -0.7158  0.5389  1.4165
  306SOL     hw 1223   3.915   6.077   6.821  1.5052  2.3061 -1.1751
  306SOL     vw 1224   3.891   6.127   6.889  0.0976  0.4933 -0.2322
  307SOL     ow 1225   0.544   7.108   2.168  0.2667  0.4718 -0.1987
  307SOL     hw 1226   0.544   7.203   2.159  0.1669  0.3487 -1.7834
  307SOL     hw 1227   0.632   7.086   2.199  0.1729  1.0922  0.5286
  307SOL     vw 1228   0.555   7.117   2.171  0.2411  0.5372 -0.3119
  308SOL     ow 1229   4.387   6.574   3.086 -0.7079 -0.1473  0.0686
  308SOL     hw 1230   4.375   6.669   3.093  0.3108 -0.0916  1.4458
  308SOL     hw 1231   4.462   6.555   3.143 -0.6845 -1.7424 -0.4411
  308SOL     vw 1232   4.395   6.584   3.094 -0.5705 -0.3505  0.1831
  309SOL     ow 1233   4.186   5.357   5.233 -0.5298 -0.1442 -0.1742
  309SOL     hw 1234   4.091   5.361   5.224 -0.7349  0.7480  1.9455
  309SOL     hw 1235   4.211   5.276   5.188 -2.2063 -0.1281 -1.2195
  309SOL     vw 1236   4.177   5.347   5.226 -0.7777 -0.0243 -0.0322
  310SOL     ow 1237   2.003   2.860   4.788 -0.3983  0.2852 -0.6187
  310SOL     hw 1238   2.060   2.884   4.715 -0.9400  0.6405 -0.9281
  310SOL     hw 1239   2.022   2.768   4.805  0.2183  0.3820 -0.7606
  310SOL     vw 1240   2.013   2.851   4.781 -0.3886  0.3449 -0.6785
  311SOL     ow 1241   3.633   7.283   1.336 -0.0695  0.4362 -0.0574
  311SOL     hw 1242   3.666   7.340   1.404 -1.5690  0.1856  0.9369
  311SOL     hw 1243   3.710   7.239   1.301  0.7051  0.3119  1.7258
  311SOL     vw 1244   3.647   7.284   1.340 -0.1653  0.3867  0.3091
  312SOL     ow 1245   5.811   6.121   5.429 -0.6251 -0.2059  0.5430
  312SOL     hw 1246   5.907   6.127   5.432 -0.5472 -0.5339 -0.8228
  312SOL     hw 1247   5.782   6.172   5.505  0.6182  0.0875  0.8521
  312SOL     vw 1248   5.820   6.128   5.440 -0.4506 -0.2105  0.4034
  313SOL     ow 1249   6.603   1.898   0.579 -0.1950  0.2346 -0.7654
  313SOL     hw 1250   6.597   1.910   0.484  1.2166  3.0948 -0.6046
  313SOL     hw 1251   6.580   1.983   0.616 -0.1052 -0.6276  1.4530
  313SOL     vw 1252   6.599   1.910   0.571  0.0031  0.4982 -0.4515
  314SOL     ow 1253   4.244   0.908   0.290  0.3950  0.3733 -0.0633
  314SOL     hw 1254   4.179   0.905   0.220  1.0897  2.0807 -0.8241
  314SOL     hw 1255   4.323   0.869   0.252  0.9141  1.7294 -0.4225
  314SOL     vw 1256   4.246   0.902   0.276  0.5550  0.7775 -0.2111
  315SOL     ow 1257   1.819   5.752   0.639  0.2478  0.0837  0.1300
  315SOL     hw 1258   1.775   5.667   0.631 -2.3461  1.2294  1.1064
  315SOL     hw 1259   1.761   5.813   0.593  0.7652  1.7159  1.5523
  315SOL     vw 1260   1.805   5.749   0.632 -0.0262  0.4501  0.4465
  316SOL     ow 1261   0.708   5.299   5.568 -0.4887 -0.6355  0.5111
  316SOL     hw 1262   0.675   5.216   5.603  0.9602 -1.3158  0.3321
  316SOL     hw 1263   0.664   5.308   5.483 -1.9811 -0.3083  1.2675
  316SOL     vw 1264   0.698   5.289   5.561 -0.4945 -0.6821  0.5872
  317SOL     ow 1265   5.961   6.199   2.221 -0.0064 -0.1938  0.1820
  317SOL     hw 1266   5.963   6.115   2.267  0.2139 -1.6802 -2.3816
  317SOL     hw 1267   5.868   6.216   2.206 -0.0655  0.1789  0.9270
  317SOL     vw 1268   5.949   6.190   2.225  0.0148 -0.3407 -0.0581
  318SOL     ow 1269   1.740   5.639   0.317  0.0404  0.4196  0.0533
  318SOL     hw 1270   1.699   5.709   0.368  1.3944  0.1911  1.5351
  318SOL     hw 1271   1.787   5.684   0.247 -0.0241  0.9186  0.3288
  318SOL     vw 1272   1.741   5.654   0.314  0.2105  0.4551  0.2851
  319SOL     ow 1273   5.898   1.199   6.009 -0.7563 -0.1824  0.2361
  319SOL     hw 1274   5.833   1.245   6.061 -0.6370 -1.1667  1.2826
  319SOL     hw 1275   5.980   1.246   6.025 -0.4567 -1.1961  1.9864
  319SOL     vw 1276   5.900   1.211   6.018 -0.7010 -0.4460  0.6049
  320SOL     ow 1277   2.415   4.086   3.535  0.5338 -0.0107 -0.3528
  320SOL     hw 1278   2.339   4.047   3.577  0.2491 -1.2734 -1.9837
  320SOL     hw 1279   2.458   4.135   3.606 -1.1504 -0.1816  0.8548
  320SOL     vw 1280   2.411   4.088   3.550  0.2741 -0.2000 -0.4086
  321SOL     ow 1281   1.042   5.427   6.244  0.2896 -0.1843 -0.3402
  321SOL     hw 1282   0.978   5.359   6.265 -1.6194  1.1771 -1.3600
  321SOL     hw 1283   1.111   5.382   6.195 -0.1831 -1.6088  0.2631
  321SOL     vw 1284   1.042   5.412   6.240 -0.0247 -0.1924 -0.3951
  322SOL     ow 1285   5.625   1.983   3.933 -0.1641 -0.0551  0.7013
  322SOL     hw 1286   5.702   2.024   3.894 -0.6668  1.5294  1.2630
  322SOL     hw 1287   5.571   1.956   3.858  0.1993  0.3080  0.3068
  322SOL     vw 1288   5.628   1.985   3.918 -0.1824  0.2018  0.7232
  323SOL     ow 1289   3.414   6.777   0.151  1.1136  0.3024 -0.2006
  323SOL     hw 1290   3.488   6.741   0.200  0.6641  0.3555  0.5190
  323SOL     hw 1291   3.359   6.701   0.132  2.1615 -0.0321 -2.2225
  323SOL     vw 1292   3.416   6.763   0.155  1.1927  0.2651 -0.3724
  324SOL     ow 1293   6.212   0.317   5.650  0.0843 -0.0540 -0.3039
  324SOL     hw 1294   6.128   0.297   5.609  1.2119 -1.5915 -2.0399
  324SOL     hw 1295   6.244   0.394   5.604 -1.0190  1.5313  1.4496
  324SOL     vw 1296   6.205   0.324   5.639  0.0875 -0.0477 -0.3014
  325SOL     ow 1297   6.441   3.419   1.025 -0.0905  0.3351  0.1422
  325SOL     hw 1298   6.445   3.338   1.077  0.3492  1.9583  2.8312
  325SOL     hw 1299   6.348   3.430   1.005 -0.2469 -0.4677  0.3931
  325SOL     vw 1300   6.429   3.410   1.029 -0.0534  0.4433  0.5301
  326SOL     ow 1301   7.061   3.492   6.939 -0.2506  0.3111  0.2988
  326SOL     hw 1302   7.014   3.442   6.872  1.4529 -1.1538  0.1267
  326SOL     hw 1303   6.992   3.531   6.992 -1.6503  1.2767 -2.1017
  326SOL     vw 1304   7.046   3.490   6.937 -0.2105  0.2455 -0.0405
  327SOL     ow 1305   5.330   0.107   6.653 -0.7929 -0.4438 -0.7423
  327SOL     hw 1306   5.338   0.125   6.559  0.6159 -2.2359 -1.0362
  327SOL     hw 1307   5.276   0.178   6.687 -0.8579  0.5685 -2.8032
  327SOL     vw 1308   5.324   0.119   6.645 -0.6156 -0.5467 -1.0533
  328SOL     ow 1309   2.127   4.371   0.252  0.3158  0.4448 -0.1525
  328SOL     hw 1310   2.214   4.356   0.290 -0.3011 -0.2552  1.0326
  328SOL     hw 1311   2.066   4.334   0.316 -0.8535  0.7438 -1.0616
  328SOL     vw 1312   2.130   4.364   0.266  0.0802  0.3920 -0.1161
  329SOL     ow 1313   4.881   3.543   3.500 -0.3695  0.4309  0.0461
  329SOL     hw 1314   4.960   3.545   3.553 -0.3656 -0.5318  0.0924
  329SOL     hw 1315   4.819   3.492   3.551 -0.4680 -0.2405 -0.7187
  329SOL     vw 1316   4.883   3.536   3.514 -0.3822  0.2153 -0.0489
  330SOL     ow 1317   2.079   2.717   0.226 -0.2566  0.5215  0.1679
  330SOL     hw 1318   2.169   2.686   0.234 -0.3715 -0.0408 -0.5690
  330SOL     hw 1319   2.060   2.760   0.309  0.8919  1.1796  0.1116
  330SOL     vw 1320   2.088   2.719   0.238 -0.1203  0.5341  0.0632
  331SOL     ow 1321   5.475   3.966   1.326 -1.0567 -0.2349  0.1376
  331SOL     hw 1322   5.553   3.933   1.282 -0.8248 -0.2258  0.5346
  331SOL     hw 1323   5.437   3.889   1.369 -2.1603 -0.5625 -1.3534
  331SOL     vw 1324   5.481   3.952   1.326 -1.1718 -0.2769 -0.0067
  332SOL     ow 1325   3.315   0.738   0.997 -0.0385  0.1937 -0.2197
  332SOL     hw 1326   3.276   0.652   0.980  3.4971 -1.3788 -1.4659
  332SOL     hw 1327   3.305   0.751   1.091 -2.1897 -0.6944 -0.2725
  332SOL     vw 1328   3.309   0.728   1.007  0.1441 -0.1310 -0.3911
  333SOL     ow 1329   3.232   2.564   2.065  0.6560  0.0957  0.1873
  333SOL     hw 1330   3.243   2.613   2.146  4.3274  0.6716 -0.5057
  333SOL     hw 1331   3.183   2.486   2.091 -0.9709  1.6892  2.2741
  333SOL     vw 1332   3.227   2.560   2.079  0.9257  0.3819  0.3712
  334SOL     ow 1333   5.719   4.157   0.502  0.1831 -0.0844 -0.2857
  334SOL     hw 1334   5.784   4.109   0.451  0.4940  0.8753 -0.8146
  334SOL     hw 1335   5.675   4.213   0.438 -1.5064 -1.0636 -0.0341
  334SOL     vw 1336   5.722   4.158   0.487  0.0012 -0.0870 -0.3223
  335SOL     ow 1337   3.735   6.899   2.993  0.4422 -0.1858 -0.1511
  335SOL     hw 1338   3.752   6.881   2.900  0.2792  0.4678 -0.3115
  335SOL     hw 1339   3.750   6.993   3.002  0.7415 -0.2962  0.5520
  335SOL     vw 1340   3.739   6.909   2.982  0.4601 -0.1142 -0.0795
  336SOL     ow 1341   6.041   3.544   0.036 -0.5447  0.3049 -0.5830
  336SOL     hw 1342   5.946   3.546   0.047 -0.7958 -3.4244 -0.8065
  336SOL     hw 1343   6.075   3.580   0.118 -2.0845  1.4801 -0.3990
  336SOL     vw 1344   6.033   3.549   0.049 -0.7811 -0.0322 -0.5882
  337SOL     ow 1345   2.339   2.325   0.027 -0.6046  0.5173  0.2489
  337SOL     hw 1346   2.420   2.313   0.076 -0.9501 -2.0403  0.3360
  337SOL     hw 1347   2.275   2.349   0.094 -0.2725  0.8872  0.4373
  337SOL     vw 1348   2.341   2.327   0.043 -0.6064  0.2288  0.2852
  338SOL     ow 1349   0.057   5.698   3.851  0.2012 -0.1485  0.2963
  338SOL     hw 1350  -0.031   5.687   3.886  0.3575 -0.4511  0.5976
  338SOL     hw 1351   0.049   5.771   3.789 -0.4860 -0.8696 -0.4874
  338SOL     vw 1352   0.044   5.706   3.847  0.1311 -0.2837  0.2329
  339SOL     ow 1353   1.714   0.220   2.635 -0.1150 -0.6104  0.6088
  339SOL     hw 1354   1.771   0.208   2.711  0.6320 -0.2026  0.1270
  339SOL     hw 1355   1.676   0.133   2.619  1.0400 -1.1098  0.4279
  339SOL     vw 1356   1.716   0.207   2.643  0.1359 -0.6225  0.5214
  340SOL     ow 1357   2.088   5.793   1.391 -0.0913 -0.0359 -0.5877
  340SOL     hw 1358   2.068   5.725   1.456  0.2950  1.6332  1.3787
  340SOL     hw 1359   2.106   5.871   1.443  2.2912  0.9028 -2.6115
  340SOL     vw 1360   2.088   5.794   1.406  0.2738  0.3083 -0.5953
  341SOL     ow 1361   1.339   6.691   6.857 -1.0693  0.0751 -0.3129
  341SOL     hw 1362   1.246   6.705   6.872 -1.1800 -0.9614  0.0221
  341SOL     hw 1363   1.370   6.648   6.937 -0.0544  1.4457  0.0774
  341SOL     vw 1364   1.331   6.687   6.870 -0.9501  0.1194 -0.2172
  342SOL     ow 1365   1.360   3.111   4.938  0.7095 -0.4870  0.0746
  342SOL     hw 1366   1.422   3.180   4.964  0.1767 -0.4507  1.3477
  342SOL     hw 1367   1.376   3.098   4.845  2.1484  0.0095  0.2271
  342SOL     vw 1368   1.370   3.119   4.929  0.8291 -0.4168  0.2630
  343SOL     ow 1369   2.636   5.452   1.967  0.2889  0.8424  0.3871
  343SOL     hw 1370   2.603   5.363   1.978  1.8970  0.0363 -0.8902
  343SOL     hw 1371   2.731   5.445   1.982  0.6944  2.0044 -1.3003
  343SOL     vw 1372   2.644   5.440   1.971  0.5547  0.8893 -0.0041
  344SOL     ow 1373   4.981   6.899   4.423  0.6527  0.0104  0.3194
  344SOL     hw 1374   4.887   6.889   4.410  0.5385 -0.2125  1.2240
  344SOL     hw 1375   5.000   6.850   4.503  0.6510  4.0482  3.1229
  344SOL     vw 1376   4.971   6.891   4.432  0.6373  0.5138  0.8090
  345SOL     ow 1377   5.125   4.322   2.128  0.0120  0.0850 -0.3434
  345SOL     hw 1378   5.072   4.257   2.082 -1.2468  0.8943 -0.0742
  345SOL     hw 1379   5.155   4.382   2.059  0.7183 -0.4344 -0.5110
  345SOL     vw 1380   5.122   4.321   2.113 -0.0606  0.1233 -0.3299
  346SOL     ow 1381   0.144   0.627   6.076  0.5143 -0.5604  0.6704
  346SOL     hw 1382   0.087   0.550   6.080  1.1770 -1.0990  0.0858
  346SOL     hw 1383   0.233   0.591   6.081  0.8237  0.2733  1.7610
  346SOL     vw 1384   0.148   0.612   6.077  0.6426 -0.5215  0.7372
  347SOL     ow 1385   4.793   2.216   0.929  0.1428  0.0206  0.6154
  347SOL     hw 1386   4.884   2.243   0.917  0.1621  0.3072  1.3649
  347SOL     hw 1387   4.751   2.289   0.974 -0.5414  0.0194  0.0005
  347SOL     vw 1388   4.799   2.229   0.934  0.0551  0.0585  0.6331
  348SOL     ow 1389   0.173   6.117   5.816  0.3116  0.0939  0.8537
  348SOL     hw 1390   0.128   6.117   5.900  0.1981 -0.9606  0.8105
  348SOL     hw 1391   0.130   6.047   5.766  1.4998 -0.4548  0.5533
  348SOL     vw 1392   0.161   6.107   5.820  0.4535 -0.1175  0.8082
  349SOL     ow 1393   2.666   1.616   2.907  0.1276 -0.4342  0.8286
  349SOL     hw 1394   2.589   1.562   2.923  0.1690 -1.0014 -0.7177
  349SOL     hw 1395   2.729   1.556   2.865  0.4249  0.6231 -0.3014
  349SOL     vw 1396   2.664   1.601   2.904  0.1721 -0.3695  0.4755
  350SOL     ow 1397   5.822   6.235   1.267 -0.6121 -0.6433 -0.1271
  350SOL     hw 1398   5.893   6.280   1.312 -1.6484 -0.1203  1.0668
  350SOL     hw 1399   5.824   6.269   1.178  0.7988 -0.8595 -0.2010
  350SOL     vw 1400   5.832   6.245   1.261 -0.5629 -0.6030  0.0207
  351SOL     ow 1401   0.895   4.099   2.662  0.1540  0.1507  0.1111
  351SOL     hw 1402   0.937   4.021   2.697 -0.8765  0.0386  1.1695
  351SOL     hw 1403   0.930   4.108   2.573  2.8538  0.4330  1.1316
  351SOL     vw 1404   0.905   4.090   2.655  0.3743  0.1731  0.3854
  352SOL     ow 1405   5.517   6.125   3.398 -0.0286  0.1526  0.1255
  352SOL     hw 1406   5.434   6.108   3.442 -0.4717 -0.3961 -0.8773
  352SOL     hw 1407   5.584   6.091   3.457 -0.4709  1.0915  1.1943
  352SOL     vw 1408   5.515   6.118   3.412 -0.1454  0.2043  0.1342
  353SOL     ow 1409   0.090   1.059   7.060 -0.3429  0.0692 -0.0238
  353SOL     hw 1410   0.011   1.031   7.014 -2.0236  0.1672  2.5416
  353SOL     hw 1411   0.084   1.154   7.062 -0.3801  0.0642  0.4491
  353SOL     vw 1412   0.078   1.068   7.054 -0.5695  0.0815  0.3769
  354SOL     ow 1413   2.391   3.121   1.981  0.3172 -0.4425 -0.3700
  354SOL     hw 1414   2.479   3.145   2.009  0.8853 -2.0117 -0.6759
  354SOL     hw 1415   2.338   3.198   1.999  1.3318 -0.1766  1.7279
  354SOL     vw 1416   2.396   3.134   1.987  0.5260 -0.6146 -0.1335
  355SOL     ow 1417   4.838   0.080   5.812  0.1482 -0.1550 -0.2149
  355SOL     hw 1418   4.889   0.161   5.816  1.4270 -0.9772  0.9452
  355SOL     hw 1419   4.810   0.065   5.903  1.3124 -1.8398 -0.0984
  355SOL     vw 1420   4.841   0.089   5.825  0.4706 -0.4858 -0.0463
  356SOL     ow 1421   1.130   4.559   2.405 -0.5929 -0.1455  0.3378
  356SOL     hw 1422   1.105   4.482   2.355  0.9202  0.1852 -1.0141
  356SOL     hw 1423   1.053   4.615   2.404 -1.2804 -1.0734  0.2427
  356SOL     vw 1424   1.116   4.556   2.398 -0.4840 -0.2244  0.1470
  357SOL     ow 1425   6.882   1.825   6.031 -0.3425 -0.3273 -0.5671
  357SOL     hw 1426   6.792   1.805   6.059 -0.9480  2.6545 -0.0543
  357SOL     hw 1427   6.877   1.824   5.935  0.1322 -4.0120 -0.6841
  357SOL     vw 1428   6.869   1.822   6.022 -0.3598 -0.4200 -0.5150
  358SOL     ow 1429   3.896   5.632   5.434 -1.0218 -0.5723  0.4220
  358SOL     hw 1430   3.922   5.682   5.356  0.3470 -2.6311 -0.5410
  358SOL     hw 1431   3.862   5.698   5.494 -1.2811  1.2246 -1.5544
  358SOL     vw 1432   3.895   5.647   5.432 -0.8755 -0.6065  0.0343
  359SOL     ow 1433   5.424   2.079   4.165 -0.1066  0.1380  0.3188
  359SOL     hw 1434   5.449   2.133   4.240  1.5569  0.3211 -0.3243
  359SOL     hw 1435   5.371   2.138   4.111 -0.7862  0.1937  1.0231
  359SOL     vw 1436   5.420   2.094   4.168  0.0234  0.1695  0.3269
  360SOL     ow 1437   5.824   1.404   0.497  0.1226  0.1677 -0.0884
  360SOL     hw 1438   5.861   1.487   0.466  1.4345 -0.1951  0.4510
  360SOL     hw 1439   5.782   1.367   0.419  2.2022 -0.0902 -1.1842
  360SOL     vw 1440   5.824   1.410   0.483  0.5701  0.0858 -0.1618
  361SOL     ow 1441   5.564   4.075   0.140 -0.6318 -0.3772  0.3536
  361SOL     hw 1442   5.511   4.014   0.088 -1.8979  0.9741 -0.0159
  361SOL     hw 1443   5.580   4.029   0.222 -1.8122 -1.0900  0.2064
  361SOL     vw 1444   5.559   4.061   0.144 -0.9546 -0.2930  0.2854
  362SOL     ow 1445   7.291   3.415   0.979  0.1175 -0.5917  0.1646
  362SOL     hw 1446   7.233   3.408   0.903 -0.3306 -2.4825  0.6207
  362SOL     hw 1447   7.239   3.458   1.046 -0.6838 -1.9598  0.4561
  362SOL     vw 1448   7.277   3.419   0.978 -0.0472 -1.0216  0.2632
  363SOL     ow 1449   0.036   5.895   3.690  0.0964 -0.2315  0.0543
  363SOL     hw 1450   0.115   5.933   3.650  0.8879 -2.5335 -0.7084
  363SOL     hw 1451  -0.037   5.936   3.643  0.8024  1.3857  0.2690
  363SOL     vw 1452   0.037   5.906   3.678  0.2940 -0.3219 -0.0180
  364SOL     ow 1453   0.706   2.951   4.013 -0.8268  0.5530  0.6825
  364SOL     hw 1454   0.659   2.871   3.988  1.9898 -0.4941 -1.7996
  364SOL     hw 1455   0.646   3.021   3.990 -1.6861 -0.7403 -1.3315
  364SOL     vw 1456   0.692   2.949   4.006 -0.5685  0.2444  0.0894
  365SOL     ow 1457   5.216   3.092   1.169 -0.5718 -0.0878 -0.0821
  365SOL     hw 1458   5.126   3.124   1.158 -0.0110  1.1221 -1.6252
  365SOL     hw 1459   5.248   3.079   1.079 -0.3938 -4.2101  0.4098
  365SOL     vw 1460   5.208   3.095   1.156 -0.4745 -0.4719 -0.2208
  366SOL     ow 1461   2.385   3.849   1.405 -0.6946 -0.0180 -0.4210
  366SOL     hw 1462   2.412   3.758   1.389  0.6947  0.4439 -0.8898
  366SOL     hw 1463   2.385   3.889   1.318 -0.9489  0.5267 -0.1707
  366SOL     vw 1464   2.389   3.842   1.392 -0.5448  0.1148 -0.4499
  367SOL     ow 1465   5.675   3.052   3.436 -0.1065 -0.2869  0.1718
  367SOL     hw 1466   5.597   2.996   3.430 -0.1541 -0.1476 -0.7572
  367SOL     hw 1467   5.694   3.075   3.345  0.5845  0.2876  0.4551
  367SOL     vw 1468   5.667   3.047   3.423 -0.0217 -0.1926  0.0865
  368SOL     ow 1469   4.615   3.332   3.096  0.6214  0.1393 -0.1924
  368SOL     hw 1470   4.636   3.361   3.008  0.2119  1.1309  0.0248
  368SOL     hw 1471   4.665   3.391   3.153  0.4326 -0.1219  0.2486
  368SOL     vw 1472   4.625   3.344   3.092  0.5426  0.2357 -0.1055
  369SOL     ow 1473   3.967   1.472   1.386  0.2495  0.1083 -0.5509
  369SOL     hw 1474   3.940   1.529   1.458 -0.5719 -0.6881 -0.2047
  369SOL     hw 1475   4.018   1.403   1.428 -1.5287 -1.2319 -0.4560
  369SOL     vw 1476   3.970   1.471   1.401 -0.0936 -0.1736 -0.4927
  370SOL     ow 1477   0.556   0.849   2.385 -0.0479 -0.0625  0.2450
  370SOL     hw 1478   0.537   0.935   2.349 -0.4259  0.2714  1.2091
  370SOL     hw 1479   0.604   0.867   2.466 -0.5414 -0.7465  0.7011
  370SOL     vw 1480   0.560   0.863   2.391 -0.1628 -0.1087  0.4324
  371SOL     ow 1481   5.484   1.795   4.162  0.0096  0.7133  0.1109
  371SOL     hw 1482   5.403   1.816   4.209 -0.9723 -0.7012 -0.8727
  371SOL     hw 1483   5.504   1.706   4.188 -1.3168 -0.6641 -3.0304
  371SOL     vw 1484   5.476   1.786   4.172 -0.2949  0.3449 -0.4334
  372SOL     ow 1485   2.779   2.938   1.926 -0.1228 -0.3276  0.0920
  372SOL     hw 1486   2.817   2.980   1.849  0.0212  1.2861  1.0083
  372SOL     hw 1487   2.738   3.009   1.975  1.2770 -0.9795  2.3794
  372SOL     vw 1488   2.779   2.953   1.922  0.0808 -0.2007  0.5147
  373SOL     ow 1489   2.623   0.823   5.710 -0.2326  0.3171 -0.0553
  373SOL     hw 1490   2.684   0.751   5.695  0.3140 -0.0355  3.2588
  373SOL     hw 1491   2.538   0.781   5.724 -0.4389  0.5263 -0.6435
  373SOL     vw 1492   2.620   0.808   5.710 -0.1878  0.2981  0.3042
  374SOL     ow 1493   2.538   0.373   0.846  0.0996  1.0976  0.3152
  374SOL     hw 1494   2.604   0.321   0.892 -0.5943  0.2325  0.3599
  374SOL     hw 1495   2.470   0.310   0.823  0.4366  1.4756 -1.9352
  374SOL     vw 1496   2.538   0.358   0.849  0.0525  1.0333  0.0242
  375SOL     ow 1497   6.038   1.708   4.682  0.2254  0.4389  0.6439
  375SOL     hw 1498   6.109   1.645   4.691 -0.3599 -0.1758  0.9999
  375SOL     hw 1499   6.072   1.774   4.621  0.6701 -0.4667 -0.1088
  375SOL     vw 1500   6.052   1.709   4.675  0.2069  0.2383  0.5918
  376SOL     ow 1501   4.448   3.370   2.523 -0.4754 -0.4825 -0.3042
  376SOL     hw 1502   4.474   3.281   2.546 -0.4518 -0.5056 -0.4165
  376SOL     hw 1503   4.451   3.371   2.427 -2.5658 -1.0227 -0.4305
  376SOL     vw 1504   4.452   3.358   2.513 -0.7479 -0.5567 -0.3357
  377SOL     ow 1505   4.300   7.052   0.204 -0.5655 -0.4058 -0.0337
  377SOL     hw 1506   4.322   7.136   0.163 -0.1557 -1.5012 -2.2257
  377SOL     hw 1507   4.364   6.991   0.167  0.5521 -1.3465  3.1783
  377SOL     vw 1508   4.311   7.055   0.194 -0.3641 -0.6745  0.1008
  378SOL     ow 1509   2.167   5.265   1.745 -0.4035 -0.0549  0.1048
  378SOL     hw 1510   2.133   5.219   1.822  1.5558  0.3706  1.2906
  378SOL     hw 1511   2.240   5.211   1.714  2.6593  2.4942  2.1586
  378SOL     vw 1512   2.172   5.252   1.751  0.2590  0.3376  0.5322
  379SOL     ow 1513   5.945   2.271   1.208  0.2673  0.2357 -0.4122
  379SOL     hw 1514   5.866   2.236   1.249  0.8899 -1.2373 -0.4150
  379SOL     hw 1515   5.980   2.197   1.158  0.1786  1.6098 -2.6559
  379SOL     vw 1516   5.939   2.257   1.206  0.3378  0.2227 -0.7086
  380SOL     ow 1517   2.073   5.976   3.782  1.0056  0.2919  0.0946
  380SOL     hw 1518   1.989   5.947   3.746  2.0487 -0.9363 -1.5206
  380SOL     hw 1519   2.086   6.063   3.743  0.7725  0.2118 -0.1729
  380SOL     vw 1520   2.063   5.984   3.772  1.1125  0.1194 -0.1538
  381SOL     ow 1521   4.835   7.265   2.097  0.2320 -0.7023  0.1140
  381SOL     hw 1522   4.899   7.322   2.139  0.0639  0.2696 -0.9079
  381SOL     hw 1523   4.884   7.217   2.031 -0.3542  1.3907 -1.9590
  381SOL     vw 1524   4.850   7.266   2.094  0.1326 -0.2978 -0.2943
  382SOL     ow 1525   2.142   0.664   3.857 -0.2219 -0.0836 -0.0776
  382SOL     hw 1526   2.064   0.637   3.809 -0.5943  0.0711  0.4354
  382SOL     hw 1527   2.130   0.627   3.945 -0.8406  1.8665  0.7149
  382SOL     vw 1528   2.130   0.656   3.862 -0.3527  0.1941  0.0945
  383SOL     ow 1529   4.337   5.620   1.929  0.3991 -0.3727  0.4182
  383SOL     hw 1530   4.267   5.585   1.984  1.4969  1.2815  3.0520
  383SOL     hw 1531   4.407   5.555   1.935  0.0106 -0.8584 -0.2040
  383SOL     vw 1532   4.337   5.606   1.937  0.4928 -0.2184  0.6836
  384SOL     ow 1533   3.599   3.039   0.304 -0.2967  0.3267  0.3549
  384SOL     hw 1534   3.504   3.026   0.297 -0.3610  0.2608  1.3061
  384SOL     hw 1535   3.628   2.974   0.368  0.2860  0.8073  0.5869
  384SOL     vw 1536   3.590   3.029   0.311 -0.2283  0.3815  0.5110
  385SOL     ow 1537   5.458   6.053   1.303  0.1318 -0.5261  0.8690
  385SOL     hw 1538   5.430   6.144   1.305 -0.5566 -0.7244  0.5501
  385SOL     hw 1539   5.553   6.056   1.315 -0.1140  0.1087  2.9004
  385SOL     vw 1540   5.467   6.065   1.305  0.0083 -0.4683  1.0949
  386SOL     ow 1541   3.587   3.666   3.354  0.1009 -0.0429  0.8856
  386SOL     hw 1542   3.498   3.673   3.389  0.5456  2.0627  1.7181
  386SOL     hw 1543   3.579   3.698   3.264  0.0870  0.5722  1.1028
  386SOL     vw 1544   3.574   3.671   3.346  0.1578  0.3160  1.0241
  387SOL     ow 1545   3.304   0.726   3.397  0.8522 -0.3542  0.1426
  387SOL     hw 1546   3.317   0.642   3.353  0.0921 -0.2043 -0.3926
  387SOL     hw 1547   3.370   0.728   3.466  0.2196 -1.8475  0.8290
  387SOL     vw 1548   3.315   0.715   3.400  0.6685 -0.5315  0.1626
  388SOL     ow 1549   5.012   5.368   5.337  0.2521 -0.3142  0.7277
  388SOL     hw 1550   5.107   5.373   5.343  0.5229 -1.2171 -1.4728
  388SOL     hw 1551   4.984   5.329   5.420  1.9237 -1.1066  0.9539
  388SOL     vw 1552   5.021   5.363   5.349  0.5083 -0.5379  0.4668
  389SOL     ow 1553   7.150   7.158   5.385 -0.2526  0.1015 -0.3321
  389SOL     hw 1554   7.194   7.183   5.466  0.6182  4.9795 -1.9492
  389SOL     hw 1555   7.061   7.135   5.412  0.1710  0.9947  2.0837
  389SOL     vw 1556   7.144   7.158   5.399 -0.0818  0.8631 -0.2270
  390SOL     ow 1557   1.921   0.330   2.143  0.4635  0.4005  0.0259
  390SOL     hw 1558   1.888   0.361   2.228  0.5971  0.3761  0.0864
  390SOL     hw 1559   1.911   0.406   2.085 -2.8192 -0.5222 -0.8317
  390SOL     vw 1560   1.915   0.344   2.147  0.0480  0.2755 -0.0793
  391SOL     ow 1561   6.084   2.138   6.782 -0.3801 -0.4368  0.2005
  391SOL     hw 1562   6.028   2.074   6.826 -0.3499 -0.6001  0.0046
  391SOL     hw 1563   6.024   2.186   6.724 -0.2383 -0.9246 -0.3554
  391SOL     vw 1564   6.068   2.136   6.780 -0.3572 -0.5229  0.1016
  392SOL     ow 1565   1.740   4.362   4.167 -0.5089 -0.0639 -0.0216
  392SOL     hw 1566   1.659   4.352   4.217 -0.3159  0.5932  0.4519
  392SOL     hw 1567   1.712   4.396   4.082 -0.6346  1.7637  0.6984
  392SOL     vw 1568   1.726   4.365   4.163 -0.5001  0.2637  0.1361
  393SOL     ow 1569   5.782   1.185   2.711  0.0758  0.1074 -0.6550
  393SOL     hw 1570   5.744   1.106   2.749  0.2551  0.6820  0.7647
  393SOL     hw 1571   5.713   1.251   2.719  0.2097  0.3083 -1.1091
  393SOL     vw 1572   5.768   1.183   2.717  0.1173  0.2096 -0.5275
  394SOL     ow 1573   0.532   5.980   4.815  0.4747  0.1906  1.0665
  394SOL     hw 1574   0.445   6.003   4.848  0.8166  1.0019  1.4454
  394SOL     hw 1575   0.588   5.981   4.893  0.9520  0.3556  0.7293
  394SOL     vw 1576   0.528   5.983   4.830  0.5827  0.3192  1.0717
  395SOL     ow 1577   2.927   3.532   4.832  0.0418  0.6150 -0.1622
  395SOL     hw 1578   2.986   3.589   4.785 -0.4251 -0.6148 -2.3661
  395SOL     hw 1579   2.983   3.464   4.869  0.4422  1.7350  1.3748
  395SOL     vw 1580   2.942   3.530   4.831  0.0330  0.6006 -0.2501
  396SOL     ow 1581   0.232   2.113   0.191  0.2353  0.6143  0.6146
  396SOL     hw 1582   0.257   2.206   0.200 -0.3983  0.8651 -0.1238
  396SOL     hw 1583   0.175   2.111   0.115 -0.0723 -0.3366  0.8588
  396SOL     vw 1584   0.228   2.125   0.182  0.1111  0.5219  0.5494
  397SOL     ow 1585   7.277   4.407   6.771 -0.1588 -0.1643  0.6633
  397SOL     hw 1586   7.310   4.319   6.786 -0.6746 -0.4275  0.2767
  397SOL     hw 1587   7.328   4.440   6.697 -0.3329 -0.3420  0.4625
  397SOL     vw 1588   7.288   4.400   6.763 -0.2498 -0.2227  0.5860
  398SOL     ow 1589   5.357   2.304   5.622 -0.3202 -0.0720  0.0501
  398SOL     hw 1590   5.284   2.328   5.565 -1.0435 -0.8647  0.6102
  398SOL     hw 1591   5.379   2.215   5.596  0.1663  0.0131  0.1724
  398SOL     vw 1592   5.350   2.296   5.611 -0.3514 -0.1655  0.1404
  399SOL     ow 1593   3.494   1.828   5.741  0.0078 -0.1231 -0.5201
  399SOL     hw 1594   3.590   1.826   5.743  0.0272 -1.2948 -1.6757
  399SOL     hw 1595   3.470   1.773   5.667 -1.5464  1.0928 -0.9670
  399SOL     vw 1596   3.504   1.820   5.732 -0.1949 -0.1173 -0.7317
  400SOL     ow 1597   3.431   4.553   5.575  0.3205 -0.3375 -0.0539
  400SOL     hw 1598   3.526   4.559   5.573  0.2357  1.4549 -1.7456
  400SOL     hw 1599   3.402   4.596   5.494 -1.9507  0.0909  0.8890
  400SOL     vw 1600   3.440   4.560   5.564  0.0097 -0.0446 -0.1526
  401SOL     ow 1601   5.502   1.231   3.658 -0.0913 -0.8109  0.2081
  401SOL     hw 1602   5.419   1.213   3.613 -0.4129 -0.2171  0.5617
  401SOL     hw 1603   5.525   1.148   3.700 -0.1312 -1.1855 -0.4882
  401SOL     vw 1604   5.494   1.217   3.657 -0.1390 -0.7820  0.1628
  402SOL     ow 1605   2.500   5.757   4.034 -0.3853 -0.5781 -0.3339
  402SOL     hw 1606   2.507   5.781   4.126  0.5327 -0.0717 -0.5217
  402SOL     hw 1607   2.558   5.681   4.024 -0.4454 -0.6028 -0.5062
  402SOL     vw 1608   2.509   5.750   4.045 -0.2722 -0.5145 -0.3817
  403SOL     ow 1609   2.663   1.836   2.637  0.2556  0.0709 -0.3830
  403SOL     hw 1610   2.605   1.910   2.615  0.1654  0.4948  1.1912
  403SOL     hw 1611   2.642   1.770   2.570 -0.8753  0.8232 -0.8235
  403SOL     vw 1612   2.652   1.837   2.625  0.0944  0.2261 -0.2334
  404SOL     ow 1613   6.712   3.471   6.227 -0.3619 -0.1032 -0.1000
  404SOL     hw 1614   6.760   3.389   6.216 -1.1227 -0.3239 -2.0747
  404SOL     hw 1615   6.750   3.531   6.163 -0.0541  1.0223  1.0721
  404SOL     vw 1616   6.723   3.468   6.217 -0.4215  0.0162 -0.2062
  405SOL     ow 1617   4.617   2.221   0.711 -0.3052 -0.7155 -0.2548
  405SOL     hw 1618   4.664   2.237   0.793  1.5125 -2.2920 -0.9151
  405SOL     hw 1619   4.616   2.126   0.702 -0.6568 -0.5857 -1.9574
  405SOL     vw 1620   4.623   2.211   0.720 -0.1116 -0.9063 -0.5665
  406SOL     ow 1621   4.796   5.670   2.403  0.2894 -0.1360 -0.5669
  406SOL     hw 1622   4.859   5.599   2.416  2.1334  1.0459 -2.4068
  406SOL     hw 1623   4.713   5.626   2.384  0.0221 -1.7696  3.4130
  406SOL     vw 1624   4.793   5.655   2.402  0.4976 -0.1957 -0.2846
  407SOL     ow 1625   6.641   4.668   6.975 -0.9558 -0.0517  0.0561
  407SOL     hw 1626   6.595   4.592   6.939 -1.1914 -0.9717  2.1286
  407SOL     hw 1627   6.732   4.655   6.949 -1.2646 -0.0673 -1.1027
  407SOL     vw 1628   6.647   4.656   6.967 -1.0276 -0.1752  0.1767
  408SOL     ow 1629   0.734   2.368   6.885 -0.0527 -0.2294  0.2871
  408SOL     hw 1630   0.646   2.403   6.866  1.1810  2.5959 -0.7943
  408SOL     hw 1631   0.728   2.335   6.974 -1.7325  1.8041  1.0162
  408SOL     vw 1632   0.721   2.368   6.894 -0.1116  0.4116  0.2406
  409SOL     ow 1633   3.318   5.054   7.006  0.1677  0.0333 -0.3520
  409SOL     hw 1634   3.407   5.063   7.040 -0.5736 -0.9759  2.1043
  409SOL     hw 1635   3.329   5.030   6.914  2.3962  0.2221 -0.1835
  409SOL     vw 1636   3.331   5.052   6.999  0.3637 -0.0749 -0.0057
  410SOL     ow 1637   3.614   6.359   6.474  0.1281  0.4267 -0.6188
  410SOL     hw 1638   3.708   6.349   6.486  0.0090 -0.9612 -0.6944
  410SOL     hw 1639   3.604   6.397   6.387  0.6458  1.7746 -0.1146
  410SOL     vw 1640   3.625   6.362   6.464  0.1808  0.4215 -0.5622
  411SOL     ow 1641   0.395   0.486   0.280  0.2838  0.0258  0.3121
  411SOL     hw 1642   0.376   0.570   0.320  0.0505 -0.8974  2.2387
  411SOL     hw 1643   0.310   0.443   0.271  0.3038  0.2739 -1.4065
  411SOL     vw 1644   0.381   0.491   0.284  0.2557 -0.0632  0.3396
  412SOL     ow 1645   6.402   0.807   0.153  0.2511  0.6396 -1.3239
  412SOL     hw 1646   6.358   0.767   0.228 -1.2158  3.3397 -0.5839
  412SOL     hw 1647   6.431   0.734   0.100 -1.2988 -1.3579  0.3990
  412SOL     vw 1648   6.400   0.792   0.156 -0.1471  0.7323 -0.9990
  413SOL     ow 1649   6.447   5.697   6.555 -0.5793 -0.1475 -0.1188
  413SOL     hw 1650   6.496   5.629   6.509  0.2905  0.8933 -0.7897
  413SOL     hw 1651   6.493   5.706   6.639 -1.4456 -1.2170  0.4971
  413SOL     vw 1652   6.459   5.689   6.560 -0.5784 -0.1512 -0.1264
  414SOL     ow 1653   4.061   4.226   0.500  0.4821  0.3431  0.2858
  414SOL     hw 1654   4.059   4.181   0.584  1.5055 -0.8792 -0.3156
  414SOL     hw 1655   3.976   4.268   0.494 -1.1175 -2.6152  0.3153
  414SOL     vw 1656   4.050   4.226   0.510  0.4060 -0.2086  0.2104
  415SOL     ow 1657   6.177   2.613   5.335 -0.4814 -0.3645 -0.2545
  415SOL     hw 1658   6.101   2.630   5.391 -0.8190  1.3930 -1.1771
  415SOL     hw 1659   6.252   2.626   5.393 -0.8164  1.6872 -0.1984
  415SOL     vw 1660   6.176   2.617   5.350 -0.5703  0.1380 -0.3688
  416SOL     ow 1661   5.671   3.957   5.704  0.0147 -0.4678 -0.4161
  416SOL     hw 1662   5.742   3.971   5.641  0.2089 -1.3936 -0.4209
  416SOL     hw 1663   5.591   3.973   5.654  0.2082  0.4412 -0.4485
  416SOL     vw 1664   5.670   3.961   5.689  0.0660 -0.4698 -0.4208
  417SOL     ow 1665   5.204   4.583   5.135  0.5437 -0.1034 -0.0140
  417SOL     hw 1666   5.206   4.551   5.226  0.7690 -1.8187 -0.5947
  417SOL     hw 1667   5.249   4.668   5.139 -0.5663  0.4622  1.6806
  417SOL     vw 1668   5.210   4.590   5.148  0.4268 -0.2551  0.1328
  418SOL     ow 1669   0.717   5.794   3.092  0.6903  0.3559 -0.5399
  418SOL     hw 1670   0.749   5.740   3.164  2.8497  1.2991 -0.7381
  418SOL     hw 1671   0.774   5.772   3.018 -0.5795  0.4489 -1.5896
  418SOL     vw 1672   0.729   5.784   3.092  0.8077  0.4926 -0.7044
  419SOL     ow 1673   5.212   0.311   0.113  1.1962  0.0150  0.1458
  419SOL     hw 1674   5.258   0.324   0.196  1.5880 -1.6447  0.2296
  419SOL     hw 1675   5.224   0.218   0.094 -3.5761 -1.0119  1.0081
  419SOL     vw 1676   5.220   0.300   0.121  0.6182 -0.3395  0.2706
  420SOL     ow 1677   5.940   5.810   4.505 -0.0247  0.6290  0.6503
  420SOL     hw 1678   5.896   5.894   4.519  0.2610  0.6815  1.2609
  420SOL     hw 1679   5.926   5.762   4.586 -0.2224  0.0684  0.2860
  420SOL     vw 1680   5.933   5.815   4.517 -0.0134  0.5617  0.6828
  421SOL     ow 1681   2.653   0.040   7.204 -0.1399 -0.2482  0.1880
  421SOL     hw 1682   2.691  -0.017   7.137 -0.5725  0.1918 -0.4428
  421SOL     hw 1683   2.561   0.016   7.207 -0.0251 -0.6222  1.0042
  421SOL     vw 1684   2.646   0.030   7.195 -0.1818 -0.2395  0.2127
  422SOL     ow 1685   4.933   6.078   6.538  0.1137  0.0943 -0.1919
  422SOL     hw 1686   4.961   6.111   6.452 -1.0805  0.4979 -0.4372
  422SOL     hw 1687   4.838   6.071   6.532  0.0152  0.0908  1.0918
  422SOL     vw 1688   4.924   6.082   6.525 -0.0570  0.1471 -0.0548
  423SOL     ow 1689   3.324   4.814   1.374  0.1815  0.5812  0.1904
  423SOL     hw 1690   3.321   4.721   1.396 -0.7237  0.4144 -0.5292
  423SOL     hw 1691   3.353   4.857   1.453  0.5328 -0.3139  0.5609
  423SOL     vw 1692   3.327   4.807   1.387  0.1085  0.4411  0.1444
  424SOL     ow 1693   3.523   2.613   4.515  0.4496  0.4471  0.1427
  424SOL     hw 1694   3.467   2.551   4.469  0.6233  1.7524 -1.9315
  424SOL     hw 1695   3.481   2.623   4.601 -2.3329  1.0955 -1.1842
  424SOL     vw 1696   3.510   2.606   4.520  0.1053  0.7049 -0.3059
  425SOL     ow 1697   6.551   3.804   1.676 -0.2034 -0.6738  0.1937
  425SOL     hw 1698   6.584   3.864   1.609 -0.6241 -1.0045 -0.3104
  425SOL     hw 1699   6.569   3.849   1.759  1.1910 -0.6777 -0.0691
  425SOL     vw 1700   6.558   3.818   1.678 -0.0751 -0.7179  0.0926
  426SOL     ow 1701   4.300   5.413   0.418 -0.0158 -0.2604 -0.1151
  426SOL     hw 1702   4.361   5.443   0.486  1.6773 -2.5857 -0.4790
  426SOL     hw 1703   4.313   5.474   0.346  2.0245 -0.7136 -0.2006
  426SOL     vw 1704   4.310   5.425   0.417  0.4771 -0.6268 -0.1744
  427SOL     ow 1705   3.402   4.835   3.426 -0.0582 -0.4114  0.0935
  427SOL     hw 1706   3.485   4.800   3.397  1.8259  3.4654  0.1285
  427SOL     hw 1707   3.338   4.801   3.364  1.9318 -1.5954 -1.4170
  427SOL     vw 1708   3.404   4.826   3.414  0.4530 -0.0565 -0.1012
  428SOL     ow 1709   1.914   1.396   5.352 -0.1293  0.0522 -0.1597
  428SOL     hw 1710   1.898   1.442   5.434  1.1812 -0.4442  0.3940
  428SOL     hw 1711   1.857   1.439   5.289 -2.4754 -0.6519  1.3475
  428SOL     vw 1712   1.904   1.407   5.355 -0.2660 -0.1062  0.1121
  429SOL     ow 1713   6.865   3.436   0.743 -0.3220  0.1427  0.0306
  429SOL     hw 1714   6.852   3.529   0.728 -0.4676  0.8991  3.8654
  429SOL     hw 1715   6.790   3.394   0.700  0.6401  1.4761 -3.2764
  429SOL     vw 1716   6.853   3.443   0.735 -0.2143  0.4182  0.1003
  430SOL     ow 1717   1.971   4.170   7.165 -0.3951 -0.9142 -0.5053
  430SOL     hw 1718   1.895   4.229   7.165  0.9016  0.8585  0.7150
  430SOL     hw 1719   1.933   4.083   7.180 -2.2683 -0.2412 -0.9823
  430SOL     vw 1720   1.956   4.166   7.167 -0.4712 -0.5918 -0.4070
  431SOL     ow 1721   2.582   0.616   0.717  0.6744  0.2057 -0.2076
  431SOL     hw 1722   2.637   0.607   0.639  0.4547 -1.0247 -0.2403
  431SOL     hw 1723   2.561   0.526   0.742 -1.3087  0.6338 -0.1828
  431SOL     vw 1724   2.587   0.603   0.710  0.3837  0.0999 -0.2087
  432SOL     ow 1725   2.660   0.859   0.978  0.4232 -0.4711 -0.1943
  432SOL     hw 1726   2.618   0.938   0.945 -1.7744 -0.7865  1.5884
  432SOL     hw 1727   2.741   0.890   1.020 -1.5236  1.2793  2.5858
  432SOL     vw 1728   2.665   0.873   0.979 -0.1236 -0.2818  0.4077
  433SOL     ow 1729   2.515   2.909   1.787  0.8127  0.2752  0.6050
  433SOL     hw 1730   2.596   2.929   1.834  1.4169  0.4436 -0.4719
  433SOL     hw 1731   2.512   2.813   1.784 -0.0774  0.2069  2.3723
  433SOL     vw 1732   2.526   2.899   1.793  0.7749  0.2882  0.6961
  434SOL     ow 1733   7.194   5.195   1.634 -0.6388  0.2969 -0.0092
  434SOL     hw 1734   7.275   5.162   1.675 -1.6367 -1.2542  0.8162
  434SOL     hw 1735   7.166   5.267   1.690  0.5869  1.4172 -0.7778
  434SOL     vw 1736   7.201   5.200   1.647 -0.6087  0.2401 -0.0017
  435SOL     ow 1737   6.363   3.184   4.838 -0.0533  0.8123  0.0451
  435SOL     hw 1738   6.452   3.149   4.837  0.2332  1.5287 -0.8851
  435SOL     hw 1739   6.342   3.194   4.930  1.5350  2.3590  0.2788
  435SOL     vw 1740   6.372   3.181   4.850  0.1941  1.1110 -0.0470
  436SOL     ow 1741   6.416   3.387   7.184 -0.1282  0.3497 -0.1897
  436SOL     hw 1742   6.350   3.456   7.177 -0.5441 -0.2216 -2.5916
  436SOL     hw 1743   6.424   3.372   7.279 -2.9117  0.9489  0.2280
  436SOL     vw 1744   6.408   3.394   7.196 -0.5503  0.3535 -0.4516
  437SOL     ow 1745   4.338   0.761   5.843 -0.5415  0.2358  0.4466
  437SOL     hw 1746   4.345   0.705   5.920  0.8975 -1.6691 -0.9764
  437SOL     hw 1747   4.380   0.843   5.871  0.7380 -0.7049  1.4560
  437SOL     vw 1748   4.345   0.765   5.857 -0.1829 -0.1397  0.3922
  438SOL     ow 1749   3.547   3.323   0.273  0.6613 -0.3654 -0.6046
  438SOL     hw 1750   3.545   3.334   0.178  2.9681 -1.5351 -0.8545
  438SOL     hw 1751   3.529   3.410   0.308 -0.8590 -0.0461 -2.0696
  438SOL     vw 1752   3.544   3.336   0.265  0.7652 -0.4776 -0.8309
  439SOL     ow 1753   4.290   6.817   5.729 -0.5536 -0.3022  0.4280
  439SOL     hw 1754   4.335   6.901   5.727 -1.8635  0.4004 -0.6875
  439SOL     hw 1755   4.316   6.774   5.647  0.2172 -1.0728  1.0532
  439SOL     vw 1756   4.299   6.822   5.718 -0.6244 -0.3114  0.3631
  440SOL     ow 1757   1.436   2.751   2.321  0.4049 -0.7953 -0.8315
  440SOL     hw 1758   1.374   2.685   2.289  0.0512 -1.3845  0.9695
  440SOL     hw 1759   1.418   2.829   2.267 -1.2096 -1.2581 -1.0186
  440SOL     vw 1760   1.425   2.753   2.310  0.1452 -0.9341 -0.6186
  441SOL     ow 1761   0.533   1.676   4.946 -1.0428 -0.4275  0.4170
  441SOL     hw 1762   0.481   1.736   4.892 -0.9048 -0.3180  0.4055
  441SOL     hw 1763   0.503   1.692   5.036  0.1055  0.8081  0.6150
  441SOL     vw 1764   0.522   1.686   4.951 -0.8730 -0.2500  0.4418
  442SOL     ow 1765   0.188   6.962   1.014 -0.2545  0.1760 -0.0619
  442SOL     hw 1766   0.151   6.874   1.008  1.0042 -0.3283 -0.8049
  442SOL     hw 1767   0.144   7.001   1.090 -0.4044 -1.2986  0.6516
  442SOL     vw 1768   0.177   6.955   1.023 -0.1082 -0.0851 -0.0657
  443SOL     ow 1769   5.704   6.034   1.399 -0.5292  0.3195  0.2050
  443SOL     hw 1770   5.761   6.095   1.353 -0.3737 -0.3502 -0.5126
  443SOL     hw 1771   5.680   6.080   1.480 -2.5596  2.4642 -1.4482
  443SOL     vw 1772   5.708   6.048   1.404 -0.7765  0.5143 -0.1078
  444SOL     ow 1773   7.024   5.707   6.775  0.7494  0.5731  0.2104
  444SOL     hw 1774   6.951   5.687   6.834  2.2043  0.1425  1.9615
  444SOL     hw 1775   7.008   5.798   6.748 -0.0768  0.7226  1.1230
  444SOL     vw 1776   7.012   5.716   6.779  0.8326  0.5360  0.5617
  445SOL     ow 1777   3.238   5.649   4.576  0.7347  0.3868  0.4229
  445SOL     hw 1778   3.146   5.646   4.602  0.5813 -0.1202 -0.1637
  445SOL     hw 1779   3.286   5.623   4.655  0.3687  0.4971  0.6843
  445SOL     vw 1780   3.233   5.645   4.590  0.6661  0.3345  0.3800
  446SOL     ow 1781   0.031   6.718   6.736  0.3045  0.6030  0.6612
  446SOL     hw 1782  -0.052   6.674   6.722  0.5459  0.1565  0.6259
  446SOL     hw 1783   0.016   6.808   6.708 -0.8031  1.0867  2.6477
  446SOL     vw 1784   0.018   6.724   6.731  0.1902  0.6082  0.9184
  447SOL     ow 1785   3.022   6.830   0.916  0.5487 -0.5725 -1.1801
  447SOL     hw 1786   3.023   6.839   1.011  0.1812 -0.2470 -1.2071
  447SOL     hw 1787   2.967   6.902   0.885  1.5589 -0.0139 -1.7109
  447SOL     vw 1788   3.015   6.840   0.924  0.6335 -0.4556 -1.2537
  448SOL     ow 1789   3.770   2.774   4.537 -0.0314 -0.2630  0.1030
  448SOL     hw 1790   3.746   2.856   4.494  1.3201  0.9216  1.4709
  448SOL     hw 1791   3.743   2.785   4.628  0.2994 -1.2684  0.3388
  448SOL     vw 1792   3.763   2.787   4.543  0.1905 -0.2394  0.3147
  449SOL     ow 1793   4.796   3.868   4.161 -0.0413 -0.4904  0.3036
  449SOL     hw 1794   4.838   3.850   4.076  3.0742  1.0896  1.3445
  449SOL     hw 1795   4.778   3.962   4.160  1.5463 -0.1132  1.9094
  449SOL     vw 1796   4.799   3.878   4.150  0.5794 -0.2322  0.6528
  450SOL     ow 1797   6.872   2.709   4.876  0.0438 -0.1232  0.6715
  450SOL     hw 1798   6.842   2.765   4.947 -2.5585  0.2286 -0.5921
  450SOL     hw 1799   6.893   2.770   4.805  0.2154 -0.5884  0.3190
  450SOL     vw 1800   6.871   2.724   4.876 -0.2768 -0.1382  0.4582
  451SOL     ow 1801   4.632   6.590   3.222  1.2416  0.5930  0.1595
  451SOL     hw 1802   4.673   6.615   3.139  0.8614 -0.0044 -0.2056
  451SOL     hw 1803   4.676   6.509   3.247  2.7903  1.7677  1.5720
  451SOL     vw 1804   4.643   6.583   3.215  1.3959  0.6692  0.2978
  452SOL     ow 1805   3.960   7.043   3.558 -0.9837  0.0124  0.0006
  452SOL     hw 1806   4.034   7.008   3.608 -1.1077  1.9151  1.6852
  452SOL     hw 1807   3.883   7.018   3.609 -1.1915  1.1123  0.2507
  452SOL     vw 1808   3.960   7.035   3.572 -1.0273  0.4086  0.2557
  453SOL     ow 1809   5.348   4.819   5.977  0.1082  0.6702 -0.4837
  453SOL     hw 1810   5.314   4.879   5.912  0.2382  0.9488 -0.2968
  453SOL     hw 1811   5.285   4.822   6.049 -1.1297 -1.1736 -1.4178
  453SOL     vw 1812   5.335   4.827   5.978 -0.0379  0.4640 -0.5822
  454SOL     ow 1813   4.490   3.088   1.165 -0.0951 -0.2067  0.3885
  454SOL     hw 1814   4.512   3.020   1.102 -2.2550 -0.0169 -0.6541
  454SOL     hw 1815   4.541   3.066   1.243  1.6781 -1.1726 -0.9595
  454SOL     vw 1816   4.500   3.076   1.167 -0.1462 -0.3091  0.0731
  455SOL     ow 1817   4.286   0.507   5.702 -0.1462 -0.0664  0.8016
  455SOL     hw 1818   4.324   0.585   5.743 -1.1429  0.4743  0.7343
  455SOL     hw 1819   4.220   0.542   5.642  2.6594 -0.6320 -3.0097
  455SOL     vw 1820   4.282   0.522   5.699  0.0925 -0.0697  0.2899
  456SOL     ow 1821   3.192   2.031   4.553 -0.4216  0.2760  0.0647
  456SOL     hw 1822   3.244   2.111   4.551  1.7356 -1.0630 -1.3706
  456SOL     hw 1823   3.249   1.966   4.595  0.3261 -1.9491 -3.9579
  456SOL     vw 1824   3.206   2.033   4.559 -0.0384 -0.1943 -0.6552
  457SOL     ow 1825   1.954   2.171   1.838  0.0745 -0.1968  0.5681
  457SOL     hw 1826   1.997   2.212   1.764  1.1345 -1.0130  0.7127
  457SOL     hw 1827   1.943   2.242   1.902 -0.2413  0.3585 -0.0963
  457SOL     vw 1828   1.958   2.185   1.837  0.1727 -0.2311  0.4995
  458SOL     ow 1829   3.489   2.584   0.646 -0.1708 -0.3631  0.1915
  458SOL     hw 1830   3.522   2.581   0.556  1.9770  1.9045  0.7866
  458SOL     hw 1831   3.459   2.674   0.658  0.2962 -0.4053  1.9504
  458SOL     vw 1832   3.490   2.595   0.636  0.1742 -0.0696  0.5021
  459SOL     ow 1833   6.026   1.838   3.461  0.6042  0.3123  0.0044
  459SOL     hw 1834   6.101   1.889   3.491  2.0350 -0.8746 -1.3873
  459SOL     hw 1835   6.021   1.765   3.523  1.7070 -0.5352 -0.8716
  459SOL     vw 1836   6.035   1.835   3.474  0.9384  0.0439 -0.2948
  460SOL     ow 1837   5.392   2.253   4.427 -0.4272  0.0348  0.1106
  460SOL     hw 1838   5.354   2.296   4.350 -0.8542  0.0148  0.3053
  460SOL     hw 1839   5.341   2.172   4.435 -1.7189  0.9478  1.5738
  460SOL     vw 1840   5.380   2.248   4.418 -0.6540  0.1526  0.3295
  461SOL     ow 1841   7.059   4.454   0.661 -0.8870 -0.2928 -0.0327
  461SOL     hw 1842   7.076   4.393   0.589 -0.3663  1.2225 -1.2567
  461SOL     hw 1843   7.061   4.541   0.619 -2.3197  0.5305  1.5049
  461SOL     vw 1844   7.062   4.458   0.646 -1.0073  0.0157  0.0086
  462SOL     ow 1845   5.631   1.597   1.104 -0.5289 -0.1702 -0.3451
  462SOL     hw 1846   5.556   1.617   1.160 -0.1539 -2.7520  1.2581
  462SOL     hw 1847   5.701   1.653   1.136 -0.5794 -0.9570  1.2400
  462SOL     vw 1848   5.630   1.607   1.115 -0.4859 -0.6147  0.0756
  463SOL     ow 1849   5.755   3.461   3.862 -0.5093 -0.3476 -0.3977
  463SOL     hw 1850   5.764   3.382   3.916 -0.6624 -0.7602 -0.9653
  463SOL     hw 1851   5.679   3.506   3.897  0.5193  0.3982  0.9821
  463SOL     vw 1852   5.746   3.456   3.874 -0.3939 -0.3036 -0.2905
  464SOL     ow 1853   6.547   0.869   1.150 -0.2430  0.3404  0.1033
  464SOL     hw 1854   6.491   0.929   1.100 -0.2381 -0.0909 -0.4185
  464SOL     hw 1855   6.485   0.817   1.201 -0.4848 -1.4810 -1.9290
  464SOL     vw 1856   6.531   0.870   1.150 -0.2742  0.0432 -0.2337
  465SOL     ow 1857   2.822   3.679   5.402  0.1848  0.0632 -0.5886
  465SOL     hw 1858   2.866   3.642   5.479 -0.7246  1.3592  0.5931
  465SOL     hw 1859   2.739   3.631   5.397 -0.3368  0.8847  0.0457
  465SOL     vw 1860   2.817   3.668   5.411 -0.0039  0.3425 -0.3490
  466SOL     ow 1861   1.523   3.468   2.792 -0.5061  0.7230  0.5491
  466SOL     hw 1862   1.550   3.497   2.879 -1.1665 -0.2903  1.1089
  466SOL     hw 1863   1.447   3.522   2.771 -0.7832  0.4700  0.9093
  466SOL     vw 1864   1.517   3.479   2.800 -0.6297  0.5559  0.6704
  467SOL     ow 1865   3.776   5.690   3.939 -0.5983 -0.1565 -0.3530
  467SOL     hw 1866   3.707   5.702   3.873 -0.0088  4.9838 -0.4683
  467SOL     hw 1867   3.855   5.672   3.888 -0.3355  2.8448 -1.2243
  467SOL     vw 1868   3.777   5.689   3.923 -0.4859  0.9177 -0.4832
  468SOL     ow 1869   4.778   6.047   6.092  0.1593  0.2545  0.4608
  468SOL     hw 1870   4.868   6.077   6.089  0.7862 -1.5963 -1.7576
  468SOL     hw 1871   4.735   6.087   6.017  0.0277 -1.3308 -0.3581
  468SOL     vw 1872   4.784   6.056   6.082  0.2246 -0.1988  0.0603
  469SOL     ow 1873   1.958   0.589   1.976 -0.7548 -0.5256 -0.4296
  469SOL     hw 1874   1.869   0.581   1.941 -1.1777  0.2520  0.4084
  469SOL     hw 1875   1.995   0.664   1.930 -1.0776  0.0889  0.3007
  469SOL     vw 1876   1.951   0.598   1.965 -0.8531 -0.3420 -0.2227
  470SOL     ow 1877   3.563   5.745   1.396 -0.2125  0.4214  0.2282
  470SOL     hw 1878   3.490   5.745   1.459 -2.3333 -0.3010 -2.0690
  470SOL     hw 1879   3.532   5.799   1.324  2.6527  2.2640  0.2030
  470SOL     vw 1880   3.549   5.752   1.395 -0.1142  0.5696 -0.0782
  471SOL     ow 1881   6.109   4.282   4.990  0.2938 -0.5228  0.2762
  471SOL     hw 1882   6.023   4.261   5.027 -1.1672  1.1705 -1.9231
  471SOL     hw 1883   6.100   4.370   4.955  2.8562 -0.4251 -0.3839
  471SOL     vw 1884   6.097   4.291   4.990  0.4392 -0.2866 -0.1013
  472SOL     ow 1885   6.727   1.850   1.300 -0.1846  0.0383  0.3916
  472SOL     hw 1886   6.748   1.943   1.301  0.2032 -0.0509  0.6195
  472SOL     hw 1887   6.812   1.806   1.299 -0.3633 -0.3164  0.6452
  472SOL     vw 1888   6.741   1.857   1.300 -0.1571 -0.0203  0.4551
  473SOL     ow 1889   3.476   6.910   2.813 -0.2302  0.1647  0.3122
  473SOL     hw 1890   3.444   6.949   2.894 -3.2176  2.0555 -1.5717
  473SOL     hw 1891   3.506   6.984   2.760 -0.8843 -0.6624 -1.2985
  473SOL     vw 1892   3.476   6.925   2.816 -0.7106  0.3054 -0.1489
  474SOL     ow 1893   0.971   4.340   1.371  0.0627 -0.5979  0.4113
  474SOL     hw 1894   1.054   4.349   1.324  0.5623 -1.8941  0.9942
  474SOL     hw 1895   0.967   4.247   1.394 -1.6236 -0.5909  0.2690
  474SOL     vw 1896   0.981   4.329   1.367 -0.0938 -0.7677  0.4695
  475SOL     ow 1897   1.167   7.196   4.628  0.0042 -0.4314 -0.1378
  475SOL     hw 1898   1.177   7.246   4.708 -2.2484 -1.6704  1.0320
  475SOL     hw 1899   1.255   7.192   4.590  0.3040  4.9822 -0.8295
  475SOL     vw 1900   1.180   7.202   4.633 -0.2535  0.1192 -0.0749
  476SOL     ow 1901   5.815   1.534   4.695  0.2975  0.3684 -0.5059
  476SOL     hw 1902   5.877   1.606   4.691 -0.4795  0.9991 -1.7013
  476SOL     hw 1903   5.790   1.518   4.604 -0.1284 -0.9052 -0.1907
  476SOL     vw 1904   5.820   1.541   4.682  0.1390  0.2836 -0.6218
  477SOL     ow 1905   6.865   1.646   3.252 -0.3028  0.2896  0.0658
  477SOL     hw 1906   6.788   1.677   3.205  0.1336  1.1905 -0.0736
  477SOL     hw 1907   6.910   1.589   3.189  0.3054  1.5265 -0.6550
  477SOL     vw 1908   6.861   1.642   3.237 -0.1652  0.5716 -0.0477
  478SOL     ow 1909   0.117   5.743   2.515  0.8678  0.6326  0.7376
  478SOL     hw 1910   0.073   5.828   2.523  1.7943  1.4425 -1.9279
  478SOL     hw 1911   0.157   5.744   2.429  1.9759 -2.0600  1.1150
  478SOL     vw 1912   0.116   5.754   2.505  1.1362  0.3843  0.4357
  479SOL     ow 1913   1.928   4.409   1.087  0.0296  0.2807 -0.1044
  479SOL     hw 1914   1.834   4.390   1.091 -0.1736  1.2573  4.0505
  479SOL     hw 1915   1.967   4.347   1.149  2.6313 -1.6679 -3.3741
  479SOL     vw 1916   1.921   4.398   1.096  0.3461  0.1523  0.0124
  480SOL     ow 1917   4.825   3.581   4.270 -0.7538  0.3475  0.2904
  480SOL     hw 1918   4.810   3.503   4.324 -1.2188  0.3795  0.2128
  480SOL     hw 1919   4.826   3.548   4.180 -1.3567  0.4797  0.2291
  480SOL     vw 1920   4.823   3.566   4.266 -0.8945  0.3693  0.2723
  481SOL     ow 1921   2.500   5.637   0.570  0.1959 -0.0991  0.3047
  481SOL     hw 1922   2.500   5.560   0.514 -0.0545  0.0450  0.1039
  481SOL     hw 1923   2.531   5.605   0.655  0.7268 -0.2828  0.0430
  481SOL     vw 1924   2.504   5.623   0.574  0.2331 -0.1044  0.2437
  482SOL     ow 1925   6.657   0.960   6.098 -0.1106  0.5096  0.0985
  482SOL     hw 1926   6.651   0.947   6.003  0.8352 -0.3660  0.1400
  482SOL     hw 1927   6.624   1.048   6.112 -0.5135  0.5550 -1.0174
  482SOL     vw 1928   6.652   0.970   6.087 -0.0391  0.4001 -0.0434
  483SOL     ow 1929   2.948   1.122   5.523  0.3142  0.2478  0.4001
  483SOL     hw 1930   2.928   1.131   5.616 -0.5895  0.4493  0.1974
  483SOL     hw 1931   2.868   1.087   5.485 -0.3131  2.7801 -0.7407
  483SOL     vw 1932   2.935   1.118   5.530  0.1123  0.6085  0.2227
  484SOL     ow 1933   5.546   1.560   0.845 -0.0476  0.1001  0.1715
  484SOL     hw 1934   5.462   1.515   0.853  0.5861 -0.8515  2.2345
  484SOL     hw 1935   5.561   1.599   0.930  2.1537 -0.8254  0.3012
  484SOL     vw 1936   5.537   1.559   0.857  0.3266 -0.1475  0.4608
  485SOL     ow 1937   6.708   2.452   3.941 -0.4477 -0.0801 -0.2120
  485SOL     hw 1938   6.785   2.432   3.994 -0.2045  0.2982 -0.4194
  485SOL     hw 1939   6.692   2.372   3.891 -0.4830 -0.3251  0.1914
  485SOL     vw 1940   6.716   2.439   3.942 -0.4201 -0.0626 -0.1861
  486SOL     ow 1941   3.056   3.476   6.080 -0.0786 -0.7484 -0.2988
  486SOL     hw 1942   3.105   3.474   6.162 -1.7640 -0.5281  0.7588
  486SOL     hw 1943   3.114   3.521   6.019  0.6861  0.3340  1.1516
  486SOL     vw 1944   3.070   3.482   6.083 -0.2002 -0.5767  0.0324
  487SOL     ow 1945   2.086   3.915   6.934 -0.8448 -0.5294 -0.3400
  487SOL     hw 1946   2.088   3.984   6.868 -0.7035 -1.3510 -1.2024
  487SOL     hw 1947   2.178   3.903   6.958 -0.8141 -0.8003 -0.5927
  487SOL     vw 1948   2.099   3.923   6.929 -0.8221 -0.6737 -0.4871
  488SOL     ow 1949   6.493   0.378   3.498 -0.2304  0.4650 -0.2485
  488SOL     hw 1950   6.403   0.386   3.530 -0.1193 -0.1270  0.2486
  488SOL     hw 1951   6.510   0.460   3.453 -2.0472 -0.5149 -3.0123
  488SOL     vw 1952   6.483   0.390   3.496 -0.4556  0.2576 -0.5475
  489SOL     ow 1953   5.402   6.232   3.162 -0.1824 -0.3364 -0.2873
  489SOL     hw 1954   5.419   6.142   3.133  1.5020  0.5496 -2.3041
  489SOL     hw 1955   5.359   6.273   3.087 -0.2573  0.7498  0.3331
  489SOL     vw 1956   5.398   6.225   3.148  0.0300 -0.0761 -0.4715
  490SOL     ow 1957   7.109   0.321   1.551  0.6275  0.3156  0.3589
  490SOL     hw 1958   7.058   0.240   1.556  1.8542 -0.4862  0.4048
  490SOL     hw 1959   7.197   0.295   1.579  1.2373  1.4945 -0.3923
  490SOL     vw 1960   7.114   0.307   1.556  0.8698  0.3653  0.2659
  491SOL     ow 1961   5.388   2.964   0.059  0.3624  0.4426  0.2092
  491SOL     hw 1962   5.387   2.877   0.100  1.0922 -0.3313 -1.3435
  491SOL     hw 1963   5.412   2.948  -0.032 -0.0104  2.2350 -0.2506
  491SOL     vw 1964   5.391   2.950   0.053  0.4094  0.5770 -0.0563
  492SOL     ow 1965   3.940   6.818   5.303 -0.1501 -0.7231  0.3543
  492SOL     hw 1966   3.963   6.893   5.357 -0.2994  0.9679 -1.7697
  492SOL     hw 1967   3.980   6.743   5.347  3.0428  1.0393  0.7746
  492SOL     vw 1968   3.948   6.818   5.316  0.2515 -0.2675  0.1297
  493SOL     ow 1969   2.080   5.656   1.625 -0.5012 -0.0178 -0.8867
  493SOL     hw 1970   2.150   5.624   1.682  1.5035  0.9249 -2.6407
  493SOL     hw 1971   2.043   5.731   1.672 -0.2648 -0.4588  0.0219
  493SOL     vw 1972   2.084   5.662   1.639 -0.2054  0.0486 -0.9982
  494SOL     ow 1973   4.958   5.992   6.824  0.2044  0.2221 -0.3815
  494SOL     hw 1974   4.887   6.046   6.857  0.1602 -0.7969  1.3208
  494SOL     hw 1975   4.931   5.902   6.844  2.6322 -0.1309  1.9123
  494SOL     vw 1976   4.945   5.987   6.831  0.5190  0.0408  0.1459
  495SOL     ow 1977   2.033   2.769   6.175 -0.5936 -0.4545  0.3684
  495SOL     hw 1978   2.030   2.683   6.216  0.3187 -1.4287 -1.4635
  495SOL     hw 1979   2.014   2.752   6.083 -1.1801  1.4263  0.1020
  495SOL     vw 1980   2.030   2.755   6.168 -0.5505 -0.3349  0.0916
  496SOL     ow 1981   5.467   0.180   2.549 -0.0605  0.3785  0.1881
  496SOL     hw 1982   5.422   0.262   2.526 -0.7272  0.3697  1.4031
  496SOL     hw 1983   5.425   0.152   2.630  2.1562  0.3729  1.4004
  496SOL     vw 1984   5.455   0.187   2.557  0.1438  0.3766  0.5082
  497SOL     ow 1985   2.106   6.213   3.654 -0.7049  0.0636 -0.2327
  497SOL     hw 1986   2.016   6.230   3.683 -0.0429  2.0509  0.8485
  497SOL     hw 1987   2.116   6.264   3.574 -0.7125 -0.6762 -0.7149
  497SOL     vw 1988   2.095   6.222   3.648 -0.6187  0.2284 -0.1537
  498SOL     ow 1989   4.909   4.047   5.988 -1.0482 -0.0837 -0.5544
  498SOL     hw 1990   4.977   4.027   6.052 -1.4875 -1.0164 -0.3570
  498SOL     hw 1991   4.890   4.140   6.001  0.9212  0.4726 -1.3496
  498SOL     vw 1992   4.916   4.057   5.998 -0.8464 -0.1335 -0.6332
  499SOL     ow 1993   0.518   3.989   2.189  0.5194 -0.1981  0.1108
  499SOL     hw 1994   0.609   4.014   2.172  0.9385 -1.9389 -0.4665
  499SOL     hw 1995   0.483   3.965   2.103  0.3345 -1.9463  0.6265
  499SOL     vw 1996   0.526   3.989   2.176  0.5503 -0.6583  0.1028
  500SOL     ow 1997   6.129   6.437   1.980 -0.2584 -0.1657  0.1728
  500SOL     hw 1998   6.134   6.342   1.983  0.2723 -0.1503 -0.0736
  500SOL     hw 1999   6.053   6.456   1.925 -0.6172 -0.4419  0.5659
  500SOL     vw 2000   6.120   6.427   1.973 -0.2356 -0.2000  0.1922
  501SOL     ow 2001   4.639   7.304   0.393 -0.3651 -0.9492  0.3745
  501SOL     hw 2002   4.685   7.288   0.476 -0.4847  2.5019  1.2631
  501SOL     hw 2003   4.548   7.318   0.419 -0.1158  1.8651 -0.0150
  501SOL     vw 2004   4.633   7.304   0.408 -0.3483 -0.1223  0.4403
  502SOL     ow 2005   3.365   4.683   5.794  0.0897 -0.2314  0.3251
  502SOL     hw 2006   3.271   4.666   5.787 -0.1734  1.6129 -1.6625
  502SOL     hw 2007   3.402   4.645   5.714  0.3933  2.4591 -0.9248
  502SOL     vw 2008   3.358   4.676   5.782  0.0949  0.3669 -0.1018
  503SOL     ow 2009   1.980   1.781   5.382  0.5089  0.0846  0.5103
  503SOL     hw 2010   1.904   1.803   5.435  0.2143 -1.2108  0.6461
  503SOL     hw 2011   1.991   1.856   5.323 -1.1599  0.0787  0.1620
  503SOL     vw 2012   1.972   1.794   5.381  0.2498 -0.0871  0.4821
  504SOL     ow 2013   2.683   2.076   2.015  0.2307  0.2756 -0.2621
  504SOL     hw 2014   2.722   2.154   2.055  0.2095  0.7884 -1.2192
  504SOL     hw 2015   2.590   2.099   2.004  0.3142  0.3002 -0.9668
  504SOL     vw 2016   2.676   2.089   2.019  0.2389  0.3465 -0.4815
  505SOL     ow 2017   6.682   2.965   1.675  0.4428 -0.3397  0.0004
  505SOL     hw 2018   6.672   2.935   1.584  0.8901 -0.0090 -0.1610
  505SOL     hw 2019   6.738   2.899   1.716  1.6425  0.3826 -0.4245
  505SOL     vw 2020   6.688   2.952   1.668  0.6599 -0.2009 -0.0770
  506SOL     ow 2021   1.069   5.111   2.332 -0.2058 -0.6363 -0.8382
  506SOL     hw 2022   1.042   5.188   2.282 -3.9927 -1.4181 -0.3402
  506SOL     hw 2023   1.114   5.056   2.269  0.2356  0.8316 -1.8714
  506SOL     vw 2024   1.071   5.114   2.317 -0.6472 -0.5457 -0.9089
  507SOL     ow 2025   2.383   4.254   3.851 -0.4204 -0.5900 -0.2068
  507SOL     hw 2026   2.315   4.264   3.785 -0.2870  1.4679 -0.1097
  507SOL     hw 2027   2.440   4.330   3.839  0.8481 -1.3104  0.8753
  507SOL     vw 2028   2.382   4.266   3.841 -0.2353 -0.4137 -0.0511
  508SOL     ow 2029   3.652   1.517   4.637  0.2237  0.3466 -0.2444
  508SOL     hw 2030   3.653   1.603   4.680  0.5696  0.9218 -1.3503
  508SOL     hw 2031   3.595   1.464   4.691  0.6071  1.0481  0.8943
  508SOL     vw 2032   3.645   1.522   4.650  0.3200  0.5150 -0.2401
  509SOL     ow 2033   6.616   4.597   2.675  0.0268 -0.2082  0.0413
  509SOL     hw 2034   6.602   4.692   2.672  0.5164 -0.1483 -0.6143
  509SOL     hw 2035   6.635   4.578   2.767  2.5379  0.7271 -0.2144
  509SOL     vw 2036   6.616   4.607   2.687  0.4227 -0.0770 -0.0788
  510SOL     ow 2037   0.848   3.899   4.813 -0.3580  0.1746  0.0576
  510SOL     hw 2038   0.819   3.990   4.813 -0.4778  0.1773 -1.9417
  510SOL     hw 2039   0.837   3.870   4.723 -1.4103 -2.1947  0.8592
  510SOL     vw 2040   0.843   3.908   4.801 -0.5126 -0.1376 -0.1006
  511SOL     ow 2041   3.701   5.893   2.442  0.2230  0.3094 -0.1968
  511SOL     hw 2042   3.753   5.833   2.389  0.0642  0.2298 -0.2607
  511SOL     hw 2043   3.669   5.959   2.381  0.0929  0.2536 -0.1890
  511SOL     vw 2044   3.704   5.894   2.427  0.1849  0.2916 -0.2042
  512SOL     ow 2045   3.036   5.009   3.489 -0.3277  0.1813 -0.2378
  512SOL     hw 2046   3.039   4.931   3.433 -1.4551 -0.0642  0.0296
  512SOL     hw 2047   3.000   4.977   3.571 -1.3302  1.1016 -0.3121
  512SOL     vw 2048   3.032   4.994   3.492 -0.6087  0.2704 -0.2124
  513SOL     ow 2049   0.263   3.860   0.709  0.5014 -0.1952  0.2175
  513SOL     hw 2050   0.185   3.873   0.654  0.4261  0.7476  0.5272
  513SOL     hw 2051   0.312   3.943   0.701  0.0707  0.3062  2.2258
  513SOL     vw 2052   0.259   3.873   0.701  0.4347 -0.0046  0.5234
  514SOL     ow 2053   0.308   0.160   5.419  0.1453 -0.3050  0.3763
  514SOL     hw 2054   0.221   0.137   5.451  0.3433 -0.0408  1.1361
  514SOL     hw 2055   0.319   0.252   5.443  0.2773 -0.0703 -0.5343
  514SOL     vw 2056   0.298   0.169   5.427  0.1889 -0.2392  0.3564
  515SOL     ow 2057   2.306   3.080   3.089  0.1395 -0.6262 -0.6610
  515SOL     hw 2058   2.257   3.069   3.170  0.6384 -1.1601 -0.4242
  515SOL     hw 2059   2.239   3.084   3.021 -0.5049  2.6958 -0.0107
  515SOL     vw 2060   2.291   3.080   3.091  0.1204 -0.2583 -0.5440
  516SOL     ow 2061   5.346   0.005   0.104 -0.5142 -0.3251 -0.3997
  516SOL     hw 2062   5.394   0.018   0.022  0.3701  1.2217  0.3181
  516SOL     hw 2063   5.395   0.055   0.169 -1.1910 -1.5201  1.0999
  516SOL     vw 2064   5.359   0.013   0.102 -0.4871 -0.2787 -0.1072
  517SOL     ow 2065   3.327   2.618   5.010 -0.2817 -0.2376 -0.1189
  517SOL     hw 2066   3.323   2.555   5.081  3.7457 -1.2156 -0.4892
  517SOL     hw 2067   3.358   2.698   5.051  2.4148 -0.9071 -0.6613
  517SOL     vw 2068   3.331   2.620   5.025  0.6056 -0.4550 -0.2394
  518SOL     ow 2069   7.048   0.499   4.219  0.3113 -0.2521  0.7283
  518SOL     hw 2070   7.069   0.435   4.287 -1.4920 -2.5879 -0.7427
  518SOL     hw 2071   7.093   0.466   4.141 -0.7151  0.2090 -0.0808
  518SOL     vw 2072   7.057   0.486   4.218 -0.0618 -0.4995  0.4277
  519SOL     ow 2073   5.396   6.706   6.222 -0.0879  0.4702 -0.2596
  519SOL     hw 2074   5.371   6.776   6.282  0.5214 -0.4453  1.1166
  519SOL     hw 2075   5.313   6.663   6.200 -0.4553  1.5166 -1.0340
  519SOL     vw 2076   5.382   6.710   6.227 -0.0558  0.4873 -0.1798
  520SOL     ow 2077   5.364   7.164   7.021 -0.3635 -0.0256 -0.2649
  520SOL     hw 2078   5.416   7.085   7.037 -0.2335 -0.4313 -2.4080
  520SOL     hw 2079   5.415   7.214   6.957 -2.2127 -0.0963 -1.8911
  520SOL     vw 2080   5.377   7.160   7.014 -0.5903 -0.0885 -0.7622
  521SOL     ow 2081   6.808   6.106   6.074 -0.2612  0.4942 -0.1026
  521SOL     hw 2082   6.758   6.185   6.053 -1.0105  0.8940  2.7524
  521SOL     hw 2083   6.741   6.041   6.096  0.4030  0.0672  0.7001
  521SOL     vw 2084   6.792   6.108   6.074 -0.2725  0.4907  0.3800
  522SOL     ow 2085   6.476   1.795   1.545 -0.8560 -0.7769 -0.2500
  522SOL     hw 2086   6.417   1.719   1.548  0.3574 -1.7905 -1.2505
  522SOL     hw 2087   6.530   1.786   1.623 -0.7917 -0.8656 -0.3051
  522SOL     vw 2088   6.475   1.784   1.556 -0.6874 -0.9224 -0.3893
  523SOL     ow 2089   2.536   5.343   5.492 -0.0982  0.7139 -0.1259
  523SOL     hw 2090   2.513   5.361   5.401  0.8257 -0.5842 -0.6345
  523SOL     hw 2091   2.563   5.251   5.493  1.9453  1.2711  1.0399
  523SOL     vw 2092   2.537   5.333   5.480  0.2934  0.6161 -0.0391
  524SOL     ow 2093   1.938   5.417   1.645 -0.2574  0.5116 -0.3650
  524SOL     hw 2094   1.973   5.502   1.669  0.6818  0.8385 -2.6246
  524SOL     hw 2095   1.843   5.430   1.641 -0.2526  1.0253  0.6991
  524SOL     vw 2096   1.930   5.430   1.648 -0.1328  0.6225 -0.5227
  525SOL     ow 2097   7.071   3.083   0.503 -0.0258 -0.3835  0.5036
  525SOL     hw 2098   7.008   3.144   0.466 -1.7418 -1.2783  1.8416
  525SOL     hw 2099   7.144   3.083   0.440 -0.5039  2.0529 -0.1556
  525SOL     vw 2100   7.072   3.091   0.490 -0.3152 -0.1800  0.5931
  526SOL     ow 2101   4.604   0.116   2.250  0.2316 -0.0282 -0.3023
  526SOL     hw 2102   4.518   0.103   2.291  0.6872 -1.3779  0.2683
  526SOL     hw 2103   4.647   0.181   2.307  0.6200 -1.4188  1.0581
  526SOL     vw 2104   4.598   0.123   2.263  0.3428 -0.3897 -0.0474
  527SOL     ow 2105   2.748   1.666   2.460 -0.8484  0.4152  0.3710
  527SOL     hw 2106   2.759   1.583   2.413 -0.4394  1.1345 -0.8622
  527SOL     hw 2107   2.833   1.682   2.501  0.4628  2.0823 -2.6283
  527SOL     vw 2108   2.761   1.657   2.459 -0.6213  0.7300 -0.1873
  528SOL     ow 2109   6.182   6.402   3.857 -0.5343  0.0859  0.1031
  528SOL     hw 2110   6.093   6.416   3.889  0.2516  2.9689  1.3615
  528SOL     hw 2111   6.230   6.480   3.886  1.6584  0.1545 -3.2148
  528SOL     vw 2112   6.176   6.414   3.865 -0.1411  0.4752 -0.1687
  529SOL     ow 2113   1.700   5.982   2.652  0.6075 -0.0896  0.2661
  529SOL     hw 2114   1.618   5.940   2.676 -0.0332  0.9316 -0.0870
  529SOL     hw 2115   1.704   5.974   2.557  2.0661 -2.1661  0.4278
  529SOL     vw 2116   1.690   5.975   2.643  0.7154 -0.2286  0.2408
  530SOL     ow 2117   5.591   1.921   0.430  0.1143 -0.8809  0.1965
  530SOL     hw 2118   5.662   1.976   0.398 -1.3338  0.6863 -0.4763
  530SOL     hw 2119   5.600   1.922   0.525 -0.1139  0.9207  0.2341
  530SOL     vw 2120   5.602   1.928   0.438 -0.1070 -0.4364  0.1127
  531SOL     ow 2121   3.306   6.094   0.476  0.0417 -0.0390  0.6134
  531SOL     hw 2122   3.365   6.164   0.450  0.2161 -0.1641  0.6710
  531SOL     hw 2123   3.281   6.115   0.566  1.1528 -0.7541  1.1140
  531SOL     vw 2124   3.310   6.106   0.484  0.2114 -0.1497  0.6870
  532SOL     ow 2125   0.064   4.042   6.551 -0.0977  0.1033 -0.1067
  532SOL     hw 2126   0.095   4.100   6.621  1.8971 -0.4665 -0.4684
  532SOL     hw 2127   0.143   4.005   6.513 -0.9977  1.5266 -3.7144
  532SOL     vw 2128   0.078   4.045   6.555  0.0467  0.2160 -0.6304
  533SOL     ow 2129   1.120   0.459   2.546 -0.0037 -0.4802  0.0505
  533SOL     hw 2130   1.192   0.506   2.587  1.0740 -0.8145 -1.3688
  533SOL     hw 2131   1.145   0.452   2.454 -0.8904 -2.4073 -0.0925
  533SOL     vw 2132   1.133   0.465   2.539  0.0216 -0.7786 -0.1556
  534SOL     ow 2133   1.706   5.426   0.089  0.3402 -0.0241  0.0711
  534SOL     hw 2134   1.663   5.492   0.034  0.3781 -0.6456 -0.7290
  534SOL     hw 2135   1.783   5.470   0.123 -0.4891  0.8487  0.8648
  534SOL     vw 2136   1.711   5.440   0.086  0.2357  0.0091  0.0702
  535SOL     ow 2137   2.821   7.051   2.576 -0.2284 -0.0049  0.0866
  535SOL     hw 2138   2.781   7.122   2.627  0.7245  0.4766  0.1797
  535SOL     hw 2139   2.883   7.094   2.518 -2.1918 -0.3885 -2.4929
  535SOL     vw 2140   2.824   7.066   2.575 -0.3617  0.0081 -0.2415
  536SOL     ow 2141   0.839   5.096   1.099  0.4883 -0.2640  0.2978
  536SOL     hw 2142   0.803   5.182   1.080  0.2580 -0.0520  1.6378
  536SOL     hw 2143   0.805   5.073   1.185  0.8348 -1.5428  0.1239
  536SOL     vw 2144   0.830   5.104   1.108  0.5037 -0.4046  0.4516
  537SOL     ow 2145   1.372   3.795   3.086 -0.1640 -0.3889  0.1742
  537SOL     hw 2146   1.412   3.875   3.053 -0.6741  0.0189  0.5268
  537SOL     hw 2147   1.364   3.809   3.180 -1.1909 -0.4223  0.1066
  537SOL     vw 2148   1.376   3.807   3.094 -0.3667 -0.3394  0.2118
  538SOL     ow 2149   1.024   1.512   0.097  0.2662  0.6864 -0.3190
  538SOL     hw 2150   1.060   1.555   0.174 -0.1878 -0.9294  0.8375
  538SOL     hw 2151   1.028   1.419   0.117  1.0197  0.1647 -2.6575
  538SOL     vw 2152   1.029   1.506   0.110  0.3057  0.4044 -0.4750
  539SOL     ow 2153   3.380   4.817   1.970 -0.0825  0.7899 -0.3284
  539SOL     hw 2154   3.413   4.728   1.979  1.4343  1.3430 -0.1073
  539SOL     hw 2155   3.303   4.809   1.913 -0.0511 -0.6635 -0.1880
  539SOL     vw 2156   3.374   4.804   1.963  0.1217  0.6711 -0.2807
  540SOL     ow 2157   3.376   5.774   1.589  0.2861  0.6346 -0.1923
  540SOL     hw 2158   3.292   5.775   1.543 -0.1208 -1.5654  0.3855
  540SOL     hw 2159   3.367   5.703   1.653  0.5187  3.9713  3.9537
  540SOL     vw 2160   3.363   5.765   1.592  0.2631  0.7846  0.4309
  541SOL     ow 2161   4.819   6.232   5.040 -0.0475  0.2215  0.5667
  541SOL     hw 2162   4.809   6.327   5.048 -0.9065  0.1159  0.8855
  541SOL     hw 2163   4.901   6.220   4.993  0.0548  1.1239  0.5006
  541SOL     vw 2164   4.829   6.243   5.035 -0.1473  0.3269  0.6003
  542SOL     ow 2165   1.063   6.801   6.635 -0.2201 -0.6801  0.0143
  542SOL     hw 2166   1.033   6.854   6.561 -1.7490 -2.0457 -0.3844
  542SOL     hw 2167   1.151   6.772   6.609 -0.3533 -0.3580 -0.8436
  542SOL     vw 2168   1.071   6.804   6.622 -0.4394 -0.8180 -0.1514
  543SOL     ow 2169   6.443   5.265   6.454  0.0054 -0.2815  0.5891
  543SOL     hw 2170   6.433   5.289   6.546  1.9780 -0.5958  0.9464
  543SOL     hw 2171   6.490   5.181   6.456  0.7029  0.0474 -0.6761
  543SOL     vw 2172   6.448   5.257   6.466  0.3579 -0.2799  0.4692
  544SOL     ow 2173   5.177   3.645   5.524 -0.6126  0.6591  0.3872
  544SOL     hw 2174   5.248   3.700   5.559 -0.3524  0.5237  0.0713
  544SOL     hw 2175   5.169   3.574   5.587 -0.7833  0.9251  0.6696
  544SOL     vw 2176   5.185   3.643   5.537 -0.6006  0.6764  0.3829
  545SOL     ow 2177   4.393   4.040   6.922 -0.2770  0.2757 -0.0004
  545SOL     hw 2178   4.393   4.094   6.843 -1.3154  0.6750  0.2460
  545SOL     hw 2179   4.476   4.059   6.965  0.3625 -0.0675 -1.0755
  545SOL     vw 2180   4.404   4.050   6.917 -0.3300  0.2830 -0.1094
  546SOL     ow 2181   0.184   2.637   2.932 -0.0152 -0.2998 -0.7551
  546SOL     hw 2182   0.167   2.681   3.015 -0.9394  0.2726 -1.2196
  546SOL     hw 2183   0.237   2.561   2.954  2.5725  1.5762 -0.0114
  546SOL     vw 2184   0.189   2.633   2.946  0.2043  0.0232 -0.7181
  547SOL     ow 2185   5.395   6.592   2.310 -0.3054 -0.1897  0.4391
  547SOL     hw 2186   5.379   6.662   2.374 -2.9868 -0.8325  0.5800
  547SOL     hw 2187   5.323   6.599   2.248  0.6732 -1.4049 -0.9004
  547SOL     vw 2188   5.384   6.602   2.311 -0.5298 -0.4351  0.2810
  548SOL     ow 2189   3.750   6.326   4.055 -0.2744  0.1636  0.1831
  548SOL     hw 2190   3.794   6.282   3.983 -1.9126 -0.0042 -0.7487
  548SOL     hw 2191   3.792   6.412   4.060  0.9534 -0.4098  0.1195
  548SOL     vw 2192   3.761   6.331   4.046 -0.3285  0.0658  0.0517
  549SOL     ow 2193   7.026   3.135   2.260  0.7876 -0.0109  0.2597
  549SOL     hw 2194   7.098   3.164   2.315  0.0646 -0.3691  1.4288
  549SOL     hw 2195   6.984   3.216   2.230  0.8519  0.1788  0.6878
  549SOL     vw 2196   7.030   3.149   2.263  0.7010 -0.0330  0.4705
  550SOL     ow 2197   1.411   2.668   2.922 -0.3013 -0.1311 -0.3722
  550SOL     hw 2198   1.396   2.575   2.904 -0.7397  0.1191 -1.3643
  550SOL     hw 2199   1.398   2.711   2.838 -0.4081  0.8688  0.1409
  550SOL     vw 2200   1.407   2.662   2.909 -0.3732  0.0336 -0.4355
  551SOL     ow 2201   4.560   5.660   3.046  0.4565  0.1206  0.4167
  551SOL     hw 2202   4.633   5.612   3.085 -0.9138 -0.7544  2.0298
  551SOL     hw 2203   4.600   5.741   3.012  2.3714 -0.9395  0.0023
  551SOL     vw 2204   4.575   5.665   3.047  0.5281 -0.1342  0.5748
  552SOL     ow 2205   0.288   2.951   4.587  0.1236 -0.9396 -0.0596
  552SOL     hw 2206   0.234   3.000   4.649  3.1204  2.7990 -0.0895
  552SOL     hw 2207   0.378   2.967   4.615  1.5450 -1.0154 -3.9867
  552SOL     vw 2208   0.293   2.959   4.599  0.7065 -0.4563 -0.5820
  553SOL     ow 2209   3.696   6.798   0.188 -0.0246 -1.1353  0.3196
  553SOL     hw 2210   3.762   6.810   0.256 -1.9520 -1.3238  2.3463
  553SOL     hw 2211   3.704   6.706   0.162  1.2409 -0.8675 -0.3447
  553SOL     vw 2212   3.706   6.788   0.193 -0.1118 -1.1249  0.4994
  554SOL     ow 2213   4.004   6.849   3.389  0.5251  0.2093 -0.5440
  554SOL     hw 2214   3.923   6.853   3.337 -0.4404  0.2333  0.8928
  554SOL     hw 2215   3.995   6.920   3.453  0.0904 -1.8156  1.7961
  554SOL     vw 2216   3.992   6.859   3.391  0.3405 -0.0544 -0.0457
  555SOL     ow 2217   6.606   4.123   4.873  0.3357 -0.0348  1.0866
  555SOL     hw 2218   6.668   4.050   4.868  0.2784 -0.0673  0.8212
  555SOL     hw 2219   6.660   4.201   4.858  0.1015 -0.1582 -0.6960
  555SOL     vw 2220   6.621   4.124   4.870  0.2968 -0.0556  0.8163
  556SOL     ow 2221   6.969   6.521   0.756  0.4940 -0.0387  0.4935
  556SOL     hw 2222   6.966   6.466   0.835  0.2404  0.1060  0.5873
  556SOL     hw 2223   7.039   6.584   0.774  0.3424  0.0830  0.6642
  556SOL     vw 2224   6.978   6.522   0.769  0.4406 -0.0036  0.5285
  557SOL     ow 2225   0.089   0.817   6.352  0.0687 -0.3712  0.1704
  557SOL     hw 2226   0.020   0.835   6.415 -1.1874 -2.8593 -0.3665
  557SOL     hw 2227   0.163   0.787   6.405  1.0450  2.7074  0.7821
  557SOL     vw 2228   0.090   0.815   6.368  0.0318 -0.2933  0.1800
  558SOL     ow 2229   1.080   0.546   7.252  0.4000 -0.2664 -0.0556
  558SOL     hw 2230   1.136   0.564   7.328  1.6754 -3.3848 -0.1125
  558SOL     hw 2231   1.107   0.611   7.187  1.3820  0.5933  1.1575
  558SOL     vw 2232   1.091   0.557   7.253  0.6979 -0.5644  0.0973
  559SOL     ow 2233   6.441   4.907   1.287  0.3719 -0.3713 -0.4276
  559SOL     hw 2234   6.441   4.962   1.209  1.0467  1.6245  0.9064
  559SOL     hw 2235   6.474   4.822   1.256 -0.1329  0.1055 -2.4303
  559SOL     vw 2236   6.446   4.903   1.272  0.3943 -0.0451 -0.5158
  560SOL     ow 2237   1.912   5.537   5.570  0.2271 -0.3468 -0.1066
  560SOL     hw 2238   1.899   5.565   5.480  0.5674  0.2276  0.0161
  560SOL     hw 2239   1.864   5.455   5.577 -1.6777  0.7070 -0.1839
  560SOL     vw 2240   1.904   5.530   5.559  0.0207 -0.1316 -0.1001
  561SOL     ow 2241   0.174   0.074   2.624 -0.1379  0.3491  0.4050
  561SOL     hw 2242   0.210   0.036   2.704 -1.0752  0.9234  1.1175
  561SOL     hw 2243   0.243   0.132   2.592 -0.7258  2.1439  2.2471
  561SOL     vw 2244   0.188   0.076   2.630 -0.3391  0.6617  0.7422
  562SOL     ow 2245   0.686   3.486   3.023  0.7885  0.5451  0.1167
  562SOL     hw 2246   0.757   3.550   3.023  0.9952  0.5403 -3.3886
  562SOL     hw 2247   0.731   3.401   3.021  0.6247  0.4509  0.4254
  562SOL     vw 2248   0.702   3.483   3.023  0.7941  0.5322 -0.3051
  563SOL     ow 2249   0.672   5.321   1.052 -0.0424  0.4125 -0.1180
  563SOL     hw 2250   0.706   5.386   1.114 -0.8724  0.2849  0.4799
  563SOL     hw 2251   0.601   5.277   1.099 -1.5714  1.1835 -1.5895
  563SOL     vw 2252   0.667   5.324   1.066 -0.3536  0.4973 -0.2333
  564SOL     ow 2253   2.218   6.686   6.817  1.0673  0.0926 -0.3719
  564SOL     hw 2254   2.176   6.736   6.887  1.8958  0.5253 -0.1687
  564SOL     hw 2255   2.302   6.659   6.854  1.6995  0.6912 -1.3497
  564SOL     vw 2256   2.224   6.689   6.831  1.2602  0.2286 -0.4740
  565SOL     ow 2257   6.298   4.781   5.480 -0.2859 -0.2091 -0.1608
  565SOL     hw 2258   6.357   4.856   5.486  0.2277 -0.6546  0.6781
  565SOL     hw 2259   6.355   4.707   5.458 -0.2048 -0.9612  2.2664
  565SOL     vw 2260   6.314   4.781   5.478 -0.2077 -0.3674  0.2701
  566SOL     ow 2261   7.285   3.588   4.338  0.7774  0.6087 -0.1113
  566SOL     hw 2262   7.200   3.588   4.294  0.1343  4.1948  0.8645
  566SOL     hw 2263   7.338   3.650   4.288  2.0758  0.1285  0.6274
  566SOL     vw 2264   7.281   3.596   4.326  0.8638  1.0185  0.1149
  567SOL     ow 2265   7.149   3.525   4.634  0.1018 -0.0582  0.1623
  567SOL     hw 2266   7.165   3.430   4.635  0.4715  0.0043  0.2580
  567SOL     hw 2267   7.069   3.537   4.685 -3.4843 -0.9645 -4.4456
  567SOL     vw 2268   7.140   3.514   4.641 -0.3221 -0.1696 -0.4330
  568SOL     ow 2269   4.618   2.661   0.579  0.1653 -0.1817 -0.3899
  568SOL     hw 2270   4.643   2.655   0.671  1.8375 -1.4272 -0.8594
  568SOL     hw 2271   4.593   2.753   0.566 -0.5105 -0.0916  1.3765
  568SOL     vw 2272   4.618   2.672   0.589  0.2968 -0.3343 -0.2188
  569SOL     ow 2273   2.337   0.045   4.321 -0.3352  0.7074 -0.2141
  569SOL     hw 2274   2.420   0.081   4.353 -0.5019 -0.0934  1.1843
  569SOL     hw 2275   2.270   0.092   4.370 -0.8636  2.5678 -2.5256
  569SOL     vw 2276   2.339   0.056   4.332 -0.4270  0.8472 -0.3347
  570SOL     ow 2277   3.499   5.859   6.902  0.3104 -0.2277  0.5024
  570SOL     hw 2278   3.554   5.861   6.824  1.6723  2.4310  1.4077
  570SOL     hw 2279   3.409   5.870   6.869  0.1556 -4.4080 -0.9772
  570SOL     vw 2280   3.494   5.861   6.887  0.4696 -0.4284  0.4268
  571SOL     ow 2281   0.664   6.546   4.311  0.7651  0.0218  0.2536
  571SOL     hw 2282   0.756   6.527   4.325  1.4482  2.2677 -0.6634
  571SOL     hw 2283   0.627   6.554   4.399  1.6949  0.1778  0.6398
  571SOL     vw 2284   0.671   6.545   4.324  0.9779  0.3388  0.1836
  572SOL     ow 2285   3.942   6.977   1.888  0.7002 -0.0108 -0.2190
  572SOL     hw 2286   3.912   7.022   1.968 -1.0704  2.1742 -1.9780
  572SOL     hw 2287   3.883   6.902   1.880 -0.5156  0.9323 -0.4971
  572SOL     vw 2288   3.930   6.973   1.898  0.3061  0.4022 -0.4878
  573SOL     ow 2289   1.344   1.728   4.122  0.4633  0.1620  0.0887
  573SOL     hw 2290   1.286   1.676   4.067  1.2111  0.2007 -0.7686
  573SOL     hw 2291   1.335   1.691   4.210 -2.4855  1.5433  0.4576
  573SOL     vw 2292   1.335   1.716   4.126  0.1729  0.3493  0.0243
  574SOL     ow 2293   3.961   4.184   2.227 -0.5332 -0.4753 -0.3615
  574SOL     hw 2294   3.897   4.115   2.240 -2.2178  1.3464  1.7482
  574SOL     hw 2295   3.909   4.263   2.209  1.0365  1.0340  1.2122
  574SOL     vw 2296   3.946   4.186   2.226 -0.5484 -0.0358  0.1245
  575SOL     ow 2297   6.448   6.280   2.938  0.6568  0.5791  0.7784
  575SOL     hw 2298   6.358   6.275   2.968 -0.0234  1.1585 -1.0219
  575SOL     hw 2299   6.494   6.211   2.987 -0.9033 -0.2107  1.1945
  575SOL     vw 2300   6.442   6.270   2.949  0.3614  0.5515  0.5959
  576SOL     ow 2301   0.181   2.136   3.408 -0.1190  0.1613 -0.1787
  576SOL     hw 2302   0.130   2.198   3.461  0.6855  1.0542 -0.4083
  576SOL     hw 2303   0.205   2.186   3.329 -0.3641 -0.7924 -0.8740
  576SOL     vw 2304   0.178   2.151   3.404 -0.0452  0.1533 -0.3008
  577SOL     ow 2305   5.061   2.491   0.340  0.2779  0.7754  0.3150
  577SOL     hw 2306   4.995   2.453   0.398 -0.5263  1.3959 -0.1587
  577SOL     hw 2307   5.077   2.423   0.274  3.2727 -1.0722  2.7147
  577SOL     vw 2308   5.054   2.477   0.339  0.5667  0.6136  0.5691
  578SOL     ow 2309   5.872   6.956   4.419  0.0685 -0.0343  0.4138
  578SOL     hw 2310   5.893   6.863   4.431 -0.0946 -0.4691 -2.1343
  578SOL     hw 2311   5.896   6.974   4.329 -1.7520  1.9102  0.2504
  578SOL     vw 2312   5.878   6.946   4.409 -0.1931  0.1650  0.0560
  579SOL     ow 2313   4.882   3.206   2.018  0.5174 -0.1332 -0.6803
  579SOL     hw 2314   4.858   3.207   1.925  2.3533  0.5774 -1.1966
  579SOL     hw 2315   4.976   3.223   2.018  0.3905  0.8237  1.3703
  579SOL     vw 2316   4.892   3.208   2.006  0.7429  0.0869 -0.4779
  580SOL     ow 2317   4.164   2.382   0.543 -0.0046 -0.3039  0.4211
  580SOL     hw 2318   4.110   2.348   0.471 -0.5393 -1.2560  1.2471
  580SOL     hw 2319   4.112   2.367   0.621  1.1014 -0.4636  1.1535
  580SOL     vw 2320   4.150   2.375   0.543  0.0708 -0.4506  0.6268
  581SOL     ow 2321   5.200   4.456   5.367  0.2433  0.0653 -0.2400
  581SOL     hw 2322   5.216   4.375   5.319  0.6645 -0.1642  0.2750
  581SOL     hw 2323   5.115   4.441   5.410 -2.8702  2.1867 -4.8698
  581SOL     vw 2324   5.191   4.443   5.367 -0.1121  0.3150 -0.7830
  582SOL     ow 2325   0.549   3.915   5.594  0.2167  0.1550  0.1920
  582SOL     hw 2326   0.567   3.841   5.536  0.3780  0.4863 -0.1840
  582SOL     hw 2327   0.514   3.983   5.537 -2.5440 -0.5248  0.8935
  582SOL     vw 2328   0.546   3.914   5.579 -0.1262  0.1088  0.2348
  583SOL     ow 2329   0.763   1.547   1.026 -0.0134 -0.2883  0.8336
  583SOL     hw 2330   0.771   1.452   1.038  1.7746 -0.3816 -0.6317
  583SOL     hw 2331   0.852   1.580   1.038 -0.1290  0.8619 -1.0437
  583SOL     vw 2332   0.776   1.539   1.029  0.2073 -0.1489  0.3927
  584SOL     ow 2333   1.680   0.343   5.932  0.1674  0.0247  0.2647
  584SOL     hw 2334   1.668   0.315   5.841 -1.9471 -0.3767  0.6034
  584SOL     hw 2335   1.656   0.435   5.932  0.3361  0.0691  0.3901
  584SOL     vw 2336   1.675   0.351   5.920 -0.0893 -0.0224  0.3257
  585SOL     ow 2337   5.795   2.427   0.435 -0.2381  0.1868 -0.1273
  585SOL     hw 2338   5.813   2.333   0.439 -0.6540  0.0869 -0.4903
  585SOL     hw 2339   5.865   2.463   0.381  0.1225  0.1394  0.3059
  585SOL     vw 2340   5.807   2.419   0.428 -0.2451  0.1673 -0.1180
  586SOL     ow 2341   0.280   6.294   4.998 -0.0117  0.2317 -0.0087
  586SOL     hw 2342   0.361   6.329   4.961  0.3487  0.3304  0.8354
  586SOL     hw 2343   0.278   6.203   4.969 -0.1930  0.5389 -0.9895
  586SOL     vw 2344   0.291   6.287   4.990  0.0119  0.2851 -0.0267
  587SOL     ow 2345   2.520   1.578   3.595 -0.3960  0.2983 -0.1129
  587SOL     hw 2346   2.580   1.530   3.538  0.3864  1.5083 -0.3243
  587SOL     hw 2347   2.570   1.596   3.674 -1.0196 -0.1152  0.3867
  587SOL     vw 2348   2.534   1.574   3.597 -0.3750  0.4033 -0.0749
  588SOL     ow 2349   1.185   5.659   3.729  0.3852 -0.6750 -0.3414
  588SOL     hw 2350   1.239   5.606   3.671  1.7676  2.0698 -1.7565
  588SOL     hw 2351   1.246   5.720   3.771 -1.2544  0.7440  0.1169
  588SOL     vw 2352   1.200   5.660   3.727  0.3513 -0.1256 -0.4677
  589SOL     ow 2353   2.667   1.197   5.669 -0.4668 -0.0152  0.3624
  589SOL     hw 2354   2.743   1.220   5.721 -0.6006  1.2017  0.0489
  589SOL     hw 2355   2.684   1.237   5.583  0.1760 -2.7206 -0.8683
  589SOL     vw 2356   2.679   1.205   5.664 -0.3996 -0.2116  0.1588
  590SOL     ow 2357   2.820   2.425   6.199  0.4370  0.0678  0.4002
  590SOL     hw 2358   2.878   2.353   6.224  0.6372  0.5153  1.2340
  590SOL     hw 2359   2.861   2.462   6.120  0.9381 -0.0215  0.6179
  590SOL     vw 2360   2.833   2.421   6.192  0.5296  0.1150  0.5388
  591SOL     ow 2361   4.259   6.995   2.467  0.1071  0.3974  0.0934
  591SOL     hw 2362   4.247   6.901   2.483  1.9209  0.2198  0.5612
  591SOL     hw 2363   4.186   7.037   2.513  1.9790 -0.4721  4.2914
  591SOL     vw 2364   4.248   6.988   2.475  0.5932  0.2592  0.7091
  592SOL     ow 2365   5.998   2.776   1.274 -0.4511 -0.0837 -0.4162
  592SOL     hw 2366   6.021   2.865   1.249 -0.7753  0.0096 -0.3899
  592SOL     hw 2367   5.994   2.728   1.192  0.5263 -0.2697 -0.3624
  592SOL     vw 2368   6.000   2.782   1.260 -0.3648 -0.0958 -0.4056
  593SOL     ow 2369   4.592   1.378   3.872  0.1655  0.5386  0.4846
  593SOL     hw 2370   4.565   1.315   3.939 -0.3036 -1.1997 -1.2492
  593SOL     hw 2371   4.512   1.394   3.821  0.9294  0.3066 -0.8237
  593SOL     vw 2372   4.578   1.372   3.875  0.2043  0.2786  0.0832
  594SOL     ow 2373   1.817   4.392   1.414 -0.4077  0.0502 -0.3636
  594SOL     hw 2374   1.752   4.389   1.344  1.1008 -1.3010 -1.7788
  594SOL     hw 2375   1.769   4.365   1.493 -2.1785  1.7918 -0.7764
  594SOL     vw 2376   1.802   4.388   1.415 -0.4422  0.1018 -0.6048
  595SOL     ow 2377   3.001   1.608   4.691  0.6356  0.1145  0.3336
  595SOL     hw 2378   2.932   1.548   4.718  1.2033  0.2218  2.1536
  595SOL     hw 2379   3.082   1.558   4.701  1.0442  0.8879  1.0308
  595SOL     vw 2380   3.003   1.593   4.696  0.7645  0.2307  0.6657
  596SOL     ow 2381   3.367   4.488   3.152  0.3833  0.5551 -0.8990
  596SOL     hw 2382   3.327   4.511   3.236  0.5977 -2.0797  0.0072
  596SOL     hw 2383   3.450   4.536   3.151 -0.8249  2.7686 -0.9183
  596SOL     vw 2384   3.373   4.497   3.163  0.2522  0.4995 -0.7819
  597SOL     ow 2385   6.601   1.646   3.144  0.3482 -0.5203  0.4293
  597SOL     hw 2386   6.582   1.634   3.051  1.9519  0.6792 -0.0947
  597SOL     hw 2387   6.626   1.559   3.175  0.3440 -0.8224 -0.4003
  597SOL     vw 2388   6.602   1.633   3.136  0.5591 -0.4019  0.2507
  598SOL     ow 2389   0.425   6.196   0.995 -0.0924  0.4329 -0.5702
  598SOL     hw 2390   0.390   6.160   1.077 -1.2085 -0.1574 -1.2816
  598SOL     hw 2391   0.518   6.213   1.014  0.8516 -3.7398 -0.3923
  598SOL     vw 2392   0.433   6.194   1.008 -0.1151 -0.1953 -0.6406
  599SOL     ow 2393   2.885   3.522   5.633 -0.3862  0.2851  0.5326
  599SOL     hw 2394   2.848   3.434   5.623 -0.5525  0.5092 -1.0346
  599SOL     hw 2395   2.979   3.510   5.621 -0.5406  0.4902 -0.9930
  599SOL     vw 2396   2.892   3.509   5.630 -0.4286  0.3418  0.1247
  600SOL     ow 2397   5.089   0.484   5.741 -0.5344  0.0015  0.0585
  600SOL     hw 2398   5.052   0.400   5.712  0.5258 -1.1323  1.7420
  600SOL     hw 2399   5.073   0.485   5.836 -0.3846  1.6608  0.0972
  600SOL     vw 2400   5.082   0.473   5.750 -0.3748  0.0708  0.2856
  601SOL     ow 2401   5.903   3.843   3.160  0.5207  0.5253  0.3950
  601SOL     hw 2402   5.948   3.864   3.241  0.3751 -0.0147  0.6179
  601SOL     hw 2403   5.943   3.901   3.095  1.9994 -0.3894  0.4448
  601SOL     vw 2404   5.914   3.854   3.162  0.6967  0.3332  0.4311
  602SOL     ow 2405   2.725   1.647   3.769  0.8463  0.3204  0.1344
  602SOL     hw 2406   2.740   1.723   3.711 -1.4727  0.3207 -0.5793
  602SOL     hw 2407   2.805   1.641   3.822  2.2161  1.5939 -1.6437
  602SOL     vw 2408   2.738   1.657   3.768  0.7212  0.4885 -0.1944
  603SOL     ow 2409   3.044   3.122   5.589 -0.2262 -0.0757  0.0189
  603SOL     hw 2410   3.076   3.032   5.581  0.2786  0.0303  0.7350
  603SOL     hw 2411   2.955   3.113   5.624 -0.6557 -0.3312 -1.0682
  603SOL     vw 2412   3.036   3.108   5.593 -0.2162 -0.0955 -0.0303
  604SOL     ow 2413   1.907   5.963   2.898  0.3344  0.7362  0.4137
  604SOL     hw 2414   1.996   5.983   2.927 -0.1030  3.0980  0.3376
  604SOL     hw 2415   1.879   5.892   2.956  2.5237 -0.6469 -0.1223
  604SOL     vw 2416   1.915   5.956   2.910  0.5655  0.8652  0.3328
  605SOL     ow 2417   6.757   3.452   6.772  0.4793 -0.5044  0.4005
  605SOL     hw 2418   6.820   3.380   6.774  0.9724 -0.1600 -1.1766
  605SOL     hw 2419   6.684   3.422   6.826  1.3053 -1.5741  0.9469
  605SOL     vw 2420   6.756   3.439   6.779  0.6533 -0.6000  0.2642
  606SOL     ow 2421   5.279   4.048   1.139  0.0797  0.5269 -0.0929
  606SOL     hw 2422   5.300   3.999   1.060  0.5668 -0.6432  0.7172
  606SOL     hw 2423   5.345   4.020   1.203 -1.3929  0.0124  1.2778
  606SOL     vw 2424   5.291   4.038   1.137 -0.0503  0.3047  0.1948
  607SOL     ow 2425   3.647   1.439   3.160  0.6272  0.0125  0.4654
  607SOL     hw 2426   3.607   1.353   3.151 -1.2089  1.0131 -1.8574
  607SOL     hw 2427   3.619   1.471   3.246  0.1217 -1.1202  0.7283
  607SOL     vw 2428   3.638   1.432   3.170  0.3183 -0.0049  0.1935
  608SOL     ow 2429   1.094   6.171   3.207 -0.5964  0.1690  0.1936
  608SOL     hw 2430   1.082   6.111   3.133  0.3014  0.7880 -0.4766
  608SOL     hw 2431   1.154   6.125   3.265  1.5663  1.0966 -1.1841
  608SOL     vw 2432   1.100   6.157   3.205 -0.1926  0.3731 -0.0767
  609SOL     ow 2433   3.416   0.816   7.113  0.2901 -0.1197 -0.3454
  609SOL     hw 2434   3.448   0.752   7.177 -1.2041  0.2465  0.8227
  609SOL     hw 2435   3.435   0.777   7.028 -0.6785 -2.1995  0.3247
  609SOL     vw 2436   3.423   0.803   7.110 -0.0349 -0.3458 -0.1028
  610SOL     ow 2437   4.387   2.270   0.380  0.4628 -0.0765  0.2642
  610SOL     hw 2438   4.340   2.189   0.361 -2.1147  1.7546 -1.9867
  610SOL     hw 2439   4.398   2.313   0.295 -0.7436  3.1604  1.5596
  610SOL     vw 2440   4.382   2.265   0.367 -0.0365  0.5922  0.1381
  611SOL     ow 2441   0.399   5.846   2.498 -0.2914 -0.5849  0.0454
  611SOL     hw 2442   0.464   5.807   2.441 -0.2249  0.8423 -0.9201
  611SOL     hw 2443   0.384   5.933   2.461  0.2821  0.7158  2.6100
  611SOL     vw 2444   0.405   5.852   2.486 -0.2070 -0.2248  0.2563
  612SOL     ow 2445   6.421   5.038   5.490  0.4243 -0.0406  0.0688
  612SOL     hw 2446   6.423   5.087   5.407 -1.1953  0.2782  0.1775
  612SOL     hw 2447   6.388   5.101   5.554 -1.2714 -1.0893  0.3012
  612SOL     vw 2448   6.417   5.053   5.487 -0.0131 -0.1371  0.1137
  613SOL     ow 2449   5.409   1.226   2.685 -0.1636  0.4273 -0.6080
  613SOL     hw 2450   5.318   1.198   2.701 -0.1007  0.8418  0.5247
  613SOL     hw 2451   5.456   1.202   2.764  0.3028  2.0149 -0.3737
  613SOL     vw 2452   5.403   1.219   2.697 -0.0937  0.6914 -0.4275
  614SOL     ow 2453   2.568   6.737   2.293 -0.4917  0.3102 -0.3126
  614SOL     hw 2454   2.521   6.671   2.344 -0.6040 -0.6171 -1.5734
  614SOL     hw 2455   2.601   6.689   2.217 -1.5664  1.9295 -1.8656
  614SOL     vw 2456   2.566   6.722   2.290 -0.6483  0.4015 -0.6838
  615SOL     ow 2457   4.320   3.118   6.389  0.6619  0.4823 -0.1339
  615SOL     hw 2458   4.338   3.031   6.422  0.7486 -0.0158 -1.4363
  615SOL     hw 2459   4.393   3.138   6.331 -0.8068  0.1313 -2.2458
  615SOL     vw 2460   4.332   3.109   6.386  0.4795  0.3703 -0.5844
  616SOL     ow 2461   4.541   0.924   4.559  0.2959 -0.0546  0.4577
  616SOL     hw 2462   4.521   0.831   4.557  0.0542 -0.0147  1.0465
  616SOL     hw 2463   4.463   0.965   4.596  0.1315  0.4567 -0.4176
  616SOL     vw 2464   4.528   0.917   4.563  0.2422  0.0181  0.4194
  617SOL     ow 2465   1.024   2.698   0.293 -0.3606  0.5018  0.5636
  617SOL     hw 2466   1.118   2.695   0.276 -0.0435  1.0360  2.0068
  617SOL     hw 2467   0.996   2.783   0.260 -0.9660 -0.7740 -2.4951
  617SOL     vw 2468   1.032   2.709   0.287 -0.3986  0.4040  0.3504
  618SOL     ow 2469   5.217   5.931   2.353 -0.1857  0.0831  0.1857
  618SOL     hw 2470   5.258   6.017   2.360  2.5839 -1.0826 -0.1905
  618SOL     hw 2471   5.265   5.887   2.283 -1.0153 -2.0236  0.8433
  618SOL     vw 2472   5.229   5.936   2.345  0.0701 -0.3488  0.2228
  619SOL     ow 2473   2.100   7.084   1.885 -0.2012 -0.0874  0.2549
  619SOL     hw 2474   2.188   7.081   1.923  1.0411 -0.1883 -2.4046
  619SOL     hw 2475   2.101   7.018   1.817 -2.7005 -0.7244  0.7357
  619SOL     vw 2476   2.112   7.075   1.881 -0.3670 -0.1848 -0.0327
  620SOL     ow 2477   6.891   2.496   4.701 -0.2726 -0.1214  0.3280
  620SOL     hw 2478   6.969   2.441   4.712 -0.0957  0.0566 -0.0141
  620SOL     hw 2479   6.882   2.542   4.784  0.4058  0.3892  0.1290
  620SOL     vw 2480   6.900   2.495   4.713 -0.1597 -0.0305  0.2565
  621SOL     ow 2481   6.555   6.934   3.877 -0.5895 -0.2108 -0.0202
  621SOL     hw 2482   6.493   6.892   3.938  0.0782 -1.2351 -0.0091
  621SOL     hw 2483   6.571   7.020   3.914  0.1812 -0.9881  1.5686
  621SOL     vw 2484   6.549   6.940   3.890 -0.3998 -0.4485  0.1909
  622SOL     ow 2485   0.869   2.652   6.878  0.1702 -0.1324 -0.0833
  622SOL     hw 2486   0.887   2.731   6.928 -0.7518  1.0985 -1.5852
  622SOL     hw 2487   0.776   2.659   6.856  0.0488 -1.7129 -0.1346
  622SOL     vw 2488   0.859   2.664   6.882  0.0325 -0.1786 -0.2882
  623SOL     ow 2489   6.217   0.063   4.918 -0.1570 -0.3215  0.3822
  623SOL     hw 2490   6.166   0.140   4.944 -0.6691 -1.3294  2.6080
  623SOL     hw 2491   6.281   0.096   4.856 -2.6783  1.2371 -1.5825
  623SOL     vw 2492   6.219   0.077   4.913 -0.5574 -0.2488  0.4168
  624SOL     ow 2493   6.277   5.060   1.417  0.2121 -0.7120 -0.1881
  624SOL     hw 2494   6.336   5.006   1.364  0.9541 -0.1577  0.0585
  624SOL     hw 2495   6.294   5.033   1.507  2.5131  1.6573  0.2225
  624SOL     vw 2496   6.287   5.049   1.422  0.6137 -0.3264 -0.1013
  625SOL     ow 2497   0.463   2.920   5.024  0.3144 -0.5912  0.3079
  625SOL     hw 2498   0.503   3.001   5.056  0.0571 -1.1216  2.0937
  625SOL     hw 2499   0.533   2.874   4.979  0.7204  0.1762  0.1506
  625SOL     vw 2500   0.477   2.925   5.022  0.3341 -0.5598  0.5229
  626SOL     ow 2501   0.381   1.253   2.755  0.3091  0.7560 -0.2479
  626SOL     hw 2502   0.289   1.278   2.763 -0.0885 -0.7939  0.5023
  626SOL     hw 2503   0.425   1.301   2.825 -0.6969 -1.6208  2.2111
  626SOL     vw 2504   0.375   1.262   2.765  0.1239  0.2379  0.1755
  627SOL     ow 2505   6.764   1.559   0.916 -0.5177 -0.4420 -0.1148
  627SOL     hw 2506   6.849   1.522   0.894 -0.1295 -1.3682  2.5169
  627SOL     hw 2507   6.700   1.498   0.881 -0.2663  1.0149 -3.4332
  627SOL     vw 2508   6.767   1.546   0.909 -0.4334 -0.3720 -0.2054
  628SOL     ow 2509   6.751   0.640   4.206 -0.1772  0.4351 -0.1911
  628SOL     hw 2510   6.684   0.618   4.141 -1.3045  0.0270  1.0846
  628SOL     hw 2511   6.719   0.604   4.288  2.0392 -0.5505  0.3219
  628SOL     vw 2512   6.738   0.633   4.208 -0.0331  0.2512  0.0448
  629SOL     ow 2513   0.448   3.178   1.873  0.6125  0.1458  0.4336
  629SOL     hw 2514   0.461   3.102   1.816  5.7787  1.2106 -0.3209
  629SOL     hw 2515   0.476   3.147   1.960  3.0642  1.1003  0.0561
  629SOL     vw 2516   0.453   3.164   1.877  1.6176  0.4122  0.2841
  630SOL     ow 2517   2.531   5.065   5.384  0.3703 -0.3838 -0.0415
  630SOL     hw 2518   2.582   5.139   5.350 -0.4010 -0.3781 -1.2459
  630SOL     hw 2519   2.597   5.006   5.421  0.8796  1.7640  2.8326
  630SOL     vw 2520   2.547   5.067   5.384  0.3357 -0.0997  0.1791
  631SOL     ow 2521   4.134   4.377   1.762 -0.2648  0.3395 -0.2919
  631SOL     hw 2522   4.103   4.468   1.766 -0.7267  0.1755 -0.0362
  631SOL     hw 2523   4.149   4.353   1.854 -1.1081 -0.1662 -0.2800
  631SOL     vw 2524   4.132   4.386   1.775 -0.4370  0.2511 -0.2565
  632SOL     ow 2525   2.860   5.860   6.083 -0.0961  0.4377 -0.1212
  632SOL     hw 2526   2.827   5.898   6.165  1.1509  0.8677  0.2003
  632SOL     hw 2527   2.888   5.936   6.032 -2.4328  0.3492 -1.7242
  632SOL     vw 2528   2.859   5.875   6.087 -0.2400  0.4828 -0.2902
  633SOL     ow 2529   6.874   3.066   0.761  0.4747  0.5477 -0.6352
  633SOL     hw 2530   6.872   3.068   0.857 -2.7347 -0.2691 -0.5566
  633SOL     hw 2531   6.812   2.996   0.738  2.7335 -0.7560 -3.3357
  633SOL     vw 2532   6.865   3.057   0.771  0.3490  0.2679 -0.9811
  634SOL     ow 2533   2.308   6.242   0.595 -0.0095 -0.5748  0.3145
  634SOL     hw 2534   2.259   6.221   0.515  0.3978 -2.4224  0.5009
  634SOL     hw 2535   2.374   6.305   0.567 -1.8125  1.2156 -0.1430
  634SOL     vw 2536   2.310   6.247   0.581 -0.1937 -0.5825  0.2788
  635SOL     ow 2537   3.108   1.763   4.906  0.2721 -0.0014 -0.1026
  635SOL     hw 2538   3.154   1.687   4.941  0.6074 -0.4472 -1.4435
  635SOL     hw 2539   3.132   1.835   4.965  0.6511 -0.7399  0.6722
  635SOL     vw 2540   3.117   1.762   4.919  0.3663 -0.1575 -0.1774
  636SOL     ow 2541   5.300   6.221   2.565  0.0315  0.1664 -0.3594
  636SOL     hw 2542   5.352   6.302   2.568 -1.1344  0.9089  0.9182
  636SOL     hw 2543   5.288   6.197   2.656  1.0410 -1.9554 -0.7396
  636SOL     vw 2544   5.305   6.229   2.577  0.0107 -0.0155 -0.2410
  637SOL     ow 2545   0.541   2.746   4.668  0.1713  0.1987  0.6556
  637SOL     hw 2546   0.598   2.771   4.596 -1.4485  0.0383 -0.7323
  637SOL     hw 2547   0.601   2.723   4.739  1.9919 -2.4737 -1.5247
  637SOL     vw 2548   0.556   2.746   4.668  0.1978 -0.1750  0.1848
  638SOL     ow 2549   2.033   4.949   7.075  0.2399  0.3285 -0.1015
  638SOL     hw 2550   2.068   4.916   6.992 -0.3577  1.0342 -0.6468
  638SOL     hw 2551   2.072   5.036   7.085  0.7544  0.0218  0.6505
  638SOL     vw 2552   2.043   4.956   7.065  0.2290  0.3810 -0.0739
  639SOL     ow 2553   4.745   1.945   0.988  0.1972  0.2196 -0.5773
  639SOL     hw 2554   4.827   1.896   0.981 -0.0639 -0.0190 -2.2298
  639SOL     hw 2555   4.766   2.033   0.958  0.4973  0.9982  1.7393
  639SOL     vw 2556   4.758   1.950   0.983  0.2022  0.2908 -0.4897
  640SOL     ow 2557   2.036   4.561   2.270 -0.6649 -0.7487  0.0409
  640SOL     hw 2558   2.025   4.647   2.229  3.7135  0.3640  0.7037
  640SOL     hw 2559   2.064   4.503   2.199 -0.1782 -0.6971  0.1875
  640SOL     vw 2560   2.038   4.565   2.255 -0.0229 -0.5951  0.1476
  641SOL     ow 2561   1.066   6.707   4.850  0.2338 -0.1523  0.1907
  641SOL     hw 2562   1.048   6.752   4.767  1.5249  2.1852  1.0868
  641SOL     hw 2563   0.997   6.641   4.857 -1.4115  1.2698 -1.5377
  641SOL     vw 2564   1.055   6.704   4.840  0.1870  0.3440  0.0808
  642SOL     ow 2565   0.151   0.960   2.170  0.0313  0.4377 -0.0249
  642SOL     hw 2566   0.078   0.972   2.110  0.4669  1.8932 -0.3068
  642SOL     hw 2567   0.169   0.866   2.168 -2.9217 -0.2614  1.3648
  642SOL     vw 2568   0.144   0.949   2.162 -0.3009  0.5375  0.1212
  643SOL     ow 2569   3.973   2.521   1.557 -0.6572  0.4818  0.0712
  643SOL     hw 2570   3.975   2.443   1.501 -0.3801  0.8444 -0.4320
  643SOL     hw 2571   3.883   2.554   1.550 -0.6558  0.4574 -0.0723
  643SOL     vw 2572   3.961   2.515   1.549 -0.6206  0.5263 -0.0141
  644SOL     ow 2573   3.708   3.942   5.609  0.2062 -0.2242 -0.9220
  644SOL     hw 2574   3.639   3.904   5.556 -0.5457 -1.2561  0.7135
  644SOL     hw 2575   3.744   4.013   5.555 -1.4569 -0.2963 -2.1950
  644SOL     vw 2576   3.704   3.947   5.595 -0.1125 -0.3699 -0.8743
  645SOL     ow 2577   3.540   3.594   3.997 -0.4127 -0.0438  0.0483
  645SOL     hw 2578   3.561   3.630   3.910 -0.4122 -0.2581 -0.0419
  645SOL     hw 2579   3.601   3.638   4.056 -1.5038  1.3523  0.2034
  645SOL     vw 2580   3.551   3.605   3.993 -0.5566  0.1122  0.0569
  646SOL     ow 2581   6.771   1.228   5.412  0.1887 -0.6115  0.0157
  646SOL     hw 2582   6.859   1.194   5.395  1.4939  1.8462  1.3291
  646SOL     hw 2583   6.780   1.281   5.491 -2.6041 -0.6134  0.4422
  646SOL     vw 2584   6.783   1.231   5.420 -0.0079 -0.2875  0.2451
  647SOL     ow 2585   0.641   0.848   2.653  0.5436  0.4980 -0.4562
  647SOL     hw 2586   0.732   0.820   2.650  1.0285  2.1332 -2.5876
  647SOL     hw 2587   0.591   0.769   2.631  1.5036 -0.1428 -0.3672
  647SOL     vw 2588   0.646   0.834   2.650  0.7342  0.6292 -0.7257
  648SOL     ow 2589   5.425   5.360   2.875  0.1691  0.2392 -0.1188
  648SOL     hw 2590   5.513   5.391   2.852 -0.8528  4.0399  0.3727
  648SOL     hw 2591   5.437   5.316   2.959  1.6696  0.1387 -0.3467
  648SOL     vw 2592   5.438   5.358   2.883  0.2320  0.7274 -0.0840
  649SOL     ow 2593   3.006   2.692   5.013  0.1289 -0.0911  0.1858
  649SOL     hw 2594   2.940   2.625   4.997  0.5413 -0.3682 -0.3922
  649SOL     hw 2595   3.044   2.710   4.927 -1.3319  2.3443 -0.0681
  649SOL     vw 2596   3.002   2.686   5.000 -0.0094  0.1937  0.0758
  650SOL     ow 2597   7.195   4.948   0.098  0.2651  0.3151 -0.7659
  650SOL     hw 2598   7.146   4.979   0.174  2.9106  1.9099  0.4316
  650SOL     hw 2599   7.273   4.905   0.135  1.5710  1.0498 -2.5233
  650SOL     vw 2600   7.199   4.946   0.113  0.7863  0.6223 -0.8398
  651SOL     ow 2601   0.503   1.178   2.533 -0.0347 -0.5691  0.5207
  651SOL     hw 2602   0.470   1.208   2.617 -1.9994  1.4258 -0.8403
  651SOL     hw 2603   0.582   1.229   2.518  0.9269 -1.6925  1.5591
  651SOL     vw 2604   0.509   1.189   2.542 -0.1670 -0.4542  0.4780
  652SOL     ow 2605   3.651   1.919   2.609 -0.3435  0.0055  0.2225
  652SOL     hw 2606   3.688   1.972   2.680 -1.0992 -0.0377  0.6633
  652SOL     hw 2607   3.565   1.958   2.593  0.3985  0.9576 -1.7202
  652SOL     vw 2608   3.644   1.931   2.617 -0.3453  0.1254  0.0243
  653SOL     ow 2609   3.164   4.911   2.670  0.1813 -0.3584 -0.2795
  653SOL     hw 2610   3.083   4.938   2.713  0.3684 -1.4342  0.7831
  653SOL     hw 2611   3.136   4.867   2.591 -0.2174  0.4062 -0.5753
  653SOL     vw 2612   3.150   4.909   2.666  0.1534 -0.3991 -0.1783
  654SOL     ow 2613   0.030   3.852   6.001  0.7347 -0.2192  0.2271
  654SOL     hw 2614   0.079   3.795   5.942  1.5319 -1.4900  2.0203
  654SOL     hw 2615  -0.052   3.870   5.955  1.0803 -1.6100 -0.9990
  654SOL     vw 2616   0.026   3.847   5.987  0.8857 -0.5705  0.3021
  655SOL     ow 2617   3.546   0.100   5.282 -0.3130  0.1893 -1.2802
  655SOL     hw 2618   3.513   0.104   5.372 -1.6335 -0.8921 -1.6697
  655SOL     hw 2619   3.591   0.183   5.268 -1.0096  0.8075  0.0329
  655SOL     vw 2620   3.547   0.111   5.292 -0.5792  0.1282 -1.1582
  656SOL     ow 2621   3.882   1.107   3.762  0.1527 -0.2946 -0.9225
  656SOL     hw 2622   3.850   1.027   3.802  1.9318  0.3893  2.2582
  656SOL     hw 2623   3.966   1.083   3.722  0.6858 -0.0799  0.0307
  656SOL     vw 2624   3.889   1.094   3.762  0.4578 -0.1760 -0.3771
  657SOL     ow 2625   7.060   7.263   6.894 -0.1943  0.6333  0.5822
  657SOL     hw 2626   7.080   7.179   6.937  1.5141  0.1576 -1.0051
  657SOL     hw 2627   6.992   7.302   6.948 -2.1262 -2.4388  0.5939
  657SOL     vw 2628   7.054   7.257   6.907 -0.2236  0.1652  0.3743
  658SOL     ow 2629   4.356   6.537   4.673 -0.1034 -0.1473  0.0659
  658SOL     hw 2630   4.282   6.591   4.645  1.0428  1.5324  0.1716
  658SOL     hw 2631   4.425   6.556   4.610  0.1199 -2.0630 -0.3107
  658SOL     vw 2632   4.355   6.547   4.661  0.0772 -0.1788  0.0303
  659SOL     ow 2633   7.268   3.798   6.605  0.3762  0.0456 -0.3380
  659SOL     hw 2634   7.297   3.887   6.587  1.4298 -0.2563 -0.2127
  659SOL     hw 2635   7.185   3.808   6.651  0.8317  0.9755  0.2998
  659SOL     vw 2636   7.261   3.811   6.608  0.5753  0.1284 -0.2375
  660SOL     ow 2637   4.454   6.985   1.321 -0.1393  0.1615  0.3675
  660SOL     hw 2638   4.364   6.951   1.322  0.1421 -0.6468  1.9718
  660SOL     hw 2639   4.444   7.079   1.305 -1.5570  0.6845  3.5322
  660SOL     vw 2640   4.441   6.993   1.319 -0.2892  0.1240  0.9966
  661SOL     ow 2641   6.649   6.921   1.348 -0.0012  0.3399  0.3267
  661SOL     hw 2642   6.700   6.977   1.289 -2.2567  0.7027 -1.4425
  661SOL     hw 2643   6.702   6.915   1.428  2.0279  1.9147 -0.7989
  661SOL     vw 2644   6.663   6.928   1.351 -0.0310  0.5956 -0.0553
  662SOL     ow 2645   1.505   1.727   0.484  0.0573 -0.7970  0.5517
  662SOL     hw 2646   1.521   1.793   0.553 -1.3692 -1.2708  1.3926
  662SOL     hw 2647   1.456   1.775   0.418 -0.2866 -0.8120  0.7921
  662SOL     vw 2648   1.501   1.742   0.485 -0.1762 -0.8615  0.6944
  663SOL     ow 2649   3.722   3.361   1.943  0.0230 -0.7875  0.5907
  663SOL     hw 2650   3.777   3.327   1.872  0.7696  0.6084  0.4675
  663SOL     hw 2651   3.663   3.289   1.964  0.2324 -1.4599 -0.9905
  663SOL     vw 2652   3.722   3.347   1.936  0.1491 -0.6920  0.3659
  664SOL     ow 2653   0.969   6.874   4.204 -0.2375 -0.0902  0.3494
  664SOL     hw 2654   0.880   6.856   4.235 -1.0824 -1.0078 -2.2926
  664SOL     hw 2655   0.995   6.794   4.157  0.5188  1.3973 -1.9746
  664SOL     vw 2656   0.961   6.861   4.202 -0.2491 -0.0153 -0.3059
  665SOL     ow 2657   2.629   3.932   3.366 -0.1424 -0.3384 -0.2444
  665SOL     hw 2658   2.698   3.938   3.300  0.6520  1.2632  0.6553
  665SOL     hw 2659   2.641   3.845   3.405 -2.2404 -2.4066 -3.7696
  665SOL     vw 2660   2.640   3.921   3.363 -0.3145 -0.4001 -0.5908
  666SOL     ow 2661   1.177   2.475   4.871 -0.0927  0.4820  0.1914
  666SOL     hw 2662   1.123   2.520   4.807  0.0678 -1.8191 -1.7098
  666SOL     hw 2663   1.238   2.541   4.903 -0.5335  1.8296 -1.6344
  666SOL     vw 2664   1.178   2.490   4.867 -0.1296  0.3563 -0.3004
  667SOL     ow 2665   2.362   2.871   4.993 -0.6704  0.2837 -0.3195
  667SOL     hw 2666   2.375   2.964   4.974 -1.3057  0.6731  1.0294
  667SOL     hw 2667   2.379   2.827   4.910  1.0164  1.4655 -0.6680
  667SOL     vw 2668   2.366   2.877   4.980 -0.5318  0.4909 -0.1876
  668SOL     ow 2669   3.290   2.504   1.787  0.4858 -0.5210 -0.1033
  668SOL     hw 2670   3.375   2.468   1.812  0.8448  1.2238  1.4897
  668SOL     hw 2671   3.227   2.434   1.806  1.3352 -1.0088  1.0577
  668SOL     vw 2672   3.293   2.490   1.793  0.6452 -0.3551  0.2601
  669SOL     ow 2673   4.117   7.275   3.752  0.1620 -0.1862 -0.2625
  669SOL     hw 2674   4.054   7.290   3.822 -0.3919 -1.1865 -0.5326
  669SOL     hw 2675   4.202   7.299   3.791 -0.1409 -0.6722  0.7399
  669SOL     vw 2676   4.120   7.280   3.766  0.0489 -0.3827 -0.1659
  670SOL     ow 2677   2.801   5.351   1.399 -1.3759 -0.3892  0.6179
  670SOL     hw 2678   2.792   5.297   1.477 -2.5764 -1.4145 -0.1852
  670SOL     hw 2679   2.719   5.338   1.351 -0.3038 -0.5470 -1.2637
  670SOL     vw 2680   2.789   5.342   1.403 -1.3928 -0.5455  0.2636
  671SOL     ow 2681   2.513   4.010   2.092 -0.2208  0.1040 -0.5161
  671SOL     hw 2682   2.583   4.054   2.043 -0.1155  2.0355  1.2065
  671SOL     hw 2683   2.432   4.047   2.056 -0.3393 -1.1023 -1.5628
  671SOL     vw 2684   2.512   4.021   2.081 -0.2226  0.2000 -0.4271
  672SOL     ow 2685   1.146   4.640   4.015 -0.3224 -0.6501 -0.3791
  672SOL     hw 2686   1.239   4.636   4.039 -0.3893 -0.0584 -0.0033
  672SOL     hw 2687   1.106   4.567   4.062 -0.8357  1.6530  3.1374
  672SOL     vw 2688   1.153   4.630   4.024 -0.3989 -0.2682  0.1345
  673SOL     ow 2689   1.793   3.508   3.758  0.4029 -0.1677  0.0869
  673SOL     hw 2690   1.852   3.536   3.829  0.0852  2.4270 -0.5699
  673SOL     hw 2691   1.840   3.531   3.678 -0.5535 -0.1280 -0.4727
  673SOL     vw 2692   1.807   3.515   3.757  0.2348  0.1799 -0.0737
  674SOL     ow 2693   1.222   0.093   5.533  0.6143 -0.5864 -0.3710
  674SOL     hw 2694   1.134   0.068   5.503  0.0314  0.5884  0.2870
  674SOL     hw 2695   1.276   0.088   5.454 -0.9069  2.6644 -1.8270
  674SOL     vw 2696   1.217   0.089   5.518  0.3367 -0.0025 -0.4764
  675SOL     ow 2697   6.148   6.010   4.805 -0.1126  0.0187  0.2830
  675SOL     hw 2698   6.074   5.949   4.812  0.0787 -0.0473  2.3159
  675SOL     hw 2699   6.112   6.094   4.832  0.1420  0.3749 -0.4597
  675SOL     vw 2700   6.133   6.013   4.809 -0.0539  0.0570  0.4532
  676SOL     ow 2701   1.900   7.289   0.585 -0.6928 -0.0902  0.1179
  676SOL     hw 2702   1.886   7.222   0.519 -1.1502 -0.4943  0.6203
  676SOL     hw 2703   1.967   7.253   0.642 -1.3668 -0.3777  0.7340
  676SOL     vw 2704   1.907   7.276   0.584 -0.8420 -0.1814  0.2655
  677SOL     ow 2705   5.508   4.951   4.154  0.0291 -0.8434  0.4075
  677SOL     hw 2706   5.547   4.865   4.169 -0.2695 -0.9117  0.8221
  677SOL     hw 2707   5.460   4.970   4.235 -2.0702 -1.4470 -0.6190
  677SOL     vw 2708   5.507   4.942   4.167 -0.2871 -0.9320  0.3269
  678SOL     ow 2709   5.781   0.496   3.223 -0.0445 -0.1889 -0.3063
  678SOL     hw 2710   5.849   0.501   3.290 -1.9740 -0.3564  1.8170
  678SOL     hw 2711   5.805   0.563   3.159  1.1362  1.0643  1.3470
  678SOL     vw 2712   5.793   0.505   3.223 -0.1435 -0.0457  0.1920
  679SOL     ow 2713   4.655   7.107   1.787 -0.4233  0.3117  0.3664
  679SOL     hw 2714   4.648   7.014   1.809 -1.6362  0.7854  2.2407
  679SOL     hw 2715   4.578   7.126   1.735 -0.1314  0.2576 -0.0887
  679SOL     vw 2716   4.644   7.098   1.783 -0.5445  0.3674  0.5535
  680SOL     ow 2717   6.526   3.336   6.013  0.9695  0.1797  0.2215
  680SOL     hw 2718   6.578   3.395   6.068  1.5248  0.8916 -1.0455
  680SOL     hw 2719   6.558   3.350   5.924 -2.1216  1.4525 -0.8149
  680SOL     vw 2720   6.538   3.345   6.009  0.6349  0.4416 -0.0825
  681SOL     ow 2721   5.419   3.197   6.704  0.3663 -0.2187 -0.4033
  681SOL     hw 2722   5.389   3.111   6.735  0.0506  0.2074  0.4964
  681SOL     hw 2723   5.425   3.250   6.783 -0.3912  0.8787 -1.0549
  681SOL     vw 2724   5.416   3.192   6.719  0.2248 -0.0176 -0.3703
  682SOL     ow 2725   2.078   4.788   1.733 -0.5488 -0.6988  0.2425
  682SOL     hw 2726   2.147   4.766   1.795  0.6062  0.3929 -0.6149
  682SOL     hw 2727   2.012   4.833   1.785 -0.4311 -1.3650  0.9886
  682SOL     vw 2728   2.078   4.791   1.748 -0.3809 -0.6425  0.2278
  683SOL     ow 2729   2.547   7.024   2.383  0.0766  0.1313  0.2113
  683SOL     hw 2730   2.613   7.072   2.333  0.8573  0.4864  1.5400
  683SOL     hw 2731   2.556   6.933   2.353 -0.3042  0.5064 -1.1391
  683SOL     vw 2732   2.556   7.018   2.372  0.1293  0.2277  0.2084
  684SOL     ow 2733   4.271   2.563   4.315  0.4163 -0.6466 -0.0897
  684SOL     hw 2734   4.201   2.498   4.311 -0.9089  0.6621  0.8906
  684SOL     hw 2735   4.227   2.647   4.297  1.8252  0.1540  0.0355
  684SOL     vw 2736   4.256   2.566   4.312  0.4272 -0.3681  0.0558
  685SOL     ow 2737   4.434   5.491   2.844 -0.6483 -0.5934  0.0457
  685SOL     hw 2738   4.456   5.532   2.928  1.1301 -0.2958 -0.5172
  685SOL     hw 2739   4.460   5.556   2.779 -0.2926 -1.5409 -0.7787
  685SOL     vw 2740   4.440   5.505   2.847 -0.3667 -0.6793 -0.1374
  686SOL     ow 2741   5.331   4.323   6.136  0.1925  0.1253  0.3149
  686SOL     hw 2742   5.270   4.367   6.195 -0.7959 -0.9601  0.1256
  686SOL     hw 2743   5.394   4.391   6.112 -1.7785  1.6966 -0.6817
  686SOL     vw 2744   5.331   4.338   6.141 -0.1976  0.1895  0.1583
  687SOL     ow 2745   4.388   4.855   1.834 -0.4534 -0.6353  0.0749
  687SOL     hw 2746   4.305   4.815   1.808 -0.7248 -0.5811  0.8238
  687SOL     hw 2747   4.450   4.782   1.841 -0.0325 -0.5203 -1.9048
  687SOL     vw 2748   4.385   4.840   1.831 -0.4334 -0.6130 -0.0876
  688SOL     ow 2749   5.730   4.713   5.665 -0.1018 -0.0426  0.3807
  688SOL     hw 2750   5.741   4.622   5.636 -0.6282  0.0304 -0.0549
  688SOL     hw 2751   5.719   4.706   5.760 -0.5430 -0.4756  0.3008
  688SOL     vw 2752   5.730   4.700   5.674 -0.2296 -0.0901  0.3126
  689SOL     ow 2753   5.104   0.575   0.206  0.0141  0.5993  0.2159
  689SOL     hw 2754   5.143   0.509   0.148  1.3919  2.1797 -0.7240
  689SOL     hw 2755   5.156   0.571   0.286 -1.2152 -0.8371  1.0002
  689SOL     vw 2756   5.116   0.566   0.209  0.0336  0.6183  0.1954
  690SOL     ow 2757   2.457   7.104   4.371 -0.6080 -1.2974  0.0325
  690SOL     hw 2758   2.546   7.134   4.389 -1.0141 -1.1090  1.9416
  690SOL     hw 2759   2.407   7.184   4.357 -0.5844 -1.3839 -0.5854
  690SOL     vw 2760   2.463   7.119   4.371 -0.6585 -1.2839  0.2029
  691SOL     ow 2761   1.129   5.214   2.648  0.3687  0.4434 -0.5611
  691SOL     hw 2762   1.083   5.262   2.717 -0.4873  0.2056 -0.9589
  691SOL     hw 2763   1.183   5.151   2.695  0.0937  0.5514 -0.0923
  691SOL     vw 2764   1.130   5.212   2.663  0.2195  0.4261 -0.5517
  692SOL     ow 2765   5.473   1.765   5.002 -0.1811  0.7442 -0.3070
  692SOL     hw 2766   5.481   1.702   5.073 -1.3102  0.1822 -0.6574
  692SOL     hw 2767   5.419   1.835   5.039 -0.9562  0.3466 -0.6628
  692SOL     vw 2768   5.467   1.766   5.016 -0.4325  0.6176 -0.4003
  693SOL     ow 2769   4.869   4.771   4.768  0.1689  0.0950  1.0441
  693SOL     hw 2770   4.791   4.822   4.748 -0.4948 -1.2044  0.1545
  693SOL     hw 2771   4.857   4.689   4.719  2.8239  0.4652 -0.4052
  693SOL     vw 2772   4.857   4.767   4.759  0.4318 -0.0279  0.7355
  694SOL     ow 2773   4.100   6.854   5.977  0.3694  0.2027 -0.2172
  694SOL     hw 2774   4.116   6.948   5.980 -3.8986  1.1418  1.1713
  694SOL     hw 2775   4.106   6.826   6.069  0.4845 -0.6335 -0.4724
  694SOL     vw 2776   4.103   6.862   5.990 -0.1786  0.2162 -0.0677
  695SOL     ow 2777   5.769   1.421   6.112  0.5232  0.2690  0.0920
  695SOL     hw 2778   5.686   1.422   6.065  0.1745 -0.3170  0.6783
  695SOL     hw 2779   5.831   1.463   6.052 -0.3502  1.4089 -0.0494
  695SOL     vw 2780   5.767   1.427   6.098  0.3619  0.3421  0.1507
  696SOL     ow 2781   5.627   3.451   3.441  0.5135 -0.5895  0.7511
  696SOL     hw 2782   5.694   3.404   3.491  0.2817 -1.2344  0.4667
  696SOL     hw 2783   5.617   3.400   3.361 -0.3293 -0.5059  0.7948
  696SOL     vw 2784   5.634   3.438   3.437  0.3719 -0.6635  0.7193
  697SOL     ow 2785   1.058   5.187   3.524 -0.8270 -0.5877  0.1766
  697SOL     hw 2786   1.048   5.249   3.451 -0.0505 -0.5642  0.0775
  697SOL     hw 2787   0.969   5.158   3.543 -1.5233  2.0773  1.5825
  697SOL     vw 2788   1.045   5.192   3.517 -0.8164 -0.2332  0.3489
  698SOL     ow 2789   0.316   2.368   0.201 -0.1725 -0.3760  1.2193
  698SOL     hw 2790   0.394   2.320   0.229  1.2024  1.2580  0.3993
  698SOL     hw 2791   0.342   2.460   0.206 -0.6848  0.1600 -2.7530
  698SOL     vw 2792   0.330   2.374   0.206 -0.0587 -0.0895  0.5870
  699SOL     ow 2793   3.443   4.963   2.788  0.3079 -0.4383 -0.0086
  699SOL     hw 2794   3.529   4.953   2.827  0.0778  0.0753  0.6407
  699SOL     hw 2795   3.385   4.984   2.861  0.5333  4.5689 -0.9287
  699SOL     vw 2796   3.446   4.965   2.803  0.3073  0.2902 -0.0442
  700SOL     ow 2797   2.745   6.993   6.485  0.2487  0.5337 -0.6376
  700SOL     hw 2798   2.751   7.004   6.580 -0.2284  0.4764 -0.5986
  700SOL     hw 2799   2.801   7.061   6.449 -1.4352  2.1431 -0.3660
  700SOL     vw 2800   2.753   7.003   6.493 -0.0365  0.7384 -0.5968
  701SOL     ow 2801   1.540   4.094   1.804 -0.0143  0.1235  0.4252
  701SOL     hw 2802   1.578   4.168   1.756  2.1808 -0.7680  0.6830
  701SOL     hw 2803   1.454   4.081   1.764  0.6641  1.0744 -1.4780
  701SOL     vw 2804   1.534   4.102   1.793  0.3648  0.1314  0.2081
  702SOL     ow 2805   5.142   5.387   2.837  0.0486  0.4074  0.2328
  702SOL     hw 2806   5.125   5.320   2.771 -0.0925  2.3268 -1.7683
  702SOL     hw 2807   5.063   5.388   2.891 -0.0148 -0.8904  0.1841
  702SOL     vw 2808   5.130   5.378   2.836  0.0217  0.4892 -0.0378
  703SOL     ow 2809   6.544   4.611   2.209 -0.3304  1.2230  0.1122
  703SOL     hw 2810   6.559   4.530   2.258  0.0335  3.4343  3.9639
  703SOL     hw 2811   6.456   4.638   2.235  0.3520  3.1056  0.5912
  703SOL     vw 2812   6.534   4.604   2.219 -0.1922  1.7631  0.6835
  704SOL     ow 2813   6.388   2.660   3.638 -0.3495 -0.0713 -0.0084
  704SOL     hw 2814   6.343   2.582   3.604  0.2885  0.0127 -1.1011
  704SOL     hw 2815   6.395   2.718   3.563  2.4771 -0.5080 -0.2110
  704SOL     vw 2816   6.383   2.657   3.624  0.1078 -0.1178 -0.1793
  705SOL     ow 2817   0.114   6.999   5.753 -0.3445  0.3302  1.1148
  705SOL     hw 2818   0.024   6.971   5.734 -0.1757  0.1076  0.6440
  705SOL     hw 2819   0.165   6.918   5.754  0.0773  0.5717  0.1133
  705SOL     vw 2820   0.109   6.985   5.750 -0.2666  0.3326  0.9203
  706SOL     ow 2821   3.363   1.871   1.059  0.3043 -0.2281  0.7344
  706SOL     hw 2822   3.389   1.867   0.967  1.3724 -3.8262  1.0506
  706SOL     hw 2823   3.442   1.898   1.105  0.6951 -1.4208  0.8055
  706SOL     vw 2824   3.376   1.874   1.053  0.4967 -0.8601  0.7855
  707SOL     ow 2825   1.072   4.373   4.354 -0.2930 -0.0114 -0.2391
  707SOL     hw 2826   1.014   4.358   4.429  0.9114 -0.6743  0.5900
  707SOL     hw 2827   1.156   4.337   4.381  0.9835  2.3593 -0.7674
  707SOL     vw 2828   1.075   4.366   4.367  0.0344  0.2139 -0.1993
  708SOL     ow 2829   4.922   6.643   2.883  0.6048 -0.4888 -0.2231
  708SOL     hw 2830   4.842   6.659   2.933  0.3986 -0.7258 -0.4763
  708SOL     hw 2831   4.950   6.730   2.854 -0.9090 -0.5980 -2.2228
  708SOL     vw 2832   4.915   6.657   2.886  0.3779 -0.5343 -0.5202
  709SOL     ow 2833   6.454   6.543   2.284 -0.4238 -0.4209  0.0197
  709SOL     hw 2834   6.367   6.580   2.299 -0.9954 -1.1256 -1.3551
  709SOL     hw 2835   6.508   6.619   2.258 -1.1186 -0.2475 -0.9797
  709SOL     vw 2836   6.450   6.558   2.282 -0.5910 -0.4909 -0.2935
  710SOL     ow 2837   0.566   6.977   3.757  0.2043 -0.6751  0.7650
  710SOL     hw 2838   0.497   7.043   3.746  1.1235  0.0080 -1.4599
  710SOL     hw 2839   0.526   6.896   3.725  0.1154 -0.4893  0.3963
  710SOL     vw 2840   0.551   6.975   3.751  0.3138 -0.5603  0.4227
  711SOL     ow 2841   4.654   1.488   6.258 -0.6779 -0.0831  0.3162
  711SOL     hw 2842   4.706   1.485   6.178 -0.9626 -1.9634  0.1525
  711SOL     hw 2843   4.678   1.571   6.300  1.7756 -0.4872 -0.1771
  711SOL     vw 2844   4.664   1.499   6.253 -0.3915 -0.3844  0.2296
  712SOL     ow 2845   2.322   2.443   5.588  0.1438 -0.0443 -0.2777
  712SOL     hw 2846   2.401   2.427   5.536 -0.2930  0.4601 -1.1006
  712SOL     hw 2847   2.287   2.526   5.555 -2.4557 -1.7264 -2.1249
  712SOL     vw 2848   2.328   2.452   5.577 -0.2568 -0.1998 -0.6304
  713SOL     ow 2849   6.670   2.240   7.004  0.2569 -0.2653  0.2180
  713SOL     hw 2850   6.658   2.333   7.020  0.1199 -0.3981  0.9324
  713SOL     hw 2851   6.691   2.203   7.090 -0.4896 -1.0195  0.0905
  713SOL     vw 2852   6.671   2.247   7.018  0.1402 -0.3822  0.2956
  714SOL     ow 2853   0.828   5.034   3.549  0.4262  0.1210  0.2879
  714SOL     hw 2854   0.840   4.968   3.480  0.5613  0.3923  0.0510
  714SOL     hw 2855   0.749   5.006   3.595 -0.5239  0.7599 -0.9176
  714SOL     vw 2856   0.819   5.021   3.546  0.3187  0.2410  0.0976
  715SOL     ow 2857   2.154   4.541   4.774 -0.4631 -0.4007  0.5709
  715SOL     hw 2858   2.180   4.556   4.865 -1.8868 -0.0220  0.9311
  715SOL     hw 2859   2.232   4.564   4.723  0.5231 -1.1297  1.7151
  715SOL     vw 2860   2.168   4.546   4.779 -0.5208 -0.4470  0.7696
  716SOL     ow 2861   3.572   3.599   0.356 -0.3960 -0.1778 -0.0419
  716SOL     hw 2862   3.667   3.589   0.360 -0.2882  0.7423 -0.1245
  716SOL     hw 2863   3.556   3.634   0.268 -0.8543 -0.7169 -0.1796
  716SOL     vw 2864   3.583   3.602   0.345 -0.4421 -0.1274 -0.0709
  717SOL     ow 2865   0.939   2.155   2.645 -0.1215 -0.2518 -0.3788
  717SOL     hw 2866   0.851   2.172   2.610 -0.0204  1.1690 -0.0211
  717SOL     hw 2867   0.992   2.133   2.568 -0.4699  0.3234 -0.7908
  717SOL     vw 2868   0.934   2.154   2.630 -0.1540  0.0116 -0.3859
  718SOL     ow 2869   4.418   6.868   6.389 -0.2714  0.3823  0.7217
  718SOL     hw 2870   4.349   6.823   6.438 -2.7257  1.2914 -1.6416
  718SOL     hw 2871   4.476   6.798   6.360 -2.4602 -1.0215 -0.5368
  718SOL     vw 2872   4.417   6.853   6.392 -0.8841  0.3173  0.2439
  719SOL     ow 2873   5.435   2.944   6.849 -0.1517  0.0631  0.6647
  719SOL     hw 2874   5.422   2.926   6.943 -0.7845 -0.6954  0.4447
  719SOL     hw 2875   5.352   2.920   6.809  0.0351  0.6118 -0.0731
  719SOL     vw 2876   5.422   2.939   6.856 -0.2108  0.0354  0.5383
  720SOL     ow 2877   2.775   4.345   6.505 -0.6838 -0.0464 -0.0989
  720SOL     hw 2878   2.767   4.430   6.463 -0.8693  0.4574  0.9303
  720SOL     hw 2879   2.706   4.345   6.572  0.3270 -0.3628  0.9835
  720SOL     vw 2880   2.765   4.356   6.509 -0.5749 -0.0217  0.1798
  721SOL     ow 2881   4.508   3.084   5.672  0.3250 -0.4249  0.3269
  721SOL     hw 2882   4.512   3.132   5.755  0.6043 -1.8402  1.1659
  721SOL     hw 2883   4.445   3.014   5.688 -2.2844  1.2487 -1.7729
  721SOL     vw 2884   4.500   3.081   5.685  0.0174 -0.3909  0.1605
  722SOL     ow 2885   4.627   2.478   0.229  0.0095 -0.3069 -0.7720
  722SOL     hw 2886   4.668   2.555   0.188 -0.2092  0.0722 -0.2811
  722SOL     hw 2887   4.536   2.481   0.199  0.3868 -1.3277 -2.1227
  722SOL     vw 2888   4.621   2.489   0.219  0.0303 -0.3914 -0.8854
  723SOL     ow 2889   4.209   7.027   3.776  0.0261  0.3873 -0.3899
  723SOL     hw 2890   4.163   7.110   3.769 -0.0038  0.4969  0.9663
  723SOL     hw 2891   4.272   7.040   3.846 -0.4141 -0.9264  0.2768
  723SOL     vw 2892   4.211   7.039   3.784 -0.0360  0.2282 -0.1230
  724SOL     ow 2893   0.719   2.127   4.228  0.4662  0.3452 -0.7399
  724SOL     hw 2894   0.638   2.075   4.228  0.7117 -0.0401 -0.7316
  724SOL     hw 2895   0.693   2.211   4.190  0.1460  0.0960 -1.0813
  724SOL     vw 2896   0.705   2.131   4.223  0.4563  0.2615 -0.7839
  725SOL     ow 2897   4.880   2.682   4.781 -0.5260 -0.6295  0.3400
  725SOL     hw 2898   4.926   2.606   4.745 -1.2527 -0.3260 -1.3728
  725SOL     hw 2899   4.799   2.646   4.817 -0.0733 -0.8633  1.1482
  725SOL     vw 2900   4.875   2.667   4.781 -0.5622 -0.6204  0.2205
  726SOL     ow 2901   7.274   4.124   6.055  0.0113  0.6159 -0.3054
  726SOL     hw 2902   7.288   4.191   5.988  2.3935 -1.0143 -1.5912
  726SOL     hw 2903   7.342   4.059   6.038 -0.4741 -0.7990  2.5995
  726SOL     vw 2904   7.285   4.124   6.044  0.2615  0.2141 -0.0918
  727SOL     ow 2905   3.986   5.403   3.325 -0.3000  0.9191  0.4400
  727SOL     hw 2906   3.897   5.429   3.303 -1.5230 -0.2538  3.4440
  727SOL     hw 2907   4.024   5.373   3.242 -2.8255  1.0942 -0.8633
  727SOL     vw 2908   3.980   5.402   3.311 -0.7945  0.7875  0.6644
  728SOL     ow 2909   5.466   6.338   2.291  0.3175  0.0670 -0.9560
  728SOL     hw 2910   5.470   6.307   2.381  1.4798 -0.1715 -1.0740
  728SOL     hw 2911   5.456   6.433   2.299  0.2388  0.0296 -0.5829
  728SOL     vw 2912   5.465   6.347   2.304  0.4609  0.0305 -0.9223
  729SOL     ow 2913   4.505   2.888   1.810 -0.5176  0.6471  0.3246
  729SOL     hw 2914   4.456   2.955   1.857  0.5371  0.4695  1.7508
  729SOL     hw 2915   4.552   2.936   1.742 -0.4695  1.2297  0.7600
  729SOL     vw 2916   4.505   2.903   1.807 -0.3719  0.7006  0.5702
  730SOL     ow 2917   7.050   2.147   0.482  0.4606 -0.7131 -0.1997
  730SOL     hw 2918   7.086   2.157   0.570 -0.1676  0.6317 -0.0543
  730SOL     hw 2919   7.051   2.236   0.446  1.4101 -1.3582 -1.8570
  730SOL     vw 2920   7.055   2.160   0.489  0.5028 -0.6210 -0.3992
  731SOL     ow 2921   0.706   0.741   2.193 -0.2010 -0.0004 -0.0022
  731SOL     hw 2922   0.759   0.806   2.147 -1.5188  0.5899 -0.7279
  731SOL     hw 2923   0.649   0.793   2.250 -0.9329 -0.5462 -0.2258
  731SOL     vw 2924   0.705   0.757   2.195 -0.4714  0.0055 -0.1273
  732SOL     ow 2925   5.128   5.832   6.628 -0.4612 -0.3375  0.0706
  732SOL     hw 2926   5.202   5.853   6.570 -1.5578 -0.7307 -1.5497
  732SOL     hw 2927   5.156   5.753   6.675  0.8497  0.5658  0.8449
  732SOL     vw 2928   5.142   5.824   6.627 -0.4330 -0.2701 -0.0412
  733SOL     ow 2929   0.288   3.194   2.580  0.0830 -0.2846  0.2510
  733SOL     hw 2930   0.206   3.242   2.580  0.2779  0.0538  0.3479
  733SOL     hw 2931   0.263   3.102   2.567 -0.3333 -0.2290  0.6279
  733SOL     vw 2932   0.274   3.188   2.579  0.0538 -0.2327  0.3136
  734SOL     ow 2933   5.651   4.638   6.504  0.2021  0.3525 -0.3938
  734SOL     hw 2934   5.698   4.711   6.463  2.9103 -0.0377  1.7741
  734SOL     hw 2935   5.565   4.676   6.526  1.5437  2.9941  0.7856
  734SOL     vw 2936   5.646   4.653   6.501  0.7365  0.6497  0.0479
  735SOL     ow 2937   5.105   6.091   5.307 -0.1608 -0.0701  1.1961
  735SOL     hw 2938   5.028   6.079   5.250 -0.9145  0.1185  2.1516
  735SOL     hw 2939   5.099   6.019   5.370  0.4714 -0.0742  1.2513
  735SOL     vw 2940   5.094   6.080   5.307 -0.1767 -0.0458  1.3299
  736SOL     ow 2941   2.799   2.007   4.382  0.4369 -0.1459  0.3518
  736SOL     hw 2942   2.810   2.043   4.470 -2.1834  3.0906 -0.4307
  736SOL     hw 2943   2.707   1.983   4.377 -0.2197  2.3486 -2.2228
  736SOL     vw 2944   2.789   2.008   4.393  0.0045  0.6102 -0.0913
  737SOL     ow 2945   6.881   0.382   4.752 -0.1575 -0.0797  0.2100
  737SOL     hw 2946   6.900   0.288   4.762  0.6320  0.2205  1.8783
  737SOL     hw 2947   6.800   0.395   4.801  1.3337  0.5984  2.6839
  737SOL     vw 2948   6.873   0.371   4.760  0.1435  0.0494  0.7567
  738SOL     ow 2949   5.498   3.526   3.932  0.0980  0.6988  0.3550
  738SOL     hw 2950   5.486   3.619   3.951 -1.5590  0.5139  0.3490
  738SOL     hw 2951   5.461   3.481   4.009 -0.6668  0.0350 -0.3768
  738SOL     vw 2952   5.491   3.532   3.945 -0.2215  0.5869  0.2576
  739SOL     ow 2953   6.359   1.712   2.395 -0.5113  0.3366  0.3346
  739SOL     hw 2954   6.382   1.658   2.319 -3.7856 -0.9992  0.1168
  739SOL     hw 2955   6.443   1.741   2.430  1.3323 -2.4488 -1.3407
  739SOL     vw 2956   6.373   1.709   2.389 -0.6998 -0.2071  0.0848
  740SOL     ow 2957   4.000   3.908   4.743 -0.2835 -0.7776  0.3326
  740SOL     hw 2958   3.927   3.848   4.757 -2.1153  0.9985 -0.9882
  740SOL     hw 2959   3.959   3.989   4.711  2.1054  0.9399  1.2627
  740SOL     vw 2960   3.985   3.911   4.741 -0.2099 -0.3166  0.2813
  741SOL     ow 2961   1.104   5.911   7.027 -0.0027 -0.1588 -0.9311
  741SOL     hw 2962   1.065   5.995   7.003 -0.1962  0.9293  2.5726
  741SOL     hw 2963   1.168   5.933   7.095  2.0781 -2.6063 -1.9302
  741SOL     vw 2964   1.107   5.925   7.033  0.2463 -0.3383 -0.6006
  742SOL     ow 2965   0.079   7.111   1.226  0.3499  0.5805  1.4382
  742SOL     hw 2966   0.117   7.058   1.297  0.0084 -0.1793  1.0667
  742SOL     hw 2967   0.090   7.201   1.256  3.3769  0.4936  0.9223
  742SOL     vw 2968   0.086   7.116   1.240  0.7042  0.4687  1.3211
  743SOL     ow 2969   0.168   3.502   0.768 -0.1240 -0.3606 -0.1645
  743SOL     hw 2970   0.143   3.424   0.720  0.7020 -1.2044  0.7273
  743SOL     hw 2971   0.253   3.527   0.731 -0.0803 -0.2711 -0.0067
  743SOL     vw 2972   0.176   3.495   0.757 -0.0092 -0.4601 -0.0260
  744SOL     ow 2973   4.296   0.210   6.046  0.3735  0.4797  0.2967
  744SOL     hw 2974   4.338   0.272   6.107  0.5846 -0.0887  0.7374
  744SOL     hw 2975   4.203   0.217   6.067  0.2225  1.6836 -0.6278
  744SOL     vw 2976   4.290   0.219   6.057  0.3812  0.5635  0.2329
  745SOL     ow 2977   5.027   0.078   0.376 -0.4782 -0.6921 -0.5377
  745SOL     hw 2978   4.959   0.010   0.375 -1.6312  0.3273  1.8804
  745SOL     hw 2979   5.084   0.054   0.449 -0.0656  0.1688 -0.5723
  745SOL     vw 2980   5.025   0.065   0.385 -0.5760 -0.4441 -0.2232
  746SOL     ow 2981   1.859   3.710   7.052 -0.1462  0.0344  0.4311
  746SOL     hw 2982   1.846   3.745   7.140 -0.9234  0.4983  0.1358
  746SOL     hw 2983   1.835   3.618   7.058  0.4549 -0.1042  0.8539
  746SOL     vw 2984   1.854   3.703   7.064 -0.1695  0.0771  0.4478
  747SOL     ow 2985   6.643   6.904   3.585  0.5292  0.5178 -0.5122
  747SOL     hw 2986   6.618   6.844   3.514  0.0245  2.1235 -1.7534
  747SOL     hw 2987   6.737   6.892   3.595  0.5106 -0.1428 -1.0620
  747SOL     vw 2988   6.652   6.895   3.577  0.4604  0.6423 -0.7486
  748SOL     ow 2989   2.446   4.366   0.079  0.5672  0.0984 -0.0297
  748SOL     hw 2990   2.528   4.413   0.066  0.7157  0.0390  0.6342
  748SOL     hw 2991   2.442   4.351   0.174 -2.2739  3.9386  0.7137
  748SOL     vw 2992   2.456   4.370   0.090  0.2118  0.5970  0.1560
  749SOL     ow 2993   5.414   1.837   1.466  0.0730 -0.5602 -0.5377
  749SOL     hw 2994   5.319   1.831   1.465 -0.0036  0.4843 -0.4422
  749SOL     hw 2995   5.437   1.874   1.380  0.3328 -0.0415 -0.2472
  749SOL     vw 2996   5.404   1.841   1.454  0.0975 -0.3540 -0.4867
  750SOL     ow 2997   4.449   1.022   5.845 -0.1555  0.3113  0.6452
  750SOL     hw 2998   4.542   1.044   5.856  0.2087 -1.2794  0.9713
  750SOL     hw 2999   4.410   1.102   5.809  1.0603  1.4831  1.7881
  750SOL     vw 3000   4.456   1.036   5.842  0.0529  0.2561  0.8388
  751SOL     ow 3001   1.596   1.845   6.884 -0.3984  0.3752 -1.0538
  751SOL     hw 3002   1.591   1.873   6.793 -0.1059  1.5460 -0.7276
  751SOL     hw 3003   1.526   1.893   6.929  0.6765  1.3100 -0.3164
  751SOL     vw 3004   1.586   1.855   6.878 -0.2181  0.6530 -0.9136
  752SOL     ow 3005   4.194   3.471   2.674  0.3809 -0.5965 -0.2903
  752SOL     hw 3006   4.128   3.403   2.690  1.4204 -0.9851  3.0678
  752SOL     hw 3007   4.144   3.552   2.670 -0.3879 -0.7708  3.0386
  752SOL     vw 3008   4.179   3.473   2.675  0.4165 -0.6708  0.5919
  753SOL     ow 3009   0.710   0.101   7.237  0.5679  0.7164  0.3805
  753SOL     hw 3010   0.671   0.130   7.320  0.7104 -2.0016  1.4824
  753SOL     hw 3011   0.641   0.051   7.194  0.4812  2.1215 -1.2438
  753SOL     vw 3012   0.696   0.099   7.242  0.5752  0.5432  0.3116
  754SOL     ow 3013   6.479   2.567   1.564  0.3661  0.5007 -0.5563
  754SOL     hw 3014   6.463   2.506   1.637 -1.0857 -0.1358 -1.3429
  754SOL     hw 3015   6.558   2.534   1.522  0.6365  0.2690  0.1120
  754SOL     vw 3016   6.487   2.554   1.568  0.2100  0.3861 -0.5720
  755SOL     ow 3017   1.139   6.609   0.762  0.4515 -0.4076  0.0922
  755SOL     hw 3018   1.072   6.673   0.738 -1.2443 -2.4078 -0.7763
  755SOL     hw 3019   1.218   6.662   0.776 -0.5783  1.7433 -1.6259
  755SOL     vw 3020   1.141   6.625   0.761  0.0919 -0.3877 -0.2491
  756SOL     ow 3021   1.885   5.654   1.244  0.3211  0.0858  0.0172
  756SOL     hw 3022   1.878   5.583   1.179 -0.9504  1.5189 -1.4897
  756SOL     hw 3023   1.830   5.625   1.316 -0.8405 -0.1408 -0.9245
  756SOL     vw 3024   1.877   5.641   1.245  0.0001  0.2451 -0.3058
  757SOL     ow 3025   5.058   2.790   0.294  0.3166 -0.5012  0.2360
  757SOL     hw 3026   5.129   2.747   0.246  0.2039 -0.2645 -0.1447
  757SOL     hw 3027   5.053   2.742   0.377 -0.9148 -2.3490 -0.8246
  757SOL     vw 3028   5.067   2.778   0.299  0.1395 -0.7138  0.0458
  758SOL     ow 3029   7.090   6.162   6.200  0.6433 -0.6464 -0.1532
  758SOL     hw 3030   7.177   6.179   6.163  0.1495  1.1820 -0.5836
  758SOL     hw 3031   7.105   6.163   6.295  1.2871 -1.5453 -0.2394
  758SOL     vw 3032   7.104   6.165   6.208  0.6630 -0.5238 -0.2213
  759SOL     ow 3033   6.021   5.203   1.522  0.5146  0.0263 -0.4833
  759SOL     hw 3034   5.935   5.175   1.490  0.0835  2.3983 -1.6807
  759SOL     hw 3035   6.082   5.137   1.488 -0.7232 -1.3304 -0.1810
  759SOL     vw 3036   6.018   5.191   1.513  0.2944  0.1602 -0.6015
  760SOL     ow 3037   5.207   5.899   4.051 -0.4304 -0.0574 -0.7149
  760SOL     hw 3038   5.144   5.826   4.050 -0.5835 -0.0282  1.7086
  760SOL     hw 3039   5.240   5.901   4.141  0.1163  2.4259 -0.9137
  760SOL     vw 3040   5.203   5.889   4.062 -0.3781  0.2742 -0.4213
  761SOL     ow 3041   5.591   1.822   1.735  0.0716 -0.0652  0.4797
  761SOL     hw 3042   5.563   1.851   1.648  0.5811 -0.3093  0.2332
  761SOL     hw 3043   5.527   1.861   1.795 -0.7133 -0.5061 -0.0631
  761SOL     vw 3044   5.579   1.831   1.731  0.0353 -0.1556  0.3756
  762SOL     ow 3045   5.380   6.131   3.920  0.1410 -0.1524 -0.1801
  762SOL     hw 3046   5.369   6.206   3.977  0.6482 -0.8169  0.8261
  762SOL     hw 3047   5.472   6.132   3.896 -0.4440  1.3608 -2.8289
  762SOL     vw 3048   5.390   6.141   3.924  0.1307 -0.0405 -0.3968
  763SOL     ow 3049   5.803   3.327   4.094  0.4392  0.4414  0.5995
  763SOL     hw 3050   5.832   3.247   4.050 -0.1512  0.7103 -0.3011
  763SOL     hw 3051   5.715   3.307   4.124  1.1944 -0.0993  2.6276
  763SOL     vw 3052   5.795   3.314   4.092  0.4611  0.4055  0.7479
  764SOL     ow 3053   5.103   6.754   4.599 -0.0436 -0.3768 -0.1389
  764SOL     hw 3054   5.130   6.662   4.603  2.3580  0.2816  1.0030
  764SOL     hw 3055   5.183   6.803   4.621 -2.0109  1.8826  2.7136
  764SOL     vw 3056   5.117   6.749   4.602  0.0138  0.0081  0.3881
  765SOL     ow 3057   3.209   3.735   2.079 -0.2140 -0.3988  0.1371
  765SOL     hw 3058   3.239   3.663   2.022 -1.3759 -0.0802 -0.9344
  765SOL     hw 3059   3.153   3.692   2.143  0.1394 -0.6106  0.3086
  765SOL     vw 3060   3.206   3.719   2.080 -0.3206 -0.3848  0.0184
  766SOL     ow 3061   6.655   2.060   6.745  0.2546  0.4026  0.5336
  766SOL     hw 3062   6.614   2.067   6.659 -0.9189  1.1295  1.1320
  766SOL     hw 3063   6.657   1.965   6.763 -0.5047  0.3140  0.1829
  766SOL     vw 3064   6.650   2.048   6.737 -0.0002  0.4869  0.5662
  767SOL     ow 3065   4.242   4.162   6.142 -0.3069 -0.2168 -0.8550
  767SOL     hw 3066   4.312   4.170   6.207 -1.4981  0.1974  0.4424
  767SOL     hw 3067   4.164   4.142   6.194 -1.8243  2.5683 -1.8312
  767SOL     vw 3068   4.241   4.161   6.157 -0.6645  0.2053 -0.8125
  768SOL     ow 3069   2.442   0.651   0.990 -0.2314 -0.3844  0.2215
  768SOL     hw 3070   2.365   0.708   0.990 -0.4183 -0.4360 -3.5348
  768SOL     hw 3071   2.412   0.570   1.032 -1.0668  0.8385  2.1234
  768SOL     vw 3072   2.428   0.648   0.996 -0.3662 -0.2299 -0.0232
  769SOL     ow 3073   1.620   3.045   1.096  0.1092 -0.2104  0.7081
  769SOL     hw 3074   1.540   3.016   1.053 -0.0883  1.8324 -0.4227
  769SOL     hw 3075   1.643   3.127   1.052  2.9565 -0.8324  0.8557
  769SOL     vw 3076   1.612   3.052   1.085  0.4588 -0.0230  0.5785
  770SOL     ow 3077   3.787   1.832   5.808  0.2604  0.5043 -1.0662
  770SOL     hw 3078   3.808   1.920   5.776 -0.4178  0.8306 -0.6207
  770SOL     hw 3079   3.803   1.836   5.902 -0.7694  0.4462 -0.8861
  770SOL     vw 3080   3.792   1.844   5.816  0.0350  0.5397 -0.9837
  771SOL     ow 3081   5.530   3.505   6.884  0.6474 -0.2225 -0.0215
  771SOL     hw 3082   5.525   3.537   6.794  1.8582  0.5459  0.1649
  771SOL     hw 3083   5.623   3.508   6.906  0.1553  2.9052  2.3859
  771SOL     vw 3084   5.542   3.510   6.875  0.7424  0.2916  0.3209
  772SOL     ow 3085   1.829   6.029   4.223  0.1873  0.9555  0.2689
  772SOL     hw 3086   1.748   6.054   4.178 -0.5830 -2.0497 -0.2571
  772SOL     hw 3087   1.800   5.971   4.294  1.8675 -1.0595 -0.5843
  772SOL     vw 3088   1.815   6.024   4.226  0.3074  0.2930  0.0868
  773SOL     ow 3089   5.491   0.016   6.840 -0.6561 -0.1564 -0.0390
  773SOL     hw 3090   5.447   0.065   6.771  0.3909  0.4493 -0.3017
  773SOL     hw 3091   5.539  -0.052   6.794 -0.7463 -0.3731  0.1833
  773SOL     vw 3092   5.492   0.013   6.825 -0.5298 -0.1049 -0.0446
  774SOL     ow 3093   6.834   2.851   5.100  0.2131  0.3206  0.2226
  774SOL     hw 3094   6.838   2.766   5.144  1.5779  1.1204  1.7641
  774SOL     hw 3095   6.765   2.899   5.147 -0.4021  0.1721 -0.5027
  774SOL     vw 3096   6.825   2.846   5.112  0.3119  0.4065  0.3302
  775SOL     ow 3097   5.944   5.756   4.767  0.2914  0.2988  0.3195
  775SOL     hw 3098   5.936   5.667   4.803 -1.0445  0.7925  1.3121
  775SOL     hw 3099   5.869   5.803   4.802  0.5404  1.6211 -0.8388
  775SOL     vw 3100   5.933   5.750   4.776  0.1481  0.5386  0.2975
  776SOL     ow 3101   0.237   4.468   0.848  0.2874  0.3096 -0.0115
  776SOL     hw 3102   0.263   4.471   0.756  0.2578  1.1477  0.0018
  776SOL     hw 3103   0.302   4.411   0.890 -1.2489 -2.3925 -1.0307
  776SOL     vw 3104   0.249   4.461   0.841  0.0808  0.0641 -0.1442
  777SOL     ow 3105   1.346   2.120   5.503 -0.1762 -0.1873  0.1910
  777SOL     hw 3106   1.318   2.211   5.506 -0.3906 -0.1830 -1.1299
  777SOL     hw 3107   1.423   2.117   5.560  1.8322  1.6066 -2.1826
  777SOL     vw 3108   1.353   2.132   5.511  0.0606  0.0498 -0.2964
  778SOL     ow 3109   1.603   5.833   0.943  0.3196 -0.7810  0.2268
  778SOL     hw 3110   1.570   5.768   0.880  1.4229 -0.8964 -0.2633
  778SOL     hw 3111   1.556   5.814   1.024  0.9433 -2.5286  0.2278
  778SOL     vw 3112   1.593   5.822   0.946  0.5475 -1.0269  0.1623
  779SOL     ow 3113   0.457   3.431   1.683  1.5284 -0.1430  0.5109
  779SOL     hw 3114   0.417   3.347   1.703 -0.6732  0.3203 -1.5091
  779SOL     hw 3115   0.410   3.494   1.738  0.4303  0.2118 -0.7804
  779SOL     vw 3116   0.445   3.428   1.693  1.0930 -0.0349  0.0741
  780SOL     ow 3117   0.143   7.013   2.598 -0.7961  0.4002  0.3900
  780SOL     hw 3118   0.232   7.047   2.585 -1.5755  2.4261 -0.1078
  780SOL     hw 3119   0.088   7.071   2.544 -2.4685 -0.5180  1.0521
  780SOL     vw 3120   0.148   7.025   2.589 -1.1196  0.5465  0.4117
  781SOL     ow 3121   6.014   3.779   4.214  0.3833 -0.0148  0.1158
  781SOL     hw 3122   6.081   3.777   4.282 -0.1198  0.2227  0.6290
  781SOL     hw 3123   5.957   3.852   4.238 -1.6559 -1.8258  1.2704
  781SOL     vw 3124   6.015   3.788   4.226  0.0477 -0.2224  0.3357
  782SOL     ow 3125   2.854   0.885   6.813 -0.1704  0.3386 -0.2487
  782SOL     hw 3126   2.839   0.874   6.907  2.4286 -1.2761  0.0621
  782SOL     hw 3127   2.913   0.814   6.789  0.0663  1.3156 -2.9081
  782SOL     vw 3128   2.860   0.874   6.823  0.2037  0.2545 -0.5586
  783SOL     ow 3129   4.995   0.260   7.227 -0.3014  0.0040 -0.0288
  783SOL     hw 3130   5.065   0.318   7.256 -1.8941  0.5405  3.1891
  783SOL     hw 3131   4.930   0.318   7.188 -0.0651 -0.1724 -0.6909
  783SOL     vw 3132   4.995   0.275   7.226 -0.4804  0.0515  0.3085
  784SOL     ow 3133   1.880   4.940   0.143  0.6211  0.5151  0.1302
  784SOL     hw 3134   1.801   4.902   0.105  2.0215 -3.3989  0.6391
  784SOL     hw 3135   1.850   4.983   0.223 -1.0481 -0.6107  0.1590
  784SOL     vw 3136   1.866   4.941   0.148  0.5856 -0.1500  0.2011
  785SOL     ow 3137   6.888   4.920   1.851 -0.4387 -0.5945 -0.0060
  785SOL     hw 3138   6.912   4.891   1.940  2.3065  0.4270 -0.3004
  785SOL     hw 3139   6.838   5.000   1.865  2.1644  1.0517  0.7305
  785SOL     vw 3140   6.885   4.927   1.865  0.2668 -0.2427  0.0523
  786SOL     ow 3141   4.750   2.331   4.602  0.3207  0.1812  0.6913
  786SOL     hw 3142   4.761   2.369   4.690  0.4093 -1.1608  1.2912
  786SOL     hw 3143   4.675   2.273   4.611  1.8735 -1.9565  0.6271
  786SOL     vw 3144   4.742   2.329   4.615  0.5369 -0.2779  0.7620
  787SOL     ow 3145   1.017   7.266   4.339 -0.1846 -0.5227 -0.3270
  787SOL     hw 3146   1.018   7.211   4.261  4.7542  1.8209 -2.3714
  787SOL     hw 3147   0.980   7.349   4.310  0.4589 -0.0496  0.1522
  787SOL     vw 3148   1.012   7.270   4.325  0.5519 -0.1509 -0.5333
  788SOL     ow 3149   5.594   4.926   6.074  0.0893  0.3486 -0.9685
  788SOL     hw 3150   5.638   4.900   6.155  1.5316  1.5832 -1.2977
  788SOL     hw 3151   5.511   4.878   6.075  0.4934 -0.4040  0.7514
  788SOL     vw 3152   5.589   4.916   6.085  0.3328  0.4120 -0.7851
  789SOL     ow 3153   1.077   4.766   0.117 -0.3248 -0.4103  0.0806
  789SOL     hw 3154   1.084   4.671   0.124  2.1300 -0.3225 -0.4716
  789SOL     hw 3155   1.102   4.786   0.027  1.2787  0.8823  0.7605
  789SOL     vw 3156   1.081   4.756   0.106  0.2106 -0.2279  0.0974
  790SOL     ow 3157   6.684   0.462   4.927 -0.6060  0.0270  0.4581
  790SOL     hw 3158   6.628   0.517   4.871  0.0448  0.4681  0.2362
  790SOL     hw 3159   6.686   0.507   5.011 -0.1894  0.2696  0.3195
  790SOL     vw 3160   6.677   0.475   4.931 -0.4652  0.1172  0.4103
  791SOL     ow 3161   1.907   1.810   6.913  0.4954 -0.5836 -0.6647
  791SOL     hw 3162   1.932   1.727   6.954 -2.5027 -2.4622 -2.3125
  791SOL     hw 3163   1.812   1.813   6.921  0.4229  2.3363 -1.4229
  791SOL     vw 3164   1.898   1.799   6.920  0.0903 -0.4461 -0.9823
  792SOL     ow 3165   4.649   0.145   5.617  0.6092  0.4551  0.3914
  792SOL     hw 3166   4.706   0.117   5.688  2.1373  1.9829 -0.1706
  792SOL     hw 3167   4.707   0.184   5.552 -0.9178  0.6734 -0.9317
  792SOL     vw 3168   4.664   0.147   5.618  0.6096  0.6855  0.1428
  793SOL     ow 3169   4.140   3.019   6.201  0.5274 -0.2258  0.5765
  793SOL     hw 3170   4.229   3.035   6.232  0.7214  1.2419 -0.6542
  793SOL     hw 3171   4.110   3.104   6.168  0.5653 -1.6876 -3.7929
  793SOL     vw 3172   4.148   3.033   6.201  0.5579 -0.2249 -0.1626
  794SOL     ow 3173   0.948   2.383   1.470  0.3035  0.1669 -0.0846
  794SOL     hw 3174   1.040   2.366   1.450  0.3008 -3.3701  2.0505
  794SOL     hw 3175   0.901   2.352   1.393  0.8320 -1.3663  0.1565
  794SOL     vw 3176   0.954   2.376   1.458  0.3729 -0.5021  0.2289
  795SOL     ow 3177   2.958   3.814   0.087  0.1704  0.6714  0.2157
  795SOL     hw 3178   2.957   3.832   0.181  0.9103  0.9188  0.1837
  795SOL     hw 3179   2.916   3.728   0.078 -1.8497  1.5715  0.5470
  795SOL     vw 3180   2.953   3.805   0.098  0.0014  0.8228  0.2552
  796SOL     ow 3181   0.843   0.463   2.177 -0.1450 -0.1998  0.0050
  796SOL     hw 3182   0.783   0.407   2.128 -0.7728  0.4303  0.0393
  796SOL     hw 3183   0.924   0.462   2.125 -0.1991 -1.0121 -0.0700
  796SOL     vw 3184   0.846   0.456   2.163 -0.2350 -0.2239 -0.0004
  797SOL     ow 3185   4.977   3.626   6.074  0.2218  0.6264  0.2225
  797SOL     hw 3186   4.913   3.613   6.144  1.4321 -0.6653  1.1462
  797SOL     hw 3187   5.058   3.649   6.119  0.7220  1.0543 -0.8500
  797SOL     vw 3188   4.979   3.627   6.089  0.4475  0.5125  0.2029
  798SOL     ow 3189   2.362   5.891   0.447 -0.4683  0.1631  0.2115
  798SOL     hw 3190   2.318   5.898   0.362  0.1049  1.4478 -0.0105
  798SOL     hw 3191   2.415   5.970   0.452  0.2708 -0.3857  1.3439
  798SOL     vw 3192   2.363   5.902   0.436 -0.2953  0.2606  0.3316
  799SOL     ow 3193   0.233   0.897   6.033  0.2072 -0.3523  0.2385
  799SOL     hw 3194   0.325   0.904   6.059 -0.4641 -0.1179  2.8921
  799SOL     hw 3195   0.220   0.967   5.969  2.0334 -0.9156 -0.7985
  799SOL     vw 3196   0.243   0.908   6.028  0.3596 -0.3957  0.4518
  800SOL     ow 3197   4.863   3.760   5.863  0.0428  0.5455  0.1893
  800SOL     hw 3198   4.890   3.711   5.941  0.2283 -0.5443 -0.5440
  800SOL     hw 3199   4.788   3.712   5.829  0.1150  0.8821 -0.4545
  800SOL     vw 3200   4.857   3.748   5.869  0.0765  0.4462  0.0076
  801SOL     ow 3201   6.941   1.368   3.126 -1.0892 -0.6332 -0.1746
  801SOL     hw 3202   6.881   1.293   3.125 -1.8829 -0.0080 -0.1797
  801SOL     hw 3203   6.935   1.405   3.038  1.3749 -2.1444 -1.0790
  801SOL     vw 3204   6.932   1.363   3.114 -0.8686 -0.7501 -0.2946
  802SOL     ow 3205   2.053   7.265   4.017 -0.0499 -0.0906 -0.4525
  802SOL     hw 3206   1.965   7.233   3.997 -0.4627  0.8419 -0.1960
  802SOL     hw 3207   2.044   7.360   4.014  1.0991  0.0108 -1.0553
  802SOL     vw 3208   2.040   7.273   4.014  0.0472  0.0458 -0.4981
  803SOL     ow 3209   6.781   2.624   6.067 -0.1298  0.5686 -0.5907
  803SOL     hw 3210   6.691   2.593   6.075 -0.2502  0.5943 -1.6621
  803SOL     hw 3211   6.804   2.608   5.975  1.0314  0.3692 -0.2808
  803SOL     vw 3212   6.772   2.618   6.056  0.0076  0.5457 -0.6909
  804SOL     ow 3213   6.771   2.061   0.359 -1.1684  0.1788 -0.4078
  804SOL     hw 3214   6.715   2.119   0.411 -1.1912 -0.4577  0.3033
  804SOL     hw 3215   6.711   1.993   0.328 -1.1426  0.5226 -1.2413
  804SOL     vw 3216   6.756   2.060   0.362 -1.1678  0.1401 -0.4240
  805SOL     ow 3217   5.624   4.707   5.343 -0.1064  0.2680 -0.4635
  805SOL     hw 3218   5.695   4.682   5.403 -0.6399 -2.9931 -1.0169
  805SOL     hw 3219   5.669   4.732   5.262  0.5161  2.6633  0.5398
  805SOL     vw 3220   5.640   4.707   5.340 -0.0947  0.1538 -0.4041
  806SOL     ow 3221   6.025   1.063   2.612 -0.0246  0.6541 -0.1600
  806SOL     hw 3222   6.019   1.002   2.538  1.2217  1.6411 -1.1018
  806SOL     hw 3223   5.934   1.084   2.632 -0.4610 -1.0116 -0.2176
  806SOL     vw 3224   6.012   1.058   2.605  0.0825  0.5645 -0.2918
  807SOL     ow 3225   6.449   1.876   1.261  0.1351 -0.1859 -0.2867
  807SOL     hw 3226   6.415   1.874   1.172 -2.1103 -0.5972  0.5295
  807SOL     hw 3227   6.456   1.969   1.283 -2.0320 -0.0654  0.0511
  807SOL     vw 3228   6.445   1.888   1.252 -0.4473 -0.2242 -0.1345
  808SOL     ow 3229   1.335   4.474   5.682  0.3530  0.3571 -0.7105
  808SOL     hw 3230   1.401   4.470   5.613 -0.2734  0.9463 -1.3584
  808SOL     hw 3231   1.311   4.383   5.698  1.2651  0.1413 -0.5168
  808SOL     vw 3232   1.340   4.461   5.675  0.3907  0.4065 -0.7701
  809SOL     ow 3233   2.011   4.257   1.302  0.0082  0.7867  0.3262
  809SOL     hw 3234   1.946   4.310   1.347 -0.8415 -0.5984  0.7888
  809SOL     hw 3235   2.075   4.235   1.370 -0.8293 -0.6024  0.7051
  809SOL     vw 3236   2.011   4.261   1.317 -0.2145  0.4208  0.4373
  810SOL     ow 3237   6.311   4.707   2.225 -0.3867  0.5693  0.3298
  810SOL     hw 3238   6.243   4.775   2.234 -0.2541  0.7214  0.1892
  810SOL     hw 3239   6.282   4.653   2.152  0.1804  1.2715 -0.4319
  810SOL     vw 3240   6.298   4.709   2.217 -0.2944  0.6821  0.2109
  811SOL     ow 3241   7.150   7.136   6.612  0.1053 -0.1728 -0.1352
  811SOL     hw 3242   7.084   7.073   6.582  0.1702 -1.0830  1.4878
  811SOL     hw 3243   7.228   7.083   6.629  1.4963  0.9552 -2.4952
  811SOL     vw 3244   7.151   7.120   6.611  0.2975 -0.1442 -0.2325
  812SOL     ow 3245   2.746   7.196   6.986  0.1855  0.0621 -0.1574
  812SOL     hw 3246   2.707   7.251   6.918 -0.0377  1.2784  0.9064
  812SOL     hw 3247   2.832   7.236   7.003  0.4122 -0.4799 -0.0157
  812SOL     vw 3248   2.752   7.209   6.980  0.1858  0.1509  0.0017
  813SOL     ow 3249   4.214   2.275   2.750  0.1757 -0.8594  1.0497
  813SOL     hw 3250   4.253   2.292   2.664  0.6642 -0.5782  1.3257
  813SOL     hw 3251   4.146   2.210   2.732  0.8719 -1.4860  0.5765
  813SOL     vw 3252   4.210   2.268   2.736  0.3319 -0.9049  1.0237
  814SOL     ow 3253   0.907   4.720   0.728 -0.0540 -0.1834 -1.0853
  814SOL     hw 3254   0.841   4.704   0.796  0.8326 -0.4522 -0.2621
  814SOL     hw 3255   0.960   4.640   0.726 -0.4757 -0.4458 -2.5875
  814SOL     vw 3256   0.905   4.707   0.737  0.0073 -0.2532 -1.1749
  815SOL     ow 3257   1.224   5.952   2.095  0.1967 -0.1706  0.8127
  815SOL     hw 3258   1.319   5.961   2.104 -0.0024  1.8718  1.5021
  815SOL     hw 3259   1.192   5.942   2.184 -0.3485  1.1395  0.7929
  815SOL     vw 3260   1.232   5.952   2.108  0.0985  0.2716  0.9010
  816SOL     ow 3261   2.608   6.374   2.300  0.2533 -0.1423 -0.4974
  816SOL     hw 3262   2.599   6.400   2.209  0.2991  2.5210  0.1957
  816SOL     hw 3263   2.534   6.414   2.345  1.5756  0.7541  1.0165
  816SOL     vw 3264   2.597   6.382   2.294  0.4338  0.3271 -0.2061
  817SOL     ow 3265   1.088   4.489   2.740 -0.1368  0.2765  0.2746
  817SOL     hw 3266   1.029   4.419   2.767  0.1940 -0.6793 -1.3592
  817SOL     hw 3267   1.114   4.531   2.822 -0.0673 -1.7432  1.3573
  817SOL     vw 3268   1.084   4.485   2.755 -0.0840 -0.1161  0.2021
  818SOL     ow 3269   0.757   5.000   0.838  0.7153 -0.1182  0.1202
  818SOL     hw 3270   0.688   4.934   0.826  1.0216 -0.5876  0.8437
  818SOL     hw 3271   0.725   5.077   0.792  0.5233 -0.8903 -1.0842
  818SOL     vw 3272   0.744   5.002   0.831  0.7303 -0.2820  0.0568
  819SOL     ow 3273   4.170   6.790   6.974 -0.0446  0.8543  0.7224
  819SOL     hw 3274   4.130   6.822   6.893 -0.4437  0.9918  0.9744
  819SOL     hw 3275   4.113   6.822   7.043 -0.6229 -0.6292  0.9656
  819SOL     vw 3276   4.157   6.798   6.972 -0.1736  0.6769  0.7877
  820SOL     ow 3277   2.080   5.528   4.363  0.3073  0.4148  0.0899
  820SOL     hw 3278   2.066   5.434   4.375 -3.2990  0.5801 -1.4303
  820SOL     hw 3279   2.143   5.534   4.291 -0.7586 -0.9445 -1.0216
  820SOL     vw 3280   2.086   5.516   4.355 -0.3091  0.2575 -0.2573
  821SOL     ow 3281   5.469   1.582   1.315  0.5353 -0.5210 -0.0842
  821SOL     hw 3282   5.380   1.558   1.340  0.7394 -0.6967  0.4977
  821SOL     hw 3283   5.492   1.653   1.376  1.2903 -1.4232  0.7222
  821SOL     vw 3284   5.460   1.588   1.327  0.6618 -0.6632  0.0990
  822SOL     ow 3285   1.492   3.684   5.373  0.2726 -0.1727  0.5032
  822SOL     hw 3286   1.518   3.605   5.327  0.5427  0.4948 -0.5286
  822SOL     hw 3287   1.444   3.653   5.450  0.9958 -1.3375  0.4983
  822SOL     vw 3288   1.489   3.670   5.378  0.4036 -0.2383  0.3664
  823SOL     ow 3289   4.860   6.002   5.217  0.0928 -0.6274  0.3465
  823SOL     hw 3290   4.837   6.084   5.174 -0.0945 -0.5673  0.5590
  823SOL     hw 3291   4.820   6.008   5.304 -0.1296 -1.0477  0.2776
  823SOL     vw 3292   4.852   6.014   5.223  0.0389 -0.6752  0.3653
  824SOL     ow 3293   0.942   0.606   3.610  0.4582 -0.1220  0.4606
  824SOL     hw 3294   0.927   0.554   3.689 -2.8496 -0.4555 -0.2431
  824SOL     hw 3295   0.935   0.543   3.539  0.2685  0.6717 -0.2339
  824SOL     vw 3296   0.939   0.591   3.611 -0.0032 -0.0613  0.2761
  825SOL     ow 3297   4.072   7.124   0.375 -0.5654  0.3217 -0.8241
  825SOL     hw 3298   4.020   7.132   0.455  0.8012  0.9600  0.0426
  825SOL     hw 3299   4.034   7.189   0.315 -1.9693 -0.5622 -0.9288
  825SOL     vw 3300   4.060   7.134   0.377 -0.5701  0.2894 -0.7236
  826SOL     ow 3301   2.517   6.098   0.406  0.8837 -0.4694 -0.1459
  826SOL     hw 3302   2.545   6.127   0.319  1.6472  1.2718  0.6470
  826SOL     hw 3303   2.580   6.029   0.429 -0.3197 -2.1660 -1.6114
  826SOL     vw 3304   2.529   6.093   0.397  0.8256 -0.4635 -0.2346
  827SOL     ow 3305   1.819   2.549   3.937  0.3132  0.2419 -0.3364
  827SOL     hw 3306   1.894   2.518   3.988  1.7831  3.2448 -0.4624
  827SOL     hw 3307   1.837   2.520   3.847  1.0098  0.3996 -0.2513
  827SOL     vw 3308   1.831   2.541   3.932  0.5990  0.6589 -0.3417
  828SOL     ow 3309   5.111   0.989   7.169  0.0734 -0.3994  0.0412
  828SOL     hw 3310   5.131   1.078   7.198 -0.6042 -0.0068 -0.6379
  828SOL     hw 3311   5.190   0.960   7.124 -0.0016  0.2061 -0.5035
  828SOL     vw 3312   5.124   0.997   7.167 -0.0260 -0.2677 -0.1204
  829SOL     ow 3313   4.698   1.304   3.267 -0.8292  0.5659  0.5582
  829SOL     hw 3314   4.612   1.309   3.308 -1.8668 -1.6330 -1.1812
  829SOL     hw 3315   4.757   1.276   3.338 -1.6433  1.3157  1.5675
  829SOL     vw 3316   4.695   1.301   3.282 -1.0734  0.3748  0.4618
  830SOL     ow 3317   5.232   3.706   4.549  0.3637  0.1373  0.3528
  830SOL     hw 3318   5.159   3.692   4.488  0.4587 -1.9610  0.6726
  830SOL     hw 3319   5.297   3.754   4.497 -0.4956  0.4521 -0.4686
  830SOL     vw 3320   5.231   3.711   4.534  0.2625 -0.0980  0.2866
  831SOL     ow 3321   0.372   3.635   0.662 -0.1346  0.1527  0.2957
  831SOL     hw 3322   0.412   3.650   0.577 -0.3739  0.5221  0.2447
  831SOL     hw 3323   0.330   3.719   0.684  0.1040  0.1225  0.8706
  831SOL     vw 3324   0.371   3.648   0.654 -0.1347  0.1974  0.3648
  832SOL     ow 3325   1.737   3.230   1.368  0.0817 -0.0442 -0.1994
  832SOL     hw 3326   1.822   3.227   1.324  0.3080  0.5778  0.1841
  832SOL     hw 3327   1.707   3.320   1.356 -0.5958 -0.2989 -0.4585
  832SOL     vw 3328   1.744   3.241   1.360  0.0222  0.0042 -0.1831
  833SOL     ow 3329   4.616   3.539   1.036  0.1318 -0.4638 -0.7671
  833SOL     hw 3330   4.581   3.623   1.066  0.8769  0.3802 -2.1358
  833SOL     hw 3331   4.570   3.474   1.088  1.6432  0.8680  2.4662
  833SOL     vw 3332   4.605   3.541   1.047  0.4296 -0.1765 -0.5212
  834SOL     ow 3333   0.854   5.372   0.190  0.1027 -0.2670  0.9760
  834SOL     hw 3334   0.846   5.297   0.131  1.5920 -0.0844  0.5052
  834SOL     hw 3335   0.881   5.334   0.274  2.7587 -0.1616  0.2495
  834SOL     vw 3336   0.856   5.357   0.193  0.6496 -0.2291  0.8180
  835SOL     ow 3337   5.711   6.298   2.192  1.0175  0.0072 -0.3372
  835SOL     hw 3338   5.770   6.346   2.251  2.5589 -2.2476  0.0857
  835SOL     hw 3339   5.629   6.291   2.241  0.7222  2.1399 -0.4293
  835SOL     vw 3340   5.708   6.304   2.206  1.1818 -0.0091 -0.2936
  836SOL     ow 3341   4.772   5.506   6.172 -0.0181  0.1078 -0.1859
  836SOL     hw 3342   4.726   5.460   6.242 -1.3456 -0.8357 -1.5942
  836SOL     hw 3343   4.794   5.438   6.109 -3.7202  1.3971 -3.2804
  836SOL     vw 3344   4.769   5.491   6.173 -0.6814  0.1533 -0.7801
  837SOL     ow 3345   2.279   4.914   5.331  0.3268 -0.7601 -0.2482
  837SOL     hw 3346   2.223   4.978   5.376  0.1395 -0.1237 -1.3515
  837SOL     hw 3347   2.238   4.830   5.349  0.3543 -0.5470  0.9081
  837SOL     vw 3348   2.266   4.912   5.339  0.3057 -0.6480 -0.2410
  838SOL     ow 3349   4.574   0.871   1.506 -0.2183  0.2608  0.6412
  838SOL     hw 3350   4.484   0.900   1.492 -0.5560 -0.2160  1.7633
  838SOL     hw 3351   4.573   0.778   1.485  0.1720  0.3788  0.0510
  838SOL     vw 3352   4.562   0.863   1.501 -0.2112  0.2134  0.7114
  839SOL     ow 3353   2.625   2.184   0.120 -0.4630  0.0116  0.4766
  839SOL     hw 3354   2.670   2.124   0.180 -0.7998 -2.4919 -1.5804
  839SOL     hw 3355   2.695   2.219   0.065 -0.6099 -1.6466 -0.8534
  839SOL     vw 3356   2.640   2.180   0.120 -0.5268 -0.5374  0.0297
  840SOL     ow 3357   2.342   0.661   3.134  0.0635 -0.5655  0.3666
  840SOL     hw 3358   2.265   0.609   3.111  1.3586 -1.9559 -1.0967
  840SOL     hw 3359   2.338   0.670   3.229 -1.5418 -1.1524  0.3899
  840SOL     vw 3360   2.331   0.656   3.143  0.0225 -0.8264  0.1764
  841SOL     ow 3361   1.472   5.432   0.338 -0.2003  0.3264  0.4492
  841SOL     hw 3362   1.477   5.358   0.399  0.8766 -0.4499 -0.5226
  841SOL     hw 3363   1.405   5.406   0.275 -0.0371  0.3179  0.2802
  841SOL     vw 3364   1.464   5.418   0.338 -0.0367  0.2227  0.2987
  842SOL     ow 3365   6.728   0.040   5.025  0.9776  0.0648 -0.0571
  842SOL     hw 3366   6.806   0.067   4.977  2.3343 -1.2326  1.3090
  842SOL     hw 3367   6.741  -0.053   5.043  0.1613  0.2917  2.0402
  842SOL     vw 3368   6.740   0.031   5.021  1.0488 -0.0765  0.3998
  843SOL     ow 3369   3.772   7.096   0.232  0.0175 -0.0168  0.1457
  843SOL     hw 3370   3.727   7.127   0.311  0.0952 -0.2012  0.2620
  843SOL     hw 3371   3.815   7.174   0.198 -0.4821  0.1891 -0.0335
  843SOL     vw 3372   3.772   7.110   0.238 -0.0381 -0.0141  0.1374
  844SOL     ow 3373   4.139   5.534   3.525  0.3495  0.2751  0.3025
  844SOL     hw 3374   4.168   5.512   3.614  0.0701 -0.3978  0.2351
  844SOL     hw 3375   4.211   5.585   3.488  1.5643 -1.5069  0.0764
  844SOL     vw 3376   4.153   5.538   3.532  0.4728 -0.0491  0.2638
  845SOL     ow 3377   6.071   5.338   2.082 -0.0464  0.1718 -0.2220
  845SOL     hw 3378   5.996   5.364   2.136 -1.1752 -0.0135 -1.6258
  845SOL     hw 3379   6.148   5.359   2.135 -1.0832  0.4892  1.2150
  845SOL     vw 3380   6.071   5.344   2.096 -0.3321  0.1893 -0.2177
  846SOL     ow 3381   4.225   6.336   2.940  0.2288 -0.0428  0.1707
  846SOL     hw 3382   4.158   6.363   2.877  1.4590  1.3362 -0.5798
  846SOL     hw 3383   4.255   6.251   2.907 -0.3273 -0.1327 -0.1247
  846SOL     vw 3384   4.220   6.328   2.927  0.3173  0.1273  0.0327
  847SOL     ow 3385   4.367   5.177   1.871 -0.5137  0.2921 -0.6473
  847SOL     hw 3386   4.285   5.223   1.849 -0.7346  0.5202  0.5834
  847SOL     hw 3387   4.434   5.245   1.863 -0.3488 -0.0126 -2.1468
  847SOL     vw 3388   4.365   5.192   1.867 -0.5212  0.2820 -0.6828
  848SOL     ow 3389   0.728   4.395   2.755  0.0902 -0.5202 -0.0160
  848SOL     hw 3390   0.697   4.463   2.815 -3.1697 -2.8674  1.2367
  848SOL     hw 3391   0.689   4.418   2.671 -1.5914 -1.1594  0.5653
  848SOL     vw 3392   0.719   4.407   2.752 -0.5618 -0.9141  0.2259
  849SOL     ow 3393   3.598   1.167   3.732 -0.5226 -0.7995 -0.1414
  849SOL     hw 3394   3.560   1.245   3.691 -0.1221 -0.3293  0.3601
  849SOL     hw 3395   3.542   1.150   3.807  1.0501  0.8216  1.5204
  849SOL     vw 3396   3.586   1.175   3.736 -0.2625 -0.5236  0.1440
  850SOL     ow 3397   4.106   1.229   7.300 -0.5907  0.3604 -0.0285
  850SOL     hw 3398   4.031   1.287   7.282  0.7394  1.3392 -2.8510
  850SOL     hw 3399   4.177   1.289   7.324  0.4091 -0.1579 -1.5723
  850SOL     vw 3400   4.105   1.245   7.301 -0.2832  0.4211 -0.6046
  851SOL     ow 3401   1.698   1.358   0.443  0.0964  0.2758  0.4779
  851SOL     hw 3402   1.658   1.271   0.451  1.9142 -0.4395  2.6578
  851SOL     hw 3403   1.758   1.350   0.369 -0.5803  0.0557 -0.0609
  851SOL     vw 3404   1.700   1.345   0.434  0.2469  0.1523  0.6944
  852SOL     ow 3405   3.312   2.179   0.696  0.4533 -0.4386  0.0359
  852SOL     hw 3406   3.333   2.162   0.604 -0.0582 -0.8086 -0.0180
  852SOL     hw 3407   3.271   2.098   0.727  0.1519 -0.1370  0.4462
  852SOL     vw 3408   3.309   2.166   0.688  0.3459 -0.4475  0.0829
  853SOL     ow 3409   3.198   0.009   3.161 -0.2465  0.3052  0.2142
  853SOL     hw 3410   3.262   0.016   3.090  0.3431 -0.8302  0.6018
  853SOL     hw 3411   3.114  -0.002   3.117  0.3694 -3.0297 -0.4475
  853SOL     vw 3412   3.196   0.008   3.146 -0.0874 -0.2846  0.1781
  854SOL     ow 3413   2.709   4.594   2.539  0.2104  0.3742  0.1639
  854SOL     hw 3414   2.725   4.565   2.629 -1.2093  1.1079  0.6827
  854SOL     hw 3415   2.788   4.568   2.491 -0.3137 -2.9023  0.8738
  854SOL     vw 3416   2.722   4.587   2.545 -0.0460  0.0389  0.3259
  855SOL     ow 3417   2.425   2.068   7.276  0.5512 -0.4353 -0.0926
  855SOL     hw 3418   2.372   2.001   7.319  1.7936 -1.7631 -0.5231
  855SOL     hw 3419   2.484   2.100   7.344 -1.5189  1.9205  0.7049
  855SOL     vw 3420   2.426   2.063   7.290  0.4420 -0.2996 -0.0443
  856SOL     ow 3421   4.693   3.106   5.447  0.0690  0.5387 -0.4204
  856SOL     hw 3422   4.769   3.162   5.430  0.1554 -0.2827 -3.3551
  856SOL     hw 3423   4.729   3.018   5.456 -0.4096  0.3734 -0.1075
  856SOL     vw 3424   4.708   3.102   5.446  0.0172  0.4085 -0.7660
  857SOL     ow 3425   2.177   7.293   3.525 -0.6987  0.0110 -0.8204
  857SOL     hw 3426   2.216   7.339   3.451 -0.6377 -1.0734 -1.4795
  857SOL     hw 3427   2.083   7.293   3.507 -0.7081 -0.0394 -0.7735
  857SOL     vw 3428   2.170   7.299   3.513 -0.6919 -0.1385 -0.9011
  858SOL     ow 3429   2.988   1.842   2.420  0.0567 -0.4778  0.5118
  858SOL     hw 3430   3.053   1.903   2.456 -0.6024 -0.1188  1.1107
  858SOL     hw 3431   3.030   1.756   2.426  0.8399 -0.1362  0.0288
  858SOL     vw 3432   3.002   1.839   2.426  0.0730 -0.3853  0.5271
  859SOL     ow 3433   3.515   5.397   5.519  0.0118  0.2564 -0.4765
  859SOL     hw 3434   3.544   5.307   5.532 -1.8125 -0.0330  2.2557
  859SOL     hw 3435   3.576   5.450   5.570 -0.2006  0.3361 -0.3038
  859SOL     vw 3436   3.527   5.392   5.527 -0.2570  0.2286 -0.0932
  860SOL     ow 3437   2.416   4.926   6.311 -0.3497 -0.3569 -0.2859
  860SOL     hw 3438   2.408   4.879   6.229  0.7185  0.2181 -0.7383
  860SOL     hw 3439   2.410   4.858   6.379  0.7730 -1.0967 -0.9067
  860SOL     vw 3440   2.414   4.911   6.309 -0.0608 -0.3786 -0.4275
  861SOL     ow 3441   1.680   4.169   2.092 -0.1127  0.6205  0.1905
  861SOL     hw 3442   1.623   4.245   2.106 -0.2702  0.5115  0.1409
  861SOL     hw 3443   1.713   4.147   2.180 -2.1982 -0.9283  0.6666
  861SOL     vw 3444   1.677   4.176   2.106 -0.4086  0.4017  0.2468
  862SOL     ow 3445   1.216   6.449   6.789  0.2870  0.0081  0.0863
  862SOL     hw 3446   1.255   6.536   6.793 -0.6502  0.5717 -1.8208
  862SOL     hw 3447   1.288   6.389   6.808  1.0455  1.1550  0.9727
  862SOL     vw 3448   1.230   6.453   6.792  0.2635  0.2337 -0.0482
  863SOL     ow 3449   3.228   0.153   1.001  0.0901 -0.0422  0.2177
  863SOL     hw 3450   3.283   0.226   1.030 -0.1982  0.0965  0.4160
  863SOL     hw 3451   3.152   0.194   0.961 -0.3590 -0.2223  0.8649
  863SOL     vw 3452   3.225   0.168   1.000 -0.0073 -0.0477  0.3292
  864SOL     ow 3453   4.814   0.107   3.851 -0.3315  0.1296 -0.3155
  864SOL     hw 3454   4.909   0.116   3.855 -0.4566  0.9998  1.1787
  864SOL     hw 3455   4.783   0.189   3.813 -0.6206  0.8681  1.4336
  864SOL     vw 3456   4.822   0.119   3.846 -0.3862  0.3419  0.1125
  865SOL     ow 3457   2.088   6.462   6.344  0.4077  0.4902  0.2453
  865SOL     hw 3458   2.171   6.417   6.328 -0.0660 -0.5966  0.7401
  865SOL     hw 3459   2.058   6.490   6.257 -0.6776 -2.6945 -0.5251
  865SOL     vw 3460   2.095   6.460   6.330  0.2021 -0.0737  0.2089
  866SOL     ow 3461   5.894   5.576   0.170  0.0489  0.0860  0.6654
  866SOL     hw 3462   5.846   5.633   0.109  0.7758 -0.5460 -0.5428
  866SOL     hw 3463   5.864   5.488   0.148  1.0405 -0.2319  0.5515
  866SOL     vw 3464   5.884   5.572   0.159  0.2756 -0.0391  0.4910
  867SOL     ow 3465   4.827   3.436   3.246 -0.4449 -0.4009 -0.5141
  867SOL     hw 3466   4.900   3.381   3.219  0.9981  2.2273 -2.3374
  867SOL     hw 3467   4.854   3.472   3.331 -1.2364 -2.0873  0.5074
  867SOL     vw 3468   4.840   3.433   3.254 -0.3588 -0.2767 -0.6199
  868SOL     ow 3469   5.087   3.472   6.439 -0.0290  0.0955 -0.5788
  868SOL     hw 3470   5.029   3.520   6.498 -1.1345 -2.3009  0.4056
  868SOL     hw 3471   5.101   3.532   6.365 -2.2987  1.4416 -0.0003
  868SOL     vw 3472   5.081   3.486   6.437 -0.4745 -0.0430 -0.3724
  869SOL     ow 3473   4.073   4.465   6.455  0.0346  0.6037 -0.0851
  869SOL     hw 3474   4.025   4.520   6.517 -2.6135 -0.9407 -0.5888
  869SOL     hw 3475   4.143   4.521   6.422 -0.6005  2.5911  1.7176
  869SOL     vw 3476   4.076   4.479   6.459 -0.3989  0.6621  0.0861
  870SOL     ow 3477   3.843   2.673   0.317  0.5068 -0.0848 -0.5101
  870SOL     hw 3478   3.783   2.629   0.377 -2.3472 -0.2077 -3.1362
  870SOL     hw 3479   3.887   2.739   0.370  0.1313 -1.8534  2.1767
  870SOL     vw 3480   3.841   2.676   0.332  0.0807 -0.3344 -0.5021
  871SOL     ow 3481   2.615   6.206   0.644  0.1778 -0.2709  0.6671
  871SOL     hw 3482   2.577   6.294   0.650 -1.7995 -0.9463 -0.8062
  871SOL     hw 3483   2.616   6.186   0.550 -0.5194 -2.2256  1.0163
  871SOL     vw 3484   2.610   6.215   0.633 -0.1751 -0.6180  0.5188
  872SOL     ow 3485   3.788   0.720   0.235 -0.6398 -0.0894 -0.0458
  872SOL     hw 3486   3.780   0.673   0.318  0.4210  1.7211  1.1480
  872SOL     hw 3487   3.874   0.695   0.201 -0.1780  0.7703  0.4695
  872SOL     vw 3488   3.798   0.711   0.241 -0.4388  0.2629  0.1797
  873SOL     ow 3489   0.478   1.467   0.999 -1.3567  0.6786 -0.2431
  873SOL     hw 3490   0.440   1.423   1.075  3.6078 -0.6162  1.9329
  873SOL     hw 3491   0.519   1.397   0.948 -0.6516  1.9705 -1.5337
  873SOL     vw 3492   0.479   1.452   1.002 -0.6087  0.6782 -0.1262
  874SOL     ow 3493   1.236   6.673   7.201  0.0003  0.1395  0.3220
  874SOL     hw 3494   1.283   6.599   7.162  1.5491  1.4198 -0.3740
  874SOL     hw 3495   1.152   6.636   7.229  0.6537 -1.8313 -0.1323
  874SOL     vw 3496   1.231   6.658   7.199  0.2908  0.0484  0.1702
  875SOL     ow 3497   1.016   2.163   2.895  0.2432  0.2063 -0.5719
  875SOL     hw 3498   0.969   2.185   2.814 -0.7943  0.1238 -0.0106
  875SOL     hw 3499   0.976   2.218   2.962  1.4831  0.6972 -0.2019
  875SOL     vw 3500   1.005   2.173   2.893  0.2699  0.2604 -0.4489
  876SOL     ow 3501   2.031   3.062   5.353 -0.1818 -0.6258  0.3692
  876SOL     hw 3502   1.947   3.064   5.400 -0.4011 -3.0778  0.2483
  876SOL     hw 3503   2.097   3.072   5.422 -0.4754  3.3787  0.2517
  876SOL     vw 3504   2.028   3.063   5.368 -0.2495 -0.4209  0.3376
  877SOL     ow 3505   3.998   2.128   2.581  0.0151  0.3601 -0.8515
  877SOL     hw 3506   3.915   2.111   2.625 -0.7441 -2.8597 -3.1802
  877SOL     hw 3507   4.054   2.055   2.605  1.1198  0.8931 -1.6858
  877SOL     vw 3508   3.995   2.116   2.590  0.0608  0.0056 -1.2689
  878SOL     ow 3509   0.505   1.360   2.972  1.3395 -0.0023 -0.0125
  878SOL     hw 3510   0.557   1.304   3.029 -0.2942 -0.0457  1.5102
  878SOL     hw 3511   0.508   1.446   3.014  2.3116  0.6483 -1.3400
  878SOL     vw 3512   0.512   1.364   2.985  1.2522  0.0778  0.0134
  879SOL     ow 3513   4.107   1.055   3.661 -0.3413  0.2597 -0.3161
  879SOL     hw 3514   4.107   1.046   3.566 -0.0372  1.9626 -0.5069
  879SOL     hw 3515   4.196   1.032   3.688  0.1981  1.8215 -0.6934
  879SOL     vw 3516   4.119   1.051   3.652 -0.2301  0.6905 -0.3910
  880SOL     ow 3517   4.676   4.879   2.917 -0.4352 -0.1203 -0.3841
  880SOL     hw 3518   4.613   4.942   2.882 -1.5154 -0.2779  1.1627
  880SOL     hw 3519   4.622   4.804   2.945  0.6181 -0.9339 -0.4606
  880SOL     vw 3520   4.660   4.877   2.916 -0.4387 -0.2484 -0.1903
  881SOL     ow 3521   2.653   6.319   1.159 -0.2904  0.0085 -0.0735
  881SOL     hw 3522   2.743   6.299   1.133 -0.9186 -3.4066 -0.0329
  881SOL     hw 3523   2.652   6.307   1.254 -0.5017  1.5568  0.1477
  881SOL     vw 3524   2.665   6.315   1.168 -0.4010 -0.2377 -0.0390
  882SOL     ow 3525   3.238   5.317   6.837  0.1127 -0.0758 -0.2429
  882SOL     hw 3526   3.312   5.294   6.782  0.7514  0.1370  0.5079
  882SOL     hw 3527   3.244   5.412   6.848 -0.2772 -0.0532 -0.1871
  882SOL     vw 3528   3.248   5.326   6.831  0.1454 -0.0448 -0.1364
  883SOL     ow 3529   5.077   6.675   4.273 -0.7854  0.5942  0.4553
  883SOL     hw 3530   5.061   6.749   4.333 -2.0994  2.0462 -1.5425
  883SOL     hw 3531   5.145   6.706   4.214  2.3609 -1.7472  2.5173
  883SOL     vw 3532   5.084   6.689   4.273 -0.5436  0.4768  0.4637
  884SOL     ow 3533   6.879   1.796   0.821 -0.0985 -0.2704 -0.1815
  884SOL     hw 3534   6.940   1.839   0.881  0.9409 -0.6053 -0.9795
  884SOL     hw 3535   6.924   1.715   0.795 -1.6301 -1.4275  0.6012
  884SOL     vw 3536   6.893   1.791   0.826 -0.1636 -0.4673 -0.1835
  885SOL     ow 3537   3.973   1.435   6.464  0.5565 -0.3370  0.5931
  885SOL     hw 3538   3.956   1.519   6.421 -0.0509 -0.0241  1.4019
  885SOL     hw 3539   4.007   1.459   6.551 -1.1693 -0.8823  1.4602
  885SOL     vw 3540   3.976   1.449   6.470  0.2486 -0.3676  0.8144
  886SOL     ow 3541   6.549   5.270   2.825 -0.3807  0.2087 -0.0689
  886SOL     hw 3542   6.488   5.256   2.898 -3.8205  2.8697 -2.1113
  886SOL     hw 3543   6.584   5.358   2.840  0.6064 -0.0854 -0.5425
  886SOL     vw 3544   6.545   5.280   2.837 -0.7045  0.5212 -0.4009
  887SOL     ow 3545   4.452   2.436   0.640  0.7057 -0.2364  0.1408
  887SOL     hw 3546   4.516   2.374   0.677  2.1155  0.0684 -1.6023
  887SOL     hw 3547   4.503   2.515   0.624 -0.4082  0.4152 -0.2509
  887SOL     vw 3548   4.467   2.438   0.643  0.7448 -0.1104 -0.1408
  888SOL     ow 3549   6.442   0.416   5.804 -0.8619  0.4283 -0.4585
  888SOL     hw 3550   6.481   0.448   5.886 -3.6554  1.2585  0.6493
  888SOL     hw 3551   6.479   0.474   5.737  1.4264 -0.2189  0.1403
  888SOL     vw 3552   6.452   0.428   5.806 -0.9284  0.4524 -0.2332
  889SOL     ow 3553   4.419   3.278   2.796  0.1307 -0.4993  0.4514
  889SOL     hw 3554   4.353   3.275   2.865  0.5239 -0.0309  0.8568
  889SOL     hw 3555   4.496   3.236   2.835  1.3705  2.4591  1.4399
  889SOL     vw 3556   4.420   3.272   2.810  0.3462 -0.0472  0.6353
  890SOL     ow 3557   6.967   0.688   4.795  0.4278 -0.2442  0.0618
  890SOL     hw 3558   6.908   0.756   4.762 -1.1509 -1.8903 -0.6926
  890SOL     hw 3559   7.028   0.735   4.852 -0.8754  1.7198 -0.0506
  890SOL     vw 3560   6.967   0.703   4.798  0.0477 -0.2023 -0.0525
  891SOL     ow 3561   3.542   0.835   2.081 -0.3014 -0.1442  0.3345
  891SOL     hw 3562   3.568   0.751   2.120  0.5464  0.2985  0.7440
  891SOL     hw 3563   3.614   0.859   2.024  0.0932  0.9508  1.2488
  891SOL     vw 3564   3.555   0.827   2.079 -0.1374  0.0587  0.5093
  892SOL     ow 3565   5.857   7.286   1.225  0.1523  0.8479 -0.1391
  892SOL     hw 3566   5.933   7.269   1.170  1.2984  4.7667 -0.0725
  892SOL     hw 3567   5.881   7.253   1.311  0.0862 -1.4385 -0.9222
  892SOL     vw 3568   5.870   7.280   1.229  0.2947  1.0633 -0.2336
  893SOL     ow 3569   5.074   6.135   2.209  0.5838 -0.1477 -0.3455
  893SOL     hw 3570   5.086   6.226   2.184 -0.4955  0.2671  0.5740
  893SOL     hw 3571   5.088   6.086   2.128  2.4247  0.7024 -0.5985
  893SOL     vw 3572   5.077   6.140   2.195  0.6845  0.0188 -0.2575
  894SOL     ow 3573   1.039   6.070   1.793 -0.0396  0.0363 -0.2715
  894SOL     hw 3574   0.993   6.154   1.798  0.1182  0.0511  2.1138
  894SOL     hw 3575   1.050   6.054   1.699 -0.8413  2.2406 -0.7997
  894SOL     vw 3576   1.034   6.079   1.781 -0.1245  0.3290 -0.0265
  895SOL     ow 3577   4.405   0.513   0.163  0.1014 -0.1769 -0.1407
  895SOL     hw 3578   4.387   0.488   0.254  0.6992 -0.5089 -0.1058
  895SOL     hw 3579   4.330   0.479   0.114 -0.8048  1.0380  0.3782
  895SOL     vw 3580   4.393   0.505   0.168  0.0606 -0.0604 -0.0676
  896SOL     ow 3581   0.355   4.963   3.226  0.0615  0.3589  0.4344
  896SOL     hw 3582   0.263   4.958   3.253  0.1876  1.8830  1.2417
  896SOL     hw 3583   0.401   4.902   3.283 -0.2892  0.4788  0.8474
  896SOL     vw 3584   0.349   4.955   3.237  0.0318  0.5755  0.5955
  897SOL     ow 3585   5.729   1.740   2.014  0.0049 -1.1185  0.5115
  897SOL     hw 3586   5.798   1.701   2.068  0.7913 -1.1499 -0.5000
  897SOL     hw 3587   5.716   1.827   2.052 -0.0114 -1.4188  1.2274
  897SOL     vw 3588   5.736   1.746   2.026  0.1068 -1.1623  0.4724
  898SOL     ow 3589   0.599   2.702   3.960 -0.2433 -0.0004  0.1382
  898SOL     hw 3590   0.579   2.645   4.034 -0.3539  0.9813  0.8874
  898SOL     hw 3591   0.584   2.648   3.882 -1.2805 -0.6916  0.8015
  898SOL     vw 3592   0.595   2.688   3.959 -0.3948  0.0380  0.3245
  899SOL     ow 3593   3.911   2.854   0.072  0.6985 -0.1881  0.2346
  899SOL     hw 3594   3.988   2.830   0.020 -0.1401  0.6808 -1.4701
  899SOL     hw 3595   3.890   2.943   0.044 -0.5377 -0.1539  1.1768
  899SOL     vw 3596   3.919   2.863   0.062  0.4249 -0.0689  0.1340
  900SOL     ow 3597   0.079   0.097   3.644  0.5668 -0.1952 -0.5184
  900SOL     hw 3598   0.119   0.171   3.598 -2.1203 -0.1256 -3.0107
  900SOL     hw 3599   0.085   0.121   3.737 -0.2680  3.2868 -1.1991
  900SOL     vw 3600   0.085   0.110   3.650  0.1022  0.2734 -0.9371
  901SOL     ow 3601   3.458   6.894   5.050 -0.0069 -0.4041  0.0914
  901SOL     hw 3602   3.474   6.888   5.144  1.0517 -1.4551 -0.1307
  901SOL     hw 3603   3.441   6.804   5.022  0.0235 -0.1542 -0.7765
  901SOL     vw 3604   3.458   6.881   5.058  0.1367 -0.5100 -0.0522
  902SOL     ow 3605   6.154   1.117   0.038  0.3200 -0.3126 -0.4183
  902SOL     hw 3606   6.118   1.050   0.095 -3.4600  0.4874 -1.5677
  902SOL     hw 3607   6.154   1.196   0.092 -0.8428 -0.0869 -0.7152
  902SOL     vw 3608   6.149   1.119   0.053 -0.3324 -0.1773 -0.6092
  903SOL     ow 3609   4.952   0.348   0.290 -0.2723  0.2341 -0.3041
  903SOL     hw 3610   4.994   0.263   0.299 -0.4971  0.2593  1.2681
  903SOL     hw 3611   5.025   0.409   0.275  0.0367 -0.0509  0.0174
  903SOL     vw 3612   4.967   0.345   0.290 -0.2613  0.1999 -0.0542
  904SOL     ow 3613   0.935   2.424   6.668  0.1522 -0.2873 -0.1468
  904SOL     hw 3614   0.920   2.330   6.655  2.7121 -0.7027 -0.7964
  904SOL     hw 3615   0.873   2.466   6.609 -1.4688 -1.5045  0.5976
  904SOL     vw 3616   0.925   2.417   6.658  0.2761 -0.5026 -0.1342
  905SOL     ow 3617   2.193   2.103   6.565 -0.6060  0.2744 -0.0907
  905SOL     hw 3618   2.279   2.119   6.603  0.5323 -2.4215 -1.2534
  905SOL     hw 3619   2.185   2.167   6.494  1.8482 -1.2432 -1.9082
  905SOL     vw 3620   2.203   2.114   6.560 -0.1321 -0.2815 -0.4838
  906SOL     ow 3621   0.314   0.529   5.123  0.0778 -0.4471  0.4351
  906SOL     hw 3622   0.225   0.507   5.096 -0.0444 -0.7581  1.0683
  906SOL     hw 3623   0.320   0.624   5.109  0.4469 -0.7511 -1.8410
  906SOL     vw 3624   0.303   0.539   5.118  0.1104 -0.5282  0.2186
  907SOL     ow 3625   1.160   0.095   2.594  0.1688  0.4950 -0.0449
  907SOL     hw 3626   1.252   0.070   2.586  0.1147 -0.1448  1.1180
  907SOL     hw 3627   1.115   0.014   2.619 -0.6737  0.8545 -0.3556
  907SOL     vw 3628   1.166   0.081   2.596  0.0504  0.4580  0.0675
  908SOL     ow 3629   5.834   5.370   4.147 -0.7297 -0.1864  1.2648
  908SOL     hw 3630   5.799   5.334   4.065 -0.4364 -2.3654  2.0297
  908SOL     hw 3631   5.759   5.372   4.206 -0.3019 -1.7425  1.9053
  908SOL     vw 3632   5.820   5.366   4.144 -0.6347 -0.6790  1.4501
  909SOL     ow 3633   3.934   3.590   6.369  0.1697  0.4410  0.1659
  909SOL     hw 3634   3.928   3.595   6.274  0.8543 -0.5022  0.0565
  909SOL     hw 3635   3.857   3.636   6.401 -0.1358  0.6517 -0.8493
  909SOL     vw 3636   3.923   3.597   6.361  0.2197  0.3444  0.0174
  910SOL     ow 3637   1.114   5.438   3.985 -0.4161 -0.1336 -0.3955
  910SOL     hw 3638   1.209   5.429   3.977 -0.1488  0.6876  1.4237
  910SOL     hw 3639   1.102   5.496   4.060 -2.3598  0.0397 -0.8061
  910SOL     vw 3640   1.125   5.445   3.994 -0.6372 -0.0024 -0.2097
  911SOL     ow 3641   0.821   1.885   4.066 -0.1944  0.8607 -0.5235
  911SOL     hw 3642   0.810   1.961   4.124 -0.9384  0.5059 -0.1881
  911SOL     hw 3643   0.881   1.827   4.113  0.0031  1.0295 -0.5671
  911SOL     vw 3644   0.828   1.888   4.080 -0.2665  0.8361 -0.4847
  912SOL     ow 3645   7.299   2.442   4.503 -0.3458 -0.6030 -0.3963
  912SOL     hw 3646   7.363   2.371   4.503  1.7321  1.1621 -0.7226
  912SOL     hw 3647   7.282   2.459   4.410 -0.8263 -0.6676 -0.3225
  912SOL     vw 3648   7.306   2.435   4.491 -0.1350 -0.3786 -0.4296
  913SOL     ow 3649   3.033   2.508   6.374 -0.6241 -0.2013 -0.3341
  913SOL     hw 3650   2.943   2.487   6.352 -1.0387 -0.0707  1.1512
  913SOL     hw 3651   3.044   2.599   6.347 -1.4625  0.3039  0.9342
  913SOL     vw 3652   3.023   2.517   6.368 -0.7894 -0.1174  0.0291
  914SOL     ow 3653   4.003   1.170   0.678  0.2078  0.4628  0.1080
  914SOL     hw 3654   3.915   1.172   0.716  0.1832 -0.9480  0.1939
  914SOL     hw 3655   4.025   1.262   0.663 -0.6642  0.9327  1.4951
  914SOL     vw 3656   3.994   1.182   0.681  0.0894  0.3387  0.3024
  915SOL     ow 3657   5.110   4.871   2.586 -0.0479 -0.0134  0.2252
  915SOL     hw 3658   5.173   4.939   2.609  0.8865 -0.8589  0.2535
  915SOL     hw 3659   5.084   4.891   2.496  2.1483 -0.9900 -0.7096
  915SOL     vw 3660   5.115   4.883   2.577  0.3650 -0.2539  0.1056
  916SOL     ow 3661   2.558   1.292   0.097 -0.2724  0.0177  0.5547
  916SOL     hw 3662   2.500   1.238   0.151 -1.0224  0.3916  0.1345
  916SOL     hw 3663   2.629   1.317   0.156  0.5960 -2.1662  0.5379
  916SOL     vw 3664   2.560   1.288   0.112 -0.2568 -0.2211  0.4971
  917SOL     ow 3665   2.898   1.908   4.070  0.3602 -0.1839  0.0362
  917SOL     hw 3666   2.926   1.823   4.036 -1.5773 -0.0469 -2.1372
  917SOL     hw 3667   2.860   1.953   3.994  1.5082  2.7417  1.0504
  917SOL     vw 3668   2.897   1.902   4.055  0.2561  0.2202 -0.1168
  918SOL     ow 3669   2.612   4.249   3.315 -0.0632 -0.7120 -0.2454
  918SOL     hw 3670   2.588   4.290   3.231 -1.4057 -1.9484 -0.4937
  918SOL     hw 3671   2.670   4.313   3.356 -0.1373  0.3487 -1.6938
  918SOL     vw 3672   2.617   4.263   3.309 -0.2500 -0.7350 -0.4693
  919SOL     ow 3673   6.507   5.701   3.223 -0.3501 -0.3125  0.3513
  919SOL     hw 3674   6.459   5.721   3.143  0.6440  1.4166  0.1199
  919SOL     hw 3675   6.590   5.663   3.193 -0.1722 -0.1054  0.5727
  919SOL     vw 3676   6.512   5.699   3.209 -0.1955 -0.0570  0.3499
  920SOL     ow 3677   1.027   1.479   5.819 -0.1248 -0.3327  0.3421
  920SOL     hw 3678   1.106   1.510   5.862 -0.8716 -0.0095  1.5227
  920SOL     hw 3679   1.014   1.391   5.854 -0.1324 -0.4958 -0.0671
  920SOL     vw 3680   1.036   1.471   5.829 -0.2243 -0.3116  0.4439
  921SOL     ow 3681   6.272   1.030   2.759 -0.4817  0.2274  0.1218
  921SOL     hw 3682   6.249   0.937   2.753  0.1515  0.1073 -0.5797
  921SOL     hw 3683   6.352   1.031   2.812  0.4729  0.1930 -1.2714
  921SOL     vw 3684   6.279   1.018   2.765 -0.2723  0.2070 -0.1546
  922SOL     ow 3685   2.229   2.331   5.309 -0.1906  0.1307  0.0971
  922SOL     hw 3686   2.284   2.332   5.231  3.0180  3.2067  2.1087
  922SOL     hw 3687   2.175   2.410   5.301 -0.2119  0.1859  0.7399
  922SOL     vw 3688   2.229   2.342   5.298  0.2298  0.5437  0.4475
  923SOL     ow 3689   0.008   6.160   6.036 -0.7951  0.2046  0.0388
  923SOL     hw 3690   0.012   6.256   6.045  0.0553  0.3492 -1.5409
  923SOL     hw 3691   0.054   6.127   6.113  0.7158  1.1383 -0.4192
  923SOL     vw 3692   0.015   6.169   6.047 -0.4836  0.3469 -0.2301
  924SOL     ow 3693   7.285   0.349   2.352 -0.3908 -0.3320  0.1704
  924SOL     hw 3694   7.286   0.364   2.446  0.1592 -0.1588  0.1402
  924SOL     hw 3695   7.375   0.322   2.331 -0.2704  0.4824 -0.4334
  924SOL     vw 3696   7.297   0.348   2.361 -0.3024 -0.2017  0.0865
  925SOL     ow 3697   1.468   3.788   3.967  0.1601 -0.2901  0.3829
  925SOL     hw 3698   1.496   3.808   4.056  0.3085 -2.1911  0.8093
  925SOL     hw 3699   1.377   3.758   3.976 -0.7183  1.8837 -0.4670
  925SOL     vw 3700   1.459   3.786   3.980  0.0638 -0.2542  0.3270
  926SOL     ow 3701   7.127   5.955   4.697 -0.5743  0.2920 -0.3293
  926SOL     hw 3702   7.197   5.977   4.757  1.4753  0.6939 -2.7246
  926SOL     hw 3703   7.066   6.029   4.702  1.3535  2.0224 -1.2615
  926SOL     vw 3704   7.128   5.967   4.706 -0.0496  0.5734 -0.7682
  927SOL     ow 3705   4.395   0.770   0.128  0.1677 -0.4315  0.1901
  927SOL     hw 3706   4.339   0.776   0.050 -4.7185 -0.9166  3.2171
  927SOL     hw 3707   4.395   0.677   0.150  3.3597 -0.6321 -0.2521
  927SOL     vw 3708   4.387   0.758   0.120 -0.0560 -0.5220  0.5312
  928SOL     ow 3709   2.510   3.460   0.515  0.4924  0.1299  0.3674
  928SOL     hw 3710   2.572   3.501   0.454  0.7400 -0.8882 -0.1024
  928SOL     hw 3711   2.511   3.515   0.592  0.0793  1.5398 -0.5948
  928SOL     vw 3712   2.518   3.472   0.517  0.4706  0.1816  0.1785
  929SOL     ow 3713   4.048   5.531   4.116  0.2437 -0.3541 -0.7423
  929SOL     hw 3714   4.045   5.608   4.058  2.3489  0.5263  0.2157
  929SOL     hw 3715   4.116   5.552   4.180 -1.0624 -1.8584  1.2697
  929SOL     vw 3716   4.056   5.544   4.117  0.3493 -0.4363 -0.3507
  930SOL     ow 3717   3.941   1.193   4.520 -0.0124  0.6943 -0.4822
  930SOL     hw 3718   3.849   1.170   4.536  0.5020 -0.4924  0.9729
  930SOL     hw 3719   3.989   1.112   4.538  1.5233  1.8660  0.9353
  930SOL     vw 3720   3.935   1.179   4.524  0.2582  0.6923 -0.1030
  931SOL     ow 3721   4.301   3.696   0.495 -0.7645 -0.4014  0.2138
  931SOL     hw 3722   4.334   3.606   0.485 -0.5263 -0.1511 -1.6449
  931SOL     hw 3723   4.303   3.732   0.406 -0.3019  1.6479  0.9986
  931SOL     vw 3724   4.306   3.689   0.482 -0.6721 -0.0980  0.0721
  932SOL     ow 3725   1.503   1.267   7.031  0.1513  0.2736 -0.3381
  932SOL     hw 3726   1.490   1.359   7.055 -2.2003 -0.7928  3.3482
  932SOL     hw 3727   1.422   1.242   6.987  0.8132 -0.0611 -1.3971
  932SOL     vw 3728   1.490   1.276   7.028 -0.0716  0.0887  0.0083
  933SOL     ow 3729   0.715   6.210   1.807 -0.0641 -0.0775  0.6302
  933SOL     hw 3730   0.658   6.198   1.732 -0.1720 -0.9729  0.8450
  933SOL     hw 3731   0.798   6.240   1.770 -0.2249 -0.1758  0.1911
  933SOL     vw 3732   0.718   6.212   1.792 -0.0996 -0.2089  0.6007
  934SOL     ow 3733   6.658   4.444   3.354  0.1610  0.3907  0.1571
  934SOL     hw 3734   6.652   4.531   3.313 -1.0284  0.0885 -0.3520
  934SOL     hw 3735   6.582   4.397   3.320 -0.2249 -0.2520  1.8501
  934SOL     vw 3736   6.647   4.450   3.344 -0.0470  0.2661  0.3133
  935SOL     ow 3737   6.953   4.970   5.970  0.3783 -0.0638 -0.4442
  935SOL     hw 3738   7.022   4.962   6.036  0.6516  0.1059 -0.7121
  935SOL     hw 3739   6.885   4.909   6.000  0.5934 -0.1475 -0.1205
  935SOL     vw 3740   6.953   4.961   5.983  0.4427 -0.0525 -0.4370
  936SOL     ow 3741   6.681   3.960   2.327 -0.4585 -0.6434 -0.1622
  936SOL     hw 3742   6.732   3.920   2.398 -0.1189  1.7716  1.0675
  936SOL     hw 3743   6.597   3.982   2.367  0.5847  2.9909  0.3793
  936SOL     vw 3744   6.677   3.958   2.342 -0.2759  0.1547  0.0715
  937SOL     ow 3745   6.372   6.815   2.549 -0.1834  0.1006 -0.5298
  937SOL     hw 3746   6.458   6.820   2.507 -0.0891  0.5009 -0.2918
  937SOL     hw 3747   6.314   6.781   2.481  0.0459  0.3789 -0.8680
  937SOL     vw 3748   6.376   6.811   2.534 -0.1407  0.1903 -0.5431
  938SOL     ow 3749   7.116   3.939   5.040 -0.6117 -0.3890 -0.0019
  938SOL     hw 3750   7.083   3.872   4.981 -0.4318  0.2156 -0.7906
  938SOL     hw 3751   7.211   3.937   5.027 -0.7810  1.7984 -1.9762
  938SOL     vw 3752   7.124   3.930   5.031 -0.6101 -0.0205 -0.3662
  939SOL     ow 3753   1.057   2.230   4.970  0.4760 -0.1123 -0.0198
  939SOL     hw 3754   0.991   2.290   5.005 -1.6676 -0.6548 -2.7758
  939SOL     hw 3755   1.129   2.287   4.945  0.3247  0.7451  1.3671
  939SOL     vw 3756   1.057   2.246   4.972  0.1732 -0.0709 -0.2007
  940SOL     ow 3757   5.202   3.675   6.198  0.3293  0.5904 -0.1699
  940SOL     hw 3758   5.215   3.756   6.247 -0.1964  1.8594 -2.0243
  940SOL     hw 3759   5.291   3.647   6.175  0.5087  0.6705  0.4004
  940SOL     vw 3760   5.216   3.682   6.201  0.2837  0.7683 -0.3390
  941SOL     ow 3761   2.969   1.757   0.185 -0.3739 -0.2590 -0.1947
  941SOL     hw 3762   3.064   1.760   0.192 -0.3378 -0.2746 -0.6702
  941SOL     hw 3763   2.951   1.704   0.107 -0.7474  0.6080 -0.7189
  941SOL     vw 3764   2.979   1.751   0.176 -0.4183 -0.1467 -0.3266
  942SOL     ow 3765   4.813   7.075   1.532 -0.9969 -0.2007 -0.0904
  942SOL     hw 3766   4.866   7.150   1.504  0.9587 -0.6481  2.1252
  942SOL     hw 3767   4.817   7.077   1.628 -2.8632 -1.8218  0.0831
  942SOL     vw 3768   4.821   7.085   1.541 -0.9851 -0.4737  0.2248
  943SOL     ow 3769   3.716   7.034   7.241 -0.1920 -0.4149  0.1375
  943SOL     hw 3770   3.675   7.114   7.207  2.0145  1.7199  2.0747
  943SOL     hw 3771   3.764   6.998   7.167  0.0367  0.9593 -0.4165
  943SOL     vw 3772   3.717   7.040   7.227  0.1292  0.0482  0.3200
  944SOL     ow 3773   6.293   3.818   1.565 -0.6802  0.2480 -0.5813
  944SOL     hw 3774   6.270   3.910   1.572 -3.2229 -0.3718  0.1063
  944SOL     hw 3775   6.385   3.814   1.593 -0.1272  2.6715 -1.7437
  944SOL     vw 3776   6.302   3.830   1.570 -0.9427  0.4859 -0.6439
  945SOL     ow 3777   2.210   6.339   1.133 -0.0861 -0.1413  0.0797
  945SOL     hw 3778   2.196   6.299   1.219 -0.1968 -0.6716 -0.1827
  945SOL     hw 3779   2.222   6.433   1.152  0.8954 -0.3924  0.7760
  945SOL     vw 3780   2.210   6.346   1.147  0.0288 -0.2446  0.1370
  946SOL     ow 3781   1.600   6.756   0.818 -0.0737  0.6049 -0.4356
  946SOL     hw 3782   1.600   6.795   0.731 -2.2899 -0.9882 -1.2476
  946SOL     hw 3783   1.507   6.750   0.842  0.3086 -1.5373  0.8106
  946SOL     vw 3784   1.588   6.760   0.810 -0.3157  0.1118 -0.3783
  947SOL     ow 3785   6.529   0.271   5.033  0.0521 -0.8095 -0.1657
  947SOL     hw 3786   6.452   0.328   5.039 -0.1333 -0.9839 -0.7751
  947SOL     hw 3787   6.594   0.326   4.989  0.4811 -0.4601  0.8841
  947SOL     vw 3788   6.527   0.286   5.028  0.0842 -0.7864 -0.1073
  948SOL     ow 3789   1.790   3.024   5.505  0.1970  0.1352 -0.3797
  948SOL     hw 3790   1.718   3.000   5.447  0.4656 -0.6718 -0.3874
  948SOL     hw 3791   1.814   2.942   5.549  0.8115  0.4875 -0.0423
  948SOL     vw 3792   1.783   3.010   5.503  0.3135  0.0751 -0.3362
  949SOL     ow 3793   5.476   4.833   5.555  0.6431 -0.3446  0.7458
  949SOL     hw 3794   5.427   4.901   5.600 -0.1263 -0.2230 -0.2363
  949SOL     hw 3795   5.549   4.813   5.613 -0.7068 -0.7328  2.3903
  949SOL     vw 3796   5.479   4.839   5.569  0.3633 -0.3798  0.8330
  950SOL     ow 3797   6.660   3.418   6.525 -0.7749  0.5369 -0.9292
  950SOL     hw 3798   6.621   3.333   6.547  1.4625 -0.6677 -1.2604
  950SOL     hw 3799   6.691   3.452   6.609 -1.1613  0.7595 -0.8753
  950SOL     vw 3800   6.659   3.411   6.539 -0.5305  0.4072 -0.9658
  951SOL     ow 3801   2.778   0.537   5.926 -0.0424  0.2418 -0.2198
  951SOL     hw 3802   2.856   0.570   5.970 -0.2706 -0.8717  1.0865
  951SOL     hw 3803   2.720   0.612   5.919  0.8347  0.9060 -0.5236
  951SOL     vw 3804   2.781   0.551   5.931  0.0433  0.1825 -0.0875
  952SOL     ow 3805   6.798   1.331   4.715  0.0677 -0.1412 -0.0432
  952SOL     hw 3806   6.825   1.341   4.806 -2.0174 -0.4189  0.6610
  952SOL     hw 3807   6.736   1.258   4.716 -0.3915  0.1857 -1.5908
  952SOL     vw 3808   6.793   1.323   4.727 -0.2680 -0.1346 -0.1545
  953SOL     ow 3809   6.655   4.526   5.907  0.0921  0.9189 -0.7884
  953SOL     hw 3810   6.631   4.434   5.895  0.1095 -0.0707  4.5077
  953SOL     hw 3811   6.575   4.574   5.885 -1.4769 -0.8540  0.6877
  953SOL     vw 3812   6.641   4.520   5.902 -0.1128  0.5543  0.1054
  954SOL     ow 3813   6.749   3.841   2.793  0.4751  0.2042 -0.7783
  954SOL     hw 3814   6.743   3.770   2.729 -0.2706  0.7824 -1.3619
  954SOL     hw 3815   6.798   3.803   2.866  1.7340 -0.3327 -1.8655
  954SOL     vw 3816   6.755   3.827   2.795  0.5426  0.2097 -0.9987
  955SOL     ow 3817   1.823   0.645   2.210 -0.2255  0.2778  0.0006
  955SOL     hw 3818   1.856   0.650   2.120  0.8768  1.8203  0.4733
  955SOL     hw 3819   1.901   0.635   2.264 -0.9320 -1.4931  0.7746
  955SOL     vw 3820   1.837   0.644   2.205 -0.1733  0.2476  0.1651
  956SOL     ow 3821   0.795   2.061   3.836  0.4514 -0.6642  0.3949
  956SOL     hw 3822   0.813   2.134   3.777 -1.4061  0.1446  0.7322
  956SOL     hw 3823   0.701   2.068   3.855  0.6223 -1.9640  2.0266
  956SOL     vw 3824   0.785   2.071   3.831  0.2289 -0.7288  0.6546
  957SOL     ow 3825   4.922   3.795   4.457  0.0321  0.2031  0.6944
  957SOL     hw 3826   4.981   3.851   4.508  2.4978 -0.9501 -0.7401
  957SOL     hw 3827   4.886   3.733   4.521  0.0848  1.1214  1.6451
  957SOL     vw 3828   4.925   3.794   4.472  0.3643  0.1723  0.6306
  958SOL     ow 3829   7.293   2.426   1.657  0.3797  0.2544 -0.0860
  958SOL     hw 3830   7.339   2.502   1.619 -0.5000  2.0141  2.1252
  958SOL     hw 3831   7.206   2.460   1.678 -0.6629 -1.9374 -0.6612
  958SOL     vw 3832   7.288   2.441   1.655  0.1261  0.1975  0.1298
  959SOL     ow 3833   2.375   3.145   4.945 -0.6150  0.2468  0.6786
  959SOL     hw 3834   2.464   3.112   4.935 -0.6638  0.5578 -1.1911
  959SOL     hw 3835   2.384   3.240   4.944 -0.8564  0.3016  1.9410
  959SOL     vw 3836   2.388   3.153   4.943 -0.6534  0.2952  0.5987
  960SOL     ow 3837   4.563   7.226   2.014 -0.5326  0.2004  0.3395
  960SOL     hw 3838   4.599   7.186   1.935  0.1786  2.3668 -0.4935
  960SOL     hw 3839   4.473   7.247   1.991 -1.4067 -2.2004  1.3019
  960SOL     vw 3840   4.556   7.223   2.001 -0.5536  0.1695  0.3566
  961SOL     ow 3841   1.662   1.184   1.782  0.1266  0.2283  0.2937
  961SOL     hw 3842   1.668   1.116   1.715  0.4535  0.5136  0.0249
  961SOL     hw 3843   1.704   1.146   1.859 -0.7440 -0.3049  0.5119
  961SOL     vw 3844   1.669   1.170   1.783  0.0549  0.1956  0.2870
  962SOL     ow 3845   2.472   1.849   3.324  0.0224  0.0091  0.6031
  962SOL     hw 3846   2.390   1.895   3.303 -0.8155 -1.8198 -0.4103
  962SOL     hw 3847   2.539   1.916   3.321 -1.3488  1.4585  0.8338
  962SOL     vw 3848   2.470   1.864   3.321 -0.2692 -0.0409  0.4998
  963SOL     ow 3849   1.432   2.063   1.260 -0.2077 -0.4930  0.2334
  963SOL     hw 3850   1.478   2.019   1.331 -0.1895 -0.0560  0.4956
  963SOL     hw 3851   1.482   2.143   1.245 -1.2202  0.3049  0.9502
  963SOL     vw 3852   1.445   2.068   1.267 -0.3389 -0.3300  0.3625
  964SOL     ow 3853   0.044   2.174   1.858 -0.9275 -0.0542 -0.4634
  964SOL     hw 3854  -0.029   2.129   1.900  0.6687 -1.0712  1.3397
  964SOL     hw 3855   0.086   2.223   1.928  0.7310 -0.2982 -1.2343
  964SOL     vw 3856   0.040   2.175   1.873 -0.4981 -0.2207 -0.3272
  965SOL     ow 3857   3.816   6.248   3.789 -0.4406  0.7463  0.3058
  965SOL     hw 3858   3.833   6.340   3.769  0.1702  0.3122 -1.3316
  965SOL     hw 3859   3.723   6.244   3.809 -0.5886  1.6383 -0.1643
  965SOL     vw 3860   3.806   6.260   3.789 -0.3796  0.8066  0.0277
  966SOL     ow 3861   4.853   6.529   4.223  0.7771 -0.0210  0.1155
  966SOL     hw 3862   4.795   6.557   4.152  1.1558 -2.9914 -1.5210
  966SOL     hw 3863   4.918   6.600   4.230 -0.2824  1.1496 -1.2812
  966SOL     vw 3864   4.854   6.542   4.215  0.6874 -0.2584 -0.2847
  967SOL     ow 3865   3.101   2.746   1.809  0.9331  0.0103  0.1305
  967SOL     hw 3866   3.017   2.702   1.801  1.7426 -2.1096  2.1606
  967SOL     hw 3867   3.082   2.838   1.791 -1.9050 -0.3093  1.0292
  967SOL     vw 3868   3.088   2.752   1.805  0.6654 -0.3116  0.5168
  968SOL     ow 3869   1.340   5.942   7.177 -0.0553 -0.2250 -0.4750
  968SOL     hw 3870   1.376   5.973   7.094 -0.1745  0.5408 -0.2546
  968SOL     hw 3871   1.376   6.002   7.243 -0.3381 -0.5264 -0.0352
  968SOL     vw 3872   1.350   5.954   7.175 -0.1084 -0.1636 -0.3879
  969SOL     ow 3873   6.872   2.296   6.808  0.6592  0.7193 -0.2158
  969SOL     hw 3874   6.964   2.277   6.788  1.2887  1.5630  1.6619
  969SOL     hw 3875   6.845   2.354   6.737  2.3503  2.4221  0.4239
  969SOL     vw 3876   6.881   2.301   6.796  0.9651  1.0552  0.1161
  970SOL     ow 3877   0.457   3.364   2.079  0.0331  0.2997 -0.3051
  970SOL     hw 3878   0.451   3.339   1.987  1.2874 -2.5816  0.2724
  970SOL     hw 3879   0.536   3.419   2.084 -0.8656  1.7034 -1.1280
  970SOL     vw 3880   0.467   3.368   2.068  0.0800  0.1048 -0.3375
  971SOL     ow 3881   6.094   5.058   0.968  0.2882  0.4570  0.0655
  971SOL     hw 3882   6.140   5.120   0.913  1.3030  0.1979  0.5915
  971SOL     hw 3883   6.128   4.972   0.941 -1.3424  0.0678 -0.8943
  971SOL     vw 3884   6.105   5.055   0.957  0.2072  0.3715  0.0082
  972SOL     ow 3885   4.600   3.231   2.081 -0.1628 -0.2367  0.2025
  972SOL     hw 3886   4.536   3.181   2.030  0.4821 -1.0270  0.1507
  972SOL     hw 3887   4.575   3.323   2.068  0.3327 -0.3683 -2.0140
  972SOL     vw 3888   4.588   3.237   2.072 -0.0124 -0.3582 -0.0968
  973SOL     ow 3889   1.607   5.932   2.913  0.1106 -0.6576  0.0983
  973SOL     hw 3890   1.527   5.965   2.873  0.3561 -1.1218 -0.8036
  973SOL     hw 3891   1.605   5.838   2.897 -0.7230 -1.1922  2.8871
  973SOL     vw 3892   1.596   5.924   2.905  0.0330 -0.7892  0.3474
  974SOL     ow 3893   5.136   7.280   6.836 -0.0632  0.0024  0.4573
  974SOL     hw 3894   5.205   7.302   6.774 -0.4768 -2.4862 -1.0387
  974SOL     hw 3895   5.059   7.327   6.805  0.1088 -0.0009  0.0194
  974SOL     vw 3896   5.135   7.289   6.824 -0.0949 -0.3264  0.2019
  975SOL     ow 3897   1.125   2.115   1.195 -0.5333 -0.1875  0.6979
  975SOL     hw 3898   1.047   2.063   1.176 -0.0010 -0.8777  0.3411
  975SOL     hw 3899   1.092   2.203   1.214 -1.2793  0.0120 -1.3147
  975SOL     vw 3900   1.110   2.120   1.195 -0.5615 -0.2521  0.3853
  976SOL     ow 3901   1.124   2.744   6.205  0.0629 -0.2490 -0.3032
  976SOL     hw 3902   1.187   2.711   6.269 -2.4418 -2.3135  1.2844
  976SOL     hw 3903   1.085   2.820   6.247  1.0849  0.7652 -1.1081
  976SOL     vw 3904   1.128   2.750   6.219 -0.1327 -0.3875 -0.1998
  977SOL     ow 3905   2.427   6.754   7.057  0.5659 -0.0307 -0.5082
  977SOL     hw 3906   2.335   6.782   7.057  0.0179 -1.6637  0.0631
  977SOL     hw 3907   2.468   6.805   6.987 -0.7444  0.8228 -0.6948
  977SOL     vw 3908   2.420   6.764   7.048  0.3208 -0.1335 -0.4573
  978SOL     ow 3909   6.605   4.882   7.248 -0.0660 -0.3255  0.0971
  978SOL     hw 3910   6.697   4.908   7.247 -0.1271 -0.0510  0.9740
  978SOL     hw 3911   6.570   4.918   7.330 -0.4616 -2.0691  0.7520
  978SOL     vw 3912   6.613   4.890   7.259 -0.1261 -0.5193  0.2995
  979SOL     ow 3913   5.623   3.970   3.153 -0.4124 -0.2531  0.0059
  979SOL     hw 3914   5.695   4.033   3.158 -0.7668  0.0431  2.0144
  979SOL     hw 3915   5.558   4.003   3.214  0.3194 -3.6682  2.9366
  979SOL     vw 3916   5.624   3.983   3.161 -0.3626 -0.6646  0.6576
  980SOL     ow 3917   5.347   3.284   1.297  0.0258 -0.4513  0.2340
  980SOL     hw 3918   5.329   3.193   1.272 -2.0888  0.0622 -0.2886
  980SOL     hw 3919   5.366   3.328   1.213 -0.7092 -0.0463  0.2788
  980SOL     vw 3920   5.347   3.278   1.282 -0.3502 -0.3302  0.1711
  981SOL     ow 3921   0.578   1.803   0.990  0.3704  0.2810  0.8874
  981SOL     hw 3922   0.541   1.783   1.076 -1.7464  0.3993  0.0583
  981SOL     hw 3923   0.541   1.888   0.968  1.7147  0.7311  0.2748
  981SOL     vw 3924   0.568   1.812   0.999  0.2685  0.3560  0.6971
  982SOL     ow 3925   3.733   5.789   5.583  1.1120 -0.4961  0.5022
  982SOL     hw 3926   3.724   5.781   5.678 -3.1952  0.5873  0.4168
  982SOL     hw 3927   3.739   5.883   5.567  5.4756 -0.7010 -0.3488
  982SOL     vw 3928   3.732   5.801   5.593  1.1195 -0.3800  0.3786
  983SOL     ow 3929   1.708   1.061   6.982  0.3602  0.5140 -0.3230
  983SOL     hw 3930   1.682   1.020   6.899  0.6569 -0.7314  0.1907
  983SOL     hw 3931   1.779   1.006   7.015 -1.3181 -0.3878  1.9266
  983SOL     vw 3932   1.714   1.048   6.975  0.1779  0.2307  0.0417
  984SOL     ow 3933   6.540   4.702   3.895  0.4123 -0.3531 -0.8344
  984SOL     hw 3934   6.527   4.609   3.912 -0.6293 -0.5612 -2.5146
  984SOL     hw 3935   6.467   4.726   3.838 -0.4458  1.9584  1.0596
  984SOL     vw 3936   6.529   4.693   3.890  0.1612 -0.0756 -0.8062
  985SOL     ow 3937   0.746   3.104   3.578 -0.1928  0.0926  0.8145
  985SOL     hw 3938   0.800   3.123   3.501  0.9168 -0.9189  1.3111
  985SOL     hw 3939   0.670   3.161   3.568 -0.0542  0.0416 -1.0082
  985SOL     vw 3940   0.743   3.114   3.566 -0.0281 -0.0476  0.6394
  986SOL     ow 3941   0.525   0.610   2.577  0.1362 -0.0433  0.0718
  986SOL     hw 3942   0.451   0.657   2.539  0.5440 -0.2655 -1.0417
  986SOL     hw 3943   0.489   0.563   2.652 -0.9101 -0.3924 -0.6367
  986SOL     vw 3944   0.511   0.610   2.582  0.0519 -0.1187 -0.1684
  987SOL     ow 3945   6.501   5.004   0.153 -0.2483 -0.8489 -0.6165
  987SOL     hw 3946   6.542   5.063   0.216 -2.2604 -1.4309  1.3782
  987SOL     hw 3947   6.447   5.060   0.099  1.3567 -0.3656 -1.7884
  987SOL     vw 3948   6.499   5.019   0.154 -0.3016 -0.8619 -0.5080
  988SOL     ow 3949   7.148   6.850   5.377  0.3779  0.3292 -0.0794
  988SOL     hw 3950   7.199   6.807   5.445  2.3591 -1.0170 -2.2625
  988SOL     hw 3951   7.057   6.844   5.407  1.0939 -0.8535  2.0576
  988SOL     vw 3952   7.143   6.844   5.390  0.7339 -0.0045 -0.0854
  989SOL     ow 3953   4.657   3.114   0.773  0.4642 -0.0529  0.1625
  989SOL     hw 3954   4.655   3.052   0.700  0.0668 -0.0573  0.1775
  989SOL     hw 3955   4.642   3.060   0.851  0.2765  0.0372  0.1898
  989SOL     vw 3956   4.655   3.098   0.774  0.3872 -0.0416  0.1681
  990SOL     ow 3957   3.921   2.819   1.463 -0.0199  0.1733 -0.0211
  990SOL     hw 3958   3.979   2.765   1.409  0.1403  0.3615 -0.0418
  990SOL     hw 3959   3.836   2.776   1.459 -0.2083  0.6097 -1.0666
  990SOL     vw 3960   3.918   2.806   1.456 -0.0236  0.2558 -0.1618
  991SOL     ow 3961   5.016   1.630   5.561  0.5075  0.1632 -0.1023
  991SOL     hw 3962   5.024   1.586   5.646 -1.1583  0.5640  0.3049
  991SOL     hw 3963   5.038   1.563   5.497  0.2347 -0.6061  0.5912
  991SOL     vw 3964   5.020   1.615   5.564  0.2518  0.1146  0.0429
  992SOL     ow 3965   3.080   1.999   0.285 -0.2310 -0.5032  0.0147
  992SOL     hw 3966   3.076   2.078   0.339 -1.6310 -0.0505 -0.7095
  992SOL     hw 3967   3.169   1.997   0.251  0.4367 -0.3612  1.6625
  992SOL     vw 3968   3.091   2.009   0.288 -0.3276 -0.4247  0.1365
  993SOL     ow 3969   4.682   2.706   4.198  0.3428 -0.5977  0.1991
  993SOL     hw 3970   4.605   2.762   4.185 -0.5996 -2.0269 -0.7228
  993SOL     hw 3971   4.743   2.734   4.130 -0.6780 -1.5483 -1.1643
  993SOL     vw 3972   4.680   2.717   4.187  0.0837 -0.9117 -0.1025
  994SOL     ow 3973   2.586   2.354   6.260  0.0017  0.1339  0.4226
  994SOL     hw 3974   2.675   2.381   6.237  0.0152 -0.4203 -0.1836
  994SOL     hw 3975   2.579   2.264   6.229 -0.4965 -0.1144  1.2260
  994SOL     vw 3976   2.597   2.346   6.253 -0.0623  0.0281  0.4487
  995SOL     ow 3977   7.098   1.794   6.229 -0.2620  0.6664  0.9479
  995SOL     hw 3978   7.111   1.885   6.255 -2.8558  1.5045 -0.2899
  995SOL     hw 3979   7.026   1.797   6.165 -0.1228 -2.2048  0.4919
  995SOL     vw 3980   7.090   1.806   6.224 -0.5860  0.3981  0.7243
  996SOL     ow 3981   0.472   6.214   0.463  0.5872  0.6024 -0.2740
  996SOL     hw 3982   0.465   6.220   0.558  1.4163  1.0383 -0.2358
  996SOL     hw 3983   0.383   6.195   0.434  0.3766  0.1612  0.6069
  996SOL     vw 3984   0.460   6.212   0.472  0.6688  0.6015 -0.1527
  997SOL     ow 3985   1.236   2.219   3.108 -0.1471  0.2394 -0.0518
  997SOL     hw 3986   1.250   2.217   3.203  2.3474  0.0659 -0.3372
  997SOL     hw 3987   1.145   2.245   3.097 -0.1927  1.3445  2.3695
  997SOL     vw 3988   1.226   2.222   3.119  0.1760  0.3623  0.2300
  998SOL     ow 3989   2.308   5.185   5.242  0.4959  0.1387 -0.3102
  998SOL     hw 3990   2.321   5.274   5.210  2.5459 -0.9968 -3.0370
  998SOL     hw 3991   2.221   5.160   5.210  0.1559  0.9313 -0.0331
  998SOL     vw 3992   2.298   5.193   5.234  0.7213  0.0937 -0.6335
  999SOL     ow 3993   1.135   4.696   5.569  0.4608 -0.0759  0.5029
  999SOL     hw 3994   1.097   4.784   5.567 -1.9190 -1.0476 -0.6559
  999SOL     hw 3995   1.086   4.647   5.503  2.1662 -2.1229  0.6524
  999SOL     vw 3996   1.124   4.701   5.560  0.3718 -0.4742  0.3695
 1000SOL     ow 3997   4.172   2.404   3.055 -0.5527 -0.2648  0.4214
 1000SOL     hw 3998   4.104   2.469   3.036  0.8292  1.4657  1.1340
 1000SOL     hw 3999   4.232   2.449   3.115  1.3810 -1.6162 -0.4082
 1000SOL     vw 4000   4.171   2.419   3.060 -0.1152 -0.2147  0.4060
 1001SOL     ow 4001   2.405   5.717   2.907 -0.3163 -0.3156  0.4551
 1001SOL     hw 4002   2.365   5.781   2.966  1.1047 -0.7393  1.9611
 1001SOL     hw 4003   2.442   5.651   2.965  1.3075 -0.6691 -0.9058
 1001SOL     vw 4004   2.405   5.717   2.922  0.0854 -0.4182  0.4742
 1002SOL     ow 4005   4.154   4.060   3.871  0.0833 -0.1246 -0.5282
 1002SOL     hw 4006   4.211   4.136   3.865  0.4273 -0.2914  0.5336
 1002SOL     hw 4007   4.208   3.991   3.909 -0.3914 -0.7421 -0.9315
 1002SOL     vw 4008   4.169   4.061   3.875  0.0660 -0.2282 -0.4412
 1003SOL     ow 4009   0.358   1.237   3.275 -0.3824  0.4807  0.0198
 1003SOL     hw 4010   0.395   1.324   3.262 -1.2454  0.9613  0.6832
 1003SOL     hw 4011   0.359   1.224   3.370 -2.5577  0.8285  0.1366
 1003SOL     vw 4012   0.363   1.246   3.286 -0.7833  0.5900  0.1228
 1004SOL     ow 4013   4.634   4.245   1.059 -0.4766  0.1624  0.3221
 1004SOL     hw 4014   4.598   4.319   1.010 -0.3103  0.3831  0.5315
 1004SOL     hw 4015   4.722   4.273   1.082 -0.4463 -0.0658  0.4793
 1004SOL     vw 4016   4.641   4.259   1.056 -0.4508  0.1616  0.3705
 1005SOL     ow 4017   2.286   6.180   6.746  0.3522  0.0383  0.3139
 1005SOL     hw 4018   2.377   6.187   6.773  1.5106 -0.6016 -3.0023
 1005SOL     hw 4019   2.241   6.143   6.822  3.0566 -0.7593  1.6456
 1005SOL     vw 4020   2.292   6.176   6.760  0.8618 -0.1516  0.0520
 1006SOL     ow 4021   6.907   0.967   6.266  0.1256  0.4896 -0.1839
 1006SOL     hw 4022   6.995   1.003   6.262 -0.5844  2.2444 -1.3717
 1006SOL     hw 4023   6.881   0.976   6.358  0.6387  1.3708 -0.1145
 1006SOL     vw 4024   6.915   0.973   6.278  0.0997  0.8374 -0.3316
 1007SOL     ow 4025   3.936   0.585   5.174  0.8715 -0.5717 -0.1729
 1007SOL     hw 4026   4.021   0.586   5.128  1.6094 -0.4296  1.1399
 1007SOL     hw 4027   3.919   0.492   5.190 -0.4598 -0.8264 -2.5433
 1007SOL     vw 4028   3.945   0.573   5.170  0.7931 -0.5865 -0.3126
 1008SOL     ow 4029   4.861   5.921   2.377  0.5778  0.3059  0.2729
 1008SOL     hw 4030   4.812   5.839   2.384 -1.6660  1.6363  1.2420
 1008SOL     hw 4031   4.825   5.976   2.447  0.3633  2.9285 -1.7633
 1008SOL     vw 4032   4.850   5.917   2.387  0.2534  0.8276  0.1322
 1009SOL     ow 4033   2.595   6.704   1.618  0.0480 -0.1226  0.0779
 1009SOL     hw 4034   2.627   6.625   1.575  1.1764  0.2275  0.2430
 1009SOL     hw 4035   2.650   6.775   1.584 -0.3509  0.4541  0.6014
 1009SOL     vw 4036   2.606   6.703   1.608  0.1441 -0.0002  0.1687
 1010SOL     ow 4037   1.725   3.342   1.640  0.5589 -0.8147  0.7793
 1010SOL     hw 4038   1.799   3.385   1.682 -0.3079  1.1467  0.3859
 1010SOL     hw 4039   1.760   3.312   1.556  0.6121  1.4105 -0.0626
 1010SOL     vw 4040   1.740   3.343   1.634  0.4516 -0.2623  0.6163
 1011SOL     ow 4041   3.908   4.022   5.816 -0.7092  0.1528  0.8345
 1011SOL     hw 4042   3.996   3.996   5.787 -0.4420  2.9496 -1.2982
 1011SOL     hw 4043   3.914   4.116   5.830 -3.9747  1.1287 -2.5282
 1011SOL     vw 4044   3.921   4.031   5.814 -1.1048  0.6506  0.1094
 1012SOL     ow 4045   2.236   1.758   1.845  0.1551  0.3739 -0.7892
 1012SOL     hw 4046   2.324   1.764   1.883 -0.2032 -1.0992  0.3850
 1012SOL     hw 4047   2.177   1.760   1.920 -0.9765  2.8680 -1.6359
 1012SOL     vw 4048   2.240   1.759   1.859 -0.0414  0.5086 -0.7460
 1013SOL     ow 4049   5.612   5.526   1.450 -0.6006 -0.2811 -0.2907
 1013SOL     hw 4050   5.621   5.621   1.444  0.0414 -0.2392  0.9579
 1013SOL     hw 4051   5.701   5.492   1.443 -0.8810 -0.8372 -1.2889
 1013SOL     vw 4052   5.625   5.534   1.448 -0.5529 -0.3488 -0.2576
 1014SOL     ow 4053   0.106   3.005   7.173 -0.2880  0.2154  0.3113
 1014SOL     hw 4054   0.199   2.988   7.156 -0.5893  0.1249 -1.4366
 1014SOL     hw 4055   0.105   3.054   7.255  1.5886  3.2789 -1.3321
 1014SOL     vw 4056   0.118   3.009   7.181 -0.0801  0.6076 -0.1361
 1015SOL     ow 4057   3.828   5.948   3.689 -0.2505 -0.2592  0.1204
 1015SOL     hw 4058   3.887   5.879   3.659  2.1976  1.6178  0.3672
 1015SOL     hw 4059   3.748   5.935   3.637  1.3597 -1.2559 -2.2767
 1015SOL     vw 4060   3.825   5.937   3.678  0.2850 -0.1431 -0.1633
 1016SOL     ow 4061   4.173   5.227   3.461 -0.4119 -0.3059 -0.0450
 1016SOL     hw 4062   4.230   5.172   3.515  1.2381  1.5814  0.2311
 1016SOL     hw 4063   4.231   5.261   3.392 -0.9812  2.2329  0.6526
 1016SOL     vw 4064   4.188   5.224   3.459 -0.2692  0.2782  0.0834
 1017SOL     ow 4065   1.305   1.395   6.530  0.4235 -0.0217 -0.2987
 1017SOL     hw 4066   1.300   1.421   6.438 -0.7408 -0.7828 -0.4864
 1017SOL     hw 4067   1.241   1.324   6.537  1.1325 -0.5697  0.9048
 1017SOL     vw 4068   1.296   1.389   6.519  0.3634 -0.1945 -0.1647
 1018SOL     ow 4069   0.716   0.710   1.209 -0.0685  0.0336 -0.7756
 1018SOL     hw 4070   0.752   0.749   1.130  0.9514  0.1403 -0.2725
 1018SOL     hw 4071   0.664   0.636   1.178 -0.1245  0.4044 -1.5744
 1018SOL     vw 4072   0.714   0.705   1.195  0.0587  0.0966 -0.8147
 1019SOL     ow 4073   1.100   1.909   4.860  0.3858  0.3953 -0.1686
 1019SOL     hw 4074   1.174   1.910   4.920  1.0060  0.5405 -0.9167
 1019SOL     hw 4075   1.124   1.844   4.793 -0.3816  0.0778 -0.1556
 1019SOL     vw 4076   1.113   1.900   4.859  0.3663  0.3725 -0.2656
 1020SOL     ow 4077   4.714   3.398   0.696 -0.6827 -0.6642  0.0080
 1020SOL     hw 4078   4.785   3.397   0.632 -1.2128 -0.9433 -0.5850
 1020SOL     hw 4079   4.698   3.305   0.714 -2.1117 -0.6856 -1.2379
 1020SOL     vw 4080   4.722   3.386   0.690 -0.9413 -0.7038 -0.2346
 1021SOL     ow 4081   7.135   6.772   1.977 -0.1648  0.4063  0.1300
 1021SOL     hw 4082   7.046   6.802   1.995 -0.9678 -1.4251 -0.4679
 1021SOL     hw 4083   7.126   6.719   1.897  1.2409 -0.7462  0.6989
 1021SOL     vw 4084   7.122   6.769   1.969 -0.0851  0.0126  0.1262
 1022SOL     ow 4085   2.136   6.871   2.972 -0.6725 -0.2269 -0.4347
 1022SOL     hw 4086   2.168   6.801   3.027 -0.1805  0.6900  0.4835
 1022SOL     hw 4087   2.176   6.855   2.886 -2.8272 -2.6706 -1.1084
 1022SOL     vw 4088   2.145   6.860   2.968 -0.8918 -0.4280 -0.4025
 1023SOL     ow 4089   6.341   5.405   2.704 -0.0528 -0.5626  0.2886
 1023SOL     hw 4090   6.407   5.355   2.752  1.1643 -0.5102 -1.2319
 1023SOL     hw 4091   6.352   5.495   2.736  0.9070 -0.4867 -0.2057
 1023SOL     vw 4092   6.351   5.410   2.714  0.2344 -0.5455  0.0228
 1024SOL     ow 4093   3.402   4.534   4.154  0.2608  0.3261 -0.1682
 1024SOL     hw 4094   3.462   4.463   4.176  2.7706  1.0322 -3.8671
 1024SOL     hw 4095   3.343   4.497   4.088 -2.3872  0.2012  2.0502
 1024SOL     vw 4096   3.402   4.520   4.149  0.2426  0.4029 -0.3633
 1025SOL     ow 4097   5.875   2.668   4.106  0.4821 -0.7614  0.0744
 1025SOL     hw 4098   5.845   2.751   4.069 -0.4491 -1.4945 -0.8696
 1025SOL     hw 4099   5.900   2.690   4.196  0.3323  0.5458 -0.1778
 1025SOL     vw 4100   5.875   2.682   4.113  0.3395 -0.6858 -0.0832
 1026SOL     ow 4101   6.837   0.726   1.201 -0.5993 -0.0486 -0.1620
 1026SOL     hw 4102   6.842   0.679   1.285 -0.6906 -1.4180 -0.8818
 1026SOL     hw 4103   6.865   0.815   1.221 -0.8525 -0.2839  1.3709
 1026SOL     vw 4104   6.841   0.731   1.215 -0.6444 -0.2604 -0.0548
 1027SOL     ow 4105   5.970   4.335   0.223  0.2382 -0.4731  0.8365
 1027SOL     hw 4106   6.019   4.384   0.289 -1.2961 -0.4635  2.0454
 1027SOL     hw 4107   5.924   4.402   0.172  0.9708 -0.5078  0.1227
 1027SOL     vw 4108   5.970   4.350   0.225  0.1323 -0.4764  0.9018
 1028SOL     ow 4109   3.303   6.057   0.038 -0.4856 -0.1278  0.1342
 1028SOL     hw 4110   3.286   6.141  -0.005 -0.5412 -0.3504 -0.2808
 1028SOL     hw 4111   3.300   6.077   0.132  0.1863  0.4627  0.0360
 1028SOL     vw 4112   3.300   6.071   0.045 -0.4042 -0.0792  0.0665
 1029SOL     ow 4113   7.286   6.662   4.939  0.0723 -0.2913  0.0143
 1029SOL     hw 4114   7.346   6.684   4.867 -0.0442  3.7088  0.8926
 1029SOL     hw 4115   7.341   6.617   5.003  0.8615 -1.2527 -1.2798
 1029SOL     vw 4116   7.301   6.659   4.938  0.1611  0.1097 -0.0405
 1030SOL     ow 4117   4.163   5.959   0.257  0.3087 -0.3321 -0.2545
 1030SOL     hw 4118   4.081   6.005   0.242  0.7418  0.3640 -0.5528
 1030SOL     hw 4119   4.178   5.908   0.177  0.0904 -0.5903 -0.1331
 1030SOL     vw 4120   4.154   5.958   0.244  0.3371 -0.2744 -0.2779
 1031SOL     ow 4121   2.964   4.204   6.326  1.0131  0.8589 -0.4664
 1031SOL     hw 4122   3.001   4.255   6.254  2.0280  0.5228 -0.2040
 1031SOL     hw 4123   2.896   4.151   6.286  2.0587  0.1379 -1.3260
 1031SOL     vw 4124   2.960   4.204   6.311  1.2850  0.7193 -0.5455
 1032SOL     ow 4125   4.865   5.493   7.190  0.3345  0.5586  0.4326
 1032SOL     hw 4126   4.930   5.490   7.120 -1.0095  0.1056 -0.8532
 1032SOL     hw 4127   4.813   5.571   7.172 -1.2570 -0.5980 -0.2873
 1032SOL     vw 4128   4.867   5.503   7.179 -0.0529  0.3459  0.1678
 1033SOL     ow 4129   3.692   1.921   2.334  0.1659 -1.0128 -0.4227
 1033SOL     hw 4130   3.622   1.874   2.288  0.3781 -0.1806 -1.6607
 1033SOL     hw 4131   3.667   1.919   2.426  0.5189 -4.1219 -0.3134
 1033SOL     vw 4132   3.679   1.915   2.340  0.2406 -1.3132 -0.5716
 1034SOL     ow 4133   5.539   0.274   3.853  0.0621  0.1701 -0.6013
 1034SOL     hw 4134   5.505   0.212   3.789 -0.6013 -1.0715  0.8873
 1034SOL     hw 4135   5.632   0.282   3.832  0.1241 -1.2092 -0.9117
 1034SOL     vw 4136   5.547   0.267   3.842 -0.0172 -0.1757 -0.4460
 1035SOL     ow 4137   0.566   4.394   6.812 -0.1054 -0.1833 -0.0526
 1035SOL     hw 4138   0.646   4.360   6.773 -0.6811 -0.6687 -0.8358
 1035SOL     hw 4139   0.585   4.486   6.830 -0.0966  0.3062 -2.3216
 1035SOL     vw 4140   0.579   4.402   6.810 -0.1802 -0.1826 -0.4554
 1036SOL     ow 4141   2.315   4.626   0.072 -0.0514 -0.0536 -0.1249
 1036SOL     hw 4142   2.369   4.648  -0.004  0.8963 -2.8560 -0.3544
 1036SOL     hw 4143   2.342   4.538   0.097 -1.5887  0.0769  2.4023
 1036SOL     vw 4144   2.326   4.617   0.065 -0.1291 -0.4060  0.1782
 1037SOL     ow 4145   3.398   1.588   5.535 -0.0513 -0.4486  0.5342
 1037SOL     hw 4146   3.305   1.572   5.519 -0.5355  1.5535  1.1189
 1037SOL     hw 4147   3.427   1.638   5.460  0.9360 -2.1999 -0.3039
 1037SOL     vw 4148   3.389   1.592   5.523  0.0153 -0.4154  0.5009
 1038SOL     ow 4149   5.828   4.505   2.899  0.3022  0.3162  0.0060
 1038SOL     hw 4150   5.786   4.591   2.904 -0.1826  0.2041 -1.6227
 1038SOL     hw 4151   5.767   4.446   2.943 -0.0753  0.5696 -0.1702
 1038SOL     vw 4152   5.814   4.509   2.906  0.1886  0.3350 -0.2322
 1039SOL     ow 4153   6.536   1.976   2.752  0.3132  0.8356 -0.4614
 1039SOL     hw 4154   6.591   1.954   2.677  0.4629 -0.7221  0.0718
 1039SOL     hw 4155   6.466   1.911   2.751  0.4525  0.6342  0.8781
 1039SOL     vw 4156   6.534   1.965   2.742  0.3514  0.6035 -0.2146
 1040SOL     ow 4157   6.813   3.475   1.568  0.5682  0.0381 -0.7219
 1040SOL     hw 4158   6.815   3.568   1.544  1.8369  0.8634  2.1305
 1040SOL     hw 4159   6.904   3.446   1.560  0.4399 -0.5477 -0.1357
 1040SOL     vw 4160   6.825   3.483   1.564  0.7188  0.0697 -0.2683
 1041SOL     ow 4161   4.823   0.056   1.784  0.4738  0.5407  0.4609
 1041SOL     hw 4162   4.889  -0.011   1.802  0.6150  0.3337 -0.7109
 1041SOL     hw 4163   4.753   0.009   1.738 -0.6094  0.7112  1.8823
 1041SOL     vw 4164   4.823   0.041   1.780  0.3493  0.5360  0.4938
 1042SOL     ow 4165   7.012   1.593   4.648 -0.6247  0.2506 -0.0856
 1042SOL     hw 4166   7.070   1.611   4.722 -0.7390 -0.4620  0.1926
 1042SOL     hw 4167   7.068   1.601   4.571  0.5076 -2.7543  0.2954
 1042SOL     vw 4168   7.027   1.596   4.647 -0.4902 -0.2399  0.0014
 1043SOL     ow 4169   2.213   6.101   0.947 -0.5142 -0.3146 -0.5249
 1043SOL     hw 4170   2.153   6.100   0.872 -1.5856  0.7629  0.2718
 1043SOL     hw 4171   2.196   6.018   0.992 -0.5844 -0.5163 -0.9164
 1043SOL     vw 4172   2.203   6.090   0.943 -0.6648 -0.1991 -0.4714
 1044SOL     ow 4173   4.429   7.017   6.634 -0.1724 -0.0628  1.1128
 1044SOL     hw 4174   4.481   7.065   6.698  0.4019  1.0621 -0.1473
 1044SOL     hw 4175   4.384   6.950   6.685  3.4075 -1.9393  2.1609
 1044SOL     vw 4176   4.430   7.014   6.649  0.3755 -0.1619  1.0848
 1045SOL     ow 4177   0.414   0.894   1.493 -0.3163 -0.0769 -0.7565
 1045SOL     hw 4178   0.418   0.799   1.492 -0.7588 -0.1138 -2.2996
 1045SOL     hw 4179   0.376   0.916   1.578 -1.3956 -1.3527 -0.8716
 1045SOL     vw 4180   0.410   0.885   1.504 -0.5171 -0.2501 -0.9753
 1046SOL     ow 4181   3.954   3.561   3.262  0.6867 -0.1841  0.1809
 1046SOL     hw 4182   4.007   3.600   3.192 -1.2695  1.3897 -0.5037
 1046SOL     hw 4183   3.984   3.604   3.342  1.9748 -0.9944  0.1770
 1046SOL     vw 4184   3.965   3.571   3.263  0.5987 -0.0833  0.0900
 1047SOL     ow 4185   2.536   6.110   3.105  0.2443  0.0202  0.4429
 1047SOL     hw 4186   2.522   6.204   3.113  0.2207 -0.1417  4.2294
 1047SOL     hw 4187   2.631   6.099   3.108  0.2193 -0.0919  2.6508
 1047SOL     vw 4188   2.547   6.121   3.106  0.2379 -0.0160  1.2337
 1048SOL     ow 4189   3.923   0.296   5.175 -0.3017 -0.8011 -0.1976
 1048SOL     hw 4190   4.008   0.291   5.218 -0.3879  1.9346  0.4851
 1048SOL     hw 4191   3.941   0.272   5.084  1.6313  1.3763 -0.4877
 1048SOL     vw 4192   3.936   0.292   5.168 -0.0579 -0.1529 -0.1459
 1049SOL     ow 4193   3.701   3.003   4.440  0.5134  0.1971 -0.6175
 1049SOL     hw 4194   3.743   2.989   4.355 -0.1906 -2.4039 -0.6233
 1049SOL     hw 4195   3.622   3.053   4.421  0.3867 -0.3342 -1.4953
 1049SOL     vw 4196   3.696   3.008   4.427  0.4038 -0.2162 -0.7343
 1050SOL     ow 4197   0.234   3.455   2.248 -0.4166 -0.3324  0.2504
 1050SOL     hw 4198   0.224   3.499   2.164  0.9360  1.3961  0.8966
 1050SOL     hw 4199   0.191   3.514   2.311 -1.3237 -1.5415  0.7965
 1050SOL     vw 4200   0.227   3.469   2.245 -0.3578 -0.2639  0.4076
 1051SOL     ow 4201   0.033   4.304   2.378 -0.5692 -0.0419  0.3297
 1051SOL     hw 4202   0.095   4.311   2.451  0.6764  1.1960 -0.7886
 1051SOL     hw 4203   0.043   4.214   2.347  2.4844  0.6959 -1.2656
 1051SOL     vw 4204   0.043   4.293   2.383 -0.0019  0.2186 -0.0283
 1052SOL     ow 4205   1.429   0.356   6.788  0.4467 -1.1362  0.0763
 1052SOL     hw 4206   1.404   0.432   6.736 -0.2165 -1.9299 -0.7889
 1052SOL     hw 4207   1.450   0.392   6.874  2.3594  0.3060 -0.9302
 1052SOL     vw 4208   1.428   0.371   6.793  0.6115 -1.0507 -0.1707
 1053SOL     ow 4209   4.630   2.246   0.449  0.1037 -0.1296  0.1887
 1053SOL     hw 4210   4.538   2.237   0.425 -0.0217  0.3004  0.5097
 1053SOL     hw 4211   4.631   2.239   0.544  0.3454  0.3199  0.2214
 1053SOL     vw 4212   4.618   2.244   0.458  0.1194 -0.0136  0.2354
 1054SOL     ow 4213   2.230   4.106   5.686 -0.6326 -0.1132 -0.2699
 1054SOL     hw 4214   2.316   4.087   5.649  0.0009 -0.0539  1.1090
 1054SOL     hw 4215   2.200   4.022   5.721 -1.0990 -0.1131 -0.6576
 1054SOL     vw 4216   2.237   4.092   5.686 -0.6106 -0.1054 -0.1392
 1055SOL     ow 4217   3.999   0.229   4.917  0.8164  0.3814  1.0372
 1055SOL     hw 4218   4.091   0.248   4.897  0.5078  1.3743  0.5120
 1055SOL     hw 4219   3.952   0.246   4.836  0.1444 -0.0104  1.3335
 1055SOL     vw 4220   4.005   0.234   4.904  0.6869  0.4607  1.0068
 1056SOL     ow 4221   3.397   5.731   0.102  0.2297  0.2104 -0.4798
 1056SOL     hw 4222   3.453   5.759   0.174 -0.5825 -1.9059  1.0703
 1056SOL     hw 4223   3.457   5.691   0.039  0.5471 -2.1895  1.2386
 1056SOL     vw 4224   3.412   5.729   0.103  0.1645 -0.3853 -0.0486
 1057SOL     ow 4225   0.730   7.059   3.532  0.0274 -0.1608 -0.0142
 1057SOL     hw 4226   0.718   7.109   3.451  0.5534  0.2570  0.1651
 1057SOL     hw 4227   0.647   7.067   3.578 -0.5629 -1.0687 -0.8803
 1057SOL     vw 4228   0.718   7.066   3.527  0.0190 -0.2255 -0.1049
 1058SOL     ow 4229   0.267   6.610   5.524  0.3426 -0.2041 -0.2441
 1058SOL     hw 4230   0.256   6.639   5.433  0.0609 -1.1901 -0.5358
 1058SOL     hw 4231   0.310   6.684   5.567  4.0621 -1.0525 -2.0450
 1058SOL     vw 4232   0.271   6.623   5.517  0.7962 -0.4461 -0.5200
 1059SOL     ow 4233   6.344   6.248   2.212  0.1110 -0.3049 -0.1699
 1059SOL     hw 4234   6.281   6.208   2.152 -1.0019 -1.7866  1.8391
 1059SOL     hw 4235   6.352   6.184   2.283  0.5150  1.7961  1.7897
 1059SOL     vw 4236   6.336   6.234   2.214  0.0176 -0.2232  0.3538
 1060SOL     ow 4237   5.143   7.138   4.273  0.4129  0.1324  0.3958
 1060SOL     hw 4238   5.086   7.177   4.207 -0.6912 -2.8374 -0.5814
 1060SOL     hw 4239   5.232   7.160   4.243 -0.1207  1.2160 -0.4694
 1060SOL     vw 4240   5.147   7.146   4.260  0.1967 -0.1163  0.1526
 1061SOL     ow 4241   6.938   3.899   2.485 -0.1316  0.5686 -0.6736
 1061SOL     hw 4242   6.928   3.972   2.546  0.6518  0.7651 -0.7704
 1061SOL     hw 4243   6.910   3.822   2.536  2.4512  0.4138  0.7043
 1061SOL     vw 4244   6.933   3.898   2.500  0.3123  0.5742 -0.5046
 1062SOL     ow 4245   0.607   0.302   0.374 -0.2841  0.0310  0.3495
 1062SOL     hw 4246   0.604   0.241   0.300  1.9123  3.5740 -3.0433
 1062SOL     hw 4247   0.549   0.373   0.348 -2.1229 -0.0230  3.7759
 1062SOL     vw 4248   0.599   0.303   0.361 -0.2369  0.4913  0.3539
 1063SOL     ow 4249   0.285   0.954   0.305  0.1436  0.5500  0.8015
 1063SOL     hw 4250   0.232   0.999   0.372 -3.3483  0.5489 -1.6668
 1063SOL     hw 4251   0.284   0.862   0.331  1.8749  0.9489  2.5051
 1063SOL     vw 4252   0.278   0.948   0.317 -0.0887  0.6025  0.7007
 1064SOL     ow 4253   5.953   2.646   5.475  0.2219  0.0119 -0.0672
 1064SOL     hw 4254   5.884   2.685   5.421  1.3559  4.2591  1.1694
 1064SOL     hw 4255   5.907   2.612   5.552 -0.8072 -1.0057 -1.0848
 1064SOL     vw 4256   5.938   2.647   5.478  0.2358  0.4381 -0.0381
 1065SOL     ow 4257   6.226   6.548   3.602  0.3041 -0.6208 -0.4371
 1065SOL     hw 4258   6.210   6.552   3.507 -1.4239  0.3663 -0.1457
 1065SOL     hw 4259   6.257   6.636   3.625 -0.3698 -0.5056  0.0676
 1065SOL     vw 4260   6.228   6.560   3.592 -0.0126 -0.4754 -0.3322
 1066SOL     ow 4261   0.039   7.007   6.775 -0.0496  0.5923 -0.1072
 1066SOL     hw 4262   0.003   7.016   6.863 -4.9266  2.0221 -1.8987
 1066SOL     hw 4263   0.119   7.060   6.775  1.7635 -1.6716  3.9585
 1066SOL     vw 4264   0.045   7.015   6.786 -0.4538  0.4823  0.1926
 1067SOL     ow 4265   4.556   6.787   3.409  0.4230 -0.1641 -0.2380
 1067SOL     hw 4266   4.617   6.716   3.389 -3.2440 -3.1727 -2.0145
 1067SOL     hw 4267   4.543   6.832   3.325 -0.9086 -0.6008 -0.2876
 1067SOL     vw 4268   4.562   6.784   3.395 -0.2365 -0.6185 -0.4789
 1068SOL     ow 4269   0.538   7.084   5.332  0.3385  0.2308  0.0915
 1068SOL     hw 4270   0.589   7.007   5.308  0.0999  0.1100 -0.0220
 1068SOL     hw 4271   0.454   7.073   5.288 -0.7373 -0.8161  2.2574
 1068SOL     vw 4272   0.534   7.072   5.323  0.1651  0.0768  0.3622
 1069SOL     ow 4273   0.776   0.405   0.948 -0.3979  0.0762  0.0702
 1069SOL     hw 4274   0.696   0.432   0.993 -0.8053  0.0430 -0.6167
 1069SOL     hw 4275   0.746   0.378   0.861  0.2882 -0.4766 -0.0007
 1069SOL     vw 4276   0.761   0.405   0.942 -0.3612 -0.0011 -0.0298
 1070SOL     ow 4277   0.224   1.122   3.010  0.6835 -0.4218  0.7685
 1070SOL     hw 4278   0.279   1.196   2.983 -0.7430  0.0736 -0.9669
 1070SOL     hw 4279   0.246   1.052   2.948  0.3496 -0.6689  0.9253
 1070SOL     vw 4280   0.234   1.122   2.998  0.4512 -0.3890  0.5603
 1071SOL     ow 4281   2.974   2.950   1.402  0.2636  0.9198 -0.3245
 1071SOL     hw 4282   3.034   3.025   1.401 -0.1671  1.2729 -0.3673
 1071SOL     hw 4283   2.923   2.962   1.482  0.8578  0.1226  0.1918
 1071SOL     vw 4284   2.975   2.962   1.413  0.2851  0.8610 -0.2620
 1072SOL     ow 4285   5.060   1.309   1.914  0.0905 -0.1671  0.5574
 1072SOL     hw 4286   5.073   1.335   1.823 -2.0491  0.6819  0.4317
 1072SOL     hw 4287   5.145   1.279   1.943  0.6170 -1.3805 -2.0074
 1072SOL     vw 4288   5.073   1.309   1.906 -0.1225 -0.2152  0.2024
 1073SOL     ow 4289   2.802   1.776   4.900 -0.4791  0.0023  0.1037
 1073SOL     hw 4290   2.733   1.834   4.866  0.3438  0.3998 -0.9252
 1073SOL     hw 4291   2.754   1.702   4.937 -1.4684  0.1899 -0.7470
 1073SOL     vw 4292   2.786   1.774   4.901 -0.5012  0.0795 -0.1445
 1074SOL     ow 4293   0.130   2.251   6.287  0.4086 -0.5248 -0.5207
 1074SOL     hw 4294   0.106   2.160   6.307  1.8409 -1.3882 -2.4045
 1074SOL     hw 4295   0.124   2.258   6.192 -1.3213  1.9083 -0.3150
 1074SOL     vw 4296   0.126   2.240   6.277  0.3693 -0.3177 -0.7424
 1075SOL     ow 4297   4.045   1.725   1.230  0.3158 -0.0336  0.3183
 1075SOL     hw 4298   3.994   1.803   1.213 -0.7492 -0.7027  0.3672
 1075SOL     hw 4299   4.103   1.750   1.302 -0.8948  0.3404  1.1958
 1075SOL     vw 4300   4.046   1.738   1.237  0.0153 -0.0725  0.4405
 1076SOL     ow 4301   2.114   4.799   3.853  0.0510 -0.3346  0.3810
 1076SOL     hw 4302   2.046   4.842   3.905  0.4958  0.5490  0.2388
 1076SOL     hw 4303   2.196   4.831   3.889  0.3846 -0.6140 -0.1135
 1076SOL     vw 4304   2.116   4.809   3.865  0.1538 -0.2551  0.2968
 1077SOL     ow 4305   1.926   3.172   5.066  0.4348 -0.0202 -0.0546
 1077SOL     hw 4306   1.946   3.193   4.975  1.1971 -1.3546 -0.2261
 1077SOL     hw 4307   1.872   3.245   5.097  3.7862  2.7533 -0.2273
 1077SOL     vw 4308   1.921   3.185   5.058  0.9776  0.1698 -0.0999
 1078SOL     ow 4309   7.095   4.933   1.605  0.3604  0.0668  0.1298
 1078SOL     hw 4310   7.172   4.890   1.570 -0.0944  0.0283 -0.8636
 1078SOL     hw 4311   7.122   5.024   1.619  0.3412  0.2731 -1.0779
 1078SOL     vw 4312   7.108   4.940   1.602  0.2978  0.0889 -0.1606
 1079SOL     ow 4313   5.187   5.854   0.405  0.6091 -0.4729 -0.3983
 1079SOL     hw 4314   5.277   5.881   0.392  0.8815 -0.4946  1.2507
 1079SOL     hw 4315   5.161   5.893   0.489 -0.7733 -0.8030 -0.6330
 1079SOL     vw 4316   5.195   5.862   0.415  0.4625 -0.5193 -0.2117
 1080SOL     ow 4317   1.530   2.606   3.859  0.5426 -0.4523 -0.4774
 1080SOL     hw 4318   1.478   2.527   3.847 -2.7458  1.3429  0.3753
 1080SOL     hw 4319   1.560   2.629   3.771 -1.4712 -0.8340 -1.3225
 1080SOL     vw 4320   1.527   2.599   3.846 -0.1569 -0.2658 -0.4764
 1081SOL     ow 4321   5.100   1.308   6.780  0.2966  0.4411  0.4575
 1081SOL     hw 4322   5.065   1.395   6.759  0.9999  0.5091 -0.5045
 1081SOL     hw 4323   5.129   1.316   6.871 -2.1901  0.3586  1.3334
 1081SOL     vw 4324   5.100   1.321   6.789  0.0613  0.4392  0.4461
 1082SOL     ow 4325   1.211   4.620   6.183 -0.4025  0.7175  0.0452
 1082SOL     hw 4326   1.201   4.560   6.257  0.9452 -1.2997 -1.3103
 1082SOL     hw 4327   1.241   4.702   6.223 -1.0029  0.1111  1.8428
 1082SOL     vw 4328   1.214   4.623   6.198 -0.3039  0.3715  0.1035
 1083SOL     ow 4329   6.651   4.065   2.690 -0.4074 -0.2155 -0.0059
 1083SOL     hw 4330   6.687   3.983   2.725 -0.4216 -0.5402 -0.7344
 1083SOL     hw 4331   6.570   4.039   2.647  0.1248  0.0023 -1.1739
 1083SOL     vw 4332   6.645   4.051   2.689 -0.3388 -0.2294 -0.2561
 1084SOL     ow 4333   1.168   2.581   5.956  0.1889 -0.3479  0.1727
 1084SOL     hw 4334   1.260   2.597   5.934  0.9389 -3.4703  0.5229
 1084SOL     hw 4335   1.167   2.493   5.994 -2.8343 -0.0530  1.0695
 1084SOL     vw 4336   1.180   2.571   5.958 -0.1111 -0.7210  0.3371
 1085SOL     ow 4337   3.950   5.442   4.384 -0.2083 -0.8026 -0.2712
 1085SOL     hw 4338   3.922   5.376   4.447 -0.1097 -0.9607 -0.3940
 1085SOL     hw 4339   4.015   5.494   4.431 -2.3154  1.0268  0.8354
 1085SOL     vw 4340   3.955   5.441   4.399 -0.4733 -0.5822 -0.1416
 1086SOL     ow 4341   2.225   6.104   6.499 -0.6280 -0.1861  0.7579
 1086SOL     hw 4342   2.261   6.127   6.585 -0.4642  1.5697  0.2710
 1086SOL     hw 4343   2.265   6.020   6.478  0.0781 -0.1789  1.9854
 1086SOL     vw 4344   2.235   6.096   6.508 -0.5132  0.0465  0.8554
 1087SOL     ow 4345   1.422   1.326   0.287 -0.0149 -0.5560  0.2518
 1087SOL     hw 4346   1.440   1.235   0.311 -0.0910 -0.5091  0.4818
 1087SOL     hw 4347   1.411   1.371   0.370  0.1306 -0.3134  0.1390
 1087SOL     vw 4348   1.423   1.320   0.301 -0.0057 -0.5178  0.2672
 1088SOL     ow 4349   0.800   7.130   3.886  0.1249 -0.5605 -0.5919
 1088SOL     hw 4350   0.876   7.139   3.942  1.2690  2.2511 -2.3776
 1088SOL     hw 4351   0.805   7.204   3.826 -3.0677 -1.2640 -1.9651
 1088SOL     vw 4352   0.811   7.141   3.885 -0.1454 -0.2825 -1.0087
 1089SOL     ow 4353   4.226   0.823   3.456 -0.0390  0.2553 -0.0222
 1089SOL     hw 4354   4.162   0.751   3.462 -0.4736  0.7577  2.9421
 1089SOL     hw 4355   4.266   0.827   3.543  1.8557  1.9731 -0.8796
 1089SOL     vw 4356   4.223   0.814   3.468  0.1533  0.5483  0.2557
 1090SOL     ow 4357   0.474   5.649   1.435  0.3406 -0.1405 -0.4257
 1090SOL     hw 4358   0.410   5.643   1.364 -1.0728  0.1986  0.7664
 1090SOL     hw 4359   0.543   5.706   1.401 -0.5472  0.4000 -1.3622
 1090SOL     vw 4360   0.475   5.656   1.421  0.0370 -0.0243 -0.3920
 1091SOL     ow 4361   4.491   3.898   0.527  0.4941 -0.1325 -0.1401
 1091SOL     hw 4362   4.419   3.848   0.565  0.3299 -0.5354 -0.9538
 1091SOL     hw 4363   4.555   3.831   0.501  0.3811  0.0847 -1.0157
 1091SOL     vw 4364   4.490   3.882   0.529  0.4575 -0.1570 -0.3630
 1092SOL     ow 4365   1.606   3.793   7.204 -0.4648 -0.1653 -0.3657
 1092SOL     hw 4366   1.532   3.854   7.199 -1.7330 -1.5227  0.8173
 1092SOL     hw 4367   1.585   3.725   7.139 -1.3393 -1.6025  1.3336
 1092SOL     vw 4368   1.593   3.792   7.195 -0.7476 -0.5339  0.0145
 1093SOL     ow 4369   2.091   1.359   1.949 -0.6768  0.0596  0.2872
 1093SOL     hw 4370   2.032   1.331   2.020 -0.4167 -0.2405  0.3874
 1093SOL     hw 4371   2.122   1.445   1.977  1.3895 -1.0885  1.7968
 1093SOL     vw 4372   2.087   1.367   1.962 -0.3698 -0.1314  0.4996
 1094SOL     ow 4373   4.539   1.769   0.891  0.8678  0.3714  0.2619
 1094SOL     hw 4374   4.444   1.781   0.878 -0.2289 -1.1079  5.0038
 1094SOL     hw 4375   4.558   1.686   0.847  0.5171  1.5031 -2.2311
 1094SOL     vw 4376   4.529   1.759   0.884  0.6769  0.3255  0.5586
 1095SOL     ow 4377   1.712   5.816   4.392 -0.1026 -0.4903  0.0838
 1095SOL     hw 4378   1.722   5.814   4.488 -2.4696 -0.6475  0.3743
 1095SOL     hw 4379   1.618   5.821   4.378  0.2747  1.6817 -2.2521
 1095SOL     vw 4380   1.701   5.816   4.403 -0.3651 -0.2246 -0.1860
 1096SOL     ow 4381   4.202   5.282   0.686  0.0626 -0.7192  0.1136
 1096SOL     hw 4382   4.277   5.316   0.736 -1.2213  1.8858  0.3983
 1096SOL     hw 4383   4.154   5.229   0.750  0.0226  0.1564  0.8345
 1096SOL     vw 4384   4.206   5.279   0.701 -0.1123 -0.2601  0.2463
 1097SOL     ow 4385   2.129   2.327   0.194 -0.0678  0.2233  0.0155
 1097SOL     hw 4386   2.110   2.388   0.265  2.1510 -0.2993  1.1538
 1097SOL     hw 4387   2.047   2.279   0.180 -0.5506  0.2881  2.3069
 1097SOL     vw 4388   2.116   2.329   0.201  0.1613  0.1630  0.4680
 1098SOL     ow 4389   3.895   0.595   6.481 -0.4034 -0.2303 -0.2169
 1098SOL     hw 4390   3.844   0.596   6.399  0.5889 -2.4612 -0.9429
 1098SOL     hw 4391   3.976   0.549   6.458  1.2180  1.6721  1.3387
 1098SOL     vw 4392   3.899   0.589   6.467 -0.0585 -0.2736 -0.1073
 1099SOL     ow 4393   5.612   5.286   1.365 -0.0361  0.3359 -0.2725
 1099SOL     hw 4394   5.544   5.277   1.298  0.0723  1.3106 -0.5228
 1099SOL     hw 4395   5.589   5.365   1.413 -1.1489 -1.3001  2.0980
 1099SOL     vw 4396   5.600   5.295   1.362 -0.1688  0.2489  0.0072
 1100SOL     ow 4397   6.745   4.661   2.408 -0.5152  0.1511 -0.2226
 1100SOL     hw 4398   6.741   4.629   2.498 -0.7786 -1.1551 -0.6707
 1100SOL     hw 4399   6.835   4.640   2.380 -1.0557 -1.3845 -0.9136
 1100SOL     vw 4400   6.757   4.654   2.416 -0.6211 -0.2239 -0.3730
 1101SOL     ow 4401   4.864   3.471   0.921 -0.4498  0.6177  0.0126
 1101SOL     hw 4402   4.939   3.480   0.863  0.2683 -0.5322  0.7193
 1101SOL     hw 4403   4.902   3.465   1.009 -1.3655  0.1019  0.3885
 1101SOL     vw 4404   4.879   3.472   0.925 -0.4761  0.3980  0.1555
 1102SOL     ow 4405   5.244   5.266   0.602  0.2270  0.2914 -0.1824
 1102SOL     hw 4406   5.227   5.240   0.512  0.4871  1.6094 -0.6349
 1102SOL     hw 4407   5.173   5.226   0.653 -0.9178  0.9475 -1.2190
 1102SOL     vw 4408   5.232   5.257   0.597  0.1101  0.5519 -0.3788
 1103SOL     ow 4409   0.312   6.673   6.626  0.1737  0.1018  0.1214
 1103SOL     hw 4410   0.286   6.713   6.544 -0.9623 -0.9638 -0.0729
 1103SOL     hw 4411   0.395   6.629   6.607  0.1852  0.3087 -0.3004
 1103SOL     vw 4412   0.320   6.672   6.613  0.0253 -0.0114  0.0401
 1104SOL     ow 4413   5.642   2.736   6.955  0.0580 -0.3447 -0.1545
 1104SOL     hw 4414   5.574   2.762   7.017  1.2719  2.6930  0.0851
 1104SOL     hw 4415   5.712   2.700   7.009  0.9945  2.0313  0.3420
 1104SOL     vw 4416   5.642   2.735   6.970  0.3417  0.3695 -0.0575
 1105SOL     ow 4417   5.594   1.273   0.581 -0.0135  0.1966  0.4109
 1105SOL     hw 4418   5.547   1.205   0.629 -2.2015  1.7622  0.6661
 1105SOL     hw 4419   5.649   1.314   0.648 -0.9221  0.5408  0.9817
 1105SOL     vw 4420   5.595   1.270   0.596 -0.4222  0.4486  0.5199
 1106SOL     ow 4421   5.877   1.773   1.750  0.1922 -0.6322 -0.5823
 1106SOL     hw 4422   5.911   1.757   1.663  0.2931 -0.5067 -0.5661
 1106SOL     hw 4423   5.955   1.778   1.806  0.1490 -0.3491 -0.5447
 1106SOL     vw 4424   5.892   1.772   1.746  0.1998 -0.5783 -0.5753
 1107SOL     ow 4425   2.363   5.623   1.969 -1.4494 -0.1740 -0.0515
 1107SOL     hw 4426   2.330   5.713   1.962 -0.3221  0.3486  0.9416
 1107SOL     hw 4427   2.355   5.588   1.880 -3.3524  0.3589 -0.1343
 1107SOL     vw 4428   2.358   5.630   1.956 -1.5519 -0.0348  0.0686
 1108SOL     ow 4429   2.829   4.878   4.576 -0.6814  0.7031 -0.4320
 1108SOL     hw 4430   2.759   4.827   4.615  0.3253  0.7781  1.6213
 1108SOL     hw 4431   2.842   4.951   4.637  0.6398  1.1157 -1.1621
 1108SOL     vw 4432   2.822   4.881   4.590 -0.3741  0.7672 -0.2573
 1109SOL     ow 4433   1.946   6.516   6.733 -0.2255  0.4280 -0.0154
 1109SOL     hw 4434   1.874   6.580   6.731  0.4229  1.1678 -0.3788
 1109SOL     hw 4435   1.931   6.461   6.655 -0.9704 -0.0862  0.4778
 1109SOL     vw 4436   1.934   6.517   6.722 -0.2382  0.4578  0.0019
 1110SOL     ow 4437   3.417   0.164   3.642  0.2356  0.2319 -0.3451
 1110SOL     hw 4438   3.370   0.100   3.695  0.9886 -0.8063 -0.8964
 1110SOL     hw 4439   3.415   0.244   3.693  0.4949 -0.6012  1.0135
 1110SOL     vw 4440   3.410   0.166   3.655  0.3692 -0.0150 -0.2385
 1111SOL     ow 4441   3.734   6.915   5.050  0.0336  0.3177 -0.0028
 1111SOL     hw 4442   3.745   6.988   4.989  1.3500  0.0301 -0.1285
 1111SOL     hw 4443   3.639   6.904   5.056 -0.1478  0.7878 -1.4811
 1111SOL     vw 4444   3.723   6.923   5.042  0.1833  0.3419 -0.2143
 1112SOL     ow 4445   1.316   6.467   1.865 -0.2051  0.3374 -0.2640
 1112SOL     hw 4446   1.363   6.465   1.782 -0.9754  0.5827 -0.7153
 1112SOL     hw 4447   1.382   6.490   1.930  0.9151 -2.0017 -0.4601
 1112SOL     vw 4448   1.331   6.470   1.863 -0.1590  0.0610 -0.3495
 1113SOL     ow 4449   0.136   5.101   7.295 -0.6907  0.2109  0.3791
 1113SOL     hw 4450   0.198   5.041   7.337 -2.4723 -0.4444  2.2387
 1113SOL     hw 4451   0.183   5.184   7.289  0.9870 -0.7088 -0.0190
 1113SOL     vw 4452   0.151   5.104   7.300 -0.7044  0.0033  0.5719
 1114SOL     ow 4453   5.147   6.435   1.814  0.5201  0.2723 -0.0822
 1114SOL     hw 4454   5.114   6.488   1.742 -0.9569  0.7695  0.9234
 1114SOL     hw 4455   5.147   6.494   1.890  1.6118 -0.3668  0.4440
 1114SOL     vw 4456   5.143   6.450   1.814  0.4692  0.2537  0.1200
 1115SOL     ow 4457   3.860   3.267   3.243  0.0286 -0.0517 -0.9625
 1115SOL     hw 4458   3.769   3.245   3.259 -0.5263  1.2530 -2.1413
 1115SOL     hw 4459   3.906   3.239   3.323 -1.8253  1.7552  0.8470
 1115SOL     vw 4460   3.854   3.260   3.256 -0.2892  0.3588 -0.8793
 1116SOL     ow 4461   2.731   5.887   7.206 -0.3705  0.2988  0.2895
 1116SOL     hw 4462   2.785   5.856   7.134  0.0678 -0.7993  1.0668
 1116SOL     hw 4463   2.659   5.823   7.213  0.2754 -0.3327  1.5936
 1116SOL     vw 4464   2.728   5.875   7.198 -0.2275  0.0706  0.5641
 1117SOL     ow 4465   1.079   5.987   6.336  0.7203 -0.0657  0.4839
 1117SOL     hw 4466   1.021   6.020   6.267  0.3839  0.6265  1.0810
 1117SOL     hw 4467   1.165   6.022   6.314  0.3364  1.3961  1.1988
 1117SOL     vw 4468   1.082   5.996   6.324  0.6253  0.2184  0.6568
 1118SOL     ow 4469   6.537   2.530   5.941  0.0042 -0.0038 -0.2737
 1118SOL     hw 4470   6.556   2.561   5.852 -2.0273 -0.2848 -0.8650
 1118SOL     hw 4471   6.459   2.580   5.967 -0.1562 -0.8163  0.8656
 1118SOL     vw 4472   6.529   2.541   5.932 -0.2851 -0.1481 -0.2015
 1119SOL     ow 4473   5.609   6.940   0.826  0.5067 -0.1130  0.1128
 1119SOL     hw 4474   5.697   6.925   0.792  0.3043 -0.5870 -0.2050
 1119SOL     hw 4475   5.607   6.893   0.910  0.8043  0.5469  0.4986
 1119SOL     vw 4476   5.620   6.932   0.833  0.5190 -0.0887  0.1217
 1120SOL     ow 4477   6.036   1.846   3.199 -0.9829 -0.0943 -0.0046
 1120SOL     hw 4478   5.997   1.933   3.191 -0.6410 -0.0460 -1.5388
 1120SOL     hw 4479   6.028   1.824   3.292 -0.8673  1.6599  0.4570
 1120SOL     vw 4480   6.030   1.855   3.210 -0.9227  0.1435 -0.1460
 1121SOL     ow 4481   1.535   4.011   3.043 -0.7971  0.1184 -0.2909
 1121SOL     hw 4482   1.538   4.098   3.084 -0.4719  0.6013 -1.3046
 1121SOL     hw 4483   1.560   4.027   2.952  0.8830 -1.2772 -0.1272
 1121SOL     vw 4484   1.539   4.025   3.036 -0.5325 -0.0017 -0.4029
 1122SOL     ow 4485   2.530   6.901   3.752 -0.8156 -0.1801 -0.0708
 1122SOL     hw 4486   2.539   6.942   3.838 -1.7870  0.1756 -0.1250
 1122SOL     hw 4487   2.479   6.964   3.701  2.4989  1.1944 -2.0157
 1122SOL     vw 4488   2.524   6.915   3.757 -0.5065  0.0479 -0.3345
 1123SOL     ow 4489   4.046   3.350   6.430 -0.1988  0.1283 -0.5344
 1123SOL     hw 4490   4.004   3.436   6.431  1.1200  0.7937  1.0203
 1123SOL     hw 4491   3.981   3.291   6.469  0.2219  1.1493  1.8815
 1123SOL     vw 4492   4.032   3.354   6.435  0.0308  0.3507 -0.0107
 1124SOL     ow 4493   2.868   0.562   4.554 -0.1362  0.2119 -0.2797
 1124SOL     hw 4494   2.956   0.598   4.561  0.2169  0.1562 -3.3595
 1124SOL     hw 4495   2.862   0.499   4.625  1.2563  2.1707  1.7065
 1124SOL     vw 4496   2.879   0.559   4.564  0.0942  0.4630 -0.4239
 1125SOL     ow 4497   5.897   1.326   7.103 -0.0086 -0.8604  0.3368
 1125SOL     hw 4498   5.858   1.370   7.027  2.0175  2.7326  1.1545
 1125SOL     hw 4499   5.830   1.332   7.171  0.0951  0.8436  0.3325
 1125SOL     vw 4500   5.883   1.333   7.102  0.2725 -0.1616  0.4437
 1126SOL     ow 4501   6.888   3.096   1.022 -0.1410  0.1963 -0.3077
 1126SOL     hw 4502   6.872   3.030   1.089 -0.0310  2.0233  1.6195
 1126SOL     hw 4503   6.905   3.177   1.071  0.4832  1.5132 -2.5344
 1126SOL     vw 4504   6.888   3.098   1.037 -0.0443  0.6112 -0.3472
 1127SOL     ow 4505   2.422   3.410   4.935  0.3321  0.7100  0.1243
 1127SOL     hw 4506   2.361   3.480   4.915  1.1434  1.4154  0.0446
 1127SOL     hw 4507   2.504   3.455   4.957  1.6331 -0.2108 -2.3689
 1127SOL     vw 4508   2.425   3.425   4.935  0.6108  0.6816 -0.2153
 1128SOL     ow 4509   0.005   7.049   2.819  0.0375  0.2767  0.1750
 1128SOL     hw 4510   0.061   7.031   2.743  0.2458  2.9496 -0.4121
 1128SOL     hw 4511   0.024   6.978   2.880  2.5962 -0.0047 -0.8040
 1128SOL     vw 4512   0.015   7.037   2.817  0.4025  0.5922 -0.0316
 1129SOL     ow 4513   2.284   7.076   4.596 -0.6954  0.1774 -0.6674
 1129SOL     hw 4514   2.314   7.097   4.684  0.2211  4.1925 -1.7517
 1129SOL     hw 4515   2.195   7.043   4.608 -0.2238 -0.3594  1.7812
 1129SOL     vw 4516   2.276   7.074   4.609 -0.5124  0.6363 -0.4878
 1130SOL     ow 4517   1.158   7.271   3.682  0.1823  0.4128  0.3953
 1130SOL     hw 4518   1.203   7.353   3.660  1.0984 -0.8749 -3.3311
 1130SOL     hw 4519   1.065   7.291   3.670  0.2328  1.3136  1.3330
 1130SOL     vw 4520   1.152   7.285   3.677  0.3098  0.3619  0.0274
 1131SOL     ow 4521   5.351   0.983   1.743 -0.0066  0.1116 -0.1915
 1131SOL     hw 4522   5.311   0.908   1.698  1.6799 -1.2351  0.4419
 1131SOL     hw 4523   5.444   0.978   1.718  0.7465  0.0675  2.3989
 1131SOL     vw 4524   5.358   0.973   1.734  0.3152 -0.0719  0.2338
 1132SOL     ow 4525   2.664   6.568   7.176  0.8501  0.5808 -0.4018
 1132SOL     hw 4526   2.732   6.629   7.204  0.7971  0.2902  0.3638
 1132SOL     hw 4527   2.711   6.501   7.126  0.7364  1.9694 -2.4772
 1132SOL     vw 4528   2.679   6.567   7.173  0.8280  0.7255 -0.5746
 1133SOL     ow 4529   2.582   6.760   2.741 -0.0406 -0.6172  0.3676
 1133SOL     hw 4530   2.575   6.684   2.799  2.1990 -1.0769  0.1389
 1133SOL     hw 4531   2.670   6.753   2.704 -0.4352  1.1446 -1.0240
 1133SOL     vw 4532   2.592   6.749   2.744  0.2028 -0.4454  0.1537
 1134SOL     ow 4533   3.844   2.919   6.215  0.1985  0.5789 -0.2105
 1134SOL     hw 4534   3.799   2.999   6.187  0.0759  1.2272  1.7092
 1134SOL     hw 4535   3.807   2.850   6.160 -0.9121  1.5760 -0.7566
 1134SOL     vw 4536   3.833   2.921   6.204  0.0356  0.7960 -0.0291
 1135SOL     ow 4537   5.376   3.500   6.632  0.3346 -0.0201  0.3330
 1135SOL     hw 4538   5.345   3.540   6.713  1.6812  2.7474 -0.4021
 1135SOL     hw 4539   5.323   3.541   6.563  1.6426  0.3959 -0.4532
 1135SOL     vw 4540   5.365   3.511   6.634  0.6850  0.3998  0.1323
 1136SOL     ow 4541   4.060   0.714   2.447  0.0743 -0.5555 -0.6525
 1136SOL     hw 4542   4.117   0.721   2.523  0.9897  1.6061 -1.4813
 1136SOL     hw 4543   4.090   0.635   2.402  0.2242 -1.2536  0.6262
 1136SOL     vw 4544   4.071   0.704   2.451  0.2148 -0.3624 -0.5932
 1137SOL     ow 4545   1.096   4.484   0.158 -0.2627 -0.8084  0.1609
 1137SOL     hw 4546   1.039   4.412   0.132 -0.0694 -0.5085 -1.1260
 1137SOL     hw 4547   1.184   4.457   0.132 -0.1325 -0.2693  0.0173
 1137SOL     vw 4548   1.100   4.471   0.151 -0.2200 -0.6979 -0.0278
 1138SOL     ow 4549   4.056   0.916   4.547 -0.2772 -0.2050 -0.4073
 1138SOL     hw 4550   4.078   0.823   4.555 -0.6839 -0.2866 -0.2225
 1138SOL     hw 4551   4.015   0.924   4.461  0.5314 -0.0389 -0.7837
 1138SOL     vw 4552   4.054   0.905   4.537 -0.2244 -0.1938 -0.4327
 1139SOL     ow 4553   5.058   5.389   4.316 -0.1310  0.2858  0.5637
 1139SOL     hw 4554   4.971   5.366   4.283  0.0484 -0.3393  0.5111
 1139SOL     hw 4555   5.044   5.411   4.408 -0.5116  1.2576  0.2825
 1139SOL     vw 4556   5.045   5.389   4.323 -0.1578  0.3314  0.5198
 1140SOL     ow 4557   6.291   0.940   6.891 -0.2816 -0.7202 -0.2830
 1140SOL     hw 4558   6.314   0.903   6.805  0.4124 -2.6294  0.6630
 1140SOL     hw 4559   6.254   0.866   6.939 -0.2116  0.1991  1.2334
 1140SOL     vw 4560   6.290   0.925   6.886 -0.1807 -0.8508  0.0420
 1141SOL     ow 4561   6.035   1.458   0.752  0.1158  0.1382  0.1409
 1141SOL     hw 4562   6.123   1.492   0.765  0.1001  0.5555 -0.7138
 1141SOL     hw 4563   6.009   1.423   0.837  0.5673  1.2621  0.7619
 1141SOL     vw 4564   6.043   1.458   0.765  0.1731  0.3415  0.1100
 1142SOL     ow 4565   4.862   0.433   7.073  0.7113 -0.4979 -0.8390
 1142SOL     hw 4566   4.766   0.441   7.076  0.4904 -2.5146 -0.4992
 1142SOL     hw 4567   4.882   0.418   6.981  0.8033  0.7738 -1.0324
 1142SOL     vw 4568   4.852   0.432   7.061  0.6945 -0.5962 -0.8197
 1143SOL     ow 4569   3.827   6.183   4.419  0.0695  0.8237 -0.0738
 1143SOL     hw 4570   3.790   6.111   4.368 -0.7736  1.9310 -1.0934
 1143SOL     hw 4571   3.752   6.240   4.437  1.3360  4.1536 -3.8535
 1143SOL     vw 4572   3.812   6.181   4.415  0.1253  1.4091 -0.7069
 1144SOL     ow 4573   0.665   6.560   4.023  0.0286  0.1700  0.0661
 1144SOL     hw 4574   0.675   6.481   3.970  1.5427  0.6846 -0.4875
 1144SOL     hw 4575   0.647   6.529   4.111  0.4571 -0.7859 -0.1763
 1144SOL     vw 4576   0.664   6.546   4.027  0.2849  0.1118 -0.0389
 1145SOL     ow 4577   0.358   0.246   2.516 -0.3072  0.1119  0.0037
 1145SOL     hw 4578   0.337   0.330   2.557 -0.0910  0.6378 -0.9350
 1145SOL     hw 4579   0.349   0.262   2.422 -0.0951 -0.8681 -0.1930
 1145SOL     vw 4580   0.354   0.260   2.509 -0.2507  0.0520 -0.1462
 1146SOL     ow 4581   4.822   4.804   4.078 -0.4487 -0.5764  0.1342
 1146SOL     hw 4582   4.791   4.728   4.030 -0.9447 -1.2258  1.4298
 1146SOL     hw 4583   4.778   4.878   4.036  0.7860 -0.8527 -1.7675
 1146SOL     vw 4584   4.812   4.804   4.066 -0.3510 -0.6983  0.0541
 1147SOL     ow 4585   0.134   1.425   2.485 -0.0486 -0.3235  0.2947
 1147SOL     hw 4586   0.113   1.334   2.464 -2.0068 -0.7017  3.3767
 1147SOL     hw 4587   0.053   1.462   2.519  0.8106  2.5043 -0.4656
 1147SOL     vw 4588   0.121   1.418   2.487 -0.1936 -0.0003  0.6012
 1148SOL     ow 4589   6.197   6.245   3.034 -0.6689 -0.3314  0.4833
 1148SOL     hw 4590   6.125   6.251   2.971 -1.3565 -0.9605  1.1955
 1148SOL     hw 4591   6.225   6.154   3.029 -0.8721 -0.4399  1.2366
 1148SOL     vw 4592   6.191   6.234   3.025 -0.7863 -0.4287  0.6768
 1149SOL     ow 4593   0.620   5.891   3.363 -0.0469  1.1010  0.6034
 1149SOL     hw 4594   0.551   5.933   3.414  0.4892  2.1723  0.4704
 1149SOL     hw 4595   0.701   5.929   3.397  0.5452 -0.6509  1.2459
 1149SOL     vw 4596   0.622   5.902   3.374  0.1020  1.0111  0.6704
 1150SOL     ow 4597   1.327   3.884   0.216  0.3019 -0.3645 -0.1170
 1150SOL     hw 4598   1.395   3.912   0.277 -0.3129  0.9877 -0.0137
 1150SOL     hw 4599   1.252   3.941   0.235  0.2688  0.4870 -2.4820
 1150SOL     vw 4600   1.326   3.895   0.227  0.2164 -0.0738 -0.4154
 1151SOL     ow 4601   5.300   6.117   3.557 -0.4532 -0.3294  0.0054
 1151SOL     hw 4602   5.288   6.088   3.648 -2.2940  0.2674 -0.0020
 1151SOL     hw 4603   5.211   6.127   3.524  0.1624 -1.8485 -2.3185
 1151SOL     vw 4604   5.287   6.114   3.565 -0.6146 -0.4511 -0.3021
 1152SOL     ow 4605   0.255   4.893   5.027  0.6329 -0.1761  0.0152
 1152SOL     hw 4606   0.210   4.810   5.037 -1.1989  0.6143 -1.0937
 1152SOL     hw 4607   0.304   4.884   4.945  2.1612 -0.8449  0.9500
 1152SOL     vw 4608   0.256   4.881   5.018  0.5928 -0.1600 -0.0079
 1153SOL     ow 4609   3.397   4.698   0.790 -0.0590 -0.6554 -0.0189
 1153SOL     hw 4610   3.426   4.687   0.880 -1.0586  0.2590  0.4312
 1153SOL     hw 4611   3.302   4.690   0.794 -0.3646  1.8551 -0.5596
 1153SOL     vw 4612   3.388   4.695   0.802 -0.2311 -0.2034 -0.0308
 1154SOL     ow 4613   6.131   5.491   5.204 -0.4261 -0.1070 -0.2890
 1154SOL     hw 4614   6.189   5.434   5.155  1.8854 -0.8678  2.9600
 1154SOL     hw 4615   6.055   5.436   5.225  0.7796 -1.3784  0.9542
 1154SOL     vw 4616   6.128   5.476   5.201  0.0379 -0.3753  0.3037
 1155SOL     ow 4617   1.077   4.933   0.333  0.6451 -0.1934  0.3544
 1155SOL     hw 4618   1.088   4.866   0.265  2.5621  1.4111 -1.0300
 1155SOL     hw 4619   1.009   4.991   0.298 -0.3673 -0.8682  1.1399
 1155SOL     vw 4620   1.069   4.932   0.319  0.7644 -0.0708  0.2754
 1156SOL     ow 4621   0.193   4.612   4.299  0.0784  0.6680 -0.6270
 1156SOL     hw 4622   0.108   4.655   4.304  0.4121  1.2468  1.1881
 1156SOL     hw 4623   0.176   4.528   4.257 -1.4437  0.6796 -0.0964
 1156SOL     vw 4624   0.180   4.606   4.294 -0.0784  0.7458 -0.3176
 1157SOL     ow 4625   5.095   1.495   5.783  0.2203  0.1524  0.2449
 1157SOL     hw 4626   5.171   1.443   5.810  1.1401  1.1209 -0.3516
 1157SOL     hw 4627   5.044   1.508   5.862  1.4940  0.7538  1.0046
 1157SOL     vw 4628   5.099   1.490   5.797  0.5097  0.3596  0.2663
 1158SOL     ow 4629   2.178   4.865   4.687  0.4959  0.0130  0.2796
 1158SOL     hw 4630   2.195   4.795   4.750  1.6690  0.8855  0.9728
 1158SOL     hw 4631   2.187   4.823   4.601  0.5574 -0.8217  0.6878
 1158SOL     vw 4632   2.182   4.850   4.684  0.6588  0.0179  0.4249
 1159SOL     ow 4633   4.509   2.451   4.247 -0.1111  0.5473 -1.2227
 1159SOL     hw 4634   4.437   2.468   4.309 -0.5249  2.7941 -2.2024
 1159SOL     hw 4635   4.484   2.500   4.169  2.0908  0.6765 -1.8959
 1159SOL     vw 4636   4.496   2.460   4.245  0.1249  0.8608 -1.4408
 1160SOL     ow 4637   3.645   7.098   3.307  0.5927  0.1584 -0.0244
 1160SOL     hw 4638   3.656   7.003   3.316  0.2369  0.1190  0.0231
 1160SOL     hw 4639   3.720   7.126   3.254  0.4993 -0.2062 -0.3560
 1160SOL     vw 4640   3.656   7.089   3.301  0.5335  0.1051 -0.0619
 1161SOL     ow 4641   6.889   0.098   4.806  0.2243 -0.0673  0.3164
 1161SOL     hw 4642   6.970   0.051   4.788  1.3940  1.5802  1.0411
 1161SOL     hw 4643   6.832   0.078   4.732  1.8775 -0.0249 -1.0138
 1161SOL     vw 4644   6.892   0.090   4.794  0.5970  0.1557  0.2365
 1162SOL     ow 4645   6.551   4.763   6.552  0.8149 -0.3901  1.0922
 1162SOL     hw 4646   6.636   4.730   6.580  1.2028  1.7579  2.6747
 1162SOL     hw 4647   6.539   4.726   6.464  4.7066  1.4828 -0.4704
 1162SOL     vw 4648   6.561   4.754   6.544  1.3797  0.1404  1.0951
 1163SOL     ow 4649   0.834   4.414   3.086  0.6095  0.1806  0.0572
 1163SOL     hw 4650   0.893   4.470   3.135  0.6676  0.4395 -0.3019
 1163SOL     hw 4651   0.782   4.369   3.152 -0.2040  1.4791  0.3287
 1163SOL     vw 4652   0.835   4.415   3.101  0.5098  0.3858  0.0458
 1164SOL     ow 4653   1.435   1.522   6.782 -0.0002 -0.4604  0.1510
 1164SOL     hw 4654   1.360   1.574   6.753  0.5539  0.9071  1.0625
 1164SOL     hw 4655   1.462   1.562   6.864  0.9555 -1.7196  0.4846
 1164SOL     vw 4656   1.429   1.535   6.789  0.1991 -0.4462  0.3157
 1165SOL     ow 4657   7.148   3.816   2.048 -0.8475  1.4023  0.0994
 1165SOL     hw 4658   7.124   3.811   2.141 -1.2056 -3.4758  0.0033
 1165SOL     hw 4659   7.234   3.775   2.043 -0.5157  2.2456 -1.6770
 1165SOL     vw 4660   7.156   3.810   2.060 -0.8514  0.8700 -0.1476
 1166SOL     ow 4661   0.835   0.128   6.069 -0.3991  0.6128  0.1171
 1166SOL     hw 4662   0.884   0.061   6.118 -2.5178 -1.3906 -0.3286
 1166SOL     hw 4663   0.886   0.140   5.989 -0.1045 -0.7206  0.0748
 1166SOL     vw 4664   0.849   0.120   6.065 -0.6397  0.1726  0.0529
 1167SOL     ow 4665   1.086   1.381   0.433 -0.0333  0.0731  0.0466
 1167SOL     hw 4666   1.015   1.319   0.419 -0.8368  1.0143 -0.1454
 1167SOL     hw 4667   1.044   1.458   0.471  1.0777  0.1857  1.1004
 1167SOL     vw 4668   1.071   1.383   0.436  0.0073  0.2121  0.1603
 1168SOL     ow 4669   4.825   7.237   5.193 -0.7674 -0.8017 -0.1206
 1168SOL     hw 4670   4.806   7.189   5.112 -1.3613  0.0921 -0.5309
 1168SOL     hw 4671   4.751   7.297   5.202 -1.7806 -2.2347  2.1599
 1168SOL     vw 4672   4.812   7.238   5.184 -0.9794 -0.8731  0.1261
 1169SOL     ow 4673   6.292   7.075   2.439 -0.1606  0.4660 -0.6652
 1169SOL     hw 4674   6.214   7.083   2.384  0.0667 -0.7096 -1.1885
 1169SOL     hw 4675   6.358   7.130   2.397 -0.0876 -0.1682 -1.4112
 1169SOL     vw 4676   6.290   7.083   2.426 -0.1214  0.2272 -0.8327
 1170SOL     ow 4677   4.739   5.246   1.768 -0.5773 -0.4127  0.2247
 1170SOL     hw 4678   4.829   5.246   1.736 -0.6443 -1.5876 -0.0041
 1170SOL     hw 4679   4.689   5.285   1.696 -0.1514  1.0584  0.7046
 1170SOL     vw 4680   4.744   5.251   1.754 -0.5300 -0.3736  0.2578
 1171SOL     ow 4681   5.161   6.349   5.502  0.2861 -0.0173  0.1627
 1171SOL     hw 4682   5.144   6.441   5.522  3.8907  0.7606  0.3112
 1171SOL     hw 4683   5.134   6.302   5.581  2.2685  1.4725  1.8321
 1171SOL     vw 4684   5.155   6.355   5.515  1.0233  0.2820  0.4025
 1172SOL     ow 4685   5.861   1.159   1.395  0.7110 -0.3231 -0.5210
 1172SOL     hw 4686   5.856   1.128   1.486 -0.3480  0.0132 -0.4594
 1172SOL     hw 4687   5.954   1.179   1.382  1.2048 -2.1144 -0.1004
 1172SOL     vw 4688   5.873   1.158   1.406  0.6363 -0.5150 -0.4573
 1173SOL     ow 4689   4.318   3.421   6.539  0.0174 -0.1562  0.4955
 1173SOL     hw 4690   4.406   3.387   6.520 -0.9211 -2.2671 -0.3313
 1173SOL     hw 4691   4.310   3.415   6.634  0.3767 -0.9987  0.4827
 1173SOL     vw 4692   4.329   3.416   6.549 -0.0589 -0.5459  0.3848
 1174SOL     ow 4693   2.373   4.852   3.963  0.8183 -0.5542  0.3701
 1174SOL     hw 4694   2.387   4.876   4.055 -1.1160  3.4962 -0.1997
 1174SOL     hw 4695   2.449   4.886   3.917  0.1556  0.6239  0.1042
 1174SOL     vw 4696   2.385   4.860   3.969  0.4758  0.1354  0.2598
 1175SOL     ow 4697   6.019   0.703   1.796  0.1688 -0.2815 -0.5578
 1175SOL     hw 4698   5.931   0.683   1.765 -1.0483  3.8691 -0.3241
 1175SOL     hw 4699   6.066   0.732   1.717  1.0851 -1.5930 -0.5247
 1175SOL     vw 4700   6.014   0.704   1.781  0.1292  0.0931 -0.5227
 1176SOL     ow 4701   5.663   6.177   5.218 -0.0976 -0.5997 -0.1320
 1176SOL     hw 4702   5.581   6.128   5.227 -1.3187  1.2744 -0.4650
 1176SOL     hw 4703   5.709   6.164   5.301 -1.5603 -0.2563  0.7541
 1176SOL     vw 4704   5.658   6.169   5.230 -0.4516 -0.3071 -0.0591
 1177SOL     ow 4705   0.074   6.479   1.798  0.1170  0.3501  0.7923
 1177SOL     hw 4706   0.084   6.502   1.706  1.6836 -1.5016  0.4222
 1177SOL     hw 4707  -0.016   6.502   1.819  0.1795  2.3008 -0.7191
 1177SOL     vw 4708   0.064   6.485   1.789  0.3319  0.3631  0.5440
 1178SOL     ow 4709   3.604   0.920   4.963 -0.0416  0.3006  0.1798
 1178SOL     hw 4710   3.529   0.968   4.929 -1.4852 -0.6689  1.8373
 1178SOL     hw 4711   3.590   0.830   4.934  0.2007  0.0178  0.9272
 1178SOL     vw 4712   3.592   0.915   4.955 -0.2002  0.1354  0.4971
 1179SOL     ow 4713   4.010   5.429   0.504  0.2683  0.2949  0.9707
 1179SOL     hw 4714   3.954   5.434   0.427  0.7723 -0.8118  0.5027
 1179SOL     hw 4715   3.965   5.480   0.571  0.2264  1.9903 -0.2892
 1179SOL     vw 4716   3.997   5.436   0.503  0.3290  0.3726  0.7427
 1180SOL     ow 4717   7.246   3.268   2.384 -0.3475  0.0218  0.3120
 1180SOL     hw 4718   7.247   3.362   2.364  1.9451  0.3011  1.4567
 1180SOL     hw 4719   7.202   3.262   2.468 -0.3248  0.0905  0.3289
 1180SOL     vw 4720   7.240   3.280   2.392 -0.0422  0.0678  0.4653
 1181SOL     ow 4721   5.194   5.283   4.847 -0.1545  0.2007 -0.1098
 1181SOL     hw 4722   5.244   5.258   4.924  0.9495  1.7140 -0.2905
 1181SOL     hw 4723   5.242   5.246   4.774 -2.4897 -3.3719 -0.0991
 1181SOL     vw 4724   5.207   5.275   4.848 -0.3171 -0.0713 -0.1323
 1182SOL     ow 4725   2.005   5.727   5.754 -0.1469  0.0663 -0.0722
 1182SOL     hw 4726   1.932   5.764   5.804 -0.6435  0.9733 -1.4030
 1182SOL     hw 4727   1.967   5.652   5.708  0.1018 -0.2621  0.2477
 1182SOL     vw 4728   1.990   5.722   5.755 -0.1796  0.1426 -0.2055
 1183SOL     ow 4729   0.124   3.660   3.866 -0.2666  0.2420  0.4485
 1183SOL     hw 4730   0.196   3.674   3.805  0.0129  1.1052  0.9632
 1183SOL     hw 4731   0.149   3.583   3.917 -1.7997 -2.3733 -2.3963
 1183SOL     vw 4732   0.137   3.651   3.864 -0.4320  0.0108  0.1410
 1184SOL     ow 4733   4.528   5.089   2.819  0.5717 -0.0146  0.1398
 1184SOL     hw 4734   4.585   5.166   2.819 -0.4574  0.8341 -1.6493
 1184SOL     hw 4735   4.550   5.044   2.737  1.0018 -1.5348  1.0617
 1184SOL     vw 4736   4.538   5.093   2.808  0.4928 -0.1035  0.0254
 1185SOL     ow 4737   1.793   1.024   1.952  1.0211  0.0727  0.2605
 1185SOL     hw 4738   1.854   0.962   1.912  1.1649  0.2685  0.1729
 1185SOL     hw 4739   1.801   1.008   2.046 -0.5398 -1.5450  0.1686
 1185SOL     vw 4740   1.802   1.014   1.959  0.8340 -0.1149  0.2368
 1186SOL     ow 4741   3.756   6.041   5.760 -0.2925 -0.6049  0.2975
 1186SOL     hw 4742   3.756   6.133   5.733 -0.6133 -0.6673  0.0671
 1186SOL     hw 4743   3.843   6.025   5.794 -0.4662 -0.0176  1.0185
 1186SOL     vw 4744   3.767   6.051   5.761 -0.3577 -0.5355  0.3624
 1187SOL     ow 4745   0.984   3.780   6.815 -0.1505 -0.4603 -0.0730
 1187SOL     hw 4746   0.983   3.693   6.775 -2.0095 -1.1111  1.2280
 1187SOL     hw 4747   0.898   3.817   6.794 -0.2174  0.1638  1.1811
 1187SOL     vw 4748   0.972   3.773   6.807 -0.4046 -0.4637  0.2642
 1188SOL     ow 4749   6.551   6.849   2.953  0.0230  0.3763 -0.3025
 1188SOL     hw 4750   6.554   6.941   2.926  1.3533  0.7192  0.8604
 1188SOL     hw 4751   6.514   6.851   3.041 -0.0129 -0.2106 -0.3001
 1188SOL     vw 4752   6.547   6.862   2.961  0.1936  0.3443 -0.1487
 1189SOL     ow 4753   5.300   7.159   5.139  0.0012  0.3213 -0.4427
 1189SOL     hw 4754   5.302   7.066   5.114 -0.9528  0.2637 -0.3411
 1189SOL     hw 4755   5.288   7.205   5.056 -2.2039  0.1825 -0.2646
 1189SOL     vw 4756   5.299   7.153   5.125 -0.4156  0.2954 -0.4060
 1190SOL     ow 4757   5.376   6.712   0.232  0.1250 -0.1319  0.6606
 1190SOL     hw 4758   5.436   6.725   0.305  0.5781  0.5929  0.1680
 1190SOL     hw 4759   5.341   6.624   0.245  0.5475 -0.1850  1.4934
 1190SOL     vw 4760   5.379   6.703   0.243  0.2406 -0.0432  0.7055
 1191SOL     ow 4761   5.062   1.087   5.797 -0.5907  0.9317  0.2209
 1191SOL     hw 4762   5.059   1.003   5.751 -0.5271  2.2530 -2.4055
 1191SOL     hw 4763   5.150   1.120   5.778 -0.8159  1.8346  0.7370
 1191SOL     vw 4764   5.073   1.080   5.788 -0.6120  1.2252 -0.0575
 1192SOL     ow 4765   3.847   2.181   2.351  0.7081 -0.4730 -0.2042
 1192SOL     hw 4766   3.917   2.168   2.414  1.1935 -0.1660 -0.6751
 1192SOL     hw 4767   3.770   2.203   2.404  0.4188 -2.8440  0.4788
 1192SOL     vw 4768   3.846   2.182   2.366  0.7340 -0.7454 -0.1763
 1193SOL     ow 4769   6.958   0.783   4.323  0.4139  0.2668 -0.0234
 1193SOL     hw 4770   6.884   0.803   4.381  0.9887  0.3749  0.6843
 1193SOL     hw 4771   7.028   0.841   4.352  1.1320 -0.6196  0.0572
 1193SOL     vw 4772   6.957   0.793   4.335  0.5846  0.1641  0.0808
 1194SOL     ow 4773   2.157   2.789   3.312  0.4292 -0.2095 -0.2745
 1194SOL     hw 4774   2.063   2.773   3.317  0.2501  0.8950  0.4199
 1194SOL     hw 4775   2.178   2.784   3.219 -0.3328 -0.4179 -0.4409
 1194SOL     vw 4776   2.148   2.787   3.301  0.3051 -0.0913 -0.2049
 1195SOL     ow 4777   1.331   6.247   6.915 -0.0473  0.1859 -0.0574
 1195SOL     hw 4778   1.380   6.166   6.910 -2.1455 -1.1325 -0.4211
 1195SOL     hw 4779   1.368   6.293   6.991  1.5304 -0.8368 -0.1688
 1195SOL     vw 4780   1.342   6.243   6.925 -0.1159 -0.1230 -0.1199
 1196SOL     ow 4781   2.510   3.723   2.118  0.2752  0.2345 -0.1927
 1196SOL     hw 4782   2.531   3.665   2.191  1.0298 -2.3421 -2.2973
 1196SOL     hw 4783   2.439   3.678   2.072 -0.9587  2.3468 -0.4891
 1196SOL     vw 4784   2.503   3.709   2.121  0.2120  0.1731 -0.5096
 1197SOL     ow 4785   5.843   6.472   2.323 -0.0264 -0.3183  0.3210
 1197SOL     hw 4786   5.937   6.464   2.304 -0.1248 -1.7228  0.3058
 1197SOL     hw 4787   5.838   6.473   2.418  0.1654  2.5172  0.3751
 1197SOL     vw 4788   5.855   6.471   2.333 -0.0141 -0.1292  0.3260
 1198SOL     ow 4789   2.983   0.509   4.290 -0.2577 -0.1332 -0.0647
 1198SOL     hw 4790   2.933   0.516   4.371  0.0444  0.0740  0.1096
 1198SOL     hw 4791   2.948   0.432   4.245 -0.1036 -0.5308  0.4888
 1198SOL     vw 4792   2.972   0.500   4.295 -0.1975 -0.1583  0.0312
 1199SOL     ow 4793   6.811   2.747   4.569 -0.4204  0.4581 -0.4011
 1199SOL     hw 4794   6.860   2.818   4.610 -0.0009  0.5467 -1.0331
 1199SOL     hw 4795   6.732   2.790   4.534  0.2649  0.8023 -1.5771
 1199SOL     vw 4796   6.807   2.762   4.569 -0.2747  0.5151 -0.6397
 1200SOL     ow 4797   2.969   7.108   6.337 -0.1775 -0.4598  0.1448
 1200SOL     hw 4798   3.018   7.168   6.392  1.5826 -1.8939  0.2189
 1200SOL     hw 4799   3.031   7.080   6.270 -1.0064 -1.9970 -0.0324
 1200SOL     vw 4800   2.984   7.112   6.335 -0.0546 -0.8516  0.1311
 1201SOL     ow 4801   0.288   5.175   6.486  0.5185 -0.2178  0.3238
 1201SOL     hw 4802   0.325   5.093   6.455 -0.7342 -1.6568  2.4488
 1201SOL     hw 4803   0.196   5.173   6.458  0.4033  0.3373  0.6306
 1201SOL     vw 4804   0.281   5.164   6.478  0.3380 -0.3343  0.6449
 1202SOL     ow 4805   5.446   3.233   3.478 -0.4291  0.7200 -0.1798
 1202SOL     hw 4806   5.380   3.174   3.440 -1.8764  2.5722 -0.7312
 1202SOL     hw 4807   5.526   3.181   3.481 -0.9940 -0.5160 -2.9753
 1202SOL     vw 4808   5.448   3.218   3.473 -0.6948  0.8013 -0.6214
 1203SOL     ow 4809   5.261   5.248   4.088 -0.1897  0.2518 -0.7798
 1203SOL     hw 4810   5.209   5.223   4.012  0.5414 -3.5030 -0.2298
 1203SOL     hw 4811   5.342   5.197   4.080 -0.1349 -0.4029  2.5072
 1203SOL     vw 4812   5.265   5.238   4.077 -0.0863 -0.3300 -0.2735
 1204SOL     ow 4813   3.316   6.093   4.108  0.0507 -0.2268 -0.2744
 1204SOL     hw 4814   3.324   6.001   4.136 -0.6031 -0.1603  0.1492
 1204SOL     hw 4815   3.360   6.096   4.023 -0.5707 -1.0947 -0.6391
 1204SOL     vw 4816   3.323   6.081   4.101 -0.1175 -0.3326 -0.2663
 1205SOL     ow 4817   2.223   4.744   1.250 -0.4607  0.5038 -0.1474
 1205SOL     hw 4818   2.194   4.669   1.198  0.1056  0.7735 -0.8837
 1205SOL     hw 4819   2.318   4.736   1.252 -0.5537 -1.1050  3.3474
 1205SOL     vw 4820   2.232   4.733   1.243 -0.3983  0.3273  0.2165
 1206SOL     ow 4821   1.600   6.656   1.091 -0.1315 -0.7384  0.0196
 1206SOL     hw 4822   1.652   6.616   1.161 -0.2752 -1.0555 -0.0591
 1206SOL     hw 4823   1.510   6.655   1.123 -0.3480 -1.8221 -0.6024
 1206SOL     vw 4824   1.595   6.651   1.105 -0.1790 -0.9232 -0.0729
 1207SOL     ow 4825   1.679   5.047   5.025 -0.2233 -0.4779 -0.0025
 1207SOL     hw 4826   1.675   5.132   5.068  0.6313 -0.3540 -0.1442
 1207SOL     hw 4827   1.686   4.984   5.097 -2.3763 -0.5670  0.1672
 1207SOL     vw 4828   1.680   5.050   5.041 -0.3946 -0.4735  0.0012
 1208SOL     ow 4829   1.629   3.350   3.965 -0.2835 -0.6408 -0.6103
 1208SOL     hw 4830   1.701   3.370   4.025 -0.9130 -2.5740  0.8913
 1208SOL     hw 4831   1.619   3.255   3.970 -3.1240 -0.4146 -0.5247
 1208SOL     vw 4832   1.637   3.340   3.973 -0.7414 -0.8661 -0.4009
 1209SOL     ow 4833   6.848   4.649   2.136  0.1563 -0.3319  0.2833
 1209SOL     hw 4834   6.877   4.566   2.100 -0.8041 -1.2263  1.4825
 1209SOL     hw 4835   6.920   4.710   2.119  1.3838 -1.7006  0.4206
 1209SOL     vw 4836   6.861   4.646   2.129  0.1917 -0.6306  0.4596
 1210SOL     ow 4837   5.724   2.023   6.796 -0.5905 -0.5420  0.3460
 1210SOL     hw 4838   5.732   1.931   6.770  0.0168  0.2159 -2.5000
 1210SOL     hw 4839   5.747   2.072   6.717  1.0647  2.1061  2.2994
 1210SOL     vw 4840   5.728   2.017   6.782 -0.2918 -0.0926  0.2282
 1211SOL     ow 4841   2.935   1.915   2.126  0.0658 -0.6653  0.2592
 1211SOL     hw 4842   2.929   1.909   2.221  1.3233  0.7108  0.4667
 1211SOL     hw 4843   3.022   1.881   2.105  1.1641  2.0581 -0.0009
 1211SOL     vw 4844   2.946   1.910   2.135  0.3767 -0.1245  0.2522
 1212SOL     ow 4845   6.820   0.359   1.106 -0.1813 -0.0683  0.2618
 1212SOL     hw 4846   6.881   0.402   1.046 -1.1852  1.0509  0.0063
 1212SOL     hw 4847   6.851   0.269   1.111  1.8469  0.5906  0.6091
 1212SOL     vw 4848   6.832   0.353   1.099 -0.0460  0.1663  0.2740
 1213SOL     ow 4849   2.326   2.516   6.625  0.3401 -0.1251  0.5695
 1213SOL     hw 4850   2.231   2.518   6.637  0.5096 -0.8763  2.3659
 1213SOL     hw 4851   2.360   2.588   6.679  0.8123  0.0271  0.0855
 1213SOL     vw 4852   2.318   2.526   6.634  0.4247 -0.2042  0.7427
 1214SOL     ow 4853   5.113   1.000   1.561  0.5247  0.0292  0.1205
 1214SOL     hw 4854   5.134   0.915   1.599  2.4386 -0.3361 -1.5612
 1214SOL     hw 4855   5.096   0.982   1.469 -2.5481  1.0708  0.3542
 1214SOL     vw 4856   5.114   0.987   1.554  0.3717  0.1184 -0.0705
 1215SOL     ow 4857   3.051   2.480   3.916  0.6985 -0.3399 -0.4166
 1215SOL     hw 4858   3.120   2.490   3.982 -0.9345 -2.0068  1.7101
 1215SOL     hw 4859   3.021   2.569   3.899  3.0498  0.3974 -1.1403
 1215SOL     vw 4860   3.056   2.493   3.922  0.7932 -0.4625 -0.2314
 1216SOL     ow 4861   3.931   3.309   1.779 -0.8378  0.4059  0.0282
 1216SOL     hw 4862   3.975   3.381   1.734 -0.5935  0.1535 -0.1385
 1216SOL     hw 4863   3.887   3.259   1.710  1.9384 -1.6997 -0.3819
 1216SOL     vw 4864   3.931   3.312   1.764 -0.4392  0.0949 -0.0479
 1217SOL     ow 4865   3.992   7.213   1.647 -0.0536  0.8755 -0.3699
 1217SOL     hw 4866   3.939   7.293   1.639  0.0641  1.1497  1.1965
 1217SOL     hw 4867   4.056   7.220   1.576  0.4418  2.5835  0.1830
 1217SOL     vw 4868   3.994   7.225   1.637  0.0274  1.1370 -0.0903
 1218SOL     ow 4869   3.185   6.068   1.600  0.0543  0.0690 -0.7410
 1218SOL     hw 4870   3.113   6.070   1.664  0.5779 -0.5505 -0.1172
 1218SOL     hw 4871   3.191   6.158   1.568 -0.2572  0.3783  0.0360
 1218SOL     vw 4872   3.176   6.080   1.605  0.0824  0.0279 -0.5563
 1219SOL     ow 4873   2.229   3.040   3.381 -0.5436 -0.0597  0.6294
 1219SOL     hw 4874   2.191   2.954   3.364 -1.8626  0.1893  2.0683
 1219SOL     hw 4875   2.153   3.098   3.391  0.3161  1.2680 -0.2393
 1219SOL     vw 4876   2.214   3.037   3.380 -0.6042  0.1484  0.7045
 1220SOL     ow 4877   6.177   2.141   5.338  0.0597 -0.2021  0.2309
 1220SOL     hw 4878   6.222   2.201   5.279 -0.1824 -0.5236 -0.2914
 1220SOL     hw 4879   6.243   2.074   5.360  0.6086  0.7191  1.5372
 1220SOL     vw 4880   6.192   2.140   5.333  0.0999 -0.1231  0.3345
 1221SOL     ow 4881   3.544   6.084   6.172 -0.1446  0.2350 -0.3380
 1221SOL     hw 4882   3.531   5.991   6.154  1.6444 -0.1729  0.3094
 1221SOL     hw 4883   3.636   6.092   6.195 -0.0796  2.2946 -1.0529
 1221SOL     vw 4884   3.554   6.073   6.172  0.1000  0.4530 -0.3469
 1222SOL     ow 4885   6.043   6.625   1.507  1.0293 -0.0797  0.0553
 1222SOL     hw 4886   6.090   6.606   1.588  1.5223  3.3831  0.7095
 1222SOL     hw 4887   5.951   6.631   1.533  1.4051  3.4494  1.0349
 1222SOL     vw 4888   6.037   6.623   1.521  1.1442  0.8430  0.2708
 1223SOL     ow 4889   0.710   0.056   4.113 -0.0496 -0.3657 -0.1205
 1223SOL     hw 4890   0.657  -0.022   4.131  0.2221 -0.6733 -0.6332
 1223SOL     hw 4891   0.674   0.090   4.030  1.4644 -1.3962 -1.2537
 1223SOL     vw 4892   0.698   0.050   4.104  0.1860 -0.5423 -0.3376
 1224SOL     ow 4893   5.554   3.326   6.433 -0.1382 -0.1281 -0.3614
 1224SOL     hw 4894   5.633   3.353   6.479 -0.1295  0.2665 -0.5941
 1224SOL     hw 4895   5.582   3.320   6.341 -0.3354 -0.1490 -0.4191
 1224SOL     vw 4896   5.568   3.329   6.427 -0.1631 -0.0787 -0.3996
 1225SOL     ow 4897   0.299   7.139   1.870  0.6207  0.3803 -0.3621
 1225SOL     hw 4898   0.364   7.139   1.940 -0.9596 -0.7635  1.1798
 1225SOL     hw 4899   0.272   7.230   1.862 -0.8299  0.2884  2.2217
 1225SOL     vw 4900   0.304   7.151   1.878  0.2208  0.2172  0.1822
 1226SOL     ow 4901   4.582   4.069   1.257 -1.1877 -0.0990 -0.7701
 1226SOL     hw 4902   4.580   4.141   1.194  0.8858 -0.5826 -1.4568
 1226SOL     hw 4903   4.652   4.092   1.317 -1.0752 -1.1403 -0.4880
 1226SOL     vw 4904   4.591   4.082   1.257 -0.8991 -0.3002 -0.8234
 1227SOL     ow 4905   5.867   1.025   1.629  0.3089  0.2499 -0.1660
 1227SOL     hw 4906   5.940   0.975   1.592  0.3584 -0.3069  0.6749
 1227SOL     hw 4907   5.902   1.063   1.710 -0.6964 -1.1012  0.9377
 1227SOL     vw 4908   5.881   1.023   1.634  0.1829 -0.0018  0.0907
 1228SOL     ow 4909   2.850   6.761   0.663 -0.3134 -0.2098  0.5375
 1228SOL     hw 4910   2.880   6.824   0.598  0.8803 -0.8655  0.4354
 1228SOL     hw 4911   2.754   6.764   0.657 -0.3127 -2.1098 -3.1047
 1228SOL     vw 4912   2.841   6.770   0.654 -0.1557 -0.5467  0.0435
 1229SOL     ow 4913   3.535   1.809   6.033  0.0689  0.2728  0.3023
 1229SOL     hw 4914   3.596   1.735   6.039  0.9661  0.4852 -3.6713
 1229SOL     hw 4915   3.565   1.870   6.100  1.2308 -1.6380  1.6238
 1229SOL     vw 4916   3.547   1.807   6.043  0.3405  0.0488 -0.0477
 1230SOL     ow 4917   5.312   1.960   5.078  0.0140  0.8617  0.1894
 1230SOL     hw 4918   5.349   2.042   5.111 -0.9001  0.8400  1.3034
 1230SOL     hw 4919   5.261   1.986   5.001  0.0216  1.2866  0.3240
 1230SOL     vw 4920   5.310   1.974   5.072 -0.1056  0.9148  0.3541
 1231SOL     ow 4921   3.238   2.562   1.507 -0.1384  0.1639 -0.0850
 1231SOL     hw 4922   3.255   2.657   1.505 -1.6452  0.4318 -1.1107
 1231SOL     hw 4923   3.240   2.540   1.601  0.4251  1.1658  0.1538
 1231SOL     vw 4924   3.241   2.572   1.519 -0.2630  0.3315 -0.1889
 1232SOL     ow 4925   3.765   2.079   2.781 -0.1250 -0.3709 -0.1380
 1232SOL     hw 4926   3.841   2.080   2.838  1.0603 -0.1458 -1.6684
 1232SOL     hw 4927   3.697   2.123   2.832  1.7445  2.6092  0.0141
 1232SOL     vw 4928   3.766   2.085   2.796  0.2781  0.0520 -0.3198
 1233SOL     ow 4929   0.789   2.587   0.487  0.2599  0.4171 -0.6813
 1233SOL     hw 4930   0.713   2.641   0.465 -0.2255  1.5233  2.9992
 1233SOL     hw 4931   0.752   2.510   0.531  1.1548  0.5757  0.4079
 1233SOL     vw 4932   0.774   2.584   0.490  0.3139  0.5839 -0.0520
 1234SOL     ow 4933   0.573   6.073   3.124 -0.2639 -0.3393 -0.5481
 1234SOL     hw 4934   0.487   6.100   3.157 -0.6082  1.0239 -2.4303
 1234SOL     hw 4935   0.618   6.154   3.103  0.2233 -1.0746 -2.6225
 1234SOL     vw 4936   0.567   6.087   3.126 -0.2450 -0.2565 -1.0701
 1235SOL     ow 4937   7.154   5.811   1.182 -0.8595  0.2637 -0.0819
 1235SOL     hw 4938   7.217   5.748   1.147 -1.9963  0.0411 -1.8964
 1235SOL     hw 4939   7.165   5.889   1.128 -0.9287  0.8739  0.7566
 1235SOL     vw 4940   7.164   5.813   1.170 -1.0185  0.3150 -0.2106
 1236SOL     ow 4941   7.015   4.163   3.561  0.0322 -0.4736 -0.3101
 1236SOL     hw 4942   7.082   4.122   3.507  1.4151  0.4266  0.6509
 1236SOL     hw 4943   7.058   4.240   3.598 -2.1758  1.4029 -1.3614
 1236SOL     vw 4944   7.029   4.168   3.559 -0.0765 -0.1070 -0.3221
 1237SOL     ow 4945   5.038   2.329   0.052  0.5640  0.1951  0.4839
 1237SOL     hw 4946   5.068   2.254   0.000  0.5229  0.1064  0.5876
 1237SOL     hw 4947   5.037   2.402  -0.010  0.8516  0.1660  0.4447
 1237SOL     vw 4948   5.041   2.328   0.037  0.5963  0.1795  0.4926
 1238SOL     ow 4949   3.689   2.625   6.788  0.5244 -0.0498 -0.1191
 1238SOL     hw 4950   3.782   2.637   6.768  1.0456 -0.4143  1.9088
 1238SOL     hw 4951   3.673   2.680   6.864 -0.8204 -0.3374 -0.1682
 1238SOL     vw 4952   3.699   2.634   6.795  0.4159 -0.1358  0.1419
 1239SOL     ow 4953   2.481   1.386   2.172 -0.4525 -0.1561  0.6867
 1239SOL     hw 4954   2.446   1.298   2.164  1.2571 -0.7787 -0.6391
 1239SOL     hw 4955   2.545   1.393   2.101 -1.6578  2.7218 -0.2860
 1239SOL     vw 4956   2.485   1.375   2.162 -0.3859  0.1415  0.3835
 1240SOL     ow 4957   5.438   2.898   1.518  0.1429 -0.3201 -0.4037
 1240SOL     hw 4958   5.519   2.850   1.498 -1.2088 -3.0147  0.1249
 1240SOL     hw 4959   5.458   2.946   1.599  1.2158 -0.8928 -0.3083
 1240SOL     vw 4960   5.451   2.898   1.526  0.1061 -0.7511 -0.3214
 1241SOL     ow 4961   3.785   0.796   5.177 -0.3944  0.1053  0.1893
 1241SOL     hw 4962   3.702   0.750   5.168 -0.3613  0.3268 -1.7773
 1241SOL     hw 4963   3.848   0.729   5.204 -1.1448 -0.0998  1.4995
 1241SOL     vw 4964   3.783   0.781   5.179 -0.4891  0.1075  0.1028
 1242SOL     ow 4965   4.825   7.233   0.219 -0.3530 -0.0238  0.0477
 1242SOL     hw 4966   4.758   7.249   0.285  0.2734 -0.3754  0.7781
 1242SOL     hw 4967   4.790   7.159   0.168 -0.9601  0.4266 -0.1968
 1242SOL     vw 4968   4.811   7.225   0.221 -0.3502 -0.0110  0.1118
 1243SOL     ow 4969   4.293   1.250   1.968  0.1507  0.0368 -0.2487
 1243SOL     hw 4970   4.212   1.241   1.917  0.3955  0.6175 -0.7504
 1243SOL     hw 4971   4.340   1.167   1.952  0.4620  0.4127 -1.4117
 1243SOL     vw 4972   4.289   1.238   1.959  0.2239  0.1631 -0.4684
 1244SOL     ow 4973   5.480   4.825   3.753  0.5386  0.1011 -0.3284
 1244SOL     hw 4974   5.423   4.761   3.797 -1.2345 -0.4009 -3.0598
 1244SOL     hw 4975   5.456   4.909   3.792  0.5861 -0.5122  1.0900
 1244SOL     vw 4976   5.469   4.827   3.764  0.3109 -0.0463 -0.5016
 1245SOL     ow 4977   2.122   5.053   1.208  0.1762 -0.5726  0.4019
 1245SOL     hw 4978   2.069   5.070   1.130  0.0780 -1.1096  0.3429
 1245SOL     hw 4979   2.212   5.049   1.175  0.2271  0.0385  0.4543
 1245SOL     vw 4980   2.127   5.055   1.194  0.1700 -0.5629  0.4011
 1246SOL     ow 4981   6.606   6.953   5.885 -0.0615 -0.4149 -0.3088
 1246SOL     hw 4982   6.553   7.021   5.844 -1.1935 -2.1431 -1.8605
 1246SOL     hw 4983   6.683   6.945   5.828  0.5117  0.1341  0.3651
 1246SOL     vw 4984   6.609   6.961   5.872 -0.1352 -0.5703 -0.4249
 1247SOL     ow 4985   7.293   4.388   0.893  0.7378  0.1368 -0.0516
 1247SOL     hw 4986   7.306   4.324   0.963 -1.1732 -1.2212 -0.8581
 1247SOL     hw 4987   7.381   4.421   0.875  1.6904 -1.6799  0.9411
 1247SOL     vw 4988   7.307   4.384   0.900  0.6113 -0.2820 -0.0270
 1248SOL     ow 4989   0.828   4.330   4.465  0.2781 -0.0885  0.2252
 1248SOL     hw 4990   0.810   4.342   4.558  0.6356  0.9526  0.1737
 1248SOL     hw 4991   0.787   4.246   4.443 -2.0306  0.8214  0.7510
 1248SOL     vw 4992   0.820   4.321   4.474  0.0206  0.1690  0.2878
 1249SOL     ow 4993   3.912   0.970   0.226  0.2401 -0.2649  0.0942
 1249SOL     hw 4994   3.839   1.023   0.196  1.5150  0.1351 -2.5227
 1249SOL     hw 4995   3.883   0.880   0.214  0.2828 -0.1057 -1.2688
 1249SOL     vw 4996   3.899   0.965   0.221  0.4139 -0.1911 -0.4309
 1250SOL     ow 4997   2.491   5.200   1.978  0.2424 -0.0228 -0.0946
 1250SOL     hw 4998   2.514   5.107   1.977 -1.4838 -0.5507  1.8602
 1250SOL     hw 4999   2.423   5.208   1.911  0.8555 -0.0007 -0.7287
 1250SOL     vw 5000   2.485   5.189   1.969  0.0957 -0.0892  0.0796
 1251SOL     ow 5001   2.668   5.003   3.235 -0.1051  0.7147  0.3033
 1251SOL     hw 5002   2.698   4.924   3.280  0.1236  0.2065 -0.7219
 1251SOL     hw 5003   2.696   4.992   3.144 -2.4752  0.7036 -0.4882
 1251SOL     vw 5004   2.676   4.991   3.229 -0.3875  0.6464  0.0637
 1252SOL     ow 5005   2.939   2.211   6.325  0.3070 -0.3601  0.7964
 1252SOL     hw 5006   2.875   2.147   6.295  0.0200  1.0459 -1.8399
 1252SOL     hw 5007   3.023   2.164   6.321 -0.1839 -1.3247  1.4459
 1252SOL     vw 5008   2.942   2.196   6.320  0.2044 -0.3020  0.5343
 1253SOL     ow 5009   6.393   2.312   6.076  1.2022  0.3233 -0.4212
 1253SOL     hw 5010   6.409   2.373   6.148 -2.4457 -0.0334  0.8735
 1253SOL     hw 5011   6.368   2.230   6.118 -2.1204  0.4101 -1.9494
 1253SOL     vw 5012   6.392   2.309   6.091  0.2825  0.2877 -0.4520
 1254SOL     ow 5013   3.942   0.031   3.552 -0.1914 -0.0615 -0.3142
 1254SOL     hw 5014   4.013   0.023   3.616  2.3968  1.8322 -2.7329
 1254SOL     hw 5015   3.937  -0.055   3.510 -0.7737 -0.8029  1.1903
 1254SOL     vw 5016   3.950   0.019   3.555  0.0733  0.0905 -0.4349
 1255SOL     ow 5017   6.477   4.391   2.586  0.8193  0.3160  0.2142
 1255SOL     hw 5018   6.450   4.342   2.663 -0.7537  0.4486 -0.2240
 1255SOL     hw 5019   6.522   4.468   2.621  1.5017 -0.4012  0.9434
 1255SOL     vw 5020   6.479   4.395   2.600  0.7017  0.2391  0.2526
 1256SOL     ow 5021   4.294   5.243   2.798  0.6113  0.0954 -0.2162
 1256SOL     hw 5022   4.336   5.329   2.794  1.6190 -0.3770 -0.1014
 1256SOL     hw 5023   4.362   5.184   2.832 -0.5313 -0.4592  1.2484
 1256SOL     vw 5024   4.309   5.246   2.802  0.5934 -0.0398 -0.0079
 1257SOL     ow 5025   7.029   1.595   3.692  0.1260 -0.0206  0.3767
 1257SOL     hw 5026   7.013   1.661   3.759 -1.5440 -0.3498  0.3486
 1257SOL     hw 5027   6.967   1.525   3.713 -0.5485 -0.0615 -1.6017
 1257SOL     vw 5028   7.019   1.594   3.704 -0.1833 -0.0694  0.1121
 1258SOL     ow 5029   6.648   6.305   2.174  0.0662  0.5400 -0.6242
 1258SOL     hw 5030   6.688   6.231   2.129  0.9173  0.5582  0.0813
 1258SOL     hw 5031   6.692   6.309   2.259  1.1122  2.7534 -1.1775
 1258SOL     vw 5032   6.659   6.296   2.179  0.3164  0.8345 -0.6040
 1259SOL     ow 5033   3.648   1.764   4.732  0.3837  0.3632 -0.9708
 1259SOL     hw 5034   3.635   1.839   4.674  4.6007  2.5171  0.4511
 1259SOL     hw 5035   3.597   1.785   4.810  0.4582  1.0936 -1.1087
 1259SOL     vw 5036   3.639   1.777   4.735  0.9499  0.7437 -0.8016
 1260SOL     ow 5037   3.392   5.019   6.758  0.3180 -0.5697  0.1692
 1260SOL     hw 5038   3.441   5.092   6.723 -2.4514  1.8309  0.8612
 1260SOL     hw 5039   3.325   5.000   6.692 -2.4563  1.3809  2.1598
 1260SOL     vw 5040   3.389   5.026   6.745 -0.4134  0.0041  0.5233
 1261SOL     ow 5041   5.200   7.068   4.581  0.4905  0.7703  0.4128
 1261SOL     hw 5042   5.276   7.010   4.581  0.5430  0.8190 -0.5779
 1261SOL     hw 5043   5.226   7.143   4.635  0.8038  0.3702  0.8229
 1261SOL     vw 5044   5.213   7.070   4.588  0.5388  0.7241  0.3359
 1262SOL     ow 5045   5.049   3.974   6.228 -0.2100  0.4799  0.1469
 1262SOL     hw 5046   4.996   3.993   6.306 -0.4392  0.1635  0.0670
 1262SOL     hw 5047   5.135   3.949   6.264 -0.5413 -0.4254  0.3325
 1262SOL     vw 5048   5.053   3.974   6.243 -0.2840  0.3186  0.1607
 1263SOL     ow 5049   5.474   3.536   1.389  0.4189 -0.0007 -0.0418
 1263SOL     hw 5050   5.500   3.593   1.461  1.4506  0.4744 -0.7597
 1263SOL     hw 5051   5.520   3.571   1.312  0.0566 -1.0232 -0.7545
 1263SOL     vw 5052   5.484   3.548   1.388  0.5071 -0.0730 -0.2305
 1264SOL     ow 5053   4.884   0.802   6.249  0.4500 -0.0178 -0.1899
 1264SOL     hw 5054   4.970   0.843   6.255  0.2539  0.9369 -2.7211
 1264SOL     hw 5055   4.902   0.709   6.232  0.9882  0.1398 -0.4947
 1264SOL     vw 5056   4.897   0.795   6.248  0.4952  0.1289 -0.5641
 1265SOL     ow 5057   4.982   4.551   4.930 -0.2667  0.3349 -0.3285
 1265SOL     hw 5058   4.945   4.637   4.908 -1.4672  0.3811  1.5604
 1265SOL     hw 5059   4.906   4.493   4.932  0.7765 -1.3723 -3.7671
 1265SOL     vw 5060   4.967   4.555   4.927 -0.2871  0.1156 -0.5326
 1266SOL     ow 5061   1.805   1.954   3.560  0.2901 -0.7719 -0.5706
 1266SOL     hw 5062   1.815   1.965   3.466  2.4815  0.6352 -0.2510
 1266SOL     hw 5063   1.837   2.036   3.597  0.0885 -1.5359  1.4228
 1266SOL     vw 5064   1.811   1.966   3.553  0.5527 -0.6871 -0.2654
 1267SOL     ow 5065   2.897   1.223   4.803 -0.6088  0.1483  0.0026
 1267SOL     hw 5066   2.897   1.144   4.857 -0.5402 -0.5803 -1.0284
 1267SOL     hw 5067   2.847   1.198   4.725 -2.2798  1.7229  0.4891
 1267SOL     vw 5068   2.890   1.209   4.800 -0.8202  0.2599 -0.0691
 1268SOL     ow 5069   4.910   5.624   5.218  0.5241  0.0074  0.1514
 1268SOL     hw 5070   4.838   5.685   5.232  0.7064  0.2666 -0.0290
 1268SOL     hw 5071   4.970   5.670   5.160  0.5535 -0.4333 -0.1771
 1268SOL     vw 5072   4.909   5.638   5.212  0.5522 -0.0167  0.0842
 1269SOL     ow 5073   2.038   2.780   3.884 -0.5942  0.2144 -0.0636
 1269SOL     hw 5074   2.045   2.792   3.789  1.6563 -0.5159 -0.0431
 1269SOL     hw 5075   1.968   2.715   3.895 -1.5454  1.0228 -1.1293
 1269SOL     vw 5076   2.030   2.773   3.873 -0.4227  0.2247 -0.2013
 1270SOL     ow 5077   4.473   5.049   1.627  0.2353 -0.0739  0.2753
 1270SOL     hw 5078   4.504   5.134   1.594 -0.8454 -0.6435 -2.4974
 1270SOL     hw 5079   4.530   4.985   1.585 -0.4954 -0.8271  0.4024
 1270SOL     vw 5080   4.485   5.052   1.617 -0.0038 -0.2487 -0.0737
 1271SOL     ow 5081   6.382   1.096   0.290  0.7664  0.5365  0.4148
 1271SOL     hw 5082   6.390   1.191   0.301 -2.0259  1.0259 -0.7858
 1271SOL     hw 5083   6.354   1.064   0.375  0.9796  0.8923  0.6220
 1271SOL     vw 5084   6.379   1.104   0.303  0.4263  0.6481  0.2837
 1272SOL     ow 5085   3.925   7.261   4.916  0.0740 -0.3225  0.0960
 1272SOL     hw 5086   3.949   7.230   5.004 -1.0990  0.6945  0.7989
 1272SOL     hw 5087   3.944   7.354   4.917  0.1596 -0.3201 -0.7852
 1272SOL     vw 5088   3.931   7.269   4.928 -0.0695 -0.1881  0.0722
 1273SOL     ow 5089   5.297   5.662   2.913  0.2474  0.2062 -0.6273
 1273SOL     hw 5090   5.214   5.701   2.940  1.0736  0.8173  1.1967
 1273SOL     hw 5091   5.359   5.688   2.981  2.4932  1.6871 -3.0545
 1273SOL     vw 5092   5.295   5.670   2.926  0.6528  0.4821 -0.7068
 1274SOL     ow 5093   5.484   0.529   4.049 -0.4900  0.5187 -0.2783
 1274SOL     hw 5094   5.472   0.579   3.968  0.7498  0.3334 -0.5884
 1274SOL     hw 5095   5.493   0.596   4.116  1.6613  0.7677 -0.7625
 1274SOL     vw 5096   5.483   0.545   4.047 -0.0424  0.5271 -0.3834
 1275SOL     ow 5097   4.704   4.468   0.028  0.4049  0.4138 -0.2246
 1275SOL     hw 5098   4.637   4.403   0.004  0.5284  0.1104  0.2163
 1275SOL     hw 5099   4.663   4.520   0.097  0.7687 -0.0502  0.3509
 1275SOL     vw 5100   4.690   4.466   0.034  0.4692  0.3128 -0.0905
 1276SOL     ow 5101   3.139   3.886   5.776  0.2585  0.4272  0.5273
 1276SOL     hw 5102   3.202   3.836   5.829  0.5757  0.9722  0.6815
 1276SOL     hw 5103   3.101   3.949   5.837 -1.0019 -0.3910  0.6047
 1276SOL     vw 5104   3.143   3.888   5.791  0.1341  0.3911  0.5579
 1277SOL     ow 5105   3.076   6.559   2.533  0.0587  0.8792 -0.3614
 1277SOL     hw 5106   3.089   6.653   2.523 -1.9734  1.4817  1.7400
 1277SOL     hw 5107   3.041   6.549   2.621 -1.0820 -1.6978 -1.0218
 1277SOL     vw 5108   3.073   6.570   2.543 -0.3600  0.6185 -0.1712
 1278SOL     ow 5109   3.369   3.469   4.200 -0.5755 -0.4735  0.1927
 1278SOL     hw 5110   3.452   3.423   4.192 -0.8749 -1.1206  0.6623
 1278SOL     hw 5111   3.351   3.469   4.294 -1.0986 -0.3233  0.0975
 1278SOL     vw 5112   3.378   3.463   4.212 -0.6840 -0.5391  0.2422
 1279SOL     ow 5113   1.888   3.997   3.124  0.7171 -0.1236  0.1848
 1279SOL     hw 5114   1.845   4.033   3.202  0.2208 -0.7086  0.1920
 1279SOL     hw 5115   1.914   4.074   3.073  1.1549  0.2615  0.9848
 1279SOL     vw 5116   1.886   4.012   3.127  0.7093 -0.1500  0.2913
 1280SOL     ow 5117   2.438   0.248   1.937  0.0983 -0.3934  0.2018
 1280SOL     hw 5118   2.490   0.255   1.858 -1.0164 -0.9123 -0.6093
 1280SOL     hw 5119   2.463   0.164   1.975  0.9111  0.0260  0.6315
 1280SOL     vw 5120   2.448   0.238   1.932  0.0585 -0.4065  0.1515
 1281SOL     ow 5121   4.541   1.561   2.933  0.1309 -0.4506 -0.4017
 1281SOL     hw 5122   4.574   1.649   2.915 -0.7253 -0.4305 -2.1730
 1281SOL     hw 5123   4.480   1.572   3.005  1.1213  0.1335  0.3755
 1281SOL     vw 5124   4.537   1.574   2.940  0.1483 -0.3709 -0.5329
 1282SOL     ow 5125   0.302   6.834   1.851 -0.2151 -0.4202 -0.1751
 1282SOL     hw 5126   0.388   6.816   1.812  0.8989 -1.3273  2.4737
 1282SOL     hw 5127   0.263   6.747   1.863 -2.0015  0.0029 -2.1611
 1282SOL     vw 5128   0.308   6.820   1.847 -0.3038 -0.4842 -0.0876
 1283SOL     ow 5129   6.827   1.369   5.644 -0.2833 -0.6890 -0.4115
 1283SOL     hw 5130   6.914   1.404   5.623 -1.6089  3.1322 -0.2627
 1283SOL     hw 5131   6.792   1.429   5.710 -3.1002 -2.0369 -0.5402
 1283SOL     vw 5132   6.834   1.381   5.650 -0.8299 -0.3627 -0.4086
 1284SOL     ow 5133   3.825   3.174   0.230  0.2908 -0.2054 -0.3623
 1284SOL     hw 5134   3.916   3.147   0.216  0.5596  0.9402 -0.9513
 1284SOL     hw 5135   3.787   3.175   0.142 -0.5471 -1.4304 -0.0566
 1284SOL     vw 5136   3.832   3.170   0.216  0.2156 -0.2159 -0.3997
 1285SOL     ow 5137   0.144   3.646   6.766  0.1934 -0.3198 -0.6448
 1285SOL     hw 5138   0.118   3.638   6.858  1.0137  0.1517 -0.3628
 1285SOL     hw 5139   0.074   3.698   6.726 -0.1046 -0.4187 -0.2619
 1285SOL     vw 5140   0.131   3.652   6.773  0.2623 -0.2707 -0.5569
 1286SOL     ow 5141   4.114   3.389   1.397 -0.0839  0.2232  0.0871
 1286SOL     hw 5142   4.186   3.402   1.336  1.4776 -0.7652  1.6345
 1286SOL     hw 5143   4.067   3.473   1.397  2.0494  1.4850  0.2505
 1286SOL     vw 5144   4.117   3.402   1.389  0.4036  0.2593  0.3128
 1287SOL     ow 5145   1.365   5.448   3.884  0.1492 -0.4100  0.2550
 1287SOL     hw 5146   1.418   5.495   3.949 -2.7303  3.0754  0.4041
 1287SOL     hw 5147   1.382   5.494   3.802 -1.7722  0.1341  0.1177
 1287SOL     vw 5148   1.374   5.461   3.882 -0.4842  0.1216  0.2565
 1288SOL     ow 5149   1.339   2.956   6.633  0.0593 -0.4598 -0.5004
 1288SOL     hw 5150   1.269   2.904   6.592  0.5463 -1.1486 -0.4637
 1288SOL     hw 5151   1.404   2.892   6.660 -0.0137  0.0294  0.9203
 1288SOL     vw 5152   1.338   2.941   6.631  0.1138 -0.4861 -0.3078
 1289SOL     ow 5153   5.719   0.279   2.426  0.1516  0.1944  0.1145
 1289SOL     hw 5154   5.775   0.352   2.452  2.3696 -1.2236 -0.4014
 1289SOL     hw 5155   5.657   0.318   2.364  2.4984  1.3453 -1.6756
 1289SOL     vw 5156   5.718   0.294   2.421  0.7539  0.1591 -0.1897
 1290SOL     ow 5157   5.604   4.434   6.298  0.3538 -0.2444  0.5043
 1290SOL     hw 5158   5.623   4.506   6.358 -0.2672  0.1869  0.2015
 1290SOL     hw 5159   5.573   4.478   6.218  0.7234 -0.8254  0.0390
 1290SOL     vw 5160   5.602   4.450   6.295  0.3204 -0.2646  0.4029
 1291SOL     ow 5161   0.380   1.869   4.845  0.5026 -0.5580  0.5093
 1291SOL     hw 5162   0.352   1.914   4.925  1.1514 -1.7824  1.4688
 1291SOL     hw 5163   0.334   1.914   4.774  0.1565  0.7695  1.5363
 1291SOL     vw 5164   0.371   1.881   4.846  0.5425 -0.5444  0.7713
 1292SOL     ow 5165   0.802   5.988   3.534  0.7689  0.5711  0.0167
 1292SOL     hw 5166   0.877   5.947   3.577  0.8534  0.0879 -0.5744
 1292SOL     hw 5167   0.755   6.032   3.604 -0.2309 -1.9048  1.0358
 1292SOL     vw 5168   0.805   5.988   3.549  0.6482  0.1807  0.0731
 1293SOL     ow 5169   4.448   2.577   4.019 -0.1493 -0.1522  0.2398
 1293SOL     hw 5170   4.386   2.527   3.966  2.1240 -0.3989 -2.3572
 1293SOL     hw 5171   4.534   2.555   3.984  1.6824 -0.9432  4.5684
 1293SOL     vw 5172   4.451   2.568   4.008  0.3924 -0.2890  0.4685
 1294SOL     ow 5173   3.302   3.378   0.702  0.1803  0.8395  0.1072
 1294SOL     hw 5174   3.302   3.471   0.678  0.5602  0.5314 -1.1957
 1294SOL     hw 5175   3.383   3.344   0.663  0.4918  0.1340  1.3184
 1294SOL     vw 5176   3.313   3.386   0.693  0.2716  0.7057  0.0951
 1295SOL     ow 5177   2.110   2.948   5.030  0.0048  0.1985 -0.4686
 1295SOL     hw 5178   2.082   2.934   4.939  0.6833 -1.9003 -0.4091
 1295SOL     hw 5179   2.197   2.909   5.034 -0.0607  0.1781  1.1219
 1295SOL     vw 5180   2.117   2.941   5.018  0.0857 -0.0809 -0.2511
 1296SOL     ow 5181   4.320   1.026   4.684  0.1453 -0.2031 -0.4084
 1296SOL     hw 5182   4.244   0.983   4.643  1.3839 -2.0785 -0.8686
 1296SOL     hw 5183   4.289   1.053   4.770 -0.6369 -2.3981  0.0496
 1296SOL     vw 5184   4.306   1.024   4.690  0.2055 -0.7402 -0.4084
 1297SOL     ow 5185   4.337   1.200   0.404 -0.2228 -0.0112 -0.4007
 1297SOL     hw 5186   4.407   1.215   0.468 -0.6103  0.4476 -0.0706
 1297SOL     hw 5187   4.309   1.288   0.378 -0.9058 -0.1800 -0.2651
 1297SOL     vw 5188   4.343   1.213   0.409 -0.3641  0.0271 -0.3393
 1298SOL     ow 5189   5.462   4.420   2.370 -0.3103  0.1826 -0.0165
 1298SOL     hw 5190   5.372   4.390   2.383 -1.5060  3.7558  1.0969
 1298SOL     hw 5191   5.457   4.477   2.293  1.2796 -0.4399 -0.6139
 1298SOL     vw 5192   5.449   4.424   2.361 -0.2582  0.5720  0.0515
 1299SOL     ow 5193   2.074   0.817   1.835  0.1320  0.2669 -0.6730
 1299SOL     hw 5194   2.096   0.817   1.741  3.5744 -1.8611 -0.0488
 1299SOL     hw 5195   2.156   0.840   1.878 -0.9411 -0.4011  1.8747
 1299SOL     vw 5196   2.088   0.820   1.828  0.4447 -0.1020 -0.2544
 1300SOL     ow 5197   0.914   4.946   4.538  0.3445 -0.4793  0.9562
 1300SOL     hw 5198   0.840   4.990   4.498  0.7484 -0.0692  0.6468
 1300SOL     hw 5199   0.976   4.933   4.467  0.9315 -0.0461  1.3733
 1300SOL     vw 5200   0.913   4.950   4.524  0.4752 -0.3681  0.9701
 1301SOL     ow 5201   0.949   4.569   0.363  0.0504  0.0003  0.3173
 1301SOL     hw 5202   0.953   4.661   0.391  0.3001 -0.1445  0.7648
 1301SOL     hw 5203   1.011   4.564   0.290  1.6423 -0.2602  1.6188
 1301SOL     vw 5204   0.958   4.581   0.357  0.2934 -0.0534  0.5481
 1302SOL     ow 5205   4.150   4.152   1.561  0.0044  0.1053  0.2120
 1302SOL     hw 5206   4.087   4.107   1.505  0.7964 -0.5178 -0.2078
 1302SOL     hw 5207   4.196   4.082   1.607  1.4260  0.4326 -0.6265
 1302SOL     vw 5208   4.148   4.137   1.560  0.2964  0.0663  0.0460
 1303SOL     ow 5209   3.372   5.034   2.484 -0.1270 -0.1926  0.1687
 1303SOL     hw 5210   3.314   5.014   2.411 -0.1967 -0.9418  0.4254
 1303SOL     hw 5211   3.460   5.019   2.450  0.0220  2.0011 -0.5645
 1303SOL     vw 5212   3.376   5.029   2.470 -0.1165 -0.0019  0.1057
 1304SOL     ow 5213   3.138   6.649   0.692 -0.2384 -0.5853 -0.2986
 1304SOL     hw 5214   3.185   6.666   0.774 -2.1677  0.5789  0.6292
 1304SOL     hw 5215   3.164   6.722   0.635  1.2775 -1.5129 -0.8796
 1304SOL     vw 5216   3.148   6.661   0.696 -0.2930 -0.5543 -0.2528
 1305SOL     ow 5217   1.248   3.698   4.153 -0.7511 -0.4553  0.8506
 1305SOL     hw 5218   1.288   3.612   4.145 -0.2866 -0.1807  0.1309
 1305SOL     hw 5219   1.219   3.703   4.244  0.9215 -0.6505  1.4250
 1305SOL     vw 5220   1.249   3.687   4.164 -0.4691 -0.4448  0.8314
 1306SOL     ow 5221   5.647   1.022   0.489 -0.4153 -0.2222  0.3787
 1306SOL     hw 5222   5.619   1.103   0.446 -0.7605 -0.3559  0.3439
 1306SOL     hw 5223   5.737   1.009   0.460 -0.9151 -0.7841 -1.0327
 1306SOL     vw 5224   5.655   1.031   0.480 -0.5267 -0.3140  0.1879
 1307SOL     ow 5225   1.283   1.188   6.905 -0.1004  0.3686 -0.1155
 1307SOL     hw 5226   1.196   1.229   6.908  0.6094  1.9145  2.3873
 1307SOL     hw 5227   1.267   1.096   6.927 -1.2649  0.1413 -1.7020
 1307SOL     vw 5228   1.269   1.181   6.908 -0.1605  0.5426  0.0055
 1308SOL     ow 5229   4.798   1.621   2.871  0.5706 -0.4286 -0.2978
 1308SOL     hw 5230   4.735   1.553   2.896 -0.6595  0.2874 -1.2975
 1308SOL     hw 5231   4.873   1.606   2.928 -0.0549 -2.0098  0.1766
 1308SOL     vw 5232   4.799   1.610   2.882  0.3257 -0.5428 -0.3672
 1309SOL     ow 5233   2.102   5.865   1.093 -0.3840  0.3002 -0.0914
 1309SOL     hw 5234   2.052   5.885   1.013 -1.1996  3.5893  1.0783
 1309SOL     hw 5235   2.185   5.831   1.061 -2.0891 -2.2635 -2.1968
 1309SOL     vw 5236   2.106   5.863   1.078 -0.7166  0.3960 -0.2149
 1310SOL     ow 5237   4.863   3.983   5.640  0.4002 -0.1915 -0.2672
 1310SOL     hw 5238   4.849   3.950   5.551 -1.9678 -0.7598  0.2670
 1310SOL     hw 5239   4.848   4.077   5.634  0.7633 -0.1462 -0.5428
 1310SOL     vw 5240   4.859   3.991   5.627  0.1354 -0.2606 -0.2332
 1311SOL     ow 5241   2.351   3.897   0.746 -0.1264 -0.3071 -0.1770
 1311SOL     hw 5242   2.326   3.913   0.655  0.1774  1.4016  0.0066
 1311SOL     hw 5243   2.446   3.909   0.747 -0.3247  1.6571  0.6834
 1311SOL     vw 5244   2.360   3.901   0.734 -0.1124  0.1774 -0.0393
 1312SOL     ow 5245   0.443   2.215   6.280  0.0155 -0.7420  0.7164
 1312SOL     hw 5246   0.521   2.229   6.226 -1.2315 -0.5854 -1.1491
 1312SOL     hw 5247   0.455   2.128   6.318  2.1994  0.2482  2.4982
 1312SOL     vw 5248   0.455   2.205   6.278  0.1391 -0.5907  0.7052
 1313SOL     ow 5249   3.526   1.448   2.847  0.4736 -0.3006  0.3516
 1313SOL     hw 5250   3.536   1.496   2.765 -2.0846  0.7642  0.5572
 1313SOL     hw 5251   3.562   1.361   2.829  2.5741  0.7614 -0.9456
 1313SOL     vw 5252   3.532   1.443   2.834  0.4132 -0.0200  0.2077
 1314SOL     ow 5253   1.896   4.184   4.853  0.3598  0.4874  0.2240
 1314SOL     hw 5254   1.873   4.268   4.893  0.5395 -0.3745  2.2242
 1314SOL     hw 5255   1.980   4.200   4.810 -1.2396  2.2277 -2.5187
 1314SOL     vw 5256   1.904   4.197   4.852  0.1725  0.6034  0.1261
 1315SOL     ow 5257   5.152   6.404   2.900 -0.1213  0.6585 -0.2259
 1315SOL     hw 5258   5.241   6.414   2.865 -0.9211  0.3100 -2.5489
 1315SOL     hw 5259   5.165   6.395   2.994  2.3670 -0.0949 -0.5435
 1315SOL     vw 5260   5.166   6.404   2.907  0.1016  0.5131 -0.5742
 1316SOL     ow 5261   3.365   2.428   3.815  0.6589 -0.3716 -0.0592
 1316SOL     hw 5262   3.392   2.351   3.866 -0.8764 -0.2698  0.9882
 1316SOL     hw 5263   3.284   2.401   3.772  0.5122  0.4061 -0.2846
 1316SOL     vw 5264   3.358   2.414   3.816  0.4371 -0.2556  0.0492
 1317SOL     ow 5265   5.032   5.457   4.562 -0.4435 -0.1150  0.2179
 1317SOL     hw 5266   5.099   5.422   4.621 -1.4396 -0.5564  1.1098
 1317SOL     hw 5267   5.016   5.546   4.593  0.9903  0.6683 -1.1154
 1317SOL     vw 5268   5.039   5.464   4.573 -0.3858 -0.0701  0.1597
 1318SOL     ow 5269   3.642   2.517   4.921  0.1714  0.1071 -0.2114
 1318SOL     hw 5270   3.627   2.514   5.015  1.7182  0.4830  0.0624
 1318SOL     hw 5271   3.554   2.520   4.883 -0.5217 -1.3690  1.1497
 1318SOL     vw 5272   3.628   2.517   4.928  0.2841 -0.0381  0.0043
 1319SOL     ow 5273   1.657   3.057   4.028  0.5319  0.5844 -0.5651
 1319SOL     hw 5274   1.744   3.058   4.069  0.8869  0.5407 -1.3111
 1319SOL     hw 5275   1.598   3.086   4.098  1.0732  0.1107  0.1088
 1319SOL     vw 5276   1.661   3.061   4.043  0.6502  0.5162 -0.5746
 1320SOL     ow 5277   2.509   1.540   7.227  0.5577  0.0948 -0.0368
 1320SOL     hw 5278   2.595   1.581   7.217 -0.7078  4.2053  3.0423
 1320SOL     hw 5279   2.449   1.599   7.181 -0.8777 -1.9334 -0.9341
 1320SOL     vw 5280   2.513   1.553   7.219  0.2013  0.3695  0.2511
 1321SOL     ow 5281   3.497   6.004   7.196 -0.0927  0.1642 -0.0673
 1321SOL     hw 5282   3.429   6.019   7.262 -1.5998  0.5387 -1.6352
 1321SOL     hw 5283   3.556   6.078   7.204 -0.5084  0.4306  0.5607
 1321SOL     vw 5284   3.496   6.016   7.206 -0.3463  0.2489 -0.1912
 1322SOL     ow 5285   3.756   0.186   3.634  0.1311 -0.1043 -0.0973
 1322SOL     hw 5286   3.711   0.212   3.553 -1.9099  0.2628  1.0897
 1322SOL     hw 5287   3.838   0.147   3.604  0.2910  1.6807 -2.2626
 1322SOL     vw 5288   3.761   0.184   3.619 -0.1171  0.1796 -0.2263
 1323SOL     ow 5289   5.581   1.264   0.318  0.4311 -0.4067 -0.7324
 1323SOL     hw 5290   5.571   1.275   0.412 -1.6003 -0.0307 -0.9595
 1323SOL     hw 5291   5.550   1.346   0.280 -0.7763 -1.3252 -1.8082
 1323SOL     vw 5292   5.576   1.276   0.325  0.0036 -0.4783 -0.9043
 1324SOL     ow 5293   3.310   5.749   7.111 -0.1209 -0.4062  0.5173
 1324SOL     hw 5294   3.265   5.671   7.080  2.0199 -1.7678  0.6712
 1324SOL     hw 5295   3.257   5.780   7.185 -1.5683 -1.0525 -0.2058
 1324SOL     vw 5296   3.297   5.743   7.116 -0.0294 -0.6709  0.4420
 1325SOL     ow 5297   7.259   0.892   6.137 -0.8903  0.3922 -0.4387
 1325SOL     hw 5298   7.192   0.926   6.078 -0.0960  1.2888 -0.8414
 1325SOL     hw 5299   7.265   0.958   6.207 -0.6214  0.1822 -0.2626
 1325SOL     vw 5300   7.251   0.905   6.138 -0.7501  0.4828 -0.4685
 1326SOL     ow 5301   2.426   5.096   1.671  0.3972 -0.7024 -0.7276
 1326SOL     hw 5302   2.408   5.020   1.616  0.0990 -1.5007  0.4338
 1326SOL     hw 5303   2.500   5.069   1.726 -1.0136 -0.9512  1.1338
 1326SOL     vw 5304   2.433   5.083   1.671  0.1717 -0.8404 -0.3287
 1327SOL     ow 5305   5.202   1.587   2.693  0.1696  0.2656 -0.3257
 1327SOL     hw 5306   5.220   1.580   2.786 -2.0986  1.1624  0.2447
 1327SOL     hw 5307   5.267   1.651   2.661  0.4805  0.5097  0.7682
 1327SOL     vw 5308   5.213   1.595   2.701 -0.0889  0.4161 -0.1060
 1328SOL     ow 5309   1.867   2.839   4.544 -0.0347 -0.4470 -0.3586
 1328SOL     hw 5310   1.804   2.767   4.533 -2.8963  1.9928 -1.3819
 1328SOL     hw 5311   1.874   2.877   4.457  3.3351 -0.8407 -0.3693
 1328SOL     vw 5312   1.859   2.834   4.531  0.0324 -0.1770 -0.4952
 1329SOL     ow 5313   4.939   0.794   4.018 -0.2848  0.2749  0.3060
 1329SOL     hw 5314   5.004   0.749   4.071  1.2346 -0.6020 -2.1480
 1329SOL     hw 5315   4.873   0.726   4.000  0.0303  0.1012 -0.2195
 1329SOL     vw 5316   4.939   0.779   4.023 -0.0427  0.1363 -0.0870
 1330SOL     ow 5317   7.087   0.762   2.469 -0.2843 -0.4118 -0.6430
 1330SOL     hw 5318   7.001   0.780   2.432 -0.4771  2.1088  0.8174
 1330SOL     hw 5319   7.073   0.687   2.527 -1.4905  0.0163 -0.3666
 1330SOL     vw 5320   7.074   0.754   2.471 -0.4690 -0.0228 -0.4138
 1331SOL     ow 5321   2.299   0.961   3.854  0.1484  0.9953  0.0718
 1331SOL     hw 5322   2.386   0.919   3.852  0.1279  0.9754 -0.8535
 1331SOL     hw 5323   2.316   1.047   3.892  0.5216  0.8709  0.1994
 1331SOL     vw 5324   2.313   0.966   3.859  0.1948  0.9763 -0.0334
 1332SOL     ow 5325   4.336   4.099   0.781  0.7300  0.2978  0.0168
 1332SOL     hw 5326   4.284   4.163   0.829  1.0864 -1.2376  2.6525
 1332SOL     hw 5327   4.285   4.018   0.786  1.5091 -0.2818 -0.9389
 1332SOL     vw 5328   4.323   4.097   0.788  0.8800  0.0188  0.2385
 1333SOL     ow 5329   6.767   5.053   4.814 -0.0655  0.2214 -0.8194
 1333SOL     hw 5330   6.778   5.056   4.719  2.3991  0.8492 -0.6020
 1333SOL     hw 5331   6.673   5.061   4.828 -0.3574  2.3781 -3.1738
 1333SOL     vw 5332   6.756   5.055   4.803  0.2215  0.5889 -1.1015
 1334SOL     ow 5333   5.602   1.533   4.848 -0.2041 -0.1658 -0.2690
 1334SOL     hw 5334   5.689   1.529   4.808  0.7113 -0.2693  1.6201
 1334SOL     hw 5335   5.584   1.443   4.876 -1.4174 -0.3630 -1.5726
 1334SOL     vw 5336   5.611   1.521   4.847 -0.2437 -0.2055 -0.1917
 1335SOL     ow 5337   3.594   4.795   0.201  0.7577 -0.4751 -0.4429
 1335SOL     hw 5338   3.645   4.873   0.177  1.1342 -1.0098 -1.4798
 1335SOL     hw 5339   3.660   4.728   0.217  0.4017 -0.9937 -1.1264
 1335SOL     vw 5340   3.609   4.797   0.200  0.7603 -0.6139 -0.6699
 1336SOL     ow 5341   1.095   5.615   2.530  0.3192 -0.3063  0.3557
 1336SOL     hw 5342   1.090   5.695   2.478  0.5827 -0.8590 -0.5480
 1336SOL     hw 5343   1.003   5.590   2.544  0.2431 -0.6607 -0.6730
 1336SOL     vw 5344   1.082   5.622   2.525  0.3438 -0.4261  0.1009
 1337SOL     ow 5345   5.876   1.947   6.212  0.4162  0.2099 -0.2556
 1337SOL     hw 5346   5.971   1.956   6.204  0.6553  0.4534  2.1401
 1337SOL     hw 5347   5.847   2.029   6.251 -0.7856  0.0946 -0.8649
 1337SOL     vw 5348   5.885   1.959   6.216  0.2892  0.2269 -0.0200
 1338SOL     ow 5349   3.498   5.606   2.839  0.1408  0.2194  0.0009
 1338SOL     hw 5350   3.485   5.698   2.858 -1.2795 -0.0956  0.6897
 1338SOL     hw 5351   3.593   5.593   2.848  0.7484  2.1190 -2.6473
 1338SOL     vw 5352   3.509   5.616   2.843  0.0335  0.4284 -0.2576
 1339SOL     ow 5353   5.120   3.940   5.810 -0.2065 -0.0075 -0.1194
 1339SOL     hw 5354   5.197   3.902   5.854 -0.3545 -0.4861 -0.2648
 1339SOL     hw 5355   5.157   4.006   5.751  0.2217 -1.1179 -1.1357
 1339SOL     vw 5356   5.135   3.943   5.808 -0.1695 -0.2172 -0.2725
 1340SOL     ow 5357   1.963   6.139   6.601  0.5566 -0.3480 -0.8994
 1340SOL     hw 5358   1.937   6.220   6.558  2.0979  3.2171  4.0563
 1340SOL     hw 5359   2.052   6.123   6.572  0.6546  0.4352 -1.0376
 1340SOL     vw 5360   1.971   6.147   6.592  0.7728  0.2258 -0.2637
 1341SOL     ow 5361   0.157   4.473   6.973 -1.0697 -0.6541  0.0929
 1341SOL     hw 5362   0.082   4.521   7.008 -0.7189 -0.0686  0.0553
 1341SOL     hw 5363   0.130   4.447   6.885 -0.3618  1.6845 -0.8897
 1341SOL     vw 5364   0.144   4.476   6.966 -0.9300 -0.2682 -0.0417
 1342SOL     ow 5365   6.163   4.237   4.554  0.2201 -0.2219 -0.0579
 1342SOL     hw 5366   6.069   4.224   4.560  0.1938 -0.4812 -0.9346
 1342SOL     hw 5367   6.198   4.197   4.634 -0.4731  0.5888  0.6644
 1342SOL     vw 5368   6.155   4.230   4.566  0.1252 -0.1493 -0.0784
 1343SOL     ow 5369   6.979   0.976   4.099  0.0089  0.0790  0.1999
 1343SOL     hw 5370   7.074   0.986   4.109  0.1730 -0.7426 -0.4421
 1343SOL     hw 5371   6.950   1.057   4.057  0.2807  0.7253  1.2213
 1343SOL     vw 5372   6.988   0.988   4.095  0.0663  0.0559  0.2503
 1344SOL     ow 5373   4.417   4.907   1.105  0.1652 -0.3826  0.0787
 1344SOL     hw 5374   4.337   4.859   1.082  0.4443 -0.8493  0.0838
 1344SOL     hw 5375   4.488   4.844   1.092  0.5747  0.1496 -0.3041
 1344SOL     vw 5376   4.416   4.892   1.100  0.2563 -0.3736  0.0289
 1345SOL     ow 5377   6.801   4.078   6.374  0.3348 -1.0100 -0.4546
 1345SOL     hw 5378   6.770   4.109   6.460  3.7662  0.0211  0.5819
 1345SOL     hw 5379   6.726   4.033   6.336 -2.4441  1.5441  1.5487
 1345SOL     vw 5380   6.787   4.076   6.381  0.4210 -0.5369 -0.0539
 1346SOL     ow 5381   6.132   3.121   4.691 -0.3473 -0.3740 -0.0166
 1346SOL     hw 5382   6.121   3.047   4.632  3.0187 -0.9310 -0.1293
 1346SOL     hw 5383   6.119   3.084   4.778 -1.1307 -0.5208 -0.1917
 1346SOL     vw 5384   6.129   3.106   4.695 -0.0064 -0.4668 -0.0544
 1347SOL     ow 5385   6.935   4.246   6.205 -0.1941 -0.1849  0.0519
 1347SOL     hw 5386   7.006   4.271   6.264 -2.0077  1.3651  1.6961
 1347SOL     hw 5387   6.880   4.188   6.258 -0.8762 -0.2904 -0.7600
 1347SOL     vw 5388   6.937   4.241   6.220 -0.5233  0.0055  0.1614
 1348SOL     ow 5389   2.752   1.990   0.301  0.4791 -0.2547  0.4585
 1348SOL     hw 5390   2.681   1.925   0.306 -0.7010  0.9934  0.5780
 1348SOL     hw 5391   2.754   2.029   0.388 -0.1339  1.1557 -0.1222
 1348SOL     vw 5392   2.743   1.986   0.313  0.2425  0.0960  0.3976
 1349SOL     ow 5393   0.222   4.859   2.617 -0.1487 -0.3286 -0.1207
 1349SOL     hw 5394   0.215   4.819   2.704  2.9062 -1.4834 -0.2994
 1349SOL     hw 5395   0.160   4.809   2.563 -0.0064 -1.5155  0.7686
 1349SOL     vw 5396   0.213   4.847   2.622  0.2731 -0.6373 -0.0269
 1350SOL     ow 5397   4.844   7.189   1.183 -0.4676 -0.1815 -0.0367
 1350SOL     hw 5398   4.845   7.172   1.088  2.2195 -1.4300  0.1219
 1350SOL     hw 5399   4.852   7.102   1.223  1.6842  0.5056  1.1917
 1350SOL     vw 5400   4.845   7.175   1.176  0.1709 -0.2556  0.1463
 1351SOL     ow 5401   1.366   4.807   6.316 -0.2445  0.1908 -0.3876
 1351SOL     hw 5402   1.361   4.797   6.411 -1.8763  1.1050 -0.3359
 1351SOL     hw 5403   1.452   4.844   6.300  0.0094  0.1242  0.7525
 1351SOL     vw 5404   1.376   4.811   6.327 -0.4263  0.3028 -0.2303
 1352SOL     ow 5405   5.526   3.539   1.803  0.2108 -0.3573 -0.5403
 1352SOL     hw 5406   5.508   3.462   1.856  0.6159 -0.6437 -0.8173
 1352SOL     hw 5407   5.513   3.613   1.863 -2.6435 -0.4605 -0.8789
 1352SOL     vw 5408   5.522   3.539   1.818 -0.1123 -0.4088 -0.6215
 1353SOL     ow 5409   6.425   3.911   4.924 -0.0178  0.1660 -0.2920
 1353SOL     hw 5410   6.463   3.879   4.842 -0.3368  0.0226 -0.3832
 1353SOL     hw 5411   6.394   3.833   4.969  1.4955  0.0651  0.6630
 1353SOL     vw 5412   6.426   3.897   4.919  0.1397  0.1338 -0.1781
 1354SOL     ow 5413   6.324   2.809   1.566  0.1110  0.0723 -0.5409
 1354SOL     hw 5414   6.384   2.882   1.552  2.2422 -1.2423  1.1390
 1354SOL     hw 5415   6.380   2.731   1.557 -0.8834 -1.1726  2.8556
 1354SOL     vw 5416   6.340   2.808   1.563  0.2611 -0.2655  0.1288
 1355SOL     ow 5417   1.004   2.831   4.065 -0.5555 -0.3717 -0.5703
 1355SOL     hw 5418   1.092   2.856   4.093 -1.1339  0.7357  0.3522
 1355SOL     hw 5419   1.017   2.748   4.018  1.2345  0.7744 -2.2582
 1355SOL     vw 5420   1.018   2.823   4.063 -0.3957 -0.0744 -0.6714
 1356SOL     ow 5421   1.299   5.856   6.848  0.2361  0.0717  0.2549
 1356SOL     hw 5422   1.274   5.904   6.770  0.4402 -0.4732 -0.1504
 1356SOL     hw 5423   1.224   5.864   6.907 -0.5301 -0.7618 -0.5749
 1356SOL     vw 5424   1.286   5.864   6.846  0.1619 -0.1104  0.0920
 1357SOL     ow 5425   5.636   4.454   2.674  0.1869  0.1815 -0.7408
 1357SOL     hw 5426   5.651   4.360   2.683  3.0171  0.5750 -0.1819
 1357SOL     hw 5427   5.691   4.493   2.741 -0.9388  2.2637 -0.9513
 1357SOL     vw 5428   5.646   4.447   2.684  0.4117  0.5083 -0.6948
 1358SOL     ow 5429   5.271   3.882   6.351  0.0944 -0.3160 -0.4777
 1358SOL     hw 5430   5.247   3.853   6.439  0.3425  1.2514  0.1344
 1358SOL     hw 5431   5.360   3.851   6.338  0.5857  0.6619  0.4173
 1358SOL     vw 5432   5.280   3.874   6.361  0.1922  0.0199 -0.2789
 1359SOL     ow 5433   6.159   6.164   2.046  0.2263  0.6854  0.5032
 1359SOL     hw 5434   6.117   6.129   1.967 -2.8342  0.7379  1.9674
 1359SOL     hw 5435   6.089   6.169   2.110  2.0301  3.1126  2.4833
 1359SOL     vw 5436   6.144   6.160   2.044  0.0606  1.0126  0.9577
 1360SOL     ow 5437   1.661   7.300   3.602  0.3047 -0.0365  0.8092
 1360SOL     hw 5438   1.577   7.308   3.559 -0.1429  3.0050  1.9955
 1360SOL     hw 5439   1.725   7.304   3.531 -0.4990  0.4656  0.0962
 1360SOL     vw 5440   1.659   7.301   3.587  0.1395  0.4308  0.8717
 1361SOL     ow 5441   3.798   5.646   4.201 -0.3352 -0.0499  0.8181
 1361SOL     hw 5442   3.771   5.662   4.110 -3.3418  1.0567  1.8109
 1361SOL     hw 5443   3.833   5.730   4.230  3.5946 -1.1535 -0.0779
 1361SOL     vw 5444   3.799   5.659   4.193 -0.2133 -0.0496  0.8311
 1362SOL     ow 5445   0.105   6.993   1.672 -0.8505 -0.7552  0.0842
 1362SOL     hw 5446   0.133   6.979   1.581 -2.6496  1.0306 -0.8337
 1362SOL     hw 5447   0.014   6.963   1.674 -1.0710 -0.0663  1.0842
 1362SOL     vw 5448   0.097   6.987   1.660 -1.1169 -0.4287  0.0950
 1363SOL     ow 5449   7.192   5.227   5.394  0.1448 -0.5201  0.3864
 1363SOL     hw 5450   7.123   5.288   5.369  1.0223 -0.0711 -1.0891
 1363SOL     hw 5451   7.258   5.281   5.437  0.4837 -0.5907 -0.0400
 1363SOL     vw 5452   7.192   5.242   5.396  0.3052 -0.4704  0.1357
 1364SOL     ow 5453   1.100   6.999   4.401 -0.4053 -0.0276 -0.1207
 1364SOL     hw 5454   1.185   6.997   4.358 -1.0870  2.1756 -1.7901
 1364SOL     hw 5455   1.043   6.946   4.346 -0.8907  1.4517 -1.1214
 1364SOL     vw 5456   1.104   6.992   4.388 -0.5593  0.4582 -0.4730
 1365SOL     ow 5457   0.815   1.331   3.895  0.4571 -0.2849  0.2419
 1365SOL     hw 5458   0.907   1.351   3.877  0.7301 -1.4743  0.2087
 1365SOL     hw 5459   0.792   1.264   3.831 -0.3375 -0.2367  0.4643
 1365SOL     vw 5460   0.824   1.325   3.884  0.3883 -0.4355  0.2668
 1366SOL     ow 5461   7.208   6.836   5.705 -0.1015 -0.2543 -0.2759
 1366SOL     hw 5462   7.117   6.808   5.710  0.2688 -1.3687  0.6902
 1366SOL     hw 5463   7.257   6.766   5.747  0.9717  1.4125  1.4426
 1366SOL     vw 5464   7.202   6.823   5.711  0.0889 -0.1814  0.0784
 1367SOL     ow 5465   1.523   1.875   2.825  0.7121 -0.0215  0.5341
 1367SOL     hw 5466   1.606   1.896   2.869  1.0761  1.2096 -0.6910
 1367SOL     hw 5467   1.456   1.913   2.881  1.1739  1.5956  0.0437
 1367SOL     vw 5468   1.525   1.883   2.838  0.8211  0.3543  0.3079
 1368SOL     ow 5469   1.781   6.209   2.885  0.3998 -1.2186  0.4090
 1368SOL     hw 5470   1.805   6.283   2.829  2.9377 -2.7400 -0.7238
 1368SOL     hw 5471   1.855   6.201   2.945 -1.0711 -1.2738  2.3076
 1368SOL     vw 5472   1.794   6.218   2.885  0.5405 -1.4267  0.5100
 1369SOL     ow 5473   5.597   1.377   5.262  0.5351  0.0486 -0.8483
 1369SOL     hw 5474   5.545   1.355   5.339  1.8252  0.5247  0.2047
 1369SOL     hw 5475   5.607   1.472   5.265 -0.9978  0.3359 -2.7088
 1369SOL     vw 5476   5.592   1.387   5.272  0.5031  0.1493 -0.9549
 1370SOL     ow 5477   3.677   6.362   3.089 -0.5509  0.0525  0.0149
 1370SOL     hw 5478   3.586   6.381   3.112 -0.2225 -1.0676  2.6160
 1370SOL     hw 5479   3.683   6.267   3.093  1.0037  0.1648  1.1829
 1370SOL     vw 5480   3.665   6.352   3.093 -0.3026 -0.0803  0.5122
 1371SOL     ow 5481   6.471   0.123   5.796 -0.2518  0.4930  0.9361
 1371SOL     hw 5482   6.482   0.038   5.839  0.8804  0.4242  0.5303
 1371SOL     hw 5483   6.556   0.141   5.756  0.0252  2.5420  2.3127
 1371SOL     vw 5484   6.484   0.114   5.796 -0.0660  0.7543  1.0638
 1372SOL     ow 5485   5.648   4.699   5.916  0.6489  0.4704  0.3661
 1372SOL     hw 5486   5.718   4.664   5.971 -0.3477  0.3324  1.6033
 1372SOL     hw 5487   5.629   4.785   5.951 -1.4143 -0.4285  1.6639
 1372SOL     vw 5488   5.655   4.705   5.928  0.2449  0.3338  0.7007
 1373SOL     ow 5489   6.772   4.852   6.277  0.0313 -0.6346  0.2608
 1373SOL     hw 5490   6.847   4.906   6.251  0.5092  0.2388  3.1789
 1373SOL     hw 5491   6.700   4.914   6.285 -0.5866 -1.1911 -0.7039
 1373SOL     vw 5492   6.773   4.867   6.274  0.0126 -0.5929  0.5183
 1374SOL     ow 5493   0.619   7.261   4.508  0.2973  0.3567 -0.0535
 1374SOL     hw 5494   0.588   7.223   4.426 -0.7513 -0.7720  0.8390
 1374SOL     hw 5495   0.540   7.272   4.561  0.9515  1.1502  0.7887
 1374SOL     vw 5496   0.605   7.258   4.504  0.2452  0.3123  0.1752
 1375SOL     ow 5497   3.530   2.609   0.370  0.7757  0.2622 -0.2492
 1375SOL     hw 5498   3.466   2.674   0.342 -0.6434 -0.6989  0.6270
 1375SOL     hw 5499   3.521   2.538   0.307  0.8195  0.0270  0.0079
 1375SOL     vw 5500   3.521   2.608   0.358  0.5943  0.1043 -0.0997
 1376SOL     ow 5501   5.010   2.259   1.601 -0.0380  0.2646 -0.7359
 1376SOL     hw 5502   4.930   2.233   1.554  0.2725 -0.7825 -0.7075
 1376SOL     hw 5503   5.078   2.203   1.565  1.0565  2.2300 -1.9110
 1376SOL     vw 5504   5.008   2.249   1.590  0.1471  0.3858 -0.8872
 1377SOL     ow 5505   4.736   4.201   0.731 -0.1333 -0.2013 -0.0481
 1377SOL     hw 5506   4.688   4.281   0.713  1.2640  1.5854  3.4105
 1377SOL     hw 5507   4.669   4.137   0.755 -1.1108  0.5081 -0.8055
 1377SOL     vw 5508   4.721   4.203   0.732 -0.0780  0.1280  0.3083
 1378SOL     ow 5509   4.881   1.246   5.944 -0.6641  0.1369  0.0923
 1378SOL     hw 5510   4.950   1.202   5.894 -1.7211  0.0573 -1.3784
 1378SOL     hw 5511   4.912   1.336   5.954  1.1603 -0.6568  2.4485
 1378SOL     vw 5512   4.894   1.252   5.939 -0.5629  0.0218  0.2091
 1379SOL     ow 5513   1.584   3.176   6.281 -0.0473 -0.0222 -0.5377
 1379SOL     hw 5514   1.620   3.138   6.361  3.0625 -1.6716 -2.5092
 1379SOL     hw 5515   1.569   3.268   6.303  0.1832 -0.5149  2.0289
 1379SOL     vw 5516   1.587   3.183   6.294  0.3935 -0.3049 -0.4592
 1380SOL     ow 5517   1.900   1.624   3.711 -0.9108  0.3500  0.8840
 1380SOL     hw 5518   1.927   1.668   3.791  0.0040 -2.1083  2.0469
 1380SOL     hw 5519   1.953   1.544   3.709 -0.7226  0.4366 -2.3387
 1380SOL     vw 5520   1.911   1.619   3.721 -0.7653  0.0370  0.6123
 1381SOL     ow 5521   2.103   0.776   1.561 -0.0192  0.1891  0.3922
 1381SOL     hw 5522   2.020   0.773   1.513  0.1903 -0.1652  0.0480
 1381SOL     hw 5523   2.146   0.693   1.540 -0.2575 -0.3324  1.8049
 1381SOL     vw 5524   2.098   0.765   1.552 -0.0230  0.0735  0.5332
 1382SOL     ow 5525   7.144   4.380   3.654 -0.3919 -0.4026 -0.0905
 1382SOL     hw 5526   7.149   4.449   3.587  0.3702  0.1695  0.5297
 1382SOL     hw 5527   7.230   4.382   3.696 -1.3290  0.2521  1.8952
 1382SOL     vw 5528   7.156   4.389   3.651 -0.4151 -0.2408  0.2532
 1383SOL     ow 5529   2.247   2.343   1.164 -0.3264  0.0435  0.1402
 1383SOL     hw 5530   2.298   2.388   1.231 -0.1362 -0.5822  0.4278
 1383SOL     hw 5531   2.299   2.266   1.142 -0.0362  0.6243 -1.2758
 1383SOL     vw 5532   2.261   2.338   1.170 -0.2630  0.0377 -0.0088
 1384SOL     ow 5533   7.036   6.267   3.940 -0.3391  0.4453  0.0685
 1384SOL     hw 5534   7.034   6.180   3.901  2.3852  0.2980  0.1119
 1384SOL     hw 5535   7.008   6.253   4.031  0.3797 -0.4564  0.1648
 1384SOL     vw 5536   7.032   6.254   3.947  0.1154  0.3068  0.0870
 1385SOL     ow 5537   5.765   0.224   4.631  0.1522  0.0218  0.1224
 1385SOL     hw 5538   5.709   0.249   4.704 -1.3417 -1.2407 -0.5502
 1385SOL     hw 5539   5.707   0.222   4.555  1.2003 -0.8442 -0.6908
 1385SOL     vw 5540   5.750   0.227   4.630  0.0935 -0.2590 -0.0734
 1386SOL     ow 5541   1.559   1.105   3.151 -0.4168 -0.1151  0.0100
 1386SOL     hw 5542   1.641   1.057   3.162 -1.3748 -1.8924 -0.1653
 1386SOL     hw 5543   1.577   1.192   3.188  1.3004 -0.6984  0.6697
 1386SOL     vw 5544   1.572   1.110   3.158 -0.3166 -0.4265  0.0739
 1387SOL     ow 5545   1.346   0.913   3.798 -0.0254  1.0134  0.8867
 1387SOL     hw 5546   1.429   0.934   3.755  0.0370  0.1848  0.5946
 1387SOL     hw 5547   1.353   0.951   3.885 -0.5695  3.7142 -0.1454
 1387SOL     vw 5548   1.358   0.921   3.804 -0.0890  1.2604  0.7119
 1388SOL     ow 5549   4.856   2.279   0.248 -0.3734 -0.2975  1.0391
 1388SOL     hw 5550   4.896   2.299   0.164 -2.2855 -0.0943  0.1242
 1388SOL     hw 5551   4.929   2.250   0.304  1.2835  1.7853  0.0589
 1388SOL     vw 5552   4.871   2.278   0.245 -0.4072  0.0042  0.7890
 1389SOL     ow 5553   0.787   4.738   4.247  0.0805  0.0534  0.0391
 1389SOL     hw 5554   0.719   4.804   4.258 -0.6518 -0.6272 -0.2510
 1389SOL     hw 5555   0.866   4.787   4.227 -0.8349  0.7941 -2.1097
 1389SOL     vw 5556   0.788   4.753   4.246 -0.1368  0.0613 -0.2823
 1390SOL     ow 5557   7.163   0.025   2.739  0.1487 -0.1348 -0.1129
 1390SOL     hw 5558   7.157   0.003   2.646 -2.4202 -0.5352  0.0722
 1390SOL     hw 5559   7.097   0.093   2.751  1.1061  0.5904  1.2650
 1390SOL     vw 5560   7.153   0.031   2.728 -0.0641 -0.0919  0.0933
 1391SOL     ow 5561   1.861   0.994   0.072 -0.5903 -0.0532  0.0451
 1391SOL     hw 5562   1.924   0.975   0.141 -1.8441 -1.0464  0.9716
 1391SOL     hw 5563   1.914   1.001  -0.008  0.8482  0.7975  1.0316
 1391SOL     vw 5564   1.876   0.993   0.071 -0.5659 -0.0720  0.2975
 1392SOL     ow 5565   2.551   7.305   1.983 -0.0231 -0.9127  0.2330
 1392SOL     hw 5566   2.614   7.290   1.913  0.1768 -1.6735  0.5764
 1392SOL     hw 5567   2.599   7.284   2.063 -0.7156 -1.5215  0.4937
 1392SOL     vw 5568   2.566   7.301   1.984 -0.0882 -1.0934  0.3127
 1393SOL     ow 5569   5.634   2.808   2.933  0.4448 -0.0394 -0.4330
 1393SOL     hw 5570   5.667   2.881   2.985  2.0422 -1.2085  0.2839
 1393SOL     hw 5571   5.542   2.829   2.917  0.8165  2.0183 -0.1110
 1393SOL     vw 5572   5.626   2.820   2.937  0.7045  0.0778 -0.2961
 1394SOL     ow 5573   2.873   1.036   4.999  1.0377 -0.5085  0.5173
 1394SOL     hw 5574   2.893   1.091   5.075  0.0834  0.5615  0.0481
 1394SOL     hw 5575   2.804   0.977   5.030  2.3676 -1.7621  1.1438
 1394SOL     vw 5576   2.866   1.036   5.013  1.0873 -0.5327  0.5379
 1395SOL     ow 5577   4.946   1.812   0.218  0.0516  0.0605  0.2024
 1395SOL     hw 5578   4.884   1.864   0.270  0.4733  0.5378  0.2343
 1395SOL     hw 5579   4.950   1.858   0.134 -1.7162 -1.4947 -0.8022
 1395SOL     vw 5580   4.938   1.825   0.214 -0.1259 -0.0818  0.0741
 1396SOL     ow 5581   6.385   1.751   3.307 -0.1492  0.1240  0.5877
 1396SOL     hw 5582   6.453   1.737   3.241  0.0047  0.9592  0.5527
 1396SOL     hw 5583   6.385   1.846   3.320  0.8095 -0.1269  2.8356
 1396SOL     vw 5584   6.394   1.762   3.300 -0.0024  0.2012  0.8796
 1397SOL     ow 5585   7.051   0.356   1.263 -0.4952  0.1791  0.5044
 1397SOL     hw 5586   6.968   0.376   1.220 -0.7474  1.2930  1.4540
 1397SOL     hw 5587   7.084   0.278   1.218 -1.6681  0.1907 -0.4033
 1397SOL     vw 5588   7.045   0.348   1.252 -0.6831  0.3276  0.5100
 1398SOL     ow 5589   1.749   6.943   0.983 -0.0281 -0.0484 -0.1948
 1398SOL     hw 5590   1.671   6.995   1.003 -0.5238 -0.2202 -1.5572
 1398SOL     hw 5591   1.822   6.996   1.015 -0.5630  1.2104 -0.9793
 1398SOL     vw 5592   1.748   6.957   0.990 -0.1640  0.0951 -0.4780
 1399SOL     ow 5593   4.223   3.859   0.738  0.3293  0.6574  1.0617
 1399SOL     hw 5594   4.182   3.784   0.782  1.4854  0.5544  2.0075
 1399SOL     hw 5595   4.224   3.835   0.646  1.3529 -0.8500  1.4237
 1399SOL     vw 5596   4.218   3.846   0.732  0.6170  0.4450  1.2343
 1400SOL     ow 5597   6.212   1.748   5.177 -0.1027  0.4230  0.9630
 1400SOL     hw 5598   6.225   1.719   5.267 -1.4007 -3.3358  0.1316
 1400SOL     hw 5599   6.291   1.719   5.131  0.3848  1.9809  0.7640
 1400SOL     vw 5600   6.224   1.740   5.183 -0.2096  0.1326  0.8271
 1401SOL     ow 5601   6.807   0.416   2.470 -0.0039 -0.4117  0.2055
 1401SOL     hw 5602   6.864   0.475   2.520  0.4633 -0.0630 -0.7308
 1401SOL     hw 5603   6.731   0.470   2.448 -0.5264 -0.7600  1.1004
 1401SOL     vw 5604   6.805   0.431   2.474 -0.0112 -0.4117  0.2000
 1402SOL     ow 5605   5.492   4.541   6.085  0.3152 -0.9139  0.4731
 1402SOL     hw 5606   5.521   4.600   6.016  0.0519 -0.8029  0.4567
 1402SOL     hw 5607   5.418   4.585   6.125 -1.2625 -2.1816 -0.9312
 1402SOL     vw 5608   5.486   4.555   6.081  0.0722 -1.0664  0.2856
 1403SOL     ow 5609   0.724   5.585   0.329 -0.2089  0.4446 -0.3908
 1403SOL     hw 5610   0.630   5.566   0.335 -0.4124  1.8854  2.6685
 1403SOL     hw 5611   0.729   5.680   0.324  1.1168  0.3350 -2.3544
 1403SOL     vw 5612   0.712   5.595   0.329 -0.0609  0.6201 -0.2463
 1404SOL     ow 5613   3.141   5.875   4.383 -0.0934  0.7588  0.3043
 1404SOL     hw 5614   3.112   5.808   4.321  0.0643 -0.0917  1.1500
 1404SOL     hw 5615   3.124   5.958   4.337  0.0310  0.1444 -0.8813
 1404SOL     vw 5616   3.135   5.877   4.368 -0.0561  0.5655  0.2596
 1405SOL     ow 5617   7.072   3.997   6.446  0.1364  0.5039 -0.3738
 1405SOL     hw 5618   6.988   4.001   6.400 -0.4103 -3.2705 -0.0383
 1405SOL     hw 5619   7.122   3.930   6.400  3.4167  3.1765 -1.0363
 1405SOL     vw 5620   7.067   3.989   6.434  0.4973  0.3585 -0.4168
 1406SOL     ow 5621   5.724   4.257   1.271  0.0979 -0.3352  0.3586
 1406SOL     hw 5622   5.630   4.268   1.257 -0.0625 -1.6949  0.1866
 1406SOL     hw 5623   5.737   4.162   1.270  1.8774 -0.1607 -2.2670
 1406SOL     vw 5624   5.713   4.246   1.269  0.3114 -0.4916 -0.0106
 1407SOL     ow 5625   5.293   5.970   2.726  0.0142 -0.2189  0.0641
 1407SOL     hw 5626   5.326   5.901   2.668  1.3867 -1.9998  2.7695
 1407SOL     hw 5627   5.368   5.993   2.780 -1.6576 -0.1853  2.5253
 1407SOL     vw 5628   5.307   5.964   2.725 -0.0250 -0.4494  0.7457
 1408SOL     ow 5629   0.851   0.309   0.633  0.3069  0.8146 -0.0586
 1408SOL     hw 5630   0.933   0.276   0.597  0.3571  2.1313 -1.2619
 1408SOL     hw 5631   0.798   0.231   0.649  0.9690  0.0531 -1.3795
 1408SOL     vw 5632   0.855   0.295   0.630  0.4009  0.8878 -0.3916
 1409SOL     ow 5633   2.134   1.300   5.097  0.0815 -0.4710 -0.2805
 1409SOL     hw 5634   2.141   1.357   5.021  0.5300 -1.4201 -0.9642
 1409SOL     hw 5635   2.097   1.218   5.063 -2.4444  0.0277  1.0091
 1409SOL     vw 5636   2.130   1.297   5.083 -0.1926 -0.5304 -0.2005
 1410SOL     ow 5637   1.551   7.095   3.792 -0.1543 -0.6865 -0.2159
 1410SOL     hw 5638   1.608   7.035   3.744 -0.8805 -0.5260 -1.3388
 1410SOL     hw 5639   1.551   7.063   3.882  1.5387 -0.7914 -0.2293
 1410SOL     vw 5640   1.559   7.083   3.797 -0.0266 -0.6790 -0.3657
 1411SOL     ow 5641   2.646   5.739   2.071  0.5548  0.0312  0.4209
 1411SOL     hw 5642   2.704   5.752   2.146  3.0564  1.8239 -1.6567
 1411SOL     hw 5643   2.623   5.827   2.043 -0.2512 -0.5989 -1.0153
 1411SOL     vw 5644   2.651   5.752   2.078  0.7784  0.1843 -0.0428
 1412SOL     ow 5645   2.118   4.221   1.557  0.0545 -0.1187 -0.3946
 1412SOL     hw 5646   2.140   4.312   1.575 -1.0753  0.0537  0.1993
 1412SOL     hw 5647   2.069   4.192   1.634 -0.0205 -1.0833 -0.7888
 1412SOL     vw 5648   2.115   4.229   1.569 -0.1044 -0.2232 -0.3683
 1413SOL     ow 5649   5.919   3.603   1.629  0.2638  0.0645  0.3422
 1413SOL     hw 5650   5.866   3.528   1.603 -0.1251 -0.4609  2.4498
 1413SOL     hw 5651   5.916   3.662   1.554 -0.1718 -1.6055 -1.0271
 1413SOL     vw 5652   5.912   3.601   1.615  0.1552 -0.2252  0.4396
 1414SOL     ow 5653   0.970   3.126   4.054  0.2914 -0.2241 -0.9283
 1414SOL     hw 5654   1.004   3.193   3.994 -1.4620  1.7650  0.1845
 1414SOL     hw 5655   1.035   3.120   4.124  1.2585 -0.9492 -1.8485
 1414SOL     vw 5656   0.983   3.134   4.055  0.1876 -0.0575 -0.9027
 1415SOL     ow 5657   4.780   1.093   4.448 -0.0011 -0.4555  0.4671
 1415SOL     hw 5658   4.775   1.188   4.446  1.7022 -0.3616 -0.9039
 1415SOL     hw 5659   4.741   1.065   4.365  1.6120 -0.7962 -0.2120
 1415SOL     vw 5660   4.774   1.102   4.437  0.4365 -0.4880  0.1969
 1416SOL     ow 5661   0.410   7.069   4.075 -0.4159 -0.3276  0.0352
 1416SOL     hw 5662   0.411   7.141   4.011  1.4572  0.1608  0.5417
 1416SOL     hw 5663   0.321   7.035   4.072 -0.5676  0.1329 -2.3199
 1416SOL     vw 5664   0.399   7.074   4.066 -0.1888 -0.2024 -0.2086
 1417SOL     ow 5665   3.328   0.187   3.388  0.3305 -0.2737 -0.0531
 1417SOL     hw 5666   3.313   0.277   3.358 -1.3310  0.2204  2.0039
 1417SOL     hw 5667   3.358   0.196   3.479 -0.0276 -1.7943  0.2535
 1417SOL     vw 5668   3.330   0.200   3.396  0.0640 -0.4092  0.2587
 1418SOL     ow 5669   5.308   2.635   1.503 -0.5964  0.3575 -0.2272
 1418SOL     hw 5670   5.274   2.610   1.417 -0.1917 -0.4433 -0.1633
 1418SOL     hw 5671   5.371   2.567   1.525 -1.1413  0.2185  0.9881
 1418SOL     vw 5672   5.312   2.623   1.494 -0.6151  0.2335 -0.0584
 1419SOL     ow 5673   3.843   5.955   3.978 -0.0661 -0.1116 -0.7003
 1419SOL     hw 5674   3.827   5.981   3.887 -0.0690 -1.0639 -0.9746
 1419SOL     hw 5675   3.835   5.860   3.978 -0.7688 -0.0733  0.4353
 1419SOL     vw 5676   3.839   5.946   3.966 -0.1591 -0.2320 -0.5866
 1420SOL     ow 5677   4.497   2.231   6.852 -0.1947  0.1170  0.2996
 1420SOL     hw 5678   4.510   2.161   6.916 -2.7433 -0.4794  0.2942
 1420SOL     hw 5679   4.418   2.276   6.882 -0.3680  1.0096 -1.3954
 1420SOL     vw 5680   4.488   2.228   6.864 -0.5538  0.1560  0.0753
 1421SOL     ow 5681   4.840   4.054   1.051 -0.8314 -0.6342  0.2607
 1421SOL     hw 5682   4.746   4.064   1.034 -0.5053  1.8200 -0.4914
 1421SOL     hw 5683   4.869   3.987   0.990 -1.5162  1.0452 -2.0195
 1421SOL     vw 5684   4.831   4.047   1.041 -0.8788 -0.0889 -0.1394
 1422SOL     ow 5685   0.932   2.989   3.773  1.1429  0.1178 -0.3725
 1422SOL     hw 5686   0.881   3.035   3.706  1.5012  1.6991  0.3822
 1422SOL     hw 5687   1.010   2.959   3.727  0.6137 -0.2967 -1.0231
 1422SOL     vw 5688   0.936   2.991   3.758  1.1203  0.2716 -0.3588
 1423SOL     ow 5689   4.637   1.650   4.205  0.8439 -0.0248  0.0258
 1423SOL     hw 5690   4.676   1.622   4.122  0.0236  0.8145 -0.6575
 1423SOL     hw 5691   4.697   1.617   4.272  0.4657 -2.5421 -0.7649
 1423SOL     vw 5692   4.650   1.642   4.203  0.6857 -0.2462 -0.1688
 1424SOL     ow 5693   0.517   4.065   4.981 -0.2203 -0.4579  0.2392
 1424SOL     hw 5694   0.491   4.126   5.050  0.0448  0.8149 -0.7384
 1424SOL     hw 5695   0.572   4.118   4.922 -0.1866 -1.5829 -0.7793
 1424SOL     vw 5696   0.521   4.080   4.982 -0.1809 -0.4382 -0.0243
 1425SOL     ow 5697   2.893   5.165   3.299  0.6100 -0.1501 -0.6269
 1425SOL     hw 5698   2.955   5.162   3.226 -0.5000 -2.1270 -1.5760
 1425SOL     hw 5699   2.941   5.130   3.373  0.7374 -1.3953 -1.2783
 1425SOL     vw 5700   2.908   5.160   3.299  0.4803 -0.5751 -0.8379
 1426SOL     ow 5701   3.988   4.409   1.468  0.4095 -0.0398 -0.2854
 1426SOL     hw 5702   4.000   4.469   1.395 -0.3287  1.9930  1.1633
 1426SOL     hw 5703   3.895   4.415   1.489  0.9127  0.9776  2.0096
 1426SOL     vw 5704   3.977   4.418   1.461  0.3785  0.3626  0.2085
 1427SOL     ow 5705   1.883   6.383   6.508  0.3590  1.0920  0.7793
 1427SOL     hw 5706   1.811   6.433   6.470  2.0059  4.2871  1.4612
 1427SOL     hw 5707   1.955   6.394   6.445  1.1838  0.7655  1.6331
 1427SOL     vw 5708   1.883   6.391   6.494  0.6852  1.4706  0.9818
 1428SOL     ow 5709   4.705   6.735   3.015  0.1886 -0.5431 -0.0215
 1428SOL     hw 5710   4.640   6.751   2.947  0.8430 -0.0888 -0.5607
 1428SOL     hw 5711   4.733   6.822   3.042 -1.2695 -0.6664  2.0544
 1428SOL     vw 5712   4.700   6.748   3.009  0.0827 -0.4995  0.1812
 1429SOL     ow 5713   2.268   3.142   4.235  0.1510  0.1766 -0.2294
 1429SOL     hw 5714   2.291   3.101   4.319 -2.6626 -1.0832  0.0297
 1429SOL     hw 5715   2.313   3.088   4.170 -0.0925 -0.7187  0.3231
 1429SOL     vw 5716   2.277   3.129   4.238 -0.2522 -0.1078 -0.1223
 1430SOL     ow 5717   6.137   1.165   7.062  0.0407 -0.6303  0.5508
 1430SOL     hw 5718   6.156   1.150   7.155  0.1352  2.7428  1.1988
 1430SOL     hw 5719   6.055   1.214   7.063 -0.1102 -0.8115 -1.2088
 1430SOL     vw 5720   6.129   1.169   7.075  0.0331 -0.2092  0.4044
 1431SOL     ow 5721   0.829   0.662   7.259  0.2279 -0.0553  0.1422
 1431SOL     hw 5722   0.784   0.747   7.262  0.0573 -0.0800 -1.3182
 1431SOL     hw 5723   0.921   0.684   7.272  0.3232  0.4981 -1.3151
 1431SOL     vw 5724   0.835   0.676   7.261  0.2180  0.0145 -0.2427
 1432SOL     ow 5725   5.604   0.963   1.644  0.1722  0.5624 -0.2896
 1432SOL     hw 5726   5.690   1.003   1.636  0.0638  2.0319  3.5966
 1432SOL     hw 5727   5.622   0.871   1.665  0.9395  1.1264  1.7496
 1432SOL     vw 5728   5.617   0.956   1.646  0.2592  0.8307  0.4923
 1433SOL     ow 5729   0.454   6.852   2.157 -0.0629  0.3187  0.1150
 1433SOL     hw 5730   0.514   6.799   2.104 -0.9826  0.2480 -0.8742
 1433SOL     hw 5731   0.496   6.938   2.161  0.7367 -0.0726  0.5380
 1433SOL     vw 5732   0.468   6.856   2.150 -0.0787  0.2580  0.0403
 1434SOL     ow 5733   0.823   6.843   3.804 -0.4896 -0.0823 -0.1895
 1434SOL     hw 5734   0.888   6.786   3.845 -0.6582  1.0798  1.8415
 1434SOL     hw 5735   0.797   6.797   3.725  0.3253 -2.1947  0.6952
 1434SOL     vw 5736   0.828   6.829   3.799 -0.4044 -0.2077  0.1951
 1435SOL     ow 5737   4.448   3.364   1.160  0.7272  0.0758 -0.1146
 1435SOL     hw 5738   4.466   3.271   1.148 -1.5670 -0.3996 -0.2204
 1435SOL     hw 5739   4.366   3.380   1.113 -0.2864  1.5706  1.9992
 1435SOL     vw 5740   4.440   3.354   1.152  0.2911  0.2103  0.1504
 1436SOL     ow 5741   2.415   2.248   6.648  0.8367 -0.3130 -0.0959
 1436SOL     hw 5742   2.506   2.262   6.620  0.1919  2.0119 -1.2930
 1436SOL     hw 5743   2.385   2.334   6.675 -0.4144 -1.4466  2.3817
 1436SOL     vw 5744   2.423   2.261   6.648  0.5866 -0.1558  0.0734
 1437SOL     ow 5745   1.690   3.754   3.106  0.3053  0.5690 -0.1496
 1437SOL     hw 5746   1.610   3.702   3.099  0.2542  0.6454 -0.1288
 1437SOL     hw 5747   1.664   3.842   3.081  0.3848  0.5930 -0.1493
 1437SOL     vw 5748   1.676   3.759   3.102  0.3090  0.5823 -0.1469
 1438SOL     ow 5749   2.940   5.965   0.301 -0.1598  0.4142 -0.0916
 1438SOL     hw 5750   2.860   5.977   0.352 -0.5584  1.1746 -0.8791
 1438SOL     hw 5751   2.915   5.983   0.211  0.1989 -2.3195 -0.8312
 1438SOL     vw 5752   2.926   5.969   0.296 -0.1651  0.1540 -0.2931
 1439SOL     ow 5753   4.311   1.483   0.394  0.5971 -0.0250  0.1640
 1439SOL     hw 5754   4.288   1.498   0.303  0.6393 -1.3236 -0.0728
 1439SOL     hw 5755   4.241   1.526   0.444  0.8037  1.0707 -0.4494
 1439SOL     vw 5756   4.299   1.491   0.389  0.6299 -0.0517  0.0518
 1440SOL     ow 5757   5.717   6.628   5.226  1.2749 -0.1974 -0.5386
 1440SOL     hw 5758   5.780   6.575   5.274  1.7379 -1.7764 -2.7255
 1440SOL     hw 5759   5.653   6.564   5.193 -0.1472  1.0780 -0.3568
 1440SOL     vw 5760   5.717   6.612   5.228  1.1485 -0.2372 -0.8030
 1441SOL     ow 5761   4.687   5.734   6.055  0.1109 -0.6099 -0.0547
 1441SOL     hw 5762   4.714   5.652   6.097 -3.0826 -1.6892  0.1385
 1441SOL     hw 5763   4.615   5.709   5.997  0.1655  1.8317 -1.2924
 1441SOL     vw 5764   4.681   5.720   6.053 -0.3033 -0.4301 -0.1926
 1442SOL     ow 5765   0.383   1.730   2.836  0.6623  0.1782 -0.8308
 1442SOL     hw 5766   0.454   1.780   2.797  0.0260  2.5855  0.9083
 1442SOL     hw 5767   0.412   1.711   2.925 -0.8551  1.3374 -0.0364
 1442SOL     vw 5768   0.396   1.734   2.842  0.3782  0.6487 -0.4965
 1443SOL     ow 5769   0.436   2.737   4.364  0.0395 -0.0970 -0.2784
 1443SOL     hw 5770   0.513   2.787   4.338 -0.6557  1.4506  0.4812
 1443SOL     hw 5771   0.434   2.662   4.305  1.4841  0.4429 -1.0435
 1443SOL     vw 5772   0.446   2.733   4.353  0.1383  0.1785 -0.2789
 1444SOL     ow 5773   1.108   6.854   1.741  0.0650 -0.3784  0.2209
 1444SOL     hw 5774   1.020   6.885   1.720  1.0109  0.4922 -3.0792
 1444SOL     hw 5775   1.100   6.759   1.739 -0.9988 -0.3279  1.0651
 1444SOL     vw 5776   1.095   6.845   1.738  0.0494 -0.2570 -0.1031
 1445SOL     ow 5777   0.906   1.550   7.105 -0.1085 -0.1332 -0.3358
 1445SOL     hw 5778   0.828   1.592   7.069  2.1908  2.3280 -2.9244
 1445SOL     hw 5779   0.917   1.471   7.054 -0.3520  0.0421 -0.6622
 1445SOL     vw 5780   0.897   1.545   7.094  0.1627  0.2146 -0.7205
 1446SOL     ow 5781   2.898   2.933   1.155  0.2898  0.3896 -0.3691
 1446SOL     hw 5782   2.968   2.882   1.114 -0.6002 -0.2146 -1.1951
 1446SOL     hw 5783   2.919   2.933   1.249  0.5604 -1.1132 -0.4134
 1446SOL     vw 5784   2.910   2.926   1.162  0.2079  0.1117 -0.4839
 1447SOL     ow 5785   4.707   5.797   5.206 -0.0522  0.3876 -0.5527
 1447SOL     hw 5786   4.756   5.877   5.188 -1.1946  0.6473 -2.9540
 1447SOL     hw 5787   4.622   5.827   5.238  0.3237  0.0332  0.8243
 1447SOL     vw 5788   4.702   5.811   5.207 -0.1533  0.3753 -0.6878
 1448SOL     ow 5789   3.125   2.710   2.762 -0.0030  0.1028 -0.4718
 1448SOL     hw 5790   3.199   2.764   2.732  1.2059  0.0002  2.0455
 1448SOL     hw 5791   3.142   2.623   2.725  1.9217 -0.2494  1.0705
 1448SOL     vw 5792   3.137   2.706   2.753  0.4103  0.0428  0.0639
 1449SOL     ow 5793   4.907   2.635   1.849  0.4804  0.5273 -0.5144
 1449SOL     hw 5794   4.963   2.661   1.922  0.1881 -1.5097  0.5018
 1449SOL     hw 5795   4.965   2.636   1.773  1.6725 -0.5660  0.3394
 1449SOL     vw 5796   4.922   2.639   1.848  0.5991  0.1143 -0.2676
 1450SOL     ow 5797   7.118   5.600   3.941  0.1077 -0.6075 -0.2257
 1450SOL     hw 5798   7.154   5.531   3.998 -0.4648  0.3984  1.3929
 1450SOL     hw 5799   7.039   5.630   3.986  0.0045  0.6801 -1.2252
 1450SOL     vw 5800   7.113   5.595   3.954  0.0184 -0.3049 -0.1440
 1451SOL     ow 5801   0.188   2.762   3.169  0.1460  0.4756 -0.5214
 1451SOL     hw 5802   0.170   2.787   3.260 -1.9361 -0.9465 -0.4756
 1451SOL     hw 5803   0.283   2.751   3.166  0.0800 -4.4164  2.9871
 1451SOL     vw 5804   0.198   2.764   3.181 -0.1374 -0.3575 -0.0523
 1452SOL     ow 5805   4.743   0.869   7.151  0.3171  0.1795 -0.2189
 1452SOL     hw 5806   4.666   0.862   7.094  0.1321 -0.1710  0.0758
 1452SOL     hw 5807   4.803   0.925   7.102  0.3298 -0.4581 -0.9477
 1452SOL     vw 5808   4.741   0.876   7.137  0.2944  0.0491 -0.2763
 1453SOL     ow 5809   3.303   4.211   3.127 -0.2359  0.2405  0.6463
 1453SOL     hw 5810   3.208   4.210   3.135 -0.2343 -1.3969  0.7780
 1453SOL     hw 5811   3.325   4.127   3.087  1.0779  1.1260 -0.6017
 1453SOL     vw 5812   3.294   4.200   3.123 -0.0623  0.1414  0.4990
 1454SOL     ow 5813   6.967   3.956   5.631 -0.2648  0.1921 -0.0963
 1454SOL     hw 5814   6.901   4.017   5.664  0.2965  0.4638  0.5307
 1454SOL     hw 5815   7.019   3.933   5.707  1.1436  0.9424 -0.7894
 1454SOL     vw 5816   6.965   3.961   5.645 -0.0050  0.3270 -0.1049
 1455SOL     ow 5817   5.404   7.113   0.970 -0.0920 -0.7722  0.3822
 1455SOL     hw 5818   5.471   7.087   1.033  0.1935 -1.4948 -0.2056
 1455SOL     hw 5819   5.323   7.116   1.021  0.4514  0.6705  1.2301
 1455SOL     vw 5820   5.402   7.110   0.985  0.0172 -0.6773  0.4165
 1456SOL     ow 5821   6.661   3.181   1.941  0.2826  0.5283 -0.2249
 1456SOL     hw 5822   6.584   3.207   1.991  0.6520 -1.1549  1.2956
 1456SOL     hw 5823   6.638   3.200   1.850 -1.5398  0.9390  0.2826
 1456SOL     vw 5824   6.648   3.187   1.936  0.0906  0.3604  0.0426
 1457SOL     ow 5825   2.810   6.407   2.468  0.4063  0.1626  0.4387
 1457SOL     hw 5826   2.788   6.360   2.548  1.0665 -0.3465  0.3264
 1457SOL     hw 5827   2.739   6.385   2.407 -0.2718  0.8163  0.9782
 1457SOL     vw 5828   2.798   6.398   2.470  0.4039  0.1817  0.4948
 1458SOL     ow 5829   6.208   0.209   5.949 -0.0183  0.1338 -0.2645
 1458SOL     hw 5830   6.136   0.146   5.946 -0.1152  0.2631 -0.7931
 1458SOL     hw 5831   6.171   0.286   5.992 -0.8161  0.9479 -2.2886
 1458SOL     vw 5832   6.193   0.211   5.955 -0.1364  0.2583 -0.6015
 1459SOL     ow 5833   6.311   5.750   0.629  0.0326 -0.2774 -0.0233
 1459SOL     hw 5834   6.274   5.662   0.618  0.3301 -0.4225  0.1484
 1459SOL     hw 5835   6.266   5.786   0.705 -0.9588  0.1754 -0.7854
 1459SOL     vw 5836   6.300   5.743   0.637 -0.0589 -0.2365 -0.1012
 1460SOL     ow 5837   6.009   2.358   5.195  0.9242 -0.6720 -0.3186
 1460SOL     hw 5838   5.988   2.314   5.278  2.2283  1.8464  1.4904
 1460SOL     hw 5839   5.937   2.333   5.136  0.0770 -2.7803  1.4454
 1460SOL     vw 5840   5.996   2.349   5.198  0.9844 -0.6179  0.1528
 1461SOL     ow 5841   6.266   0.483   1.803  1.4455  0.2525  0.5197
 1461SOL     hw 5842   6.230   0.479   1.715 -0.8647  0.0943  1.3883
 1461SOL     hw 5843   6.295   0.394   1.822  1.6062  0.2040  0.0474
 1461SOL     vw 5844   6.265   0.471   1.794  1.1618  0.2252  0.5720
 1462SOL     ow 5845   1.638   6.760   5.725  0.1000  0.3103 -0.4870
 1462SOL     hw 5846   1.619   6.667   5.733 -0.3664  0.3863 -0.7018
 1462SOL     hw 5847   1.724   6.764   5.683 -0.0345 -0.0183 -0.7979
 1462SOL     vw 5848   1.647   6.748   5.721  0.0207  0.2770 -0.5562
 1463SOL     ow 5849   5.708   1.001   0.767  0.1886 -0.1035 -0.6319
 1463SOL     hw 5850   5.626   1.009   0.815  0.5087  0.2131 -0.1181
 1463SOL     hw 5851   5.684   1.005   0.675 -0.3993 -0.3145 -0.4882
 1463SOL     vw 5852   5.694   1.003   0.761  0.1531 -0.0895 -0.5451
 1464SOL     ow 5853   3.370   5.363   5.226 -0.0861 -0.0007 -0.3061
 1464SOL     hw 5854   3.309   5.290   5.228 -1.2703  0.8909 -1.8816
 1464SOL     hw 5855   3.431   5.343   5.155 -2.4407  1.9546 -3.1274
 1464SOL     vw 5856   3.370   5.351   5.217 -0.5529  0.3750 -0.8862
 1465SOL     ow 5857   0.297   2.897   2.809  0.6930 -0.6174  0.0669
 1465SOL     hw 5858   0.342   2.935   2.733  2.4673 -0.6492  1.0478
 1465SOL     hw 5859   0.213   2.942   2.812  1.0837  0.2585 -1.2054
 1465SOL     vw 5860   0.292   2.908   2.799  0.9787 -0.5059  0.0285
 1466SOL     ow 5861   7.237   4.078   2.005  0.0479 -0.5074 -0.7621
 1466SOL     hw 5862   7.326   4.067   1.970  1.0160 -1.7100  1.8225
 1466SOL     hw 5863   7.202   3.989   2.011  0.1363 -0.4471  1.6271
 1466SOL     vw 5864   7.244   4.065   2.001  0.1872 -0.6585 -0.1059
 1467SOL     ow 5865   3.922   7.151   6.575  0.5125 -0.3163 -0.1322
 1467SOL     hw 5866   3.891   7.061   6.570 -1.0068  0.2198 -1.1863
 1467SOL     hw 5867   4.002   7.151   6.522  0.8187 -1.1429  0.3119
 1467SOL     vw 5868   3.928   7.139   6.567  0.3524 -0.3545 -0.2127
 1468SOL     ow 5869   4.154   0.784   3.194 -0.4498 -0.1062 -0.6123
 1468SOL     hw 5870   4.180   0.692   3.206 -0.1817  0.0252 -0.1333
 1468SOL     hw 5871   4.187   0.807   3.107  4.0100  0.9694  1.0901
 1468SOL     vw 5872   4.162   0.775   3.184  0.1740  0.0531 -0.3245
 1469SOL     ow 5873   0.396   5.776   4.604  0.4180  0.3129  0.3719
 1469SOL     hw 5874   0.356   5.858   4.576 -0.0573  0.6769  1.9959
 1469SOL     hw 5875   0.323   5.723   4.636  0.6045 -1.1234 -1.4207
 1469SOL     vw 5876   0.381   5.780   4.604  0.3799  0.1712  0.3498
 1470SOL     ow 5877   0.021   6.959   1.953 -0.0550  0.2796  0.6157
 1470SOL     hw 5878  -0.009   7.046   1.979 -0.9005 -0.6561  3.0553
 1470SOL     hw 5879  -0.056   6.903   1.965  0.8636 -1.0415  0.5180
 1470SOL     vw 5880   0.007   6.963   1.958 -0.0454 -0.0181  0.9247
 1471SOL     ow 5881   2.783   1.028   5.840 -0.0068  0.1373  0.0133
 1471SOL     hw 5882   2.764   1.049   5.932 -1.5118  0.1440 -0.2646
 1471SOL     hw 5883   2.878   1.014   5.837  0.6819  3.6469  0.8943
 1471SOL     vw 5884   2.793   1.029   5.852 -0.1146  0.6012  0.0930
 1472SOL     ow 5885   2.096   6.664   6.546 -0.0756 -0.3108 -0.3345
 1472SOL     hw 5886   2.005   6.693   6.538  0.4643  1.2585 -1.2576
 1472SOL     hw 5887   2.115   6.621   6.463 -0.7694 -3.2667  0.9023
 1472SOL     vw 5888   2.086   6.662   6.534 -0.0960 -0.4940 -0.2928
 1473SOL     ow 5889   1.916   1.345   2.157 -0.5580 -0.1590  0.1747
 1473SOL     hw 5890   1.942   1.351   2.249 -1.0096 -0.9096  0.3564
 1473SOL     hw 5891   1.886   1.433   2.135  1.3571  0.5475  0.1792
 1473SOL     vw 5892   1.915   1.358   2.166 -0.3650 -0.1649  0.1994
 1474SOL     ow 5893   2.480   3.114   6.181 -0.5733  0.5981  0.1135
 1474SOL     hw 5894   2.515   3.181   6.240  2.6125 -0.2708 -0.6268
 1474SOL     hw 5895   2.453   3.163   6.103 -0.8432  1.2875  0.6234
 1474SOL     vw 5896   2.481   3.129   6.178 -0.1886  0.5745  0.0832
 1475SOL     ow 5897   1.809   5.067   6.971  0.9049 -0.5504 -0.9380
 1475SOL     hw 5898   1.774   5.004   6.908  0.6960 -0.1981 -1.1711
 1475SOL     hw 5899   1.877   5.018   7.018 -0.0326 -1.3108 -0.3363
 1475SOL     vw 5900   1.813   5.052   6.969  0.7536 -0.6042 -0.8895
 1476SOL     ow 5901   5.351   4.508   2.764  0.0005  0.2406 -0.4525
 1476SOL     hw 5902   5.444   4.486   2.759 -0.1834 -1.4137  1.9168
 1476SOL     hw 5903   5.346   4.576   2.831 -0.4149  1.1137 -1.3459
 1476SOL     vw 5904   5.362   4.514   2.772 -0.0787  0.1376 -0.2577
 1477SOL     ow 5905   0.165   3.897   2.457  0.5580 -0.4055 -0.5400
 1477SOL     hw 5906   0.151   3.825   2.518  0.3266 -1.5286 -1.8614
 1477SOL     hw 5907   0.252   3.881   2.420  0.8394  0.4532 -0.2742
 1477SOL     vw 5908   0.175   3.885   2.460  0.5646 -0.4404 -0.6791
 1478SOL     ow 5909   3.366   0.044   4.576  0.1097 -0.0909  0.1529
 1478SOL     hw 5910   3.448   0.064   4.623  0.1956 -1.9340  0.8640
 1478SOL     hw 5911   3.371  -0.050   4.558 -0.9115  0.1711 -1.7088
 1478SOL     vw 5912   3.378   0.034   4.580 -0.0138 -0.2995  0.0014
 1479SOL     ow 5913   6.208   4.086   4.360  0.2483  0.0385  0.4525
 1479SOL     hw 5914   6.127   4.085   4.310  0.5413  2.5135 -0.1633
 1479SOL     hw 5915   6.185   4.130   4.442  0.6028 -0.8454  1.0537
 1479SOL     vw 5916   6.194   4.091   4.364  0.3338  0.2484  0.4506
 1480SOL     ow 5917   3.249   5.835   2.906  0.3405  0.2549  0.0888
 1480SOL     hw 5918   3.218   5.801   2.822 -0.7454 -0.4215  0.7349
 1480SOL     hw 5919   3.218   5.925   2.908  0.3236  0.2570 -0.2146
 1480SOL     vw 5920   3.241   5.842   2.895  0.1950  0.1659  0.1340
 1481SOL     ow 5921   0.953   5.614   0.097  0.0910  0.6340  0.2253
 1481SOL     hw 5922   0.985   5.650   0.015  0.4841  0.7982  0.4513
 1481SOL     hw 5923   1.030   5.608   0.153 -0.6648  4.1615  1.9667
 1481SOL     vw 5924   0.967   5.618   0.094  0.0431  1.1213  0.4849
 1482SOL     ow 5925   6.421   6.832   6.075 -0.2976 -0.5187  0.5491
 1482SOL     hw 5926   6.353   6.828   6.008 -0.2443 -0.6742  0.5022
 1482SOL     hw 5927   6.379   6.801   6.155  0.1033 -2.0881  0.1938
 1482SOL     vw 5928   6.407   6.827   6.077 -0.2375 -0.7460  0.4959
 1483SOL     ow 5929   6.112   6.475   2.247  0.1296 -0.7197  0.1164
 1483SOL     hw 5930   6.109   6.381   2.266 -0.5942 -1.0714 -1.5149
 1483SOL     hw 5931   6.111   6.480   2.151  1.8875  0.9315  0.1253
 1483SOL     vw 5932   6.111   6.463   2.237  0.2658 -0.5481 -0.0978
 1484SOL     ow 5933   1.002   2.848   5.949  0.1867 -0.1530 -0.9178
 1484SOL     hw 5934   1.057   2.877   5.877 -2.3090  2.0047 -2.0866
 1484SOL     hw 5935   1.003   2.921   6.011 -0.2610 -0.6582 -0.3018
 1484SOL     vw 5936   1.010   2.861   5.948 -0.2016  0.0651 -0.9906
 1485SOL     ow 5937   5.390   5.859   3.801 -0.3657  0.8836 -0.3236
 1485SOL     hw 5938   5.466   5.887   3.750  0.1965 -1.8657 -1.1352
 1485SOL     hw 5939   5.383   5.765   3.785 -2.3675  0.5711  1.8529
 1485SOL     vw 5940   5.399   5.850   3.792 -0.5558  0.4797 -0.1435
 1486SOL     ow 5941   6.081   2.700   1.594  0.2054 -0.6689 -0.3764
 1486SOL     hw 5942   6.072   2.643   1.670 -0.6995  0.3936  0.3597
 1486SOL     hw 5943   6.171   2.733   1.600  0.3687 -1.1357 -0.1718
 1486SOL     vw 5944   6.092   2.697   1.605  0.1075 -0.5903 -0.2522
 1487SOL     ow 5945   6.723   6.086   3.896 -0.7472 -0.0211  0.0781
 1487SOL     hw 5946   6.773   6.118   3.822  0.5888 -1.2170  0.4129
 1487SOL     hw 5947   6.772   6.115   3.973 -1.5193  0.2686  0.4798
 1487SOL     vw 5948   6.736   6.094   3.897 -0.6726 -0.1407  0.1754
 1488SOL     ow 5949   3.085   0.176   4.470  0.0554 -0.1557 -0.5892
 1488SOL     hw 5950   3.106   0.157   4.378  1.8198  0.1431 -0.2738
 1488SOL     hw 5951   2.990   0.188   4.470 -0.4326 -3.0828 -1.8564
 1488SOL     vw 5952   3.075   0.175   4.458  0.2238 -0.5024 -0.7150
 1489SOL     ow 5953   2.658   4.679   5.555 -0.5050 -0.1301 -0.4962
 1489SOL     hw 5954   2.677   4.690   5.648  0.6051  0.6493 -0.7944
 1489SOL     hw 5955   2.703   4.598   5.531 -1.4178 -0.7385 -0.2069
 1489SOL     vw 5956   2.666   4.670   5.564 -0.4790 -0.1078 -0.4973
 1490SOL     ow 5957   4.347   2.121   0.646 -0.4447  0.3309 -0.4095
 1490SOL     hw 5958   4.283   2.061   0.608 -1.2040  0.4137  0.6859
 1490SOL     hw 5959   4.415   2.063   0.681  0.3384  0.2622 -1.9797
 1490SOL     vw 5960   4.348   2.105   0.646 -0.4418  0.3328 -0.4722
 1491SOL     ow 5961   3.020   0.722   6.670 -0.0051 -0.1940 -0.5108
 1491SOL     hw 5962   2.993   0.750   6.582 -0.0805  1.0291 -0.1241
 1491SOL     hw 5963   3.103   0.677   6.656  0.4188  0.7432 -1.1301
 1491SOL     vw 5964   3.027   0.720   6.656  0.0409  0.0910 -0.5414
 1492SOL     ow 5965   5.886   3.142   3.879 -0.0744  0.0732  0.0572
 1492SOL     hw 5966   5.852   3.056   3.902  0.4284 -0.1775 -0.1272
 1492SOL     hw 5967   5.876   3.146   3.784  0.2868  0.0484  0.0168
 1492SOL     vw 5968   5.880   3.131   3.869  0.0393  0.0368  0.0275
 1493SOL     ow 5969   2.403   6.860   2.103  0.7460  0.1818 -0.1818
 1493SOL     hw 5970   2.334   6.836   2.165  1.3604  1.2041  0.9466
 1493SOL     hw 5971   2.483   6.826   2.142  1.1820  1.0937 -0.2469
 1493SOL     vw 5972   2.404   6.852   2.117  0.8847  0.4370 -0.0415
 1494SOL     ow 5973   3.974   4.656   6.640  0.0758 -0.1467  0.3148
 1494SOL     hw 5974   3.911   4.706   6.589  0.1946 -0.7343 -0.4141
 1494SOL     hw 5975   4.011   4.720   6.701 -0.5235  0.4151  0.0988
 1494SOL     vw 5976   3.971   4.671   6.641  0.0125 -0.1502  0.1903
 1495SOL     ow 5977   4.426   6.781   7.026 -0.0313 -0.5647  0.0973
 1495SOL     hw 5978   4.444   6.722   7.099  0.7442  1.0558  1.2683
 1495SOL     hw 5979   4.332   6.800   7.033 -0.2469 -1.4646 -0.1733
 1495SOL     vw 5980   4.416   6.776   7.037  0.0427 -0.4694  0.2162
 1496SOL     ow 5981   5.732   3.835   5.985  0.4439 -0.0948  0.0464
 1496SOL     hw 5982   5.753   3.759   6.038 -2.8581 -0.7187  0.6342
 1496SOL     hw 5983   5.751   3.910   6.042 -0.6439 -0.6670  1.2058
 1496SOL     vw 5984   5.738   3.835   5.999 -0.1352 -0.2526  0.2768
 1497SOL     ow 5985   4.839   1.552   3.134 -0.0861  0.6435  0.5156
 1497SOL     hw 5986   4.749   1.574   3.159  0.2867  1.3560  1.2857
 1497SOL     hw 5987   4.891   1.625   3.166  0.7081  0.4958 -0.4108
 1497SOL     vw 5988   4.834   1.565   3.141  0.0677  0.7180  0.4950
 1498SOL     ow 5989   0.511   0.111   2.664 -0.2426 -0.8336  0.0909
 1498SOL     hw 5990   0.516   0.022   2.628  2.0887 -0.1947 -1.4317
 1498SOL     hw 5991   0.469   0.162   2.594 -0.1929 -0.4622  0.3333
 1498SOL     vw 5992   0.506   0.106   2.650  0.0715 -0.7003 -0.0780
 1499SOL     ow 5993   5.056   6.104   2.485 -0.2065 -0.1316 -0.2274
 1499SOL     hw 5994   5.144   6.132   2.509 -0.7542  0.4599  1.2251
 1499SOL     hw 5995   5.036   6.033   2.546  0.1209 -1.9209 -2.0915
 1499SOL     vw 5996   5.065   6.098   2.496 -0.2356 -0.2897 -0.2817
 1500SOL     ow 5997   1.064   0.090   4.803 -0.1316  0.1330 -0.7308
 1500SOL     hw 5998   1.074   0.165   4.744 -2.9785  0.7013 -0.5982
 1500SOL     hw 5999   0.971   0.070   4.802  0.0385 -1.2745  1.8853
 1500SOL     vw 6000   1.053   0.097   4.795 -0.4847  0.0223 -0.3686
 1501SOL     ow 6001   3.183   2.844   3.810  0.1367  0.1166  0.4099
 1501SOL     hw 6002   3.199   2.846   3.904 -1.6568  0.4581  0.7525
 1501SOL     hw 6003   3.141   2.928   3.791 -4.8003 -2.0202  0.4419
 1501SOL     vw 6004   3.180   2.856   3.820 -0.7513 -0.1204  0.4592
 1502SOL     ow 6005   2.340   7.088   4.882  0.0108  0.4870 -1.1303
 1502SOL     hw 6006   2.269   7.027   4.903 -1.4743  1.6841 -2.4349
 1502SOL     hw 6007   2.396   7.087   4.959 -0.9123 -1.2032 -0.4252
 1502SOL     vw 6008   2.338   7.080   4.895 -0.3070  0.4220 -1.2095
 1503SOL     ow 6009   0.625   0.945   1.309  0.5344 -0.1490 -0.2232
 1503SOL     hw 6010   0.656   0.855   1.306 -0.2843 -0.4724  0.4371
 1503SOL     hw 6011   0.688   0.991   1.364  1.0648 -0.2716 -0.7250
 1503SOL     vw 6012   0.637   0.939   1.316  0.4964 -0.2079 -0.2022
 1504SOL     ow 6013   6.476   3.446   2.859  0.1524  0.2700 -0.7892
 1504SOL     hw 6014   6.425   3.471   2.783 -1.1617  0.0592  0.0048
 1504SOL     hw 6015   6.463   3.351   2.867 -2.1082  0.6665  1.3325
 1504SOL     vw 6016   6.468   3.437   2.850 -0.3192  0.2946 -0.4045
 1505SOL     ow 6017   1.113   7.093   3.435  0.9441  0.0028  0.4380
 1505SOL     hw 6018   1.086   7.136   3.354 -0.0512  0.0856  0.8025
 1505SOL     hw 6019   1.061   7.012   3.437 -0.1277  0.6810  1.6842
 1505SOL     vw 6020   1.102   7.088   3.425  0.6714  0.1032  0.6505
 1506SOL     ow 6021   6.322   4.841   2.856  0.4726  0.0160  0.1442
 1506SOL     hw 6022   6.276   4.859   2.774 -0.5886 -0.3036  0.6610
 1506SOL     hw 6023   6.413   4.828   2.829  0.1400 -0.0994 -0.9882
 1506SOL     vw 6024   6.328   4.841   2.841  0.2887 -0.0417  0.0631
 1507SOL     ow 6025   3.724   5.829   6.694 -0.6139 -0.2633 -0.7414
 1507SOL     hw 6026   3.793   5.763   6.707  0.2977  0.5286 -1.4073
 1507SOL     hw 6027   3.746   5.870   6.610 -2.0813 -0.1946 -1.1138
 1507SOL     vw 6028   3.736   5.825   6.685 -0.6872 -0.1495 -0.8783
 1508SOL     ow 6029   5.681   2.134   7.084  0.4049 -0.3048  0.3999
 1508SOL     hw 6030   5.724   2.219   7.076 -0.8650  0.4858  1.5841
 1508SOL     hw 6031   5.749   2.076   7.118  1.3990  0.1059 -0.8156
 1508SOL     vw 6032   5.696   2.137   7.087  0.3684 -0.1462  0.3958
 1509SOL     ow 6033   2.348   6.731   1.858 -0.4285  0.6211  0.1656
 1509SOL     hw 6034   2.316   6.754   1.945 -1.1174  0.1110  0.0489
 1509SOL     hw 6035   2.300   6.652   1.834 -1.3958  1.6139 -1.3363
 1509SOL     vw 6036   2.338   6.724   1.866 -0.6469  0.6850 -0.0480
 1510SOL     ow 6037   5.888   5.361   5.249  0.0117  0.3506  0.3128
 1510SOL     hw 6038   5.835   5.284   5.268 -0.4886  0.7362  0.5014
 1510SOL     hw 6039   5.876   5.417   5.326 -1.3318  1.5468 -0.7298
 1510SOL     vw 6040   5.879   5.358   5.262 -0.2315  0.5593  0.2003
 1511SOL     ow 6041   3.571   4.750   4.416  0.8771  0.0849  0.5899
 1511SOL     hw 6042   3.665   4.751   4.395  0.8780  1.5495  0.5894
 1511SOL     hw 6043   3.566   4.705   4.500  1.3377 -1.8842 -0.3788
 1511SOL     vw 6044   3.583   4.744   4.425  0.9379  0.0184  0.4618
 1512SOL     ow 6045   1.770   3.875   1.182  0.3010 -0.0370  0.7702
 1512SOL     hw 6046   1.778   3.868   1.277  0.4134  0.2866  0.7847
 1512SOL     hw 6047   1.677   3.861   1.165  0.5604 -2.0724  0.7514
 1512SOL     vw 6048   1.759   3.872   1.193  0.3501 -0.2627  0.7697
 1513SOL     ow 6049   0.458   4.742   1.974  0.3801 -0.4910 -0.4155
 1513SOL     hw 6050   0.435   4.834   1.986 -0.0779 -0.3140 -2.3161
 1513SOL     hw 6051   0.552   4.743   1.957  0.4577 -0.4336  0.0015
 1513SOL     vw 6052   0.468   4.755   1.974  0.3299 -0.4601 -0.6112
 1514SOL     ow 6053   2.631   1.865   7.239  0.0198 -0.0801  0.3743
 1514SOL     hw 6054   2.707   1.859   7.182 -0.2962 -1.8169  0.0680
 1514SOL     hw 6055   2.577   1.934   7.201  0.7814  0.1943 -0.2248
 1514SOL     vw 6056   2.634   1.873   7.226  0.0786 -0.2731  0.2546
 1515SOL     ow 6057   4.810   0.184   0.108 -0.6202  0.0009  0.1753
 1515SOL     hw 6058   4.893   0.185   0.060  0.4942 -0.3822  2.0108
 1515SOL     hw 6059   4.790   0.092   0.120 -2.2192  0.0444 -1.6425
 1515SOL     vw 6060   4.818   0.172   0.103 -0.6843 -0.0439  0.1776
 1516SOL     ow 6061   3.822   6.721   1.841 -0.4626  0.2914 -0.6500
 1516SOL     hw 6062   3.758   6.669   1.889 -0.2937  0.8456  0.1781
 1516SOL     hw 6063   3.782   6.732   1.754 -1.0246 -0.2223 -0.4698
 1516SOL     vw 6064   3.808   6.715   1.836 -0.5145  0.2968 -0.5169
 1517SOL     ow 6065   2.802   6.561   5.631 -0.5829  0.3692  0.5081
 1517SOL     hw 6066   2.823   6.649   5.600 -1.5888  0.9656  1.4719
 1517SOL     hw 6067   2.874   6.507   5.598  0.4382  1.6714  0.5087
 1517SOL     vw 6068   2.814   6.565   5.622 -0.5808  0.6196  0.6356
 1518SOL     ow 6069   6.714   4.801   4.191  0.4780  0.2851  0.0043
 1518SOL     hw 6070   6.722   4.735   4.260  0.7332  0.3709  0.0583
 1518SOL     hw 6071   6.627   4.838   4.203 -0.0943 -0.7874 -0.6965
 1518SOL     vw 6072   6.704   4.797   4.201  0.4363  0.1547 -0.0808
 1519SOL     ow 6073   1.216   3.671   7.241  0.0257  0.3614 -0.3686
 1519SOL     hw 6074   1.258   3.668   7.327  0.2825 -0.1714 -0.5022
 1519SOL     hw 6075   1.228   3.761   7.211  4.5881 -0.5345 -2.0755
 1519SOL     vw 6076   1.223   3.682   7.249  0.6616  0.1729 -0.6114
 1520SOL     ow 6077   3.713   2.583   4.288  0.0279 -0.7407 -0.1541
 1520SOL     hw 6078   3.638   2.636   4.262  0.2284  0.7948  2.1499
 1520SOL     hw 6079   3.775   2.591   4.215  0.2754  2.7108  0.2886
 1520SOL     vw 6080   3.711   2.591   4.275  0.0870 -0.0829  0.2081
 1521SOL     ow 6081   2.149   6.827   7.026 -0.0328  0.0135 -0.0588
 1521SOL     hw 6082   2.174   6.911   6.988 -1.5215  1.6935  2.3906
 1521SOL     hw 6083   2.054   6.831   7.032 -0.0452 -1.2892  1.2355
 1521SOL     vw 6084   2.140   6.839   7.022 -0.2308  0.0632  0.4349
 1522SOL     ow 6085   3.045   5.831   3.452 -0.1141 -0.3230  0.0414
 1522SOL     hw 6086   3.058   5.880   3.533  0.8007  0.5245 -0.6013
 1522SOL     hw 6087   3.048   5.739   3.479  1.3933 -0.0821  0.8180
 1522SOL     vw 6088   3.047   5.825   3.466  0.2055 -0.1791  0.0590
 1523SOL     ow 6089   0.061   1.055   1.152  0.1840 -0.0381 -0.4404
 1523SOL     hw 6090   0.042   1.104   1.232 -0.0980 -2.1687  0.8776
 1523SOL     hw 6091   0.075   1.123   1.085 -1.0063  1.7922  1.0589
 1523SOL     vw 6092   0.060   1.071   1.153 -0.0102 -0.0777 -0.0687
 1524SOL     ow 6093   0.020   0.048   6.806  0.0373  0.1580 -0.3508
 1524SOL     hw 6094   0.105   0.005   6.813 -0.0140  0.1888  0.5625
 1524SOL     hw 6095   0.039   0.141   6.818  0.1533  0.4433 -2.3642
 1524SOL     vw 6096   0.034   0.054   6.808  0.0458  0.1997 -0.4961
 1525SOL     ow 6097   7.308   2.345   0.417  0.1496 -0.0559 -0.2545
 1525SOL     hw 6098   7.227   2.380   0.456 -0.2822 -0.8765 -0.4016
 1525SOL     hw 6099   7.360   2.423   0.397 -1.3244  0.6174 -1.7669
 1525SOL     vw 6100   7.304   2.360   0.420 -0.1019 -0.0752 -0.4735
 1526SOL     ow 6101   3.208   5.588   1.181  0.2794 -0.2247 -0.3583
 1526SOL     hw 6102   3.301   5.590   1.160  0.3810 -1.1278  0.0003
 1526SOL     hw 6103   3.166   5.631   1.106  0.8834 -0.8164 -1.0518
 1526SOL     vw 6104   3.215   5.594   1.169  0.3724 -0.4220 -0.4025
 1527SOL     ow 6105   7.023   1.579   0.749 -0.0759 -0.1588  0.0232
 1527SOL     hw 6106   7.107   1.569   0.794  0.1617 -1.0452 -0.5785
 1527SOL     hw 6107   7.027   1.516   0.677 -0.5591  1.0346 -1.0722
 1527SOL     vw 6108   7.034   1.569   0.745 -0.1085 -0.1183 -0.2007
 1528SOL     ow 6109   5.801   1.709   0.472 -0.1209  0.3289 -0.6471
 1528SOL     hw 6110   5.750   1.727   0.551 -0.6508 -0.0135 -0.9075
 1528SOL     hw 6111   5.890   1.736   0.494 -0.4153  0.9370 -0.1894
 1528SOL     vw 6112   5.806   1.715   0.485 -0.2294  0.3639 -0.6211
 1529SOL     ow 6113   3.062   5.498   5.396 -0.6991  1.2218 -0.1137
 1529SOL     hw 6114   3.040   5.590   5.383  1.0150  1.3615 -2.9106
 1529SOL     hw 6115   3.011   5.452   5.329 -0.3254  0.3511  0.1881
 1529SOL     vw 6116   3.053   5.504   5.385 -0.4238  1.1253 -0.4427
 1530SOL     ow 6117   4.649   6.811   3.718  0.1479 -0.6290  0.1576
 1530SOL     hw 6118   4.732   6.840   3.757 -0.2740  1.1306 -0.1437
 1530SOL     hw 6119   4.590   6.800   3.792  0.3652 -0.8933  0.2930
 1530SOL     vw 6120   4.652   6.814   3.733  0.1209 -0.4315  0.1357
 1531SOL     ow 6121   5.155   4.301   5.022  0.2863 -0.0683  0.0352
 1531SOL     hw 6122   5.222   4.249   5.068 -1.0741 -0.4343  1.7148
 1531SOL     hw 6123   5.096   4.237   4.984 -0.0285  0.2400 -0.0055
 1531SOL     vw 6124   5.156   4.286   5.023  0.0651 -0.0763  0.2513
 1532SOL     ow 6125   5.075   4.261   1.045 -0.1884  0.2222  0.0457
 1532SOL     hw 6126   5.101   4.227   0.960  0.6791 -1.6601  1.0171
 1532SOL     hw 6127   4.980   4.274   1.038 -0.2214 -0.4814 -0.9997
 1532SOL     vw 6128   5.066   4.258   1.033 -0.0784 -0.1187  0.0359
 1533SOL     ow 6129   5.327   1.483   6.645 -0.0909 -0.2423 -0.1684
 1533SOL     hw 6130   5.411   1.501   6.686  1.0778 -5.6085  0.6291
 1533SOL     hw 6131   5.328   1.532   6.564  3.2053  0.9429  0.4581
 1533SOL     vw 6132   5.338   1.492   6.640  0.4981 -0.7939  0.0196
 1534SOL     ow 6133   2.604   4.943   3.854  0.0914 -0.3181  0.2027
 1534SOL     hw 6134   2.611   5.035   3.877  0.0103 -0.1038 -0.5973
 1534SOL     hw 6135   2.695   4.911   3.856  0.5071  0.4878 -2.2572
 1534SOL     vw 6136   2.617   4.951   3.857  0.1357 -0.1836 -0.2275
 1535SOL     ow 6137   5.398   3.420   3.708  0.6480 -0.3356  0.5150
 1535SOL     hw 6138   5.447   3.457   3.782  0.4930  0.5900  0.1729
 1535SOL     hw 6139   5.329   3.367   3.749  0.8805 -0.2486  1.0255
 1535SOL     vw 6140   5.395   3.418   3.723  0.6583 -0.2019  0.5372
 1536SOL     ow 6141   3.371   1.719   4.242 -0.6082  0.1101 -0.0568
 1536SOL     hw 6142   3.396   1.694   4.331 -1.6385 -1.2109 -0.1052
 1536SOL     hw 6143   3.282   1.753   4.251  0.1535  2.3247 -0.2580
 1536SOL     vw 6144   3.363   1.720   4.255 -0.6437  0.2280 -0.0896
 1537SOL     ow 6145   2.077   1.849   6.730  0.4403  0.4340  0.3449
 1537SOL     hw 6146   2.043   1.849   6.819  0.7655  0.6734  0.4696
 1537SOL     hw 6147   2.154   1.792   6.734  1.9310  2.3845  0.7888
 1537SOL     vw 6148   2.083   1.841   6.742  0.6799  0.7229  0.4196
 1538SOL     ow 6149   5.650   1.451   2.462  0.0905 -0.6837 -0.0863
 1538SOL     hw 6150   5.743   1.438   2.441 -0.2568  1.6036 -3.8069
 1538SOL     hw 6151   5.646   1.438   2.557  4.7230  1.6255  0.7465
 1538SOL     vw 6152   5.662   1.447   2.472  0.6557 -0.0772 -0.4674
 1539SOL     ow 6153   4.603   4.581   4.962  0.9194  0.1238 -0.8200
 1539SOL     hw 6154   4.649   4.497   4.953  1.9223  0.6538 -0.6779
 1539SOL     hw 6155   4.645   4.624   5.036 -0.6191  0.1159  0.1132
 1539SOL     vw 6156   4.615   4.575   4.970  0.8485  0.1929 -0.6781
 1540SOL     ow 6157   5.704   0.089   2.691  0.1871  0.3644 -0.4406
 1540SOL     hw 6158   5.721   0.155   2.758 -0.0624 -0.1744  0.1636
 1540SOL     hw 6159   5.653   0.022   2.736  1.1512 -0.6539 -0.8162
 1540SOL     vw 6160   5.699   0.089   2.706  0.2816  0.1590 -0.4104
 1541SOL     ow 6161   2.589   6.885   6.253 -0.2349 -0.5583 -0.1179
 1541SOL     hw 6162   2.565   6.811   6.198  0.0654 -0.9296  0.2420
 1541SOL     hw 6163   2.509   6.909   6.299  0.2975 -2.6811  2.1389
 1541SOL     vw 6164   2.576   6.879   6.252 -0.1251 -0.8872  0.2272
 1542SOL     ow 6165   7.253   4.432   2.164 -0.6845 -0.2504 -0.1220
 1542SOL     hw 6166   7.322   4.497   2.150 -0.6632 -0.0494  0.8882
 1542SOL     hw 6167   7.276   4.388   2.246 -0.5818 -1.6958 -0.8821
 1542SOL     vw 6168   7.265   4.435   2.173 -0.6680 -0.4146 -0.0889
 1543SOL     ow 6169   3.385   7.180   3.340  0.0451  0.0125 -0.6880
 1543SOL     hw 6170   3.479   7.172   3.325  0.2657 -3.0305  1.4305
 1543SOL     hw 6171   3.347   7.112   3.284 -0.9889  1.4500 -1.7909
 1543SOL     vw 6172   3.392   7.170   3.331 -0.0622 -0.1996 -0.5541
 1544SOL     ow 6173   4.134   4.216   0.208  0.3813  0.0616 -0.0028
 1544SOL     hw 6174   4.072   4.175   0.148 -0.3069  1.9461 -0.6258
 1544SOL     hw 6175   4.092   4.297   0.235  2.2476  1.0133  0.1877
 1544SOL     vw 6176   4.120   4.221   0.204  0.5369  0.4358 -0.0599
 1545SOL     ow 6177   2.032   1.739   3.950 -0.3577 -0.4833 -0.0424
 1545SOL     hw 6178   2.099   1.699   4.006 -2.1759 -1.9024  1.2392
 1545SOL     hw 6179   2.076   1.815   3.911  1.3318  0.0320  2.5655
 1545SOL     vw 6180   2.047   1.744   3.952 -0.3748 -0.6025  0.4706
 1546SOL     ow 6181   3.333   6.261   6.363  0.0736 -1.1356  0.6638
 1546SOL     hw 6182   3.328   6.176   6.318 -0.0489  0.2557 -2.1585
 1546SOL     hw 6183   3.261   6.312   6.327  3.0577  1.8559 -1.7386
 1546SOL     vw 6184   3.323   6.256   6.352  0.4511 -0.5572 -0.0255
 1547SOL     ow 6185   5.048   2.540   1.593  0.8525 -0.1232 -0.3815
 1547SOL     hw 6186   5.007   2.454   1.580  0.0295  0.3120 -0.7397
 1547SOL     hw 6187   5.138   2.528   1.564  1.1064 -1.2016  0.7629
 1547SOL     vw 6188   5.054   2.527   1.588  0.7775 -0.2080 -0.2778
 1548SOL     ow 6189   6.959   4.558   5.824 -0.1408 -0.9812 -0.5727
 1548SOL     hw 6190   6.906   4.550   5.745 -0.6163 -1.1460 -0.2396
 1548SOL     hw 6191   7.049   4.541   5.795 -0.2807 -0.8027 -1.1191
 1548SOL     vw 6192   6.964   4.555   5.810 -0.2217 -0.9792 -0.6008
 1549SOL     ow 6193   1.077   1.851   2.852 -0.1046 -1.0460 -0.2185
 1549SOL     hw 6194   1.141   1.795   2.807  0.5989 -1.3134  1.0604
 1549SOL     hw 6195   1.020   1.789   2.897 -0.3859 -0.7628 -0.1876
 1549SOL     vw 6196   1.078   1.835   2.852 -0.0489 -1.0440 -0.0457
 1550SOL     ow 6197   5.958   0.960   5.917 -0.3399  0.2514  0.2120
 1550SOL     hw 6198   5.911   1.036   5.951 -2.4694 -0.9114  0.0820
 1550SOL     hw 6199   5.973   0.981   5.825  1.8868  1.7407  0.8363
 1550SOL     vw 6200   5.954   0.973   5.909 -0.3269  0.2945  0.2773
 1551SOL     ow 6201   2.690   1.063   4.342  0.2827  0.2077  0.2230
 1551SOL     hw 6202   2.695   0.985   4.287 -0.8013 -0.1934  0.6701
 1551SOL     hw 6203   2.670   1.134   4.281 -0.4213 -0.1551  0.0238
 1551SOL     vw 6204   2.688   1.062   4.327  0.0467  0.1069  0.2556
 1552SOL     ow 6205   4.790   1.551   3.973 -0.2330  0.3939 -0.4381
 1552SOL     hw 6206   4.831   1.577   3.891 -0.3325 -0.4904 -0.7692
 1552SOL     hw 6207   4.714   1.499   3.948 -1.0984  1.3148  0.1922
 1552SOL     vw 6208   4.786   1.548   3.959 -0.3603  0.3987 -0.3986
 1553SOL     ow 6209   0.390   0.430   4.799 -0.0951 -0.1920  0.0066
 1553SOL     hw 6210   0.388   0.519   4.765  0.3466 -0.9530 -2.1207
 1553SOL     hw 6211   0.304   0.418   4.839 -1.1262  0.3727 -1.9248
 1553SOL     vw 6212   0.378   0.440   4.800 -0.1728 -0.2179 -0.5291
 1554SOL     ow 6213   5.873   1.156   0.245  0.0634 -0.0938  0.5157
 1554SOL     hw 6214   5.787   1.173   0.205 -0.7861 -0.9067  1.9016
 1554SOL     hw 6215   5.902   1.074   0.207  0.1744  0.1141  0.1448
 1554SOL     vw 6216   5.865   1.148   0.235 -0.0341 -0.1736  0.6496
 1555SOL     ow 6217   5.710   1.981   4.234 -0.6454 -0.6779  0.0407
 1555SOL     hw 6218   5.739   1.913   4.294  2.8291 -1.3169 -2.1170
 1555SOL     hw 6219   5.751   2.061   4.267  0.3803 -0.8369 -0.7902
 1555SOL     vw 6220   5.719   1.983   4.246 -0.0515 -0.7832 -0.3536
 1556SOL     ow 6221   4.101   2.786   6.391  0.2612  0.2508 -0.2070
 1556SOL     hw 6222   4.150   2.814   6.469 -0.7770 -1.3705  1.1015
 1556SOL     hw 6223   4.051   2.710   6.421 -1.6829  0.7722 -1.9694
 1556SOL     vw 6224   4.101   2.780   6.405 -0.1321  0.1056 -0.2668
 1557SOL     ow 6225   5.525   3.273   1.547  0.8686  0.4018 -0.3173
 1557SOL     hw 6226   5.493   3.211   1.612  2.9175 -0.3582  0.0340
 1557SOL     hw 6227   5.617   3.287   1.570  0.1769  5.0227  0.7679
 1557SOL     vw 6228   5.533   3.267   1.559  1.0476  0.9111 -0.1277
 1558SOL     ow 6229   0.314   0.916   3.667  0.0094 -0.3369 -0.2118
 1558SOL     hw 6230   0.405   0.894   3.645  0.3135  0.0756  0.5843
 1558SOL     hw 6231   0.309   0.904   3.762 -0.5077  0.5531 -0.1170
 1558SOL     vw 6232   0.326   0.912   3.677 -0.0187 -0.1650 -0.0943
 1559SOL     ow 6233   1.021   2.414   6.963  0.7023  0.3638  0.3031
 1559SOL     hw 6234   1.081   2.341   6.948  1.6155  0.9232  1.1617
 1559SOL     hw 6235   1.032   2.437   7.055 -1.1491  0.2167  0.5994
 1559SOL     vw 6236   1.030   2.408   6.973  0.5785  0.4182  0.4554
 1560SOL     ow 6237   0.332   0.096   2.864  0.2901 -0.5854  0.6368
 1560SOL     hw 6238   0.391   0.102   2.789 -0.9878  0.7206 -0.3260
 1560SOL     hw 6239   0.349   0.175   2.915  0.7039 -1.1538  1.3967
 1560SOL     vw 6240   0.342   0.107   2.860  0.1761 -0.4881  0.6100
 1561SOL     ow 6241   0.529   2.834   5.732  0.5708  0.3362  0.3496
 1561SOL     hw 6242   0.488   2.837   5.818 -1.4561  1.8818 -0.5880
 1561SOL     hw 6243   0.463   2.796   5.674  1.9756 -0.8991 -0.5238
 1561SOL     vw 6244   0.515   2.830   5.736  0.4887  0.3772  0.1106
 1562SOL     ow 6245   2.517   6.944   1.751 -0.3866 -0.9906 -0.6107
 1562SOL     hw 6246   2.559   6.998   1.685  0.8573 -0.1225  0.8308
 1562SOL     hw 6247   2.469   7.007   1.806 -0.5079 -1.5636 -0.0504
 1562SOL     vw 6248   2.516   6.960   1.750 -0.2385 -0.9515 -0.3466
 1563SOL     ow 6249   5.500   7.242   4.409  0.7373 -0.3305 -0.1614
 1563SOL     hw 6250   5.576   7.194   4.442 -2.0159 -4.6086  0.7953
 1563SOL     hw 6251   5.489   7.211   4.320 -1.0008 -1.4647  0.4028
 1563SOL     vw 6252   5.509   7.232   4.402  0.1447 -1.0445  0.0389
 1564SOL     ow 6253   4.542   5.416   1.937  0.0110 -0.1204  0.0247
 1564SOL     hw 6254   4.594   5.405   2.017 -0.7003  1.2985  0.7330
 1564SOL     hw 6255   4.591   5.480   1.886 -0.3623  0.2206  0.0899
 1564SOL     vw 6256   4.555   5.423   1.941 -0.1321  0.1118  0.1267
 1565SOL     ow 6257   2.979   3.297   2.800 -0.6853 -0.2997 -0.9467
 1565SOL     hw 6258   2.893   3.256   2.790 -0.0609 -1.6259 -1.0823
 1565SOL     hw 6259   3.040   3.224   2.802  0.3980  0.5963 -0.2841
 1565SOL     vw 6260   2.976   3.282   2.799 -0.4600 -0.3564 -0.8771
 1566SOL     ow 6261   3.818   7.004   1.573 -0.2536 -0.1842 -0.1686
 1566SOL     hw 6262   3.785   6.914   1.569  0.2191 -0.3312 -1.0886
 1566SOL     hw 6263   3.779   7.047   1.496  0.3517  0.1048 -0.3152
 1566SOL     vw 6264   3.808   6.998   1.562 -0.1113 -0.1657 -0.3093
 1567SOL     ow 6265   7.067   1.766   3.427  0.4954  0.5268 -0.6875
 1567SOL     hw 6266   7.123   1.768   3.350  1.8347 -0.9511  0.1828
 1567SOL     hw 6267   6.982   1.735   3.394  0.5428  1.5537 -1.8175
 1567SOL     vw 6268   7.063   1.762   3.412  0.6781  0.4674 -0.7218
 1568SOL     ow 6269   3.412   4.281   5.855  0.0023 -0.1344 -0.4956
 1568SOL     hw 6270   3.383   4.212   5.913  0.6395 -0.5909 -0.7064
 1568SOL     hw 6271   3.361   4.269   5.775  0.6181 -0.8184 -0.7970
 1568SOL     vw 6272   3.402   4.271   5.852  0.1676 -0.2849 -0.5634
 1569SOL     ow 6273   0.495   3.492   0.879  0.5545 -0.1518 -0.0600
 1569SOL     hw 6274   0.490   3.541   0.797 -0.2897 -1.2093 -0.6674
 1569SOL     hw 6275   0.584   3.458   0.882  1.2821  1.7041  0.5670
 1569SOL     vw 6276   0.506   3.494   0.869  0.5391 -0.0464 -0.0574
 1570SOL     ow 6277   5.483   2.870   3.783  0.3169  0.3903 -0.1508
 1570SOL     hw 6278   5.466   2.949   3.835  0.0571  0.8134 -0.8532
 1570SOL     hw 6279   5.398   2.850   3.742  0.6610  0.4362 -0.9023
 1570SOL     vw 6280   5.470   2.878   3.784  0.3278  0.4522 -0.3425
 1571SOL     ow 6281   2.717   3.272   2.903  0.6147  0.4828 -0.1555
 1571SOL     hw 6282   2.713   3.274   2.999  2.4318  1.4740 -0.0508
 1571SOL     hw 6283   2.731   3.363   2.878  0.4441  0.1949 -1.3478
 1571SOL     vw 6284   2.718   3.284   2.912  0.8320  0.5755 -0.2992
 1572SOL     ow 6285   7.085   1.805   6.787 -0.1537  0.2597  0.6494
 1572SOL     hw 6286   7.146   1.874   6.760 -0.7520  0.1695 -1.0302
 1572SOL     hw 6287   7.042   1.778   6.707 -1.3758 -0.7000  1.5858
 1572SOL     vw 6288   7.087   1.811   6.773 -0.3936  0.1212  0.5512
 1573SOL     ow 6289   5.370   4.211   5.875  0.0062 -0.3058 -0.1995
 1573SOL     hw 6290   5.358   4.260   5.956  2.1378  0.1351 -0.0954
 1573SOL     hw 6291   5.352   4.275   5.805 -0.1514 -0.2182 -0.0800
 1573SOL     vw 6292   5.366   4.226   5.876  0.2668 -0.2360 -0.1698
 1574SOL     ow 6293   5.563   4.322   0.317  0.0822 -0.0724  0.8414
 1574SOL     hw 6294   5.476   4.327   0.357 -0.0321 -0.3486  0.6342
 1574SOL     hw 6295   5.609   4.400   0.349 -0.4401  0.3907  0.4719
 1574SOL     vw 6296   5.558   4.333   0.327 -0.0017 -0.0479  0.7653
 1575SOL     ow 6297   3.574   5.821   5.809  0.1416  0.0630 -0.8829
 1575SOL     hw 6298   3.531   5.736   5.801 -0.4342  0.3754 -1.1599
 1575SOL     hw 6299   3.624   5.815   5.891  0.2438 -0.5969 -0.9919
 1575SOL     vw 6300   3.575   5.809   5.819  0.0792  0.0174 -0.9339
 1576SOL     ow 6301   4.358   0.958   0.567 -0.2010  0.6576 -0.0522
 1576SOL     hw 6302   4.359   0.863   0.582  1.0571  0.8265  1.1302
 1576SOL     hw 6303   4.376   0.996   0.653  0.7921  1.9324 -0.7880
 1576SOL     vw 6304   4.361   0.950   0.580  0.0961  0.8481  0.0067
 1577SOL     ow 6305   5.858   7.299   4.707 -0.2697 -0.1524  0.0819
 1577SOL     hw 6306   5.795   7.253   4.652 -1.2642  1.1417  0.0696
 1577SOL     hw 6307   5.859   7.389   4.672  1.8871 -0.1997 -0.1664
 1577SOL     vw 6308   5.850   7.305   4.695 -0.1163  0.0124  0.0474
 1578SOL     ow 6309   3.234   5.880   1.823 -0.2608  0.2690  0.1036
 1578SOL     hw 6310   3.190   5.796   1.812  0.9245 -0.6522  1.8422
 1578SOL     hw 6311   3.275   5.874   1.910  0.0544  2.5567  0.1731
 1578SOL     vw 6312   3.234   5.868   1.833 -0.0629  0.4492  0.3421
 1579SOL     ow 6313   4.802   6.882   5.628 -0.2838  0.2391  0.1556
 1579SOL     hw 6314   4.742   6.953   5.653 -1.7234 -1.3246  1.4150
 1579SOL     hw 6315   4.744   6.809   5.608  1.1920 -0.9372  0.0532
 1579SOL     vw 6316   4.786   6.882   5.629 -0.2792 -0.1223  0.3085
 1580SOL     ow 6317   2.740   2.525   3.654  0.0389 -0.0002  0.2888
 1580SOL     hw 6318   2.754   2.471   3.576  0.6914  0.3810  0.1287
 1580SOL     hw 6319   2.775   2.611   3.630  0.7635 -0.0278  1.1912
 1580SOL     vw 6320   2.746   2.529   3.641  0.2207  0.0465  0.3866
 1581SOL     ow 6321   1.396   3.123   4.663  1.0849  0.1134  0.8443
 1581SOL     hw 6322   1.402   3.064   4.588 -0.5295 -0.2413  0.9780
 1581SOL     hw 6323   1.427   3.207   4.629  0.5130 -0.0791 -0.1831
 1581SOL     vw 6324   1.401   3.126   4.648  0.7964  0.0412  0.7265
 1582SOL     ow 6325   6.046   6.554   1.226 -0.2898  0.0428 -0.2339
 1582SOL     hw 6326   6.120   6.496   1.210 -1.2706 -1.0009 -1.0950
 1582SOL     hw 6327   6.051   6.575   1.320  1.2444  0.2361 -0.3439
 1582SOL     vw 6328   6.056   6.549   1.236 -0.2170 -0.0696 -0.3620
 1583SOL     ow 6329   3.119   7.223   3.435  0.2466 -0.2054  0.0796
 1583SOL     hw 6330   3.080   7.193   3.517  0.5543 -1.1288 -0.1017
 1583SOL     hw 6331   3.050   7.214   3.370 -0.3488  1.5565  0.4131
 1583SOL     vw 6332   3.105   7.218   3.437  0.2085 -0.0948  0.0997
 1584SOL     ow 6333   6.071   4.885   2.247 -0.5811  0.0688  0.2244
 1584SOL     hw 6334   6.020   4.904   2.168 -1.0122  0.0647  0.4983
 1584SOL     hw 6335   6.012   4.908   2.319  0.1288  0.9112  0.5430
 1584SOL     vw 6336   6.056   4.891   2.246 -0.5443  0.1795  0.3024
 1585SOL     ow 6337   1.183   6.254   1.986  0.3746 -1.0172  0.0638
 1585SOL     hw 6338   1.244   6.314   1.944 -0.0421 -2.0490 -2.1664
 1585SOL     hw 6339   1.159   6.297   2.068 -0.1889  2.0354 -1.5752
 1585SOL     vw 6340   1.188   6.268   1.991  0.2453 -0.7508 -0.4467
 1586SOL     ow 6341   3.334   1.994   5.929  0.5939  0.0531  0.3854
 1586SOL     hw 6342   3.246   1.959   5.945  0.2281 -0.1598 -1.7551
 1586SOL     hw 6343   3.328   2.087   5.954  0.5682 -0.5223  2.7497
 1586SOL     vw 6344   3.321   2.002   5.935  0.5420 -0.0509  0.4151
 1587SOL     ow 6345   2.339   6.451   6.119  0.4521  0.3588  0.5437
 1587SOL     hw 6346   2.322   6.360   6.141 -1.2041  0.4178 -0.3457
 1587SOL     hw 6347   2.270   6.474   6.057  1.9672  1.6623 -0.7277
 1587SOL     vw 6348   2.328   6.442   6.114  0.4334  0.5386  0.2584
 1588SOL     ow 6349   5.241   5.544   4.106 -0.4377 -0.3906  0.5961
 1588SOL     hw 6350   5.331   5.571   4.088  0.0524 -3.0066 -1.4124
 1588SOL     hw 6351   5.188   5.589   4.040 -0.1975 -1.0831 -0.0723
 1588SOL     vw 6352   5.246   5.553   4.095 -0.3414 -0.8273  0.2429
 1589SOL     ow 6353   1.556   3.868   5.003 -0.2093  0.2290  0.6975
 1589SOL     hw 6354   1.467   3.835   4.994 -0.5201  0.8186  1.5149
 1589SOL     hw 6355   1.546   3.958   5.035  0.5701  1.4451 -2.1095
 1589SOL     vw 6356   1.543   3.876   5.006 -0.1475  0.4672  0.4351
 1590SOL     ow 6357   0.746   2.630   1.524  0.7000  0.6488  0.1693
 1590SOL     hw 6358   0.661   2.651   1.563  1.1081 -0.5915  1.8520
 1590SOL     hw 6359   0.746   2.677   1.440 -2.1308 -0.2839 -0.4832
 1590SOL     vw 6360   0.735   2.639   1.518  0.3804  0.3619  0.3053
 1591SOL     ow 6361   5.386   6.337   1.739  0.3836  0.8593  0.7355
 1591SOL     hw 6362   5.436   6.412   1.709  0.9649  0.2424  0.1302
 1591SOL     hw 6363   5.296   6.369   1.746  0.4317  1.3172 -0.6016
 1591SOL     vw 6364   5.381   6.351   1.736  0.4666  0.8385  0.4792
 1592SOL     ow 6365   1.554   0.945   6.720  0.2501 -0.1475 -0.0294
 1592SOL     hw 6366   1.556   0.856   6.755  1.1447 -0.0231  0.2826
 1592SOL     hw 6367   1.563   0.934   6.625 -3.0768 -0.5301 -0.3975
 1592SOL     vw 6368   1.556   0.932   6.712 -0.0708 -0.1816 -0.0370
 1593SOL     ow 6369   3.631   5.028   2.424  0.4643  0.2685 -1.0276
 1593SOL     hw 6370   3.628   4.948   2.477 -0.2175  0.1512 -1.2223
 1593SOL     hw 6371   3.689   5.087   2.472  0.8220 -0.2759 -0.7823
 1593SOL     vw 6372   3.638   5.025   2.438  0.4216  0.1810 -1.0209
 1594SOL     ow 6373   4.963   1.071   1.819 -0.2237 -0.2491 -0.6149
 1594SOL     hw 6374   5.008   1.143   1.862 -1.2899  0.6834 -1.0050
 1594SOL     hw 6375   4.929   1.018   1.892  0.3260 -0.2036 -0.3233
 1594SOL     vw 6376   4.964   1.073   1.835 -0.2918 -0.1200 -0.6279
 1595SOL     ow 6377   2.368   4.136   1.518  0.7181 -0.2494 -0.3552
 1595SOL     hw 6378   2.413   4.197   1.460  0.9246 -1.3860 -1.4204
 1595SOL     hw 6379   2.295   4.186   1.554  1.5216  0.9472 -0.3311
 1595SOL     vw 6380   2.365   4.151   1.515  0.8513 -0.2415 -0.4926
 1596SOL     ow 6381   0.875   0.516   7.009  0.3408 -0.4308  0.0287
 1596SOL     hw 6382   0.881   0.561   7.093 -1.7619 -0.1649  0.1066
 1596SOL     hw 6383   0.931   0.566   6.950 -1.1054  1.7071  0.3668
 1596SOL     vw 6384   0.883   0.528   7.012 -0.1274 -0.1136  0.0837
 1597SOL     ow 6385   4.977   1.073   6.950  0.4693  0.1424 -0.0734
 1597SOL     hw 6386   5.004   1.165   6.942  1.9887 -0.4263 -2.5040
 1597SOL     hw 6387   5.025   1.042   7.027  1.1036  1.0092 -0.0926
 1597SOL     vw 6388   4.987   1.081   6.959  0.7532  0.1817 -0.3970
 1598SOL     ow 6389   3.842   0.206   4.663 -0.1572 -0.1896 -0.2189
 1598SOL     hw 6390   3.844   0.288   4.613 -3.6135  0.4724  0.4774
 1598SOL     hw 6391   3.892   0.145   4.609  2.9416  2.3552 -0.5641
 1598SOL     vw 6392   3.849   0.209   4.649 -0.2044  0.2335 -0.1724
 1599SOL     ow 6393   5.574   1.780   4.681  0.2523  0.0658  0.2231
 1599SOL     hw 6394   5.644   1.845   4.674 -0.7444  1.0636 -0.7297
 1599SOL     hw 6395   5.500   1.818   4.633 -0.0530 -2.1599 -1.2416
 1599SOL     vw 6396   5.574   1.793   4.673  0.0806 -0.0962 -0.0958
 1600SOL     ow 6397   1.840   6.761   6.581  0.0246 -0.2080 -0.0065
 1600SOL     hw 6398   1.858   6.855   6.581  0.1691 -0.2309  0.6267
 1600SOL     hw 6399   1.757   6.752   6.629  0.6233 -0.5097  0.9852
 1600SOL     vw 6400   1.831   6.772   6.587  0.1227 -0.2508  0.2081
 1601SOL     ow 6401   0.676   3.852   5.071  0.1005  0.3207  0.2816
 1601SOL     hw 6402   0.613   3.798   5.119 -0.2806  0.3207 -0.2078
 1601SOL     hw 6403   0.625   3.928   5.042  0.3691  0.4032  0.0221
 1601SOL     vw 6404   0.661   3.855   5.074  0.0856  0.3316  0.1831
 1602SOL     ow 6405   3.767   3.743   5.863  0.5626  0.1225  0.7255
 1602SOL     hw 6406   3.807   3.699   5.939  1.2501 -0.4558  0.0447
 1602SOL     hw 6407   3.719   3.673   5.819  1.4064  0.1049 -0.1978
 1602SOL     vw 6408   3.766   3.728   5.867  0.7645  0.0440  0.5140
 1603SOL     ow 6409   2.418   3.933   3.883 -0.5289 -0.3006  0.2132
 1603SOL     hw 6410   2.368   3.859   3.916  0.1054 -1.8537 -2.0401
 1603SOL     hw 6411   2.416   3.923   3.788 -0.2885  2.5303 -0.1874
 1603SOL     vw 6412   2.411   3.922   3.875 -0.4135 -0.1321 -0.1370
 1604SOL     ow 6413   2.057   5.934   4.389  0.6663 -0.2371  0.1482
 1604SOL     hw 6414   2.014   5.942   4.475  0.5515 -0.6105  0.1267
 1604SOL     hw 6415   2.134   5.880   4.407  0.5726 -0.4222 -0.0071
 1604SOL     vw 6416   2.062   5.928   4.403  0.6387 -0.3107  0.1249
 1605SOL     ow 6417   0.655   0.205   4.428  0.5086 -0.3516 -0.3398
 1605SOL     hw 6418   0.638   0.126   4.480  1.3482 -1.2451 -1.3722
 1605SOL     hw 6419   0.718   0.177   4.362  0.2083  0.9947 -1.2408
 1605SOL     vw 6420   0.661   0.191   4.427  0.5797 -0.2918 -0.5946
 1606SOL     ow 6421   6.353   3.787   0.469  0.1620  0.0609 -0.1230
 1606SOL     hw 6422   6.313   3.821   0.549  0.7086 -0.8974  0.5719
 1606SOL     hw 6423   6.403   3.861   0.435 -0.1967  0.5252  0.3359
 1606SOL     vw 6424   6.354   3.802   0.475  0.1869 -0.0042  0.0292
 1607SOL     ow 6425   7.071   3.808   6.804  0.6487  0.2604 -0.3251
 1607SOL     hw 6426   7.049   3.892   6.845 -0.3273 -0.3054  0.3707
 1607SOL     hw 6427   7.131   3.766   6.865 -0.6908 -0.5208  0.4941
 1607SOL     vw 6428   7.076   3.814   6.817  0.3431  0.0825 -0.1252
 1608SOL     ow 6429   6.262   6.020   0.495 -0.1270  0.3711  0.0348
 1608SOL     hw 6430   6.308   6.074   0.558  2.6179 -2.2804  0.5218
 1608SOL     hw 6431   6.297   6.047   0.410  0.5727  0.0051  0.1988
 1608SOL     vw 6432   6.273   6.030   0.492  0.3273 -0.0267  0.1207
 1609SOL     ow 6433   1.118   6.272   0.700 -0.2592 -0.0353  0.0116
 1609SOL     hw 6434   1.155   6.191   0.666 -3.0521 -0.2389 -2.9819
 1609SOL     hw 6435   1.026   6.253   0.716 -0.4637  1.9204  1.6347
 1609SOL     vw 6436   1.111   6.259   0.697 -0.6547  0.1960 -0.1692
 1610SOL     ow 6437   1.051   4.353   1.668 -0.2068  0.2346  0.8883
 1610SOL     hw 6438   1.099   4.270   1.668 -1.9039 -0.8069 -0.2843
 1610SOL     hw 6439   1.022   4.364   1.759  1.7413  0.6291  1.5069
 1610SOL     vw 6440   1.054   4.343   1.680 -0.1736  0.1488  0.8153
 1611SOL     ow 6441   0.869   6.721   5.938  0.1991  0.1386  0.3182
 1611SOL     hw 6442   0.895   6.797   5.886  0.8781  0.8946  1.7126
 1611SOL     hw 6443   0.932   6.653   5.914  0.6129  0.5282  0.2906
 1611SOL     vw 6444   0.880   6.722   5.928  0.3433  0.2897  0.4985
 1612SOL     ow 6445   2.714   3.744   4.961 -0.0063 -0.1987  1.0023
 1612SOL     hw 6446   2.635   3.780   4.921  0.6468 -0.1059 -0.2707
 1612SOL     hw 6447   2.763   3.821   4.989  0.7449 -0.1066 -0.4543
 1612SOL     vw 6448   2.710   3.759   4.960  0.1789 -0.1743  0.6423
 1613SOL     ow 6449   0.122   2.615   5.356  0.0336 -0.4482 -0.6321
 1613SOL     hw 6450   0.065   2.608   5.433  0.7026 -0.9752 -0.1767
 1613SOL     hw 6451   0.203   2.571   5.382  1.3302  1.8050 -0.6368
 1613SOL     vw 6452   0.125   2.608   5.370  0.2929 -0.2203 -0.5724
 1614SOL     ow 6453   6.075   1.340   0.196 -0.1651  0.1344 -0.0124
 1614SOL     hw 6454   6.012   1.277   0.230 -0.3011  0.6961  0.8181
 1614SOL     hw 6455   6.029   1.385   0.125 -1.4518  1.8426  1.7751
 1614SOL     vw 6456   6.061   1.338   0.191 -0.3529  0.4339  0.3330
 1615SOL     ow 6457   2.724   5.137   3.520  0.4143  0.2442 -0.5122
 1615SOL     hw 6458   2.743   5.217   3.568  1.8599 -0.6615  0.5226
 1615SOL     hw 6459   2.657   5.093   3.572  0.8067  0.0260 -0.1847
 1615SOL     vw 6460   2.718   5.142   3.533  0.6567  0.0961 -0.3325
 1616SOL     ow 6461   4.828   2.789   3.969  0.0360 -0.1606  0.0221
 1616SOL     hw 6462   4.913   2.818   3.936  1.5399  0.3990  3.8582
 1616SOL     hw 6463   4.770   2.864   3.955  1.1090  0.7726  0.4814
 1616SOL     vw 6464   4.832   2.803   3.963  0.3760  0.0364  0.5888
 1617SOL     ow 6465   0.085   2.744   4.388  0.1351  0.5802  0.6068
 1617SOL     hw 6466   0.074   2.774   4.298  0.4894  0.7912  0.6304
 1617SOL     hw 6467   0.001   2.762   4.430 -0.1810  0.0555  0.1966
 1617SOL     vw 6468   0.073   2.751   4.382  0.1401  0.5389  0.5558
 1618SOL     ow 6469   1.122   1.192   6.539  0.4193  0.3482  0.0636
 1618SOL     hw 6470   1.031   1.205   6.513  0.6227  1.0453 -0.3208
 1618SOL     hw 6471   1.124   1.104   6.577 -0.2197 -0.0370 -0.7809
 1618SOL     vw 6472   1.111   1.182   6.541  0.3618  0.3894 -0.0987
 1619SOL     ow 6473   6.000   0.239   1.268 -0.0266 -0.4187  0.3151
 1619SOL     hw 6474   6.039   0.228   1.355 -1.0669  0.6059  0.9395
 1619SOL     hw 6475   6.070   0.277   1.215 -0.0066  1.0115  1.3043
 1619SOL     vw 6476   6.014   0.242   1.272 -0.1612 -0.0948  0.5280
 1620SOL     ow 6477   0.352   0.987   2.778  0.3312  0.4671 -0.4032
 1620SOL     hw 6478   0.385   1.076   2.786 -1.2834  1.1310 -0.6338
 1620SOL     hw 6479   0.430   0.933   2.767  1.2815  2.0454 -1.9844
 1620SOL     vw 6480   0.366   0.991   2.777  0.2435  0.7629 -0.6423
 1621SOL     ow 6481   5.833   2.495   3.857 -0.4021 -0.2437 -0.0182
 1621SOL     hw 6482   5.786   2.571   3.823 -0.1676 -0.3141 -0.5033
 1621SOL     hw 6483   5.804   2.422   3.803 -0.8463 -0.5593  0.6339
 1621SOL     vw 6484   5.823   2.495   3.845 -0.4299 -0.2946  0.0038
 1622SOL     ow 6485   7.270   1.516   6.199  0.9708 -0.4135  0.0315
 1622SOL     hw 6486   7.332   1.475   6.139  1.2513 -1.0534  0.7386
 1622SOL     hw 6487   7.318   1.523   6.282  0.4462  0.0466  0.2993
 1622SOL     vw 6488   7.285   1.512   6.202  0.9386 -0.4373  0.1605
 1623SOL     ow 6489   7.008   5.293   2.732 -0.0272  0.4804 -0.3353
 1623SOL     hw 6490   7.056   5.219   2.770 -0.7288  0.0327 -0.2955
 1623SOL     hw 6491   6.940   5.313   2.796  2.0734  3.2871  1.2168
 1623SOL     vw 6492   7.005   5.286   2.745  0.1574  0.7915 -0.1253
 1624SOL     ow 6493   2.375   6.039   3.759  1.0505 -0.1755 -0.4709
 1624SOL     hw 6494   2.407   6.064   3.672 -0.1176  0.3226 -0.7806
 1624SOL     hw 6495   2.425   6.093   3.819  1.0194  0.3748 -0.9239
 1624SOL     vw 6496   2.386   6.050   3.755  0.8922 -0.0374 -0.5716
 1625SOL     ow 6497   1.756   5.480   4.306  0.1449 -0.1237  0.6648
 1625SOL     hw 6498   1.692   5.410   4.321  1.2558 -0.8828  2.1593
 1625SOL     hw 6499   1.799   5.456   4.224  0.5534 -1.2566  1.1892
 1625SOL     vw 6500   1.753   5.467   4.298  0.3453 -0.3734  0.9310
 1626SOL     ow 6501   4.865   6.913   4.052 -0.2268 -0.1906  0.1136
 1626SOL     hw 6502   4.843   6.906   3.959 -0.1805  0.0772  0.0838
 1626SOL     hw 6503   4.792   6.868   4.096 -1.8800  2.3113  0.1310
 1626SOL     vw 6504   4.852   6.906   4.045 -0.4392  0.1748  0.1121
 1627SOL     ow 6505   3.686   1.931   6.695 -0.3789 -0.4079  0.1982
 1627SOL     hw 6506   3.681   1.966   6.605 -1.1977  0.8959  0.7165
 1627SOL     hw 6507   3.594   1.927   6.723 -0.1374 -1.0056  0.9151
 1627SOL     vw 6508   3.673   1.935   6.687 -0.4550 -0.3147  0.3614
 1628SOL     ow 6509   3.311   4.905   3.720 -0.2093 -0.0679  0.5986
 1628SOL     hw 6510   3.217   4.890   3.735 -1.0046  2.1414 -1.4522
 1628SOL     hw 6511   3.340   4.955   3.797 -0.4674 -1.4477  1.6302
 1628SOL     vw 6512   3.302   4.910   3.732 -0.3483  0.0415  0.4641
 1629SOL     ow 6513   2.649   5.664   6.135  0.1167 -0.3054 -0.1152
 1629SOL     hw 6514   2.620   5.715   6.211 -1.6514  0.8723 -1.4922
 1629SOL     hw 6515   2.744   5.676   6.133 -0.1228  2.4207  0.0705
 1629SOL     vw 6516   2.658   5.672   6.144 -0.1482  0.2096 -0.2723
 1630SOL     ow 6517   5.317   4.585   6.275 -0.0287  0.7672 -0.5429
 1630SOL     hw 6518   5.223   4.600   6.282 -0.6090 -1.4104 -2.4895
 1630SOL     hw 6519   5.340   4.542   6.358 -0.7813  1.1836 -0.1116
 1630SOL     vw 6520   5.308   4.581   6.287 -0.2043  0.5348 -0.7429
 1631SOL     ow 6521   0.565   0.433   5.015  0.1818  0.3099  0.0039
 1631SOL     hw 6522   0.623   0.510   5.017  0.6682 -0.0457 -0.1160
 1631SOL     hw 6523   0.502   0.453   4.946  0.2351  0.6525  0.0512
 1631SOL     vw 6524   0.565   0.446   5.006  0.2530  0.3082 -0.0057
 1632SOL     ow 6525   1.756   5.097   7.247 -0.0348  0.3991 -0.3825
 1632SOL     hw 6526   1.663   5.089   7.266 -0.2076 -0.8654 -1.7008
 1632SOL     hw 6527   1.795   5.121   7.332 -1.4710  0.4369  0.2955
 1632SOL     vw 6528   1.749   5.099   7.261 -0.2471  0.2372 -0.4670
 1633SOL     ow 6529   3.923   6.192   3.506 -0.2802  0.0761 -0.2434
 1633SOL     hw 6530   3.906   6.283   3.480  1.2871  0.1552 -1.0890
 1633SOL     hw 6531   3.876   6.140   3.441  1.3832  0.2932 -1.6836
 1633SOL     vw 6532   3.915   6.197   3.494  0.1459  0.1152 -0.5450
 1634SOL     ow 6533   2.174   1.157   6.326 -0.3453 -0.2254 -0.1187
 1634SOL     hw 6534   2.270   1.148   6.322 -0.5241 -2.2157 -1.3294
 1634SOL     hw 6535   2.156   1.233   6.270  0.5192  0.3876  0.3906
 1634SOL     vw 6536   2.185   1.166   6.318 -0.2550 -0.4071 -0.2112
 1635SOL     ow 6537   1.958   2.986   4.060  0.0001 -0.0973  0.5024
 1635SOL     hw 6538   2.026   3.041   4.022 -0.9616 -0.2069 -1.5318
 1635SOL     hw 6539   1.976   2.898   4.026 -1.2212 -0.0936 -0.2174
 1635SOL     vw 6540   1.969   2.982   4.051 -0.2879 -0.1113  0.1388
 1636SOL     ow 6541   3.193   1.539   6.087  0.3006 -0.7192  0.0825
 1636SOL     hw 6542   3.285   1.523   6.109  0.6754  0.4047 -0.6070
 1636SOL     hw 6543   3.156   1.574   6.168  0.7095 -0.3182  0.1020
 1636SOL     vw 6544   3.200   1.542   6.101  0.4039 -0.5180 -0.0057
 1637SOL     ow 6545   6.023   1.052   4.390 -0.3907 -0.2136  0.0822
 1637SOL     hw 6546   6.101   1.079   4.438  0.1167 -0.6584 -0.4744
 1637SOL     hw 6547   5.981   1.134   4.364 -0.5240  0.0269  1.0406
 1637SOL     vw 6548   6.028   1.067   4.393 -0.3414 -0.2404  0.1352
 1638SOL     ow 6549   0.405   2.618   2.728  0.1260  0.1370 -0.0819
 1638SOL     hw 6550   0.466   2.599   2.657  0.0196 -2.5783  0.4280
 1638SOL     hw 6551   0.443   2.576   2.805 -0.7600  1.2667  1.0246
 1638SOL     vw 6552   0.418   2.610   2.729 -0.0050 -0.0722  0.1312
 1639SOL     ow 6553   0.225   5.164   5.108  0.1517 -0.1274 -0.4442
 1639SOL     hw 6554   0.248   5.089   5.053  1.8281 -0.1814  0.2931
 1639SOL     hw 6555   0.238   5.240   5.051 -0.1637 -0.2954 -0.7498
 1639SOL     vw 6556   0.229   5.164   5.093  0.3313 -0.1566 -0.3874
 1640SOL     ow 6557   4.463   3.970   1.526 -0.3483  0.5266 -0.4104
 1640SOL     hw 6558   4.498   4.056   1.549  0.4913 -0.0153  0.4156
 1640SOL     hw 6559   4.436   3.932   1.609 -1.9266  0.4768 -0.9104
 1640SOL     vw 6560   4.464   3.976   1.540 -0.4458  0.4486 -0.3675
 1641SOL     ow 6561   4.257   6.769   3.459  0.6307 -0.1410  0.2618
 1641SOL     hw 6562   4.164   6.787   3.445  0.8765  0.8487 -0.1793
 1641SOL     hw 6563   4.259   6.691   3.515 -0.4914  0.8922  1.8041
 1641SOL     vw 6564   4.245   6.761   3.464  0.5147  0.1261  0.4071
 1642SOL     ow 6565   3.461   7.182   5.061 -0.4886  0.3403  0.1879
 1642SOL     hw 6566   3.433   7.093   5.040 -1.3751  0.4400  0.8367
 1642SOL     hw 6567   3.536   7.198   5.005 -0.2436 -0.8603  0.1394
 1642SOL     vw 6568   3.467   7.172   5.051 -0.5733  0.1953  0.2670
 1643SOL     ow 6569   6.212   6.156   4.544 -0.3345 -0.1703  0.2055
 1643SOL     hw 6570   6.166   6.228   4.586 -3.1843 -2.2450  0.9376
 1643SOL     hw 6571   6.172   6.148   4.458 -1.2596 -1.8713  0.7587
 1643SOL     vw 6572   6.201   6.164   4.539 -0.8326 -0.6685  0.3750
 1644SOL     ow 6573   3.687   5.878   1.639 -0.8221  0.2875  0.4536
 1644SOL     hw 6574   3.624   5.860   1.569 -0.8641  0.4717  0.4439
 1644SOL     hw 6575   3.725   5.793   1.660  0.0046  0.3838 -0.5645
 1644SOL     vw 6576   3.684   5.865   1.633 -0.7186  0.3245  0.3181
 1645SOL     ow 6577   6.895   4.487   3.718  0.4788 -0.0886 -0.2003
 1645SOL     hw 6578   6.981   4.447   3.705  0.9166  0.6524  0.3661
 1645SOL     hw 6579   6.884   4.544   3.642 -1.6781 -3.7452 -2.9881
 1645SOL     vw 6580   6.905   4.489   3.706  0.2518 -0.4735 -0.4935
 1646SOL     ow 6581   6.074   5.235   1.828  0.1188  0.0886  0.2903
 1646SOL     hw 6582   6.070   5.271   1.917  0.8452 -0.9409  0.7528
 1646SOL     hw 6583   6.101   5.144   1.840 -3.7627 -1.3746 -0.6784
 1646SOL     vw 6584   6.077   5.228   1.841 -0.2973 -0.2403  0.2235
 1647SOL     ow 6585   3.928   3.020   4.966  0.0557 -0.1063 -0.0529
 1647SOL     hw 6586   3.984   2.942   4.961 -0.5582 -0.7652  2.2658
 1647SOL     hw 6587   3.844   2.988   4.998  0.0718  1.6014  1.8856
 1647SOL     vw 6588   3.924   3.005   4.970 -0.0231  0.0321  0.5090
 1648SOL     ow 6589   2.295   0.276   0.722  0.0714 -0.5344  0.8734
 1648SOL     hw 6590   2.348   0.232   0.655 -2.2358  1.0285 -2.2329
 1648SOL     hw 6591   2.316   0.369   0.713 -3.7684  0.3518 -1.4325
 1648SOL     vw 6592   2.305   0.282   0.712 -0.7396 -0.2112  0.1593
 1649SOL     ow 6593   1.666   6.133   6.732 -0.3662  0.1631  0.2799
 1649SOL     hw 6594   1.598   6.145   6.666  1.6284 -0.0326 -1.9583
 1649SOL     hw 6595   1.674   6.218   6.774 -0.2792  0.9281 -1.2231
 1649SOL     vw 6596   1.658   6.146   6.729 -0.0915  0.2379 -0.2136
 1650SOL     ow 6597   3.841   3.885   6.240  0.0832 -0.2474  0.2321
 1650SOL     hw 6598   3.826   3.824   6.312  1.4864 -0.8439  0.0515
 1650SOL     hw 6599   3.759   3.933   6.232  0.0654  0.2100  2.5634
 1650SOL     vw 6600   3.828   3.883   6.249  0.2660 -0.2656  0.5157
 1651SOL     ow 6601   5.723   2.396   4.127 -0.4249  0.3033 -0.1403
 1651SOL     hw 6602   5.746   2.346   4.205  1.0553  2.5678  0.9550
 1651SOL     hw 6603   5.637   2.433   4.147 -0.5423  0.0081 -0.0791
 1651SOL     vw 6604   5.714   2.394   4.140 -0.2449  0.5631  0.0122
 1652SOL     ow 6605   6.068   7.042   4.576 -0.0954 -0.2805 -0.4922
 1652SOL     hw 6606   6.148   6.991   4.561 -0.0188 -0.4661  0.4643
 1652SOL     hw 6607   6.003   7.002   4.518  0.2054 -0.8727 -0.4332
 1652SOL     vw 6608   6.070   7.030   4.567 -0.0455 -0.3829 -0.3583
 1653SOL     ow 6609   3.632   2.138   2.126 -0.1281  0.5997 -0.8326
 1653SOL     hw 6610   3.647   2.212   2.067  0.5717  1.1187 -0.0248
 1653SOL     hw 6611   3.547   2.103   2.099 -0.5225  1.7651 -1.1694
 1653SOL     vw 6612   3.623   2.143   2.115 -0.0877  0.8221 -0.7704
 1654SOL     ow 6613   2.204   6.412   0.833  0.4518  0.2626  0.3679
 1654SOL     hw 6614   2.257   6.491   0.823  0.2541  0.0843 -3.5326
 1654SOL     hw 6615   2.122   6.432   0.788 -0.1012 -1.7339  0.3929
 1654SOL     vw 6616   2.200   6.425   0.826  0.3529 -0.0243 -0.1434
 1655SOL     ow 6617   3.001   2.903   5.274  0.2890  0.3131  0.2110
 1655SOL     hw 6618   2.927   2.950   5.235 -1.3776 -1.1688  1.3824
 1655SOL     hw 6619   3.006   2.936   5.364  0.0043 -0.6914  0.6122
 1655SOL     vw 6620   2.992   2.913   5.281  0.0315 -0.0150  0.4184
 1656SOL     ow 6621   4.418   2.836   4.077 -0.0587  0.2536 -0.0827
 1656SOL     hw 6622   4.334   2.819   4.120 -0.3641 -0.7160 -1.0153
 1656SOL     hw 6623   4.445   2.751   4.043  0.1282  0.9704 -1.8462
 1656SOL     vw 6624   4.410   2.823   4.078 -0.0744  0.2202 -0.4385
 1657SOL     ow 6625   4.913   0.625   5.532  0.4787  0.6265 -0.6389
 1657SOL     hw 6626   4.838   0.684   5.536  1.2407  1.7156 -1.8233
 1657SOL     hw 6627   4.902   0.577   5.450 -0.6042 -1.6096  0.7122
 1657SOL     vw 6628   4.902   0.627   5.522  0.4363  0.4752 -0.6168
 1658SOL     ow 6629   3.673   7.153   4.866 -0.7193  0.3518 -0.4342
 1658SOL     hw 6630   3.685   7.080   4.805  0.8042 -0.7866  1.1137
 1658SOL     hw 6631   3.758   7.197   4.867 -0.3017 -0.3429  1.6186
 1658SOL     vw 6632   3.686   7.149   4.858 -0.4631  0.1101  0.0408
 1659SOL     ow 6633   3.867   6.581   4.038  0.5114 -0.4244  0.1970
 1659SOL     hw 6634   3.826   6.667   4.032  2.9016  0.8925  1.0900
 1659SOL     hw 6635   3.909   6.580   4.124  2.7591 -1.3702 -0.8100
 1659SOL     vw 6636   3.867   6.592   4.048  1.1233 -0.3755  0.1817
 1660SOL     ow 6637   6.401   1.940   0.975 -0.4752 -0.2236 -0.3744
 1660SOL     hw 6638   6.312   1.919   0.946 -0.4929  0.9814 -1.2353
 1660SOL     hw 6639   6.433   2.004   0.912  0.2452  0.9351  1.1118
 1660SOL     vw 6640   6.394   1.946   0.963 -0.3827  0.0883 -0.2919
 1661SOL     ow 6641   3.050   6.275   2.381  0.3370 -0.1731  0.4795
 1661SOL     hw 6642   3.038   6.235   2.467  0.5826 -1.9015 -0.2578
 1661SOL     hw 6643   3.127   6.232   2.345 -0.2894 -0.1240 -0.9735
 1661SOL     vw 6644   3.058   6.264   2.387  0.2868 -0.3948  0.1904
 1662SOL     ow 6645   2.199   6.382   3.453  0.0584  1.0601  0.1990
 1662SOL     hw 6646   2.152   6.464   3.471 -2.1192 -0.0732 -0.0268
 1662SOL     hw 6647   2.169   6.356   3.366 -1.0981 -1.1023  1.1633
 1662SOL     vw 6648   2.189   6.390   3.444 -0.3815  0.6256  0.2964
 1663SOL     ow 6649   3.418   6.331   3.178  0.7656  0.7406 -0.0539
 1663SOL     hw 6650   3.410   6.331   3.273  0.8018  0.6486 -0.0507
 1663SOL     hw 6651   3.350   6.271   3.148  2.1993 -1.0108  0.0427
 1663SOL     vw 6652   3.408   6.323   3.187  0.9595  0.4976 -0.0407
 1664SOL     ow 6653   1.067   1.345   6.952  0.2516  0.4359  0.9058
 1664SOL     hw 6654   1.040   1.419   6.897 -0.5361  1.0992  2.1364
 1664SOL     hw 6655   1.128   1.383   7.015 -1.0312  0.3206  2.2801
 1664SOL     vw 6656   1.072   1.360   6.953 -0.0216  0.5081  1.2493
 1665SOL     ow 6657   4.132   5.315   1.817 -0.3784  0.1509 -0.5010
 1665SOL     hw 6658   4.070   5.338   1.886  0.7158 -0.2925  0.6511
 1665SOL     hw 6659   4.080   5.265   1.754 -0.8500 -1.8368  1.3458
 1665SOL     vw 6660   4.117   5.312   1.817 -0.2959 -0.1700 -0.1054
 1666SOL     ow 6661   1.828   7.056   4.441 -0.6963 -0.4289 -0.7390
 1666SOL     hw 6662   1.764   7.126   4.454 -0.7270 -0.6452  0.3553
 1666SOL     hw 6663   1.775   6.977   4.431 -0.6485 -0.3591 -1.6373
 1666SOL     vw 6664   1.812   7.055   4.442 -0.6940 -0.4482 -0.7131
 1667SOL     ow 6665   2.838   2.762   3.607  0.2178 -1.1063 -0.0226
 1667SOL     hw 6666   2.916   2.768   3.552 -0.1373  0.2668 -0.4299
 1667SOL     hw 6667   2.872   2.761   3.697  0.7558 -2.3427 -0.2275
 1667SOL     vw 6668   2.853   2.763   3.612  0.2418 -1.0883 -0.1032
 1668SOL     ow 6669   5.099   7.160   0.108 -0.0338 -0.5731 -0.4840
 1668SOL     hw 6670   5.163   7.231   0.094 -0.9013  0.1710 -0.7837
 1668SOL     hw 6671   5.041   7.194   0.176 -0.4419 -1.0074 -0.6117
 1668SOL     vw 6672   5.100   7.174   0.115 -0.2022 -0.5324 -0.5404
 1669SOL     ow 6673   6.678   3.946   1.474  0.3200 -0.2995  0.7528
 1669SOL     hw 6674   6.631   4.009   1.420 -1.1711 -1.0132  1.1610
 1669SOL     hw 6675   6.755   3.994   1.506 -1.2915  1.6688  1.8920
 1669SOL     vw 6676   6.682   3.961   1.471 -0.0892 -0.1340  0.9570
 1670SOL     ow 6677   4.074   4.212   6.550 -0.3125 -0.5049 -0.3316
 1670SOL     hw 6678   4.154   4.213   6.601 -1.0857 -1.5528  0.9598
 1670SOL     hw 6679   4.072   4.297   6.507 -0.7587  1.4303  3.1708
 1670SOL     vw 6680   4.084   4.223   6.551 -0.4735 -0.3879  0.3009
 1671SOL     ow 6681   5.882   6.973   4.161 -0.8000 -0.0383  0.3717
 1671SOL     hw 6682   5.810   7.027   4.127 -1.5780 -1.1370  0.2177
 1671SOL     hw 6683   5.877   6.892   4.111  1.0509  0.1460 -0.1742
 1671SOL     vw 6684   5.872   6.969   4.150 -0.6583 -0.1590  0.2794
 1672SOL     ow 6685   2.007   1.862   1.639  0.5151 -0.4052 -0.1300
 1672SOL     hw 6686   2.006   1.866   1.543  1.7198  0.7164 -0.1160
 1672SOL     hw 6687   1.927   1.908   1.665  0.5387 -0.1009 -0.5808
 1672SOL     vw 6688   1.996   1.868   1.630  0.6772 -0.2171 -0.1876
 1673SOL     ow 6689   2.197   4.673   1.541 -0.4663 -0.5647 -0.5561
 1673SOL     hw 6690   2.145   4.706   1.614  0.3131 -2.4225  0.9051
 1673SOL     hw 6691   2.286   4.704   1.559 -0.8555  2.3031 -2.8586
 1673SOL     vw 6692   2.202   4.682   1.553 -0.4147 -0.4315 -0.6672
 1674SOL     ow 6693   7.277   4.029   2.361 -0.6166  0.0345 -0.3979
 1674SOL     hw 6694   7.366   3.997   2.376 -0.4395  0.3553 -0.7491
 1674SOL     hw 6695   7.249   4.063   2.446 -0.1619  0.5183 -0.4365
 1674SOL     vw 6696   7.285   4.030   2.375 -0.5331  0.1407 -0.4494
 1675SOL     ow 6697   4.361   6.830   3.194  0.0045 -0.2931 -0.3719
 1675SOL     hw 6698   4.331   6.795   3.278 -3.1104  0.6195 -0.9508
 1675SOL     hw 6699   4.285   6.876   3.159  1.4664  0.1551 -3.3012
 1675SOL     vw 6700   4.347   6.831   3.200 -0.2134 -0.1135 -0.8348
 1676SOL     ow 6701   0.737   5.117   6.158 -0.6637  0.1166  0.0007
 1676SOL     hw 6702   0.680   5.150   6.089 -0.6494 -1.0189 -0.5683
 1676SOL     hw 6703   0.766   5.031   6.127  2.3021  1.1013 -0.3093
 1676SOL     vw 6704   0.733   5.110   6.145 -0.2705  0.0963 -0.1154
 1677SOL     ow 6705   4.725   6.685   2.403 -0.8777 -0.1901 -0.4363
 1677SOL     hw 6706   4.757   6.686   2.493 -1.6425 -0.0997 -0.1584
 1677SOL     hw 6707   4.696   6.775   2.387 -0.5251 -0.1455 -0.8604
 1677SOL     vw 6708   4.725   6.697   2.413 -0.9320 -0.1724 -0.4556
 1678SOL     ow 6709   1.043   4.478   0.609 -0.1558 -0.0213  0.3199
 1678SOL     hw 6710   0.965   4.421   0.608 -0.3397  0.0796  2.7561
 1678SOL     hw 6711   1.028   4.541   0.538 -0.2540 -2.5231 -2.0647
 1678SOL     vw 6712   1.031   4.478   0.599 -0.1930 -0.3383  0.3268
 1679SOL     ow 6713   0.539   6.457   1.884 -0.2429  0.2566 -0.1111
 1679SOL     hw 6714   0.452   6.473   1.847 -1.0341 -1.2748  0.9484
 1679SOL     hw 6715   0.566   6.542   1.920 -1.3705  0.7230 -0.3244
 1679SOL     vw 6716   0.531   6.470   1.884 -0.4960  0.1159  0.0005
 1680SOL     ow 6717   1.584   3.899   5.583 -1.0659 -0.4498 -0.0023
 1680SOL     hw 6718   1.513   3.940   5.632 -0.4697  0.6401 -0.0215
 1680SOL     hw 6719   1.618   3.831   5.642  0.0218  1.2171  1.3822
 1680SOL     vw 6720   1.579   3.895   5.597 -0.8437 -0.0861  0.1776
 1681SOL     ow 6721   2.099   4.859   0.003  0.5642 -0.2066 -0.4912
 1681SOL     hw 6722   2.078   4.877  -0.089 -1.3470 -0.0972 -0.0649
 1681SOL     hw 6723   2.023   4.890   0.052  1.4265 -0.5180  1.1226
 1681SOL     vw 6724   2.086   4.866  -0.003  0.4257 -0.2332 -0.2221
 1682SOL     ow 6725   1.834   3.900   7.259 -0.1417  0.5814  0.1344
 1682SOL     hw 6726   1.854   3.898   7.352 -0.8027  2.5058  0.3660
 1682SOL     hw 6727   1.745   3.866   7.252  0.2084 -0.3593  0.0763
 1682SOL     vw 6728   1.825   3.896   7.270 -0.1827  0.7111  0.1574
 1683SOL     ow 6729   5.580   6.716   5.474  0.2858  0.6275 -0.1364
 1683SOL     hw 6730   5.623   6.676   5.398 -3.7569  1.4028 -3.1288
 1683SOL     hw 6731   5.516   6.650   5.502  0.6532  1.0016  1.6834
 1683SOL     vw 6732   5.577   6.702   5.467 -0.1991  0.7792 -0.2911
 1684SOL     ow 6733   0.733   6.339   0.395  0.3638 -0.4696  0.5094
 1684SOL     hw 6734   0.778   6.392   0.461  1.1110 -0.6591  0.1605
 1684SOL     hw 6735   0.791   6.264   0.381 -0.8652 -1.6148  1.2867
 1684SOL     vw 6736   0.746   6.336   0.402  0.3002 -0.6456  0.5659
 1685SOL     ow 6737   3.862   3.903   3.849  0.0405  0.0905 -0.0109
 1685SOL     hw 6738   3.774   3.938   3.839 -0.4879 -0.8999  1.0280
 1685SOL     hw 6739   3.857   3.813   3.817  1.0560  0.4757 -1.3675
 1685SOL     vw 6740   3.850   3.896   3.844  0.1048  0.0107 -0.0528
 1686SOL     ow 6741   1.481   2.690   2.605  0.1609 -0.3737  0.1222
 1686SOL     hw 6742   1.508   2.623   2.667  0.0804 -0.2956  0.2412
 1686SOL     hw 6743   1.395   2.720   2.636 -0.3346 -1.0299 -0.5829
 1686SOL     vw 6744   1.473   2.685   2.617  0.0849 -0.4500  0.0449
 1687SOL     ow 6745   5.678   3.568   4.765 -0.3148 -0.1283 -0.4585
 1687SOL     hw 6746   5.670   3.657   4.732  0.1545  0.1726  0.2085
 1687SOL     hw 6747   5.636   3.513   4.698 -0.0614  0.5274 -1.1674
 1687SOL     vw 6748   5.671   3.572   4.752 -0.2196 -0.0021 -0.4640
 1688SOL     ow 6749   1.524   1.731   2.540  0.0189  0.4156  0.1440
 1688SOL     hw 6750   1.444   1.781   2.526  0.2935  0.7998 -0.0630
 1688SOL     hw 6751   1.525   1.666   2.469  0.3239  0.9713 -0.3709
 1688SOL     vw 6752   1.514   1.729   2.529  0.0954  0.5397  0.0488
 1689SOL     ow 6753   5.845   3.569   5.051  0.3143 -0.4478  0.2930
 1689SOL     hw 6754   5.920   3.531   5.098  0.3627 -3.0750 -1.7053
 1689SOL     hw 6755   5.876   3.656   5.024  2.6509 -1.4169 -0.4170
 1689SOL     vw 6756   5.859   3.576   5.054  0.6289 -0.9223 -0.0641
 1690SOL     ow 6757   3.466   4.458   6.042 -0.0213  0.0747  0.1622
 1690SOL     hw 6758   3.519   4.416   6.110  2.3022  3.7229  0.9352
 1690SOL     hw 6759   3.454   4.390   5.976  0.9276 -2.5444  2.4620
 1690SOL     vw 6760   3.472   4.444   6.042  0.4106  0.2105  0.5674
 1691SOL     ow 6761   6.688   1.441   3.288 -0.2077 -0.5736 -0.4152
 1691SOL     hw 6762   6.780   1.465   3.295 -0.2248 -0.6499  0.1676
 1691SOL     hw 6763   6.687   1.347   3.306 -0.3165 -0.7222 -1.1615
 1691SOL     vw 6764   6.700   1.432   3.292 -0.2241 -0.6033 -0.4368
 1692SOL     ow 6765   0.662   4.133   2.850 -0.3585  0.6205  0.3123
 1692SOL     hw 6766   0.677   4.044   2.884 -1.1656  1.0264  1.8277
 1692SOL     hw 6767   0.569   4.136   2.832 -0.2441  1.0044 -0.2127
 1692SOL     vw 6768   0.652   4.122   2.852 -0.4499  0.7248  0.4430
 1693SOL     ow 6769   1.954   4.632   1.297  0.0997 -0.6611 -0.5102
 1693SOL     hw 6770   1.929   4.609   1.207 -1.9810  2.6238 -0.9438
 1693SOL     hw 6771   1.911   4.567   1.352 -2.7769  0.0225 -1.7507
 1693SOL     vw 6772   1.945   4.621   1.292 -0.5544 -0.1373 -0.7310
 1694SOL     ow 6773   4.058   3.243   2.431 -0.7017  0.0792  0.4390
 1694SOL     hw 6774   4.153   3.235   2.443 -0.8594 -1.8233  0.7309
 1694SOL     hw 6775   4.026   3.154   2.439 -2.3300  0.4147 -1.5809
 1694SOL     vw 6776   4.067   3.231   2.434 -0.9375 -0.1277  0.2110
 1695SOL     ow 6777   0.872   5.979   3.258 -0.0459 -0.1339 -0.0857
 1695SOL     hw 6778   0.941   6.030   3.217  1.1816 -0.5364  1.3730
 1695SOL     hw 6779   0.863   6.017   3.345 -1.5527 -0.2174 -0.1791
 1695SOL     vw 6780   0.880   5.991   3.264 -0.0828 -0.1981  0.0944
 1696SOL     ow 6781   2.634   2.867   3.453 -0.1552  0.2807 -0.6794
 1696SOL     hw 6782   2.700   2.836   3.515 -2.5658 -1.0601  1.4047
 1696SOL     hw 6783   2.684   2.896   3.377  2.7902 -0.6911  0.7457
 1696SOL     vw 6784   2.649   2.867   3.451 -0.0846 -0.0244 -0.2164
 1697SOL     ow 6785   2.285   2.831   1.954 -0.0097 -0.5938 -0.2088
 1697SOL     hw 6786   2.341   2.787   2.018 -0.4811 -0.8827  0.0072
 1697SOL     hw 6787   2.202   2.845   1.999 -0.4774 -1.1578 -0.8789
 1697SOL     vw 6788   2.282   2.827   1.968 -0.1335 -0.7063 -0.2687
 1698SOL     ow 6789   3.558   0.679   0.964 -0.6981 -0.0783 -0.0972
 1698SOL     hw 6790   3.586   0.636   1.045  1.0158  0.7328 -0.1997
 1698SOL     hw 6791   3.469   0.708   0.982 -1.2874 -2.1503  0.5552
 1698SOL     vw 6792   3.550   0.677   0.977 -0.5497 -0.2447 -0.0246
 1699SOL     ow 6793   2.218   3.045   1.716 -0.0892 -0.1827  0.5671
 1699SOL     hw 6794   2.166   2.969   1.689 -1.5446  0.1321  2.2923
 1699SOL     hw 6795   2.156   3.119   1.712  1.1366  0.8396 -0.5015
 1699SOL     vw 6796   2.203   3.045   1.712 -0.1196 -0.0063  0.6536
 1700SOL     ow 6797   2.276   5.577   6.082  0.0144  0.1670  0.3877
 1700SOL     hw 6798   2.213   5.511   6.052  0.9929 -0.8307  0.4759
 1700SOL     hw 6799   2.270   5.573   6.178  1.2091 -0.9532  0.4383
 1700SOL     vw 6800   2.267   5.568   6.091  0.3010 -0.1125  0.4060
 1701SOL     ow 6801   1.987   4.191   4.117 -0.2465  0.1211 -0.2599
 1701SOL     hw 6802   1.957   4.134   4.188 -2.7134  0.0725 -1.2429
 1701SOL     hw 6803   2.050   4.138   4.068  0.7516 -0.1769  1.2927
 1701SOL     vw 6804   1.991   4.177   4.120 -0.4404  0.0753 -0.1848
 1702SOL     ow 6805   7.199   1.489   3.115 -0.1398  0.1439 -1.2276
 1702SOL     hw 6806   7.114   1.460   3.081 -1.8075  0.5638  2.1271
 1702SOL     hw 6807   7.200   1.583   3.099 -0.5494  0.2072 -0.9205
 1702SOL     vw 6808   7.188   1.498   3.109 -0.4141  0.2077 -0.7445
 1703SOL     ow 6809   2.133   4.698   0.269 -0.1876  0.1932 -0.5888
 1703SOL     hw 6810   2.106   4.622   0.321 -2.0968  0.3609 -1.2305
 1703SOL     hw 6811   2.185   4.751   0.329  2.0727 -2.0458 -0.4081
 1703SOL     vw 6812   2.136   4.695   0.284 -0.1413 -0.0801 -0.6496
 1704SOL     ow 6813   2.371   3.961   6.965 -0.5560  0.1989 -0.0465
 1704SOL     hw 6814   2.420   3.882   6.942  1.1891  1.3807 -0.6138
 1704SOL     hw 6815   2.374   4.015   6.886 -0.9759  1.1720  0.5901
 1704SOL     vw 6816   2.378   3.957   6.952 -0.3811  0.4832 -0.0374
 1705SOL     ow 6817   5.321   6.851   0.862 -0.3040  1.1451  0.2838
 1705SOL     hw 6818   5.302   6.774   0.808  0.5744  1.4564 -0.5038
 1705SOL     hw 6819   5.285   6.829   0.948 -1.3476  0.4548 -0.2999
 1705SOL     vw 6820   5.314   6.838   0.867 -0.3262  1.0953  0.1029
 1706SOL     ow 6821   4.187   6.103   0.508 -0.3027 -1.0511  0.5502
 1706SOL     hw 6822   4.194   6.165   0.581 -2.1152  1.4183 -1.2233
 1706SOL     hw 6823   4.123   6.038   0.538 -0.9319 -0.1467  1.2207
 1706SOL     vw 6824   4.180   6.102   0.522 -0.6249 -0.6061  0.4046
 1707SOL     ow 6825   4.925   6.144   6.289 -0.1161  0.2945  0.9064
 1707SOL     hw 6826   4.951   6.219   6.237  0.9808 -0.8107 -0.2095
 1707SOL     hw 6827   4.829   6.148   6.292 -0.2161  0.4551 -1.1366
 1707SOL     vw 6828   4.916   6.154   6.283  0.0155  0.1700  0.4895
 1708SOL     ow 6829   2.162   7.017   3.900  0.3795  0.0097  0.3366
 1708SOL     hw 6830   2.073   6.996   3.927 -1.1332 -0.1591 -3.9453
 1708SOL     hw 6831   2.200   6.933   3.872  1.1048  0.3872  0.1497
 1708SOL     vw 6832   2.156   7.003   3.900  0.2756  0.0372 -0.2530
 1709SOL     ow 6833   1.888   0.002   3.446 -0.2599 -0.0379  0.0377
 1709SOL     hw 6834   1.883  -0.013   3.352  0.7341  2.6185 -0.5362
 1709SOL     hw 6835   1.854   0.091   3.457 -0.5924 -0.3915  2.2464
 1709SOL     vw 6836   1.883   0.012   3.435 -0.1726  0.2660  0.2534
 1710SOL     ow 6837   2.230   1.613   4.119  0.5854  0.6529 -0.1150
 1710SOL     hw 6838   2.256   1.534   4.166 -0.3523 -0.3154 -1.1595
 1710SOL     hw 6839   2.298   1.676   4.140  1.5381 -0.5250  0.4992
 1710SOL     vw 6840   2.242   1.611   4.128  0.5873  0.3698 -0.1719
 1711SOL     ow 6841   1.482   0.996   7.201  0.1978 -0.2651 -0.1377
 1711SOL     hw 6842   1.443   0.915   7.169  1.1683 -0.7516 -0.1480
 1711SOL     hw 6843   1.482   0.987   7.296 -0.9894  0.3624 -0.0625
 1711SOL     vw 6844   1.477   0.984   7.209  0.1692 -0.2465 -0.1290
 1712SOL     ow 6845   0.201   6.636   2.173 -0.5427 -0.4507 -0.6015
 1712SOL     hw 6846   0.107   6.618   2.169 -0.3544 -1.2388 -2.4664
 1712SOL     hw 6847   0.229   6.597   2.256 -2.2369  2.0351  1.3131
 1712SOL     vw 6848   0.192   6.629   2.184 -0.7414 -0.2265 -0.5950
 1713SOL     ow 6849   6.291   4.407   6.876  0.6584  0.5980  0.0058
 1713SOL     hw 6850   6.364   4.416   6.814  1.9617  2.2788  1.6785
 1713SOL     hw 6851   6.321   4.340   6.938  0.5087  0.8222  0.3221
 1713SOL     vw 6852   6.305   4.399   6.876  0.8104  0.8497  0.2682
 1714SOL     ow 6853   1.888   6.072   6.917  0.2027  0.7702  0.0273
 1714SOL     hw 6854   1.886   5.990   6.966 -1.7746  1.4724  1.2225
 1714SOL     hw 6855   1.848   6.136   6.975 -1.5475  1.8162 -2.1819
 1714SOL     vw 6856   1.883   6.069   6.931 -0.2891  1.0006 -0.1063
 1715SOL     ow 6857   2.636   3.223   7.103  0.4668  0.0127 -0.1172
 1715SOL     hw 6858   2.542   3.235   7.112  0.4637 -0.6708  0.9367
 1715SOL     hw 6859   2.664   3.294   7.045 -0.6913  0.2096 -0.4574
 1715SOL     vw 6860   2.628   3.234   7.097  0.3136 -0.0516 -0.0229
 1716SOL     ow 6861   1.588   2.430   4.121  0.0141 -0.3310 -0.1016
 1716SOL     hw 6862   1.572   2.459   4.211  1.1983  0.9650 -0.2646
 1716SOL     hw 6863   1.628   2.344   4.130  0.3651 -0.0997  0.6411
 1716SOL     vw 6864   1.591   2.423   4.134  0.2167 -0.1295 -0.0253
 1717SOL     ow 6865   2.403   4.167   4.800  0.7936  0.4218  0.0887
 1717SOL     hw 6866   2.436   4.141   4.714  0.5596  1.1549 -0.2351
 1717SOL     hw 6867   2.343   4.097   4.825  0.1911  0.6209 -0.7541
 1717SOL     vw 6868   2.399   4.154   4.792  0.6833  0.5448 -0.0651
 1718SOL     ow 6869   1.505   3.561   3.772 -0.0474 -0.0618  0.0810
 1718SOL     hw 6870   1.506   3.614   3.692  0.3578  0.1407  0.2189
 1718SOL     hw 6871   1.532   3.621   3.841 -3.5832  0.6968  0.9781
 1718SOL     vw 6872   1.509   3.576   3.770 -0.4605  0.0650  0.2176
 1719SOL     ow 6873   5.708   1.757   3.597 -0.0354  0.4036 -0.1511
 1719SOL     hw 6874   5.700   1.808   3.516 -2.6110 -0.9051 -0.8158
 1719SOL     hw 6875   5.638   1.790   3.653  0.7883  0.2708  0.9904
 1719SOL     vw 6876   5.698   1.768   3.594 -0.2666  0.2134 -0.0882
 1720SOL     ow 6877   3.157   1.778   3.770 -0.3239 -0.1128  0.5588
 1720SOL     hw 6878   3.228   1.722   3.738  0.4514  0.3852  1.3489
 1720SOL     hw 6879   3.131   1.829   3.694 -2.2592 -2.6991 -0.6816
 1720SOL     vw 6880   3.163   1.777   3.756 -0.4770 -0.3883  0.4995
 1721SOL     ow 6881   5.917   4.029   4.312 -0.1659 -0.4051  0.3078
 1721SOL     hw 6882   5.847   4.056   4.253 -0.9587 -2.1306  0.4120
 1721SOL     hw 6883   5.887   4.055   4.399  0.2472  0.6201  0.1649
 1721SOL     vw 6884   5.904   4.036   4.316 -0.2155 -0.4976  0.3028
 1722SOL     ow 6885   5.763   6.204   7.058 -0.0169 -0.3360 -0.0393
 1722SOL     hw 6886   5.762   6.133   7.123  1.7999  0.4875  0.9589
 1722SOL     hw 6887   5.689   6.259   7.082  0.0251 -0.5943  0.7118
 1722SOL     vw 6888   5.753   6.202   7.070  0.2286 -0.2615  0.1912
 1723SOL     ow 6889   0.428   5.386   2.835  0.4114  0.6064  0.0094
 1723SOL     hw 6890   0.462   5.387   2.924  1.2359  0.5908 -0.2929
 1723SOL     hw 6891   0.474   5.314   2.792  0.6347  1.1276 -0.6528
 1723SOL     vw 6892   0.438   5.376   2.841  0.5497  0.6728 -0.1179
 1724SOL     ow 6893   4.024   4.107   6.281 -0.1862 -0.8873  0.1087
 1724SOL     hw 6894   3.956   4.041   6.268 -2.1279  0.9247  0.4900
 1724SOL     hw 6895   4.027   4.119   6.376  0.7850 -1.0268  0.1037
 1724SOL     vw 6896   4.015   4.100   6.292 -0.3142 -0.6666  0.1583
 1725SOL     ow 6897   6.308   1.572   1.513  0.2882 -0.0505 -0.0992
 1725SOL     hw 6898   6.325   1.546   1.422 -3.0657  2.0433 -1.4790
 1725SOL     hw 6899   6.301   1.488   1.560  1.9708 -1.1892 -1.7180
 1725SOL     vw 6900   6.309   1.557   1.507  0.0677  0.0755 -0.4948
 1726SOL     ow 6901   3.328   4.536   1.510 -0.1242 -0.3533  0.9179
 1726SOL     hw 6902   3.267   4.467   1.487 -3.2281  1.8402  1.9051
 1726SOL     hw 6903   3.392   4.493   1.568 -1.3823 -2.5263  0.7928
 1726SOL     vw 6904   3.329   4.521   1.515 -0.6998 -0.3507  1.0316
 1727SOL     ow 6905   1.357   5.180   2.450  0.1897  0.4120  0.0778
 1727SOL     hw 6906   1.408   5.114   2.496  1.0115  2.1662  1.8458
 1727SOL     hw 6907   1.382   5.171   2.358  1.7258 -0.4530  0.5537
 1727SOL     vw 6908   1.367   5.170   2.444  0.5008  0.5293  0.3738
 1728SOL     ow 6909   6.468   6.578   2.890  0.5928  0.3163  0.7067
 1728SOL     hw 6910   6.425   6.585   2.975  0.3655  0.2119  0.6014
 1728SOL     hw 6911   6.519   6.659   2.883  0.7459  0.2497  1.0123
 1728SOL     vw 6912   6.469   6.590   2.900  0.5832  0.2940  0.7331
 1729SOL     ow 6913   1.654   4.056   4.770 -0.1609  0.4719  0.6843
 1729SOL     hw 6914   1.579   4.106   4.737  1.3157  0.9617 -2.2106
 1729SOL     hw 6915   1.721   4.122   4.787  0.9753 -0.2722 -0.7703
 1729SOL     vw 6916   1.653   4.071   4.768  0.1838  0.4385  0.1104
 1730SOL     ow 6917   1.020   6.290   6.644  0.5002 -0.2237  0.0134
 1730SOL     hw 6918   1.066   6.215   6.607  0.8325 -0.2803  0.5405
 1730SOL     hw 6919   1.089   6.345   6.682  0.0611 -0.8788  1.8516
 1730SOL     vw 6920   1.035   6.288   6.644  0.4861 -0.3173  0.3254
 1731SOL     ow 6921   3.726   3.456   3.402  0.5928 -0.8462 -0.9176
 1731SOL     hw 6922   3.690   3.406   3.475  0.4937 -1.8054 -1.6108
 1731SOL     hw 6923   3.671   3.535   3.398 -0.2080 -1.3852 -0.7496
 1731SOL     vw 6924   3.714   3.460   3.411  0.4740 -1.0439 -0.9869
 1732SOL     ow 6925   5.811   3.292   3.536  0.1267  0.4924 -0.3306
 1732SOL     hw 6926   5.778   3.205   3.558  0.4353 -0.4234 -3.0950
 1732SOL     hw 6927   5.894   3.276   3.491  0.0044  2.1866 -1.2467
 1732SOL     vw 6928   5.817   3.279   3.533  0.1512  0.5951 -0.8162
 1733SOL     ow 6929   2.216   2.746   3.053 -0.0247  0.2934 -0.3071
 1733SOL     hw 6930   2.244   2.656   3.036 -0.5594  0.0332  0.1488
 1733SOL     hw 6931   2.187   2.778   2.968 -1.0809 -0.4198 -0.2383
 1733SOL     vw 6932   2.216   2.738   3.039 -0.2347  0.1649 -0.2379
 1734SOL     ow 6933   3.329   2.466   5.254  0.0883  0.4573 -0.2751
 1734SOL     hw 6934   3.421   2.487   5.271  0.2648  1.0273 -1.7888
 1734SOL     hw 6935   3.328   2.371   5.239 -0.0420 -0.0484  2.3861
 1734SOL     vw 6936   3.341   2.456   5.255  0.0945  0.4659 -0.1235
 1735SOL     ow 6937   0.510   1.516   1.321  0.4621  0.6461 -0.5075
 1735SOL     hw 6938   0.513   1.526   1.416 -1.9737 -2.1313 -0.0036
 1735SOL     hw 6939   0.505   1.606   1.288  3.6960  1.8225  1.7321
 1735SOL     vw 6940   0.509   1.529   1.329  0.5674  0.4349 -0.1456
 1736SOL     ow 6941   2.107   4.892   6.817 -0.2276 -0.0409  0.3514
 1736SOL     hw 6942   2.191   4.866   6.778 -0.5974  1.8299 -1.9062
 1736SOL     hw 6943   2.078   4.966   6.764 -1.4442  1.9503  3.5023
 1736SOL     vw 6944   2.114   4.898   6.805 -0.4368  0.4687  0.4694
 1737SOL     ow 6945   3.348   0.461   3.347  0.1853  0.5456 -0.9454
 1737SOL     hw 6946   3.408   0.466   3.421 -0.4480  0.5048 -0.4198
 1737SOL     hw 6947   3.404   0.473   3.270  0.6644  1.9358 -0.4133
 1737SOL     vw 6948   3.364   0.463   3.346  0.1649  0.7236 -0.8057
 1738SOL     ow 6949   6.808   2.436   3.235 -0.6085 -0.4876  0.2009
 1738SOL     hw 6950   6.715   2.416   3.237 -0.7124  0.0675  0.9764
 1738SOL     hw 6951   6.850   2.351   3.222 -1.1686 -0.8803  0.9220
 1738SOL     vw 6952   6.801   2.422   3.233 -0.6962 -0.4662  0.3983
 1739SOL     ow 6953   4.774   1.987   0.309 -0.0404 -0.0668 -0.3041
 1739SOL     hw 6954   4.788   2.051   0.240  1.6054  0.6673  0.6572
 1739SOL     hw 6955   4.811   2.028   0.387 -0.6750 -1.4155  0.7369
 1739SOL     vw 6956   4.781   2.001   0.310  0.0930 -0.1478 -0.0399
 1740SOL     ow 6957   0.378   0.251   6.093 -0.1135 -0.4652 -0.1826
 1740SOL     hw 6958   0.351   0.261   6.184  4.7878 -2.5187  1.8479
 1740SOL     hw 6959   0.354   0.161   6.071 -0.7803 -0.1532 -0.7540
 1740SOL     vw 6960   0.371   0.241   6.102  0.4452 -0.6950  0.0100
 1741SOL     ow 6961   0.877   3.437   7.144 -0.2408  0.0456  0.1648
 1741SOL     hw 6962   0.860   3.350   7.108 -0.0010 -0.3754  1.0446
 1741SOL     hw 6963   0.972   3.448   7.136 -0.3606  0.5748 -0.6933
 1741SOL     vw 6964   0.887   3.427   7.138 -0.2250  0.0598  0.1676
 1742SOL     ow 6965   1.536   0.899   2.187 -0.3169  0.0557  0.2958
 1742SOL     hw 6966   1.609   0.959   2.193 -1.0123  0.9519  0.0322
 1742SOL     hw 6967   1.490   0.908   2.271  0.7899 -1.7634  1.1625
 1742SOL     vw 6968   1.539   0.908   2.199 -0.2627 -0.0660  0.3754
 1743SOL     ow 6969   7.199   3.099   0.758  0.1624 -0.6184 -0.1629
 1743SOL     hw 6970   7.183   3.192   0.776  1.3716 -0.3158 -0.5575
 1743SOL     hw 6971   7.279   3.079   0.805 -0.3215 -1.5936  0.2778
 1743SOL     vw 6972   7.207   3.109   0.766  0.2580 -0.7071 -0.1568
 1744SOL     ow 6973   1.481   7.028   5.902  0.4794 -0.3614 -0.2769
 1744SOL     hw 6974   1.393   7.017   5.939  0.2668  2.0248  0.0981
 1744SOL     hw 6975   1.539   6.987   5.966 -0.1924  0.1655  0.6965
 1744SOL     vw 6976   1.477   7.021   5.916  0.3626  0.0231 -0.0992
 1745SOL     ow 6977   6.439   5.778   3.787 -0.1522 -0.4326 -0.7474
 1745SOL     hw 6978   6.435   5.873   3.788 -1.5787 -0.4408  1.1869
 1745SOL     hw 6979   6.362   5.750   3.837  1.7571 -2.4873  1.3323
 1745SOL     vw 6980   6.429   5.787   3.794 -0.0885 -0.7050 -0.2178
 1746SOL     ow 6981   6.296   5.391   6.248  0.0406  0.1289  0.0108
 1746SOL     hw 6982   6.337   5.346   6.322 -1.8381 -0.3716  0.8064
 1746SOL     hw 6983   6.270   5.321   6.189  2.2705  0.5572 -1.6277
 1746SOL     vw 6984   6.298   5.376   6.250  0.0868  0.1194 -0.1004
 1747SOL     ow 6985   3.526   5.061   1.939  0.2659 -0.2780 -0.4307
 1747SOL     hw 6986   3.606   5.071   1.889  0.4754  1.2992  0.1622
 1747SOL     hw 6987   3.482   5.146   1.932 -1.0573 -0.9140 -0.2340
 1747SOL     vw 6988   3.530   5.073   1.932  0.1190 -0.1538 -0.3265
 1748SOL     ow 6989   6.102   1.857   4.915 -0.0919 -0.8997 -0.2175
 1748SOL     hw 6990   6.063   1.815   4.838 -2.9087 -1.2231  1.2556
 1748SOL     hw 6991   6.187   1.888   4.885 -1.1834 -0.7376 -3.5485
 1748SOL     vw 6992   6.108   1.856   4.901 -0.6073 -0.9210 -0.4628
 1749SOL     ow 6993   0.150   6.321   1.059  0.6501  0.7981  0.0966
 1749SOL     hw 6994   0.056   6.335   1.045  0.3504 -2.4051 -2.3173
 1749SOL     hw 6995   0.165   6.347   1.149 -2.6038  1.2988  0.6149
 1749SOL     vw 6996   0.139   6.326   1.069  0.1813  0.4416 -0.1535
 1750SOL     ow 6997   2.811   3.287   5.554 -0.5108 -0.8925  0.4787
 1750SOL     hw 6998   2.889   3.263   5.503 -0.1483 -2.9088  1.8675
 1750SOL     hw 6999   2.738   3.263   5.497 -0.2562  2.5375 -1.5289
 1750SOL     vw 7000   2.812   3.280   5.539 -0.4295 -0.7061  0.3967
 1751SOL     ow 7001   2.623   0.856   3.155 -0.0981  0.4115 -0.6645
 1751SOL     hw 7002   2.677   0.889   3.083 -1.6705  1.2505 -1.5278
 1751SOL     hw 7003   2.679   0.795   3.202  1.7973  1.7395 -1.1055
 1751SOL     vw 7004   2.637   0.852   3.151 -0.0554  0.6974 -0.8365
 1752SOL     ow 7005   2.560   2.630   3.238 -0.7931  0.1880 -0.0871
 1752SOL     hw 7006   2.585   2.666   3.323  1.8029 -0.6650 -0.3755
 1752SOL     hw 7007   2.529   2.542   3.257  0.6685 -0.3436 -0.0535
 1752SOL     vw 7008   2.559   2.623   3.252 -0.2577  0.0054 -0.1206
 1753SOL     ow 7009   6.008   2.011   5.161  0.1604  0.3253  0.2172
 1753SOL     hw 7010   6.036   2.034   5.249  2.6154  0.1687 -0.4570
 1753SOL     hw 7011   5.940   2.075   5.139  1.2980  1.9429  1.2857
 1753SOL     vw 7012   6.002   2.022   5.170  0.6342  0.5181  0.2694
 1754SOL     ow 7013   5.882   6.542   3.465 -0.8083 -0.5698 -0.4454
 1754SOL     hw 7014   5.833   6.545   3.548  1.1882  0.0122  0.7868
 1754SOL     hw 7015   5.948   6.610   3.474 -0.5364 -0.4982 -2.5660
 1754SOL     vw 7016   5.884   6.551   3.477 -0.5088 -0.4833 -0.5625
 1755SOL     ow 7017   2.493   5.446   5.989  0.6771 -0.4783 -0.5064
 1755SOL     hw 7018   2.411   5.488   6.015  1.3613  2.2706 -2.4408
 1755SOL     hw 7019   2.474   5.352   5.997 -2.4450  0.0478 -0.2813
 1755SOL     vw 7020   2.479   5.439   5.994  0.3554 -0.0460 -0.7322
 1756SOL     ow 7021   0.302   2.350   6.520  0.1672 -0.3450  0.3427
 1756SOL     hw 7022   0.357   2.393   6.585 -0.8815 -0.4811  1.3431
 1756SOL     hw 7023   0.227   2.316   6.569 -2.0632  1.8816 -1.2201
 1756SOL     vw 7024   0.299   2.351   6.535 -0.2654 -0.0693  0.2685
 1757SOL     ow 7025   6.442   5.397   3.977  0.2153  0.1182 -0.0172
 1757SOL     hw 7026   6.430   5.485   4.013  1.7513  0.3536 -0.0113
 1757SOL     hw 7027   6.529   5.371   4.005 -0.3715 -1.5988  0.3200
 1757SOL     vw 7028   6.451   5.406   3.985  0.3407 -0.0772  0.0280
 1758SOL     ow 7029   5.530   3.857   6.294 -0.6005 -0.4352 -0.3992
 1758SOL     hw 7030   5.525   3.803   6.215 -0.2034  0.8139 -1.3222
 1758SOL     hw 7031   5.621   3.886   6.297 -0.7626  0.0318  0.1792
 1758SOL     vw 7032   5.541   3.854   6.284 -0.5693 -0.2087 -0.4447
 1759SOL     ow 7033   2.443   7.035   3.548 -0.2805 -0.1108  0.0285
 1759SOL     hw 7034   2.360   7.078   3.570  0.4283  0.7875  1.0436
 1759SOL     hw 7035   2.463   7.065   3.459 -1.1871 -0.5995 -0.3581
 1759SOL     vw 7036   2.434   7.044   3.539 -0.3067 -0.0565  0.1113
 1760SOL     ow 7037   6.984   0.717   4.002 -0.0550  0.1695 -0.9489
 1760SOL     hw 7038   6.966   0.811   4.009 -0.4229 -0.0560  2.9278
 1760SOL     hw 7039   7.077   0.712   3.982 -0.5407  1.2554 -4.0727
 1760SOL     vw 7040   6.994   0.729   4.000 -0.1676  0.2830 -0.8495
 1761SOL     ow 7041   3.554   1.507   4.277  0.2639 -0.3908 -0.2747
 1761SOL     hw 7042   3.519   1.492   4.365  0.7298 -1.5165 -0.2645
 1761SOL     hw 7043   3.648   1.519   4.289  0.4049 -1.0358 -0.6556
 1761SOL     vw 7044   3.562   1.506   4.290  0.3439 -0.6245 -0.3235
 1762SOL     ow 7045   2.292   2.856   6.134 -0.0801  0.1048 -0.2696
 1762SOL     hw 7046   2.354   2.799   6.089 -0.6569 -0.4127 -0.4276
 1762SOL     hw 7047   2.215   2.801   6.149  0.4507 -0.0982  2.3182
 1762SOL     vw 7048   2.290   2.841   6.130 -0.0862  0.0098  0.0510
 1763SOL     ow 7049   5.792   5.095   1.437  0.4951 -0.0346 -0.3836
 1763SOL     hw 7050   5.720   5.159   1.441  0.2206 -0.3679  0.1771
 1763SOL     hw 7051   5.780   5.041   1.515  2.9439  1.5853  1.2616
 1763SOL     vw 7052   5.781   5.096   1.448  0.7820  0.1352 -0.0926
 1764SOL     ow 7053   0.337   2.471   6.224 -0.4185  0.1692 -0.2463
 1764SOL     hw 7054   0.418   2.520   6.238  0.5522 -1.2009 -0.9620
 1764SOL     hw 7055   0.335   2.452   6.130 -0.0554 -2.3135  0.1776
 1764SOL     vw 7056   0.347   2.475   6.214 -0.2425 -0.3392 -0.2851
 1765SOL     ow 7057   5.916   4.392   6.861 -0.1681  0.2304  0.1349
 1765SOL     hw 7058   5.937   4.300   6.877 -0.7781  0.0714  0.0478
 1765SOL     hw 7059   5.820   4.395   6.863 -0.1696  1.2844  2.6279
 1765SOL     vw 7060   5.906   4.380   6.864 -0.2484  0.3483  0.4520
 1766SOL     ow 7061   6.178   5.476   5.484 -0.0569 -0.1458 -0.4462
 1766SOL     hw 7062   6.227   5.395   5.493  0.1279  0.0748  0.7053
 1766SOL     hw 7063   6.115   5.474   5.556  1.2292  1.5891  0.8350
 1766SOL     vw 7064   6.176   5.465   5.495  0.1373  0.1121 -0.1252
 1767SOL     ow 7065   5.894   2.647   0.615  0.1309  0.7423 -0.0691
 1767SOL     hw 7066   5.958   2.651   0.544  0.1577 -0.4343 -0.1352
 1767SOL     hw 7067   5.945   2.616   0.691 -0.4056 -0.6133 -0.2222
 1767SOL     vw 7068   5.909   2.643   0.616  0.0637  0.4083 -0.0980
 1768SOL     ow 7069   0.763   0.253   6.966  0.3765  0.2861 -0.6225
 1768SOL     hw 7070   0.775   0.340   6.927 -0.9326  0.1124 -1.4744
 1768SOL     hw 7071   0.734   0.198   6.893  1.7892 -1.0508 -0.2419
 1768SOL     vw 7072   0.761   0.257   6.951  0.3902  0.0868 -0.6847
 1769SOL     ow 7073   2.476   0.244   7.293 -0.0122  0.4334 -0.3818
 1769SOL     hw 7074   2.419   0.267   7.367  0.2950  1.1578 -0.3627
 1769SOL     hw 7075   2.463   0.315   7.230  0.3067  0.2122 -0.6994
 1769SOL     vw 7076   2.466   0.256   7.294  0.0703  0.4998 -0.4212
 1770SOL     ow 7077   6.915   2.404   4.135  0.0789 -0.0119 -0.1137
 1770SOL     hw 7078   6.884   2.314   4.121  0.6801 -0.5475  1.7072
 1770SOL     hw 7079   6.997   2.409   4.085 -0.4247 -0.1554 -0.9776
 1770SOL     vw 7080   6.922   2.393   4.126  0.0918 -0.1016  0.0124
 1771SOL     ow 7081   3.161   5.852   0.006  0.0019  0.3466  0.6850
 1771SOL     hw 7082   3.227   5.922   0.005 -1.2245  1.5416  0.7923
 1771SOL     hw 7083   3.077   5.898   0.010 -0.9027 -1.1097 -0.3691
 1771SOL     vw 7084   3.159   5.867   0.006 -0.2792  0.3121  0.5601
 1772SOL     ow 7085   5.682   2.523   2.790  0.2590 -0.2012 -0.7149
 1772SOL     hw 7086   5.701   2.445   2.840 -1.4920  0.3339  0.8975
 1772SOL     hw 7087   5.599   2.504   2.745  0.2947  0.3795 -1.0484
 1772SOL     vw 7088   5.673   2.510   2.790  0.0327 -0.0540 -0.5462
 1773SOL     ow 7089   0.628   0.371   6.086  0.1030 -0.4519 -0.0675
 1773SOL     hw 7090   0.537   0.341   6.074  0.7365 -3.5971  1.7421
 1773SOL     hw 7091   0.624   0.465   6.070 -2.5336 -1.0439 -4.6043
 1773SOL     vw 7092   0.615   0.379   6.082 -0.1613 -0.9450 -0.4277
 1774SOL     ow 7093   2.390   7.078   1.932 -0.6175  0.2823  0.4320
 1774SOL     hw 7094   2.445   7.152   1.956 -0.1810  0.7510 -1.8067
 1774SOL     hw 7095   2.386   7.024   2.011  2.0975  0.8057  1.0100
 1774SOL     vw 7096   2.396   7.081   1.945 -0.2018  0.4134  0.2129
 1775SOL     ow 7097   4.816   7.223   5.482 -0.1607 -0.0008  0.2663
 1775SOL     hw 7098   4.888   7.251   5.539 -0.0489 -1.7265  1.0418
 1775SOL     hw 7099   4.738   7.229   5.537 -0.2183 -0.5747  0.2558
 1775SOL     vw 7100   4.815   7.227   5.497 -0.1535 -0.3042  0.3672
 1776SOL     ow 7101   6.720   6.811   6.141  0.0759 -0.1917  0.1905
 1776SOL     hw 7102   6.804   6.844   6.170  0.7988 -0.9199 -0.9766
 1776SOL     hw 7103   6.673   6.791   6.221  2.1218 -2.4665  0.9517
 1776SOL     vw 7104   6.725   6.812   6.155  0.4411 -0.5879  0.1371
 1777SOL     ow 7105   3.828   5.690   1.301  0.0637 -0.1277  0.2296
 1777SOL     hw 7106   3.825   5.616   1.241  0.2565 -0.8385  1.0723
 1777SOL     hw 7107   3.739   5.699   1.334  0.5871 -1.9541  2.4068
 1777SOL     vw 7108   3.816   5.681   1.298  0.1582 -0.4623  0.6281
 1778SOL     ow 7109   0.580   1.147   6.921 -0.2459  0.0559 -0.2009
 1778SOL     hw 7110   0.576   1.243   6.916  0.2177  0.0801 -0.1574
 1778SOL     hw 7111   0.673   1.128   6.935 -0.5767 -0.3014  1.7929
 1778SOL     vw 7112   0.592   1.157   6.922 -0.2284  0.0120  0.0677
 1779SOL     ow 7113   1.273   3.315   1.714  0.1102 -0.2233 -0.2252
 1779SOL     hw 7114   1.268   3.219   1.711  0.8346 -0.2507 -0.9581
 1779SOL     hw 7115   1.183   3.343   1.731 -0.0580 -1.0347  0.3294
 1779SOL     vw 7116   1.260   3.306   1.716  0.1836 -0.3339 -0.2487
 1780SOL     ow 7117   5.093   1.073   3.740 -0.1497  0.6338  0.2662
 1780SOL     hw 7118   5.163   1.089   3.804 -1.1699  1.6550  1.1803
 1780SOL     hw 7119   5.021   1.037   3.792 -0.1834 -0.7664 -0.7284
 1780SOL     vw 7120   5.093   1.071   3.756 -0.2885  0.5838  0.2556
 1781SOL     ow 7121   3.880   4.485   6.831 -0.6339 -0.1237  0.6180
 1781SOL     hw 7122   3.874   4.556   6.766  0.1273  2.1147  2.8420
 1781SOL     hw 7123   3.971   4.488   6.861  0.3129 -4.0532 -1.1726
 1781SOL     vw 7124   3.891   4.495   6.826 -0.4086 -0.3469  0.6752
 1782SOL     ow 7125   2.669   0.654   7.235 -0.3905 -0.3712 -0.1455
 1782SOL     hw 7126   2.577   0.654   7.210 -0.5879 -1.6833  0.4823
 1782SOL     hw 7127   2.676   0.720   7.304 -0.8861 -0.3522 -0.1127
 1782SOL     vw 7128   2.658   0.662   7.241 -0.4820 -0.5418 -0.0584
 1783SOL     ow 7129   3.509   4.803   6.015  0.1117 -0.2147  0.2249
 1783SOL     hw 7130   3.576   4.834   5.954 -1.0309 -0.6454 -1.3008
 1783SOL     hw 7131   3.518   4.860   6.091  0.1211  1.8307 -1.2241
 1783SOL     vw 7132   3.519   4.814   6.017 -0.0379 -0.0017 -0.1676
 1784SOL     ow 7133   4.810   3.796   3.488 -0.4113 -0.3112 -0.8455
 1784SOL     hw 7134   4.881   3.860   3.498 -0.6024 -0.2226 -0.0214
 1784SOL     hw 7135   4.854   3.711   3.484 -0.2398 -0.2325 -0.6388
 1784SOL     vw 7136   4.825   3.794   3.489 -0.4137 -0.2891 -0.7095
 1785SOL     ow 7137   2.068   0.913   6.494  0.2374  0.1308  0.2724
 1785SOL     hw 7138   2.129   0.845   6.523  1.4510  1.5316  1.1653
 1785SOL     hw 7139   2.000   0.914   6.561  0.7079  0.3887  0.7593
 1785SOL     vw 7140   2.067   0.904   6.507  0.4597  0.3496  0.4542
 1786SOL     ow 7141   0.249   6.466   2.372 -0.3461 -0.1453  0.0290
 1786SOL     hw 7142   0.178   6.449   2.433 -0.2446 -2.1549 -0.3512
 1786SOL     hw 7143   0.321   6.499   2.426 -1.0142  0.3416  0.6326
 1786SOL     vw 7144   0.249   6.468   2.387 -0.4209 -0.3459  0.0585
 1787SOL     ow 7145   6.766   0.412   2.166  0.0720  0.2711 -0.3135
 1787SOL     hw 7146   6.768   0.379   2.076  1.0163 -0.5100 -0.0140
 1787SOL     hw 7147   6.712   0.491   2.161  1.0501  0.8901 -1.7782
 1787SOL     vw 7148   6.759   0.418   2.154  0.3259  0.2497 -0.4672
 1788SOL     ow 7149   6.617   0.135   5.296  0.3532 -0.2391 -0.0016
 1788SOL     hw 7150   6.598   0.227   5.311 -0.1713 -0.0426 -1.6547
 1788SOL     hw 7151   6.672   0.109   5.370  0.9357  1.5146  0.2248
 1788SOL     vw 7152   6.621   0.143   5.307  0.3610  0.0182 -0.1895
 1789SOL     ow 7153   1.380   7.066   3.567 -0.3206  0.2092 -0.3451
 1789SOL     hw 7154   1.438   7.097   3.637  0.3119  1.1728 -1.2656
 1789SOL     hw 7155   1.433   7.072   3.488 -0.8498 -1.3694 -0.8588
 1789SOL     vw 7156   1.395   7.071   3.566 -0.3069  0.1280 -0.5343
 1790SOL     ow 7157   2.103   5.956   4.090 -0.1227 -0.1424  0.7581
 1790SOL     hw 7158   2.074   5.869   4.116  1.6704 -0.6223  1.3431
 1790SOL     hw 7159   2.058   5.973   4.007  0.3151 -2.1062  0.0680
 1790SOL     vw 7160   2.093   5.947   4.083  0.1715 -0.4647  0.7441
 1791SOL     ow 7161   4.423   2.952   5.413  0.0493 -0.0381  0.3900
 1791SOL     hw 7162   4.337   2.960   5.372  0.4907  0.2988 -0.4855
 1791SOL     hw 7163   4.431   2.859   5.435 -1.6171  0.3009  2.9055
 1791SOL     vw 7164   4.413   2.941   5.411 -0.1123  0.0511  0.6063
 1792SOL     ow 7165   2.383   4.407   1.449  0.3549  0.0224 -0.1458
 1792SOL     hw 7166   2.357   4.477   1.509 -0.2204 -0.7763  0.5675
 1792SOL     hw 7167   2.465   4.438   1.410 -0.0493  1.2235 -0.0904
 1792SOL     vw 7168   2.390   4.420   1.452  0.2255  0.0756 -0.0444
 1793SOL     ow 7169   5.692   2.272   2.894  0.0314  0.1239 -0.1760
 1793SOL     hw 7170   5.670   2.238   2.807 -0.5064  1.4172 -0.5763
 1793SOL     hw 7171   5.611   2.313   2.924 -0.0074 -0.9388  1.2711
 1793SOL     vw 7172   5.678   2.273   2.887 -0.0446  0.1543 -0.0380
 1794SOL     ow 7173   7.071   1.958   0.247  0.0685 -0.1443 -0.7908
 1794SOL     hw 7174   7.050   1.990   0.159 -0.6299 -1.8462 -1.2924
 1794SOL     hw 7175   7.162   1.929   0.241  0.6437  1.4544 -0.3856
 1794SOL     vw 7176   7.080   1.959   0.235  0.0525 -0.1579 -0.8035
 1795SOL     ow 7177   4.621   4.840   1.546  0.2798  0.8033 -0.3048
 1795SOL     hw 7178   4.667   4.824   1.629  1.4814 -1.2416 -1.2691
 1795SOL     hw 7179   4.689   4.877   1.489 -0.6577  2.6408 -0.2844
 1795SOL     vw 7180   4.636   4.843   1.549  0.3147  0.7761 -0.4294
 1796SOL     ow 7181   3.167   5.164   5.231 -0.6911  0.0215  0.6772
 1796SOL     hw 7182   3.196   5.099   5.167  0.3336  2.2810 -1.3486
 1796SOL     hw 7183   3.092   5.206   5.190 -1.5821 -0.1085  2.1180
 1796SOL     vw 7184   3.161   5.161   5.217 -0.6732  0.3026  0.6001
 1797SOL     ow 7185   4.924   1.556   5.988  0.0320 -0.7944  0.0759
 1797SOL     hw 7186   4.956   1.628   6.042 -0.4015 -0.4467 -0.1261
 1797SOL     hw 7187   4.831   1.573   5.978 -0.1821 -1.6744  0.4615
 1797SOL     vw 7188   4.916   1.568   5.994 -0.0534 -0.8646  0.1001
 1798SOL     ow 7189   0.722   3.888   2.983  0.3120 -0.2418 -0.0560
 1798SOL     hw 7190   0.811   3.878   3.016  0.3321  2.8585  1.1481
 1798SOL     hw 7191   0.667   3.860   3.056  0.2953 -0.9446 -0.3342
 1798SOL     vw 7192   0.726   3.883   2.997  0.3124  0.0745  0.0662
 1799SOL     ow 7193   3.553   2.517   0.959 -0.1593 -0.5284  0.2695
 1799SOL     hw 7194   3.611   2.462   1.011 -0.3804 -1.0321 -0.0062
 1799SOL     hw 7195   3.611   2.581   0.918  0.2380 -1.1633 -0.1822
 1799SOL     vw 7196   3.568   2.518   0.961 -0.1360 -0.6787  0.1735
 1800SOL     ow 7197   5.263   5.030   5.857  0.7429  0.1937  0.4257
 1800SOL     hw 7198   5.271   5.022   5.762  0.8081 -0.6222  0.4968
 1800SOL     hw 7199   5.175   5.066   5.870 -0.1167 -1.6917  0.1263
 1800SOL     vw 7200   5.252   5.034   5.846  0.6380 -0.1626  0.3953
 1801SOL     ow 7201   3.464   4.773   7.187 -0.0019 -0.7645  0.0123
 1801SOL     hw 7202   3.522   4.720   7.132  0.9376  1.9479 -1.8489
 1801SOL     hw 7203   3.404   4.815   7.125  0.7140  1.9579  1.0058
 1801SOL     vw 7204   3.464   4.772   7.171  0.2165 -0.0472 -0.1023
 1802SOL     ow 7205   0.435   1.395   2.393  0.4500  0.0498  0.0420
 1802SOL     hw 7206   0.446   1.302   2.413  1.7003  0.4323  1.2590
 1802SOL     hw 7207   0.438   1.398   2.297  0.3100 -1.1641 -0.0260
 1802SOL     vw 7208   0.437   1.383   2.383  0.5965 -0.0599  0.1936
 1803SOL     ow 7209   6.279   1.471   3.425 -0.2541 -0.4555  0.4299
 1803SOL     hw 7210   6.184   1.466   3.435 -0.1875 -0.1632  1.3550
 1803SOL     hw 7211   6.298   1.416   3.349 -1.1316 -0.7693  0.4199
 1803SOL     vw 7212   6.269   1.463   3.417 -0.3610 -0.4584  0.5506
 1804SOL     ow 7213   6.346   0.135   3.411  0.2796  0.4623 -0.7742
 1804SOL     hw 7214   6.281   0.068   3.389  1.1936 -0.9448  0.5366
 1804SOL     hw 7215   6.315   0.172   3.494  0.9620 -0.0261 -0.2821
 1804SOL     vw 7216   6.334   0.131   3.419  0.4900  0.2122 -0.5362
 1805SOL     ow 7217   5.139   0.070   1.128  0.2459  0.4872  0.0110
 1805SOL     hw 7218   5.205   0.076   1.059  0.3746  1.0134  0.1745
 1805SOL     hw 7219   5.107  -0.020   1.123  1.3770  0.0548  0.2976
 1805SOL     vw 7220   5.143   0.059   1.118  0.4122  0.4996  0.0703
 1806SOL     ow 7221   4.839   4.825   2.694 -0.0445 -0.0305 -0.2979
 1806SOL     hw 7222   4.783   4.793   2.623 -1.9156  2.0183  0.1269
 1806SOL     hw 7223   4.778   4.846   2.765  1.6469 -0.8690  1.5224
 1806SOL     vw 7224   4.823   4.824   2.694 -0.0682  0.1290 -0.0017
 1807SOL     ow 7225   5.059   2.370   4.242  0.9567 -0.2288 -0.6396
 1807SOL     hw 7226   5.052   2.299   4.306  2.0934 -1.0680 -1.3948
 1807SOL     hw 7227   5.075   2.448   4.294  1.2234 -0.7892  0.1413
 1807SOL     vw 7228   5.060   2.371   4.257  1.1418 -0.4135 -0.6363
 1808SOL     ow 7229   1.051   4.373   4.098  0.9165 -0.0878  0.8318
 1808SOL     hw 7230   0.959   4.365   4.071  1.6435 -0.9885 -1.7071
 1808SOL     hw 7231   1.047   4.386   4.192 -1.8373  0.6221  0.7098
 1808SOL     vw 7232   1.038   4.373   4.107  0.6491 -0.1128  0.4809
 1809SOL     ow 7233   1.973   2.218   1.054 -0.2032 -0.5600 -0.0479
 1809SOL     hw 7234   1.879   2.230   1.043  0.0659  1.5178 -0.6014
 1809SOL     hw 7235   2.008   2.223   0.965  0.6909  2.0478  0.3611
 1809SOL     vw 7236   1.965   2.220   1.041 -0.0498  0.0583 -0.0670
 1810SOL     ow 7237   3.660   6.215   5.435  0.0048  0.3828 -0.4972
 1810SOL     hw 7238   3.630   6.286   5.378 -0.0607 -0.1925 -1.2069
 1810SOL     hw 7239   3.702   6.152   5.375  0.5908  0.1004  0.1864
 1810SOL     vw 7240   3.662   6.216   5.419  0.0734  0.2697 -0.5007
 1811SOL     ow 7241   6.753   3.702   6.443  0.4859 -0.4243  0.1676
 1811SOL     hw 7242   6.818   3.694   6.373  0.4741 -2.2260  0.3153
 1811SOL     hw 7243   6.805   3.703   6.524  0.4295  0.3982  0.2053
 1811SOL     vw 7244   6.769   3.701   6.445  0.4768 -0.5535  0.1922
 1812SOL     ow 7245   6.816   2.683   5.802 -0.7337  0.6437 -0.1628
 1812SOL     hw 7246   6.792   2.762   5.754  0.9423  1.3120  0.0015
 1812SOL     hw 7247   6.851   2.624   5.734  0.6171  1.1660  0.0390
 1812SOL     vw 7248   6.818   2.685   5.786 -0.3343  0.8007 -0.1144
 1813SOL     ow 7249   1.412   1.107   1.781  0.0225 -0.5957 -0.0216
 1813SOL     hw 7250   1.345   1.162   1.741 -0.9644 -3.5947 -2.9635
 1813SOL     hw 7251   1.491   1.161   1.780 -0.8691  0.8289 -2.6580
 1813SOL     vw 7252   1.414   1.121   1.776 -0.2254 -0.8034 -0.7576
 1814SOL     ow 7253   5.514   2.653   6.686 -0.6023  0.0609  0.9334
 1814SOL     hw 7254   5.483   2.663   6.596  1.5070 -0.6574  0.0645
 1814SOL     hw 7255   5.595   2.602   6.678  0.6481  1.5303  3.0390
 1814SOL     vw 7256   5.521   2.648   6.673 -0.1590  0.1601  1.0965
 1815SOL     ow 7257   0.005   3.874   4.053 -0.3031  0.4046  0.2636
 1815SOL     hw 7258   0.043   3.837   4.133  1.0287 -3.2351 -1.8284
 1815SOL     hw 7259   0.073   3.932   4.019 -0.5571  1.3413  1.2931
 1815SOL     vw 7260   0.019   3.877   4.059 -0.1609  0.0480  0.1233
 1816SOL     ow 7261   4.608   2.229   6.580  0.2575 -0.2575  0.3448
 1816SOL     hw 7262   4.641   2.148   6.541 -0.1850  1.1504 -3.3212
 1816SOL     hw 7263   4.597   2.289   6.507  0.0486  3.0223  2.8184
 1816SOL     vw 7264   4.611   2.226   6.565  0.1714  0.3610  0.1872
 1817SOL     ow 7265   6.981   0.576   2.647  0.2557  0.5398 -0.1770
 1817SOL     hw 7266   7.046   0.581   2.717  0.0523  0.2668  0.0303
 1817SOL     hw 7267   6.910   0.633   2.675 -1.0905 -1.6635  1.1701
 1817SOL     vw 7268   6.980   0.584   2.660  0.0513  0.2131  0.0280
 1818SOL     ow 7269   5.808   2.334   6.864 -0.0382  0.1813  0.1743
 1818SOL     hw 7270   5.808   2.365   6.773 -0.2229  0.9553  0.4251
 1818SOL     hw 7271   5.892   2.364   6.899  0.0227 -0.0963  0.2679
 1818SOL     vw 7272   5.819   2.342   6.856 -0.0544  0.2466  0.2196
 1819SOL     ow 7273   4.918   1.253   1.587  0.3849 -0.1024  0.6262
 1819SOL     hw 7274   4.844   1.287   1.537 -0.7303 -2.5899  0.4275
 1819SOL     hw 7275   4.974   1.329   1.602  0.2569  1.0267 -3.4230
 1819SOL     vw 7276   4.915   1.268   1.582  0.2210 -0.2816  0.0659
 1820SOL     ow 7277   1.781   1.190   5.454 -0.7472 -0.9905  0.2717
 1820SOL     hw 7278   1.830   1.110   5.436 -0.2866 -0.5915 -0.2999
 1820SOL     hw 7279   1.824   1.257   5.401 -3.1688 -1.0102 -1.9526
 1820SOL     vw 7280   1.793   1.189   5.444 -1.0060 -0.9405 -0.0970
 1821SOL     ow 7281   0.797   2.975   5.847  0.2975 -0.4295 -0.0771
 1821SOL     hw 7282   0.837   3.061   5.837  0.6188 -0.3963  1.3046
 1821SOL     hw 7283   0.869   2.918   5.874 -0.1756 -0.8242  0.3612
 1821SOL     vw 7284   0.812   2.979   5.849  0.2775 -0.4772  0.1631
 1822SOL     ow 7285   4.638   6.975   6.974 -0.0113 -0.0024 -0.7715
 1822SOL     hw 7286   4.633   7.058   6.927 -0.3588 -0.7725 -2.1474
 1822SOL     hw 7287   4.584   6.988   7.051  1.5092  1.6867  0.1050
 1822SOL     vw 7288   4.631   6.988   6.978  0.1435  0.1190 -0.8376
 1823SOL     ow 7289   5.749   4.823   6.312  0.5409 -0.1469  0.3048
 1823SOL     hw 7290   5.810   4.876   6.362  0.8227  0.6884 -0.8985
 1823SOL     hw 7291   5.804   4.768   6.256  0.2280  0.8861 -1.0721
 1823SOL     vw 7292   5.764   4.822   6.311  0.5367  0.0992 -0.0355
 1824SOL     ow 7293   6.327   2.493   4.612 -0.5666 -0.3940  0.1572
 1824SOL     hw 7294   6.312   2.560   4.545  2.2688  0.3800  0.1607
 1824SOL     hw 7295   6.384   2.536   4.676  0.3470 -2.4504  0.8035
 1824SOL     vw 7296   6.332   2.508   4.612 -0.0718 -0.5631  0.2427
 1825SOL     ow 7297   5.653   4.278   6.556 -0.0397  0.1447  0.2598
 1825SOL     hw 7298   5.637   4.306   6.646 -4.9035 -2.7773  0.6772
 1825SOL     hw 7299   5.683   4.188   6.563  2.9426  0.9219 -1.1443
 1825SOL     vw 7300   5.655   4.270   6.569 -0.2878 -0.1385  0.1297
 1826SOL     ow 7301   1.539   1.548   7.031 -0.0476  0.1632 -0.4766
 1826SOL     hw 7302   1.568   1.590   7.112  0.7190 -1.1996 -0.0167
 1826SOL     hw 7303   1.615   1.556   6.972  0.6516 -1.7506  0.0907
 1826SOL     vw 7304   1.553   1.555   7.034  0.1458 -0.2692 -0.3412
 1827SOL     ow 7305   4.020   4.164   4.854  0.1100 -0.1325 -0.1880
 1827SOL     hw 7306   3.985   4.185   4.940  0.6162 -0.0308 -0.0032
 1827SOL     hw 7307   3.986   4.232   4.796 -1.6782 -1.1619 -0.4436
 1827SOL     vw 7308   4.011   4.176   4.858 -0.0594 -0.2549 -0.1974
 1828SOL     ow 7309   7.121   3.673   3.915 -0.0703 -0.0460 -0.1889
 1828SOL     hw 7310   7.037   3.679   3.868 -0.2312  2.6178  0.2842
 1828SOL     hw 7311   7.131   3.580   3.934 -3.5443 -0.3689  0.8136
 1828SOL     vw 7312   7.111   3.661   3.911 -0.5498  0.2629  0.0057
 1829SOL     ow 7313   4.840   0.779   6.918  0.1330  0.2782  0.6676
 1829SOL     hw 7314   4.783   0.742   6.851 -0.3431  1.5435  0.3294
 1829SOL     hw 7315   4.903   0.710   6.938 -1.2442 -0.9926  0.7269
 1829SOL     vw 7316   4.841   0.765   6.911 -0.1116  0.2775  0.6306
 1830SOL     ow 7317   3.487   7.025   0.151 -0.1451  0.4402 -0.1958
 1830SOL     hw 7318   3.463   7.055   0.239 -0.8621  0.8445 -0.5254
 1830SOL     hw 7319   3.446   6.940   0.143  3.4050 -1.6793  1.4528
 1830SOL     vw 7320   3.479   7.018   0.162  0.2286  0.2139 -0.0218
 1831SOL     ow 7321   0.916   0.379   1.226 -0.2509  0.1271 -0.6747
 1831SOL     hw 7322   0.928   0.460   1.276  0.7739  0.5013 -1.4964
 1831SOL     hw 7323   0.858   0.326   1.280 -0.6063  1.2391  0.0758
 1831SOL     vw 7324   0.910   0.383   1.239 -0.1626  0.3231 -0.6841
 1832SOL     ow 7325   0.035   1.150   3.286  0.3977 -0.1079 -0.1224
 1832SOL     hw 7326  -0.027   1.086   3.251  0.5224  0.6760 -1.9092
 1832SOL     hw 7327  -0.020   1.220   3.320  0.2837 -0.4705  0.4525
 1832SOL     vw 7328   0.019   1.151   3.286  0.3991 -0.0523 -0.2822
 1833SOL     ow 7329   2.768   7.267   2.720 -0.1314  0.9727  0.6220
 1833SOL     hw 7330   2.813   7.270   2.804  1.5879 -0.7471 -0.1607
 1833SOL     hw 7331   2.821   7.321   2.661  1.0753 -1.1050 -0.3155
 1833SOL     vw 7332   2.781   7.274   2.723  0.2546  0.4718  0.3951
 1834SOL     ow 7333   3.743   6.753   2.766 -1.0745 -0.2671  0.0105
 1834SOL     hw 7334   3.807   6.739   2.696 -1.0845 -0.1252 -0.0275
 1834SOL     hw 7335   3.758   6.681   2.827  0.8700  1.1536  1.3271
 1834SOL     vw 7336   3.753   6.742   2.765 -0.8193 -0.0610  0.1791
 1835SOL     ow 7337   5.623   1.646   0.297 -0.0538  0.1467  1.0545
 1835SOL     hw 7338   5.693   1.679   0.353  0.8247  1.4853 -0.7235
 1835SOL     hw 7339   5.669   1.601   0.226 -1.1354 -1.5500  1.3706
 1835SOL     vw 7340   5.638   1.644   0.295 -0.0803  0.0994  0.8617
 1836SOL     ow 7341   2.464   5.195   6.238  0.0572  0.8527  0.2814
 1836SOL     hw 7342   2.536   5.234   6.287 -1.2336  0.9496  2.1813
 1836SOL     hw 7343   2.507   5.142   6.171  1.9446 -0.2753  2.2665
 1836SOL     vw 7344   2.479   5.193   6.235  0.1359  0.7169  0.7939
 1837SOL     ow 7345   5.858   3.702   1.915  0.3394 -0.2937 -0.3341
 1837SOL     hw 7346   5.781   3.753   1.889  0.3978 -0.0100  0.0531
 1837SOL     hw 7347   5.833   3.662   1.998 -1.4681 -4.5827 -2.6047
 1837SOL     vw 7348   5.844   3.703   1.923  0.1085 -0.8221 -0.5826
 1838SOL     ow 7349   0.900   0.771   2.680  0.0661 -0.4317 -0.7032
 1838SOL     hw 7350   0.942   0.731   2.756  0.9417  3.3101  1.0185
 1838SOL     hw 7351   0.972   0.794   2.621 -0.5664 -2.8465 -2.6019
 1838SOL     vw 7352   0.915   0.769   2.682  0.0981 -0.2567 -0.7265
 1839SOL     ow 7353   2.529   6.973   6.932 -0.0797 -0.2391  0.0775
 1839SOL     hw 7354   2.538   6.985   7.026 -0.7848 -0.6835  0.2102
 1839SOL     hw 7355   2.601   7.024   6.894 -1.8338  2.9046  0.6585
 1839SOL     vw 7356   2.540   6.981   6.939 -0.4041  0.1171  0.1714
 1840SOL     ow 7357   2.049   3.990   1.120 -0.1336 -0.1481  0.1162
 1840SOL     hw 7358   2.021   4.067   1.169  0.9249  0.5113 -0.2680
 1840SOL     hw 7359   2.119   4.022   1.063  1.2864 -1.6458  0.9072
 1840SOL     vw 7360   2.055   4.004   1.119  0.1935 -0.2589  0.1699
 1841SOL     ow 7361   7.119   2.072   1.982 -0.3284  0.3790 -0.1988
 1841SOL     hw 7362   7.116   2.112   2.069  0.1573 -0.8524  0.4103
 1841SOL     hw 7363   7.029   2.079   1.950 -0.5935  0.5511  0.5365
 1841SOL     vw 7364   7.107   2.078   1.990 -0.2995  0.2393 -0.0215
 1842SOL     ow 7365   2.138   0.202   2.044 -0.5056 -0.6618 -0.2821
 1842SOL     hw 7366   2.170   0.137   2.107  0.4702  1.3391  1.3874
 1842SOL     hw 7367   2.065   0.245   2.089  0.4832  1.0985 -0.2817
 1842SOL     vw 7368   2.133   0.199   2.059 -0.2464 -0.1655 -0.0619
 1843SOL     ow 7369   7.295   2.079   4.862  0.3237 -0.2265 -0.2207
 1843SOL     hw 7370   7.385   2.094   4.891  0.0231  1.8639 -0.2452
 1843SOL     hw 7371   7.256   2.025   4.931  0.8348  1.1742  1.2185
 1843SOL     vw 7372   7.302   2.074   4.875  0.3514  0.2340 -0.0339
 1844SOL     ow 7373   3.235   0.209   6.668 -0.3157 -0.1581 -0.3731
 1844SOL     hw 7374   3.312   0.266   6.664 -1.0727  0.9715  0.5678
 1844SOL     hw 7375   3.253   0.150   6.741 -0.3752  0.1556 -0.1035
 1844SOL     vw 7376   3.248   0.208   6.677 -0.4232  0.0323 -0.2136
 1845SOL     ow 7377   5.605   1.498   3.539 -0.2659 -0.1235 -0.1391
 1845SOL     hw 7378   5.576   1.503   3.448 -3.4752 -1.0664  0.6877
 1845SOL     hw 7379   5.634   1.586   3.561  0.4315  0.1468 -1.9816
 1845SOL     vw 7380   5.605   1.510   3.530 -0.5972 -0.2122 -0.2730
 1846SOL     ow 7381   5.371   2.166   2.835  0.1734  0.5478  0.1794
 1846SOL     hw 7382   5.425   2.172   2.756  0.0907 -0.7302 -0.0052
 1846SOL     hw 7383   5.289   2.210   2.812  0.1447  0.1746 -0.4680
 1846SOL     vw 7384   5.367   2.173   2.821  0.1588  0.3301  0.0696
 1847SOL     ow 7385   5.517   5.176   0.700  0.0274  0.2260  0.2320
 1847SOL     hw 7386   5.469   5.097   0.725 -0.2362  0.4388  0.4105
 1847SOL     hw 7387   5.599   5.144   0.663 -0.4890 -0.1644 -0.5992
 1847SOL     vw 7388   5.521   5.162   0.699 -0.0756  0.2024  0.1459
 1848SOL     ow 7389   6.772   4.775   6.022 -0.2921  0.0264 -0.1334
 1848SOL     hw 7390   6.686   4.797   5.987 -0.5733 -0.1866  0.4110
 1848SOL     hw 7391   6.768   4.804   6.113 -0.2779 -1.2631  0.2870
 1848SOL     vw 7392   6.760   4.782   6.029 -0.3276 -0.1717 -0.0060
 1849SOL     ow 7393   0.945   6.550   4.529 -0.3991 -0.4981  0.7258
 1849SOL     hw 7394   0.962   6.519   4.618  0.9424 -2.1594 -0.0637
 1849SOL     hw 7395   0.926   6.471   4.479 -4.4247  0.6167  0.0956
 1849SOL     vw 7396   0.944   6.535   4.534 -0.7532 -0.5701  0.5386
 1850SOL     ow 7397   2.257   5.615   2.662 -0.4128 -0.2842  0.6072
 1850SOL     hw 7398   2.194   5.560   2.710 -2.0401  1.6225  0.8073
 1850SOL     hw 7399   2.211   5.639   2.582  1.2096 -1.1364 -0.6202
 1850SOL     vw 7400   2.242   5.611   2.658 -0.4134 -0.1450  0.4717
 1851SOL     ow 7401   1.894   1.578   1.286  0.0335 -0.0293 -0.3645
 1851SOL     hw 7402   1.904   1.670   1.261 -2.1192  0.0480 -1.1193
 1851SOL     hw 7403   1.851   1.581   1.371 -0.0505 -0.3418 -0.3970
 1851SOL     vw 7404   1.890   1.591   1.294 -0.2617 -0.0604 -0.4684
 1852SOL     ow 7405   1.067   0.523   1.012 -0.3834 -0.6525  0.3942
 1852SOL     hw 7406   1.130   0.547   1.079 -1.6608 -2.9865  2.6101
 1852SOL     hw 7407   1.109   0.548   0.929  1.9891  0.8034  1.9258
 1852SOL     vw 7408   1.081   0.529   1.010 -0.2390 -0.7684  0.8886
 1853SOL     ow 7409   0.163   3.749   4.233  0.3676 -0.2937 -0.2686
 1853SOL     hw 7410   0.241   3.716   4.189  1.0549 -0.4294  1.0014
 1853SOL     hw 7411   0.196   3.811   4.298 -0.5516 -0.5535  0.4800
 1853SOL     vw 7412   0.177   3.753   4.236  0.3370 -0.3457 -0.0021
 1854SOL     ow 7413   5.160   0.880   6.289  0.3604  0.3820 -0.3521
 1854SOL     hw 7414   5.237   0.933   6.270  0.4682 -0.0030 -1.0492
 1854SOL     hw 7415   5.193   0.790   6.291 -0.0561  0.2190 -0.6046
 1854SOL     vw 7416   5.174   0.875   6.287  0.3197  0.3097 -0.4773
 1855SOL     ow 7417   5.693   4.691   3.505 -1.0172 -0.0134 -0.0472
 1855SOL     hw 7418   5.661   4.614   3.457 -1.3862 -0.1496  0.4116
 1855SOL     hw 7419   5.786   4.674   3.517 -1.3058 -0.9165  1.0153
 1855SOL     vw 7420   5.701   4.678   3.500 -1.1039 -0.1504  0.1535
 1856SOL     ow 7421   4.895   6.922   3.781  0.3340 -0.2024  0.3353
 1856SOL     hw 7422   4.991   6.917   3.774  0.3663  0.4387  0.2506
 1856SOL     hw 7423   4.877   7.015   3.789 -0.2923 -0.3172  0.2814
 1856SOL     vw 7424   4.905   6.933   3.781  0.2558 -0.1328  0.3170
 1857SOL     ow 7425   1.669   2.783   4.099 -0.8102 -0.0705  0.3102
 1857SOL     hw 7426   1.668   2.871   4.062 -0.5594 -0.2431 -0.1075
 1857SOL     hw 7427   1.692   2.795   4.191 -1.1443  0.3323  0.3413
 1857SOL     vw 7428   1.672   2.796   4.106 -0.8212 -0.0402  0.2596
 1858SOL     ow 7429   6.877   6.782   0.417 -0.3774  0.3775 -0.5504
 1858SOL     hw 7430   6.830   6.861   0.443 -0.0649  0.2585  0.4631
 1858SOL     hw 7431   6.925   6.757   0.497 -1.3147 -1.4400 -0.5235
 1858SOL     vw 7432   6.877   6.789   0.431 -0.4599  0.1221 -0.4132
 1859SOL     ow 7433   3.150   0.715   7.112  0.4087  0.1748  0.3623
 1859SOL     hw 7434   3.062   0.710   7.076  0.4840 -2.4126  0.3837
 1859SOL     hw 7435   3.144   0.674   7.198  1.9978 -2.0829 -0.5127
 1859SOL     vw 7436   3.138   0.709   7.118  0.6284 -0.4644  0.2496
 1860SOL     ow 7437   6.554   0.603   2.531  0.3097  0.1383 -0.3023
 1860SOL     hw 7438   6.519   0.673   2.476 -1.6793  0.8706  1.7397
 1860SOL     hw 7439   6.605   0.649   2.597 -1.9407 -0.0964  1.7384
 1860SOL     vw 7440   6.556   0.618   2.532 -0.2494  0.2040  0.2364
 1861SOL     ow 7441   1.828   5.590   4.551 -1.1855  0.4471  0.5861
 1861SOL     hw 7442   1.786   5.590   4.637  0.3145 -1.3312  1.3901
 1861SOL     hw 7443   1.901   5.528   4.560 -0.1667  1.2371 -1.5782
 1861SOL     vw 7444   1.832   5.582   4.563 -0.8532  0.3166  0.4067
 1862SOL     ow 7445   1.591   0.971   0.144  0.2471 -0.4127  1.1536
 1862SOL     hw 7446   1.589   0.881   0.178  0.9017 -0.5083  0.9580
 1862SOL     hw 7447   1.684   0.991   0.135  0.1260 -0.5576 -0.9929
 1862SOL     vw 7448   1.603   0.962   0.147  0.3175 -0.4444  0.8446
 1863SOL     ow 7449   4.049   1.091   0.430  0.4138 -0.0438 -0.4191
 1863SOL     hw 7450   3.972   1.056   0.386  0.3138 -1.8564  1.0684
 1863SOL     hw 7451   4.019   1.114   0.518  0.8684  2.3710 -0.8346
 1863SOL     vw 7452   4.035   1.089   0.436  0.4604  0.0356 -0.2777
 1864SOL     ow 7453   5.564   5.905   3.604 -0.3160 -0.1153  0.0208
 1864SOL     hw 7454   5.656   5.894   3.629 -0.8605  0.2734  2.5367
 1864SOL     hw 7455   5.558   5.867   3.517  2.1986 -0.2427 -0.1797
 1864SOL     vw 7456   5.576   5.898   3.596 -0.0560 -0.0808  0.3263
 1865SOL     ow 7457   0.847   3.730   7.141 -0.2021  0.3292 -0.3382
 1865SOL     hw 7458   0.933   3.768   7.120 -0.6044  0.3574 -2.0390
 1865SOL     hw 7459   0.784   3.798   7.116 -0.7329  0.4153  1.1462
 1865SOL     vw 7460   0.850   3.744   7.135 -0.3252  0.3443 -0.3667
 1866SOL     ow 7461   4.494   6.184   1.212 -0.1327 -0.2397  0.1790
 1866SOL     hw 7462   4.448   6.236   1.146  1.3603  0.2449 -0.5244
 1866SOL     hw 7463   4.430   6.173   1.282 -2.1497 -1.6259 -1.7155
 1866SOL     vw 7464   4.480   6.190   1.212 -0.2017 -0.3586 -0.1637
 1867SOL     ow 7465   2.777   0.182   0.142  0.6517  0.4086 -0.1276
 1867SOL     hw 7466   2.872   0.181   0.153  0.5227 -1.0659  1.2068
 1867SOL     hw 7467   2.743   0.159   0.228 -0.8917 -0.0344 -0.8218
 1867SOL     vw 7468   2.785   0.179   0.155  0.4309  0.1556 -0.0431
 1868SOL     ow 7469   6.088   6.296   0.943 -0.2908  0.3748 -0.9179
 1868SOL     hw 7470   6.152   6.367   0.932  0.8317 -0.3000  0.8242
 1868SOL     hw 7471   6.006   6.341   0.965  0.1274  1.1648 -0.9350
 1868SOL     vw 7472   6.086   6.312   0.945 -0.0875  0.3898 -0.6903
 1869SOL     ow 7473   2.131   5.249   1.416  0.2350 -0.3635 -0.1730
 1869SOL     hw 7474   2.192   5.313   1.379  2.6698 -2.8220 -0.7008
 1869SOL     hw 7475   2.106   5.194   1.342 -2.1054  0.0712  0.2009
 1869SOL     vw 7476   2.136   5.250   1.401  0.2474 -0.6301 -0.1933
 1870SOL     ow 7477   6.627   7.135   2.944  0.0813 -0.5432  0.8030
 1870SOL     hw 7478   6.694   7.128   3.012 -0.9988  1.8966  2.2756
 1870SOL     hw 7479   6.671   7.178   2.871 -0.1818  3.2332  2.5970
 1870SOL     vw 7480   6.641   7.140   2.943 -0.0958  0.2768  1.2338
 1871SOL     ow 7481   2.549   3.053   2.871 -0.5690  0.1123  0.2664
 1871SOL     hw 7482   2.618   3.118   2.859  0.1081 -0.7198 -0.4078
 1871SOL     hw 7483   2.486   3.073   2.802 -0.3241  0.0058  0.0108
 1871SOL     vw 7484   2.550   3.064   2.861 -0.4474 -0.0116  0.1436
 1872SOL     ow 7485   2.293   4.055   7.209  0.1083 -0.1317 -0.7241
 1872SOL     hw 7486   2.340   4.021   7.133 -0.5476 -0.9371 -0.7915
 1872SOL     hw 7487   2.264   3.977   7.256  0.1599  0.3577  0.1386
 1872SOL     vw 7488   2.295   4.040   7.205  0.0285 -0.1738 -0.6194
 1873SOL     ow 7489   3.468   0.171   4.993  0.3296 -1.0789 -0.3494
 1873SOL     hw 7490   3.520   0.168   4.913 -0.2667  3.0092 -1.1074
 1873SOL     hw 7491   3.486   0.258   5.030 -2.6358 -1.1698  1.6356
 1873SOL     vw 7492   3.477   0.182   4.987 -0.1403 -0.5515 -0.1879
 1874SOL     ow 7493   4.288   4.151   4.893  0.2231 -0.5024 -0.6248
 1874SOL     hw 7494   4.364   4.178   4.841 -0.6068  0.6710 -1.2607
 1874SOL     hw 7495   4.287   4.212   4.966 -0.3300 -0.2664 -0.8282
 1874SOL     vw 7496   4.298   4.162   4.896  0.0408 -0.3166 -0.7355
 1875SOL     ow 7497   1.310   6.539   4.829  0.6742 -1.0500 -0.1177
 1875SOL     hw 7498   1.275   6.454   4.803  0.1082 -0.4885 -1.2511
 1875SOL     hw 7499   1.328   6.585   4.746 -1.9222  1.1059  0.3627
 1875SOL     vw 7500   1.308   6.534   4.815  0.2569 -0.6914 -0.2038
 1876SOL     ow 7501   7.033   0.115   6.666  0.4828 -0.3860 -0.2615
 1876SOL     hw 7502   6.988   0.167   6.733  0.3074 -0.4643 -0.3188
 1876SOL     hw 7503   7.039   0.174   6.591  1.6092  0.0679  0.1594
 1876SOL     vw 7504   7.028   0.130   6.665  0.6084 -0.3365 -0.2136
 1877SOL     ow 7505   1.042   5.333   2.138 -0.3365 -0.1643 -0.6993
 1877SOL     hw 7506   0.963   5.353   2.087 -0.7969  1.0328  0.4346
 1877SOL     hw 7507   1.111   5.383   2.094 -0.2541 -0.9786 -1.5170
 1877SOL     vw 7508   1.040   5.342   2.125 -0.3864 -0.1137 -0.6576
 1878SOL     ow 7509   4.530   1.878   4.100 -0.2981 -0.0995  0.6489
 1878SOL     hw 7510   4.551   1.785   4.108 -0.8280 -0.1319  1.6997
 1878SOL     hw 7511   4.551   1.898   4.009  1.4241 -0.8467  0.8313
 1878SOL     vw 7512   4.536   1.868   4.089 -0.1409 -0.2024  0.8116
 1879SOL     ow 7513   2.066   6.169   0.719 -0.7945  0.3953 -0.6861
 1879SOL     hw 7514   2.147   6.215   0.698 -1.3208  1.1820 -1.0614
 1879SOL     hw 7515   2.004   6.239   0.740 -0.9496 -0.2392  1.2283
 1879SOL     vw 7516   2.068   6.184   0.719 -0.8845  0.4153 -0.4830
 1880SOL     ow 7517   4.801   2.434   4.154  0.0678  0.7046 -0.0012
 1880SOL     hw 7518   4.783   2.470   4.067  1.4774  1.1863 -0.1155
 1880SOL     hw 7519   4.886   2.391   4.146  0.7164  1.6258  1.3588
 1880SOL     vw 7520   4.810   2.433   4.142  0.3395  0.8897  0.1631
 1881SOL     ow 7521   5.550   1.474   3.835  1.2366 -0.7895 -0.5799
 1881SOL     hw 7522   5.528   1.556   3.879  0.9495 -0.4825 -1.2860
 1881SOL     hw 7523   5.585   1.418   3.905  0.9208 -0.2639  0.0087
 1881SOL     vw 7524   5.552   1.478   3.850  1.1568 -0.6797 -0.5953
 1882SOL     ow 7525   6.234   1.159   2.441  0.6910 -0.0206  0.1371
 1882SOL     hw 7526   6.174   1.137   2.370  1.2197  0.2018 -0.3916
 1882SOL     hw 7527   6.319   1.125   2.412  1.1223  0.9530  0.1955
 1882SOL     vw 7528   6.238   1.152   2.428  0.8178  0.1373  0.0750
 1883SOL     ow 7529   2.136   6.066   2.984 -0.0484  0.6613 -0.2419
 1883SOL     hw 7530   2.134   6.153   3.022  1.6375  0.4420  0.4378
 1883SOL     hw 7531   2.209   6.022   3.027  0.8358 -0.2046 -2.4702
 1883SOL     vw 7532   2.145   6.071   2.995  0.2906  0.5181 -0.4463
 1884SOL     ow 7533   2.538   1.523   0.249  0.1473 -0.6068 -0.2740
 1884SOL     hw 7534   2.570   1.612   0.253  0.1767 -0.6673  1.0926
 1884SOL     hw 7535   2.573   1.480   0.327 -2.0038 -1.0828  0.4895
 1884SOL     vw 7536   2.547   1.529   0.260 -0.1327 -0.6776  0.0070
 1885SOL     ow 7537   3.164   4.503   1.872 -0.2596 -0.4945 -0.4617
 1885SOL     hw 7538   3.076   4.524   1.905  0.1849  0.1868  0.3231
 1885SOL     hw 7539   3.203   4.450   1.941 -0.0833 -0.8669 -0.8484
 1885SOL     vw 7540   3.157   4.499   1.885 -0.1777 -0.4537 -0.4092
 1886SOL     ow 7541   0.677   0.399   7.257 -0.0057 -0.5752 -0.3116
 1886SOL     hw 7542   0.599   0.399   7.202 -1.9927 -2.0174  2.2993
 1886SOL     hw 7543   0.696   0.492   7.271 -2.0054 -0.1814 -0.0284
 1886SOL     vw 7544   0.670   0.412   7.252 -0.5317 -0.7135  0.0703
 1887SOL     ow 7545   3.058   1.931   4.335  0.1076 -0.3149  0.4586
 1887SOL     hw 7546   3.107   1.973   4.406 -3.0162  0.8558  2.1465
 1887SOL     hw 7547   3.009   1.861   4.378 -3.6025  1.8222  0.1790
 1887SOL     vw 7548   3.058   1.927   4.350 -0.7941  0.1215  0.6442
 1888SOL     ow 7549   6.923   0.777   6.065  0.1100  0.1034 -0.0524
 1888SOL     hw 7550   6.980   0.711   6.104  1.5075  2.5736  2.3569
 1888SOL     hw 7551   6.979   0.822   6.001 -0.6902 -0.6203 -1.3116
 1888SOL     vw 7552   6.938   0.774   6.061  0.1886  0.3338  0.0994
 1889SOL     ow 7553   5.398   4.651   3.935  0.1940  0.0001  0.7055
 1889SOL     hw 7554   5.303   4.651   3.923  0.2621  0.1420  0.1499
 1889SOL     hw 7555   5.423   4.559   3.929 -0.0022 -0.1395  1.7035
 1889SOL     vw 7556   5.388   4.639   3.933  0.1767  0.0005  0.7639
 1890SOL     ow 7557   5.608   6.967   5.312  0.0917 -0.0858  0.6935
 1890SOL     hw 7558   5.642   7.055   5.297 -3.2629  1.3542  0.4217
 1890SOL     hw 7559   5.642   6.915   5.239  4.0249  0.2378  2.0968
 1890SOL     vw 7560   5.617   6.972   5.300  0.1678  0.1469  0.8428
 1891SOL     ow 7561   0.484   1.949   6.333 -0.2348  0.1018  0.5853
 1891SOL     hw 7562   0.409   1.892   6.318  0.7422 -1.3336  0.9153
 1891SOL     hw 7563   0.547   1.924   6.265  0.6229  0.0300  1.3824
 1891SOL     vw 7564   0.483   1.938   6.322  0.0073 -0.0970  0.7341
 1892SOL     ow 7565   1.564   0.118   3.852  0.2023  0.5771 -0.0170
 1892SOL     hw 7566   1.472   0.133   3.869  0.0295 -0.2842 -0.1379
 1892SOL     hw 7567   1.597   0.201   3.817 -0.0099  1.5975  2.0691
 1892SOL     vw 7568   1.556   0.131   3.849  0.1515  0.5981  0.2424
 1893SOL     ow 7569   4.907   3.845   0.848 -0.2286 -0.1027  0.1969
 1893SOL     hw 7570   4.929   3.922   0.796  3.0024  0.6024  2.2958
 1893SOL     hw 7571   4.945   3.772   0.800  0.9632  0.2761  0.5374
 1893SOL     vw 7572   4.915   3.846   0.835  0.3548  0.0402  0.5187
 1894SOL     ow 7573   2.191   0.824   4.104  0.3710  0.3594 -0.1428
 1894SOL     hw 7574   2.198   0.908   4.150  0.2180 -0.6543  1.8162
 1894SOL     hw 7575   2.142   0.767   4.164  1.3474 -1.4484 -0.9738
 1894SOL     vw 7576   2.185   0.828   4.118  0.4796 -0.0128  0.0062
 1895SOL     ow 7577   4.645   2.652   1.766  0.8226  0.1119  0.3751
 1895SOL     hw 7578   4.655   2.624   1.675 -1.3171 -1.5333  0.5589
 1895SOL     hw 7579   4.734   2.664   1.797  1.6262  0.5320 -1.8705
 1895SOL     vw 7580   4.658   2.650   1.758  0.6464 -0.0497  0.1031
 1896SOL     ow 7581   6.401   7.300   5.103 -0.4072 -0.0074 -0.0484
 1896SOL     hw 7582   6.412   7.205   5.095  0.2741  0.2038 -2.4700
 1896SOL     hw 7583   6.326   7.320   5.047 -0.7855  0.8571  0.7446
 1896SOL     vw 7584   6.393   7.290   5.095 -0.3672  0.1345 -0.2635
 1897SOL     ow 7585   1.176   5.642   0.272  0.7318  0.0458  0.2582
 1897SOL     hw 7586   1.141   5.666   0.358  1.3170 -1.8687  1.1008
 1897SOL     hw 7587   1.247   5.703   0.257  0.8077  0.2399  1.2972
 1897SOL     vw 7588   1.180   5.653   0.282  0.8190 -0.1812  0.5065
 1898SOL     ow 7589   0.626   1.419   5.086  0.2221 -0.1406  0.3295
 1898SOL     hw 7590   0.567   1.347   5.106 -0.3894  0.6410  1.4215
 1898SOL     hw 7591   0.713   1.387   5.109  0.0864 -0.8743 -0.1506
 1898SOL     vw 7592   0.630   1.405   5.091  0.1235 -0.1343  0.4103
 1899SOL     ow 7593   4.079   5.154   0.458 -0.3875  0.5768 -0.3749
 1899SOL     hw 7594   4.092   5.069   0.416  2.3742  1.1121 -0.8329
 1899SOL     hw 7595   3.994   5.183   0.427 -0.1354 -0.7510 -2.5799
 1899SOL     vw 7596   4.070   5.146   0.448  0.0098  0.4721 -0.7263
 1900SOL     ow 7597   0.234   4.892   4.453  0.0711 -0.0397 -0.2789
 1900SOL     hw 7598   0.219   4.955   4.382  0.6700  1.3469  0.7629
 1900SOL     hw 7599   0.287   4.940   4.516  1.1239 -1.8336  0.2724
 1900SOL     vw 7600   0.239   4.907   4.452  0.2890 -0.0932 -0.0687
 1901SOL     ow 7601   5.412   3.948   2.060 -0.0317  0.0321 -0.4949
 1901SOL     hw 7602   5.328   3.949   2.014 -0.9984  0.0329  1.1789
 1901SOL     hw 7603   5.447   4.036   2.047 -0.5443  0.1995 -0.7852
 1901SOL     vw 7604   5.405   3.960   2.052 -0.2270  0.0542 -0.3123
 1902SOL     ow 7605   0.718   3.302   2.408  0.1290 -0.1485  0.2030
 1902SOL     hw 7606   0.772   3.223   2.420 -0.0892 -0.2163  0.8027
 1902SOL     hw 7607   0.729   3.325   2.316  0.4528 -0.6935  0.0983
 1902SOL     vw 7608   0.727   3.295   2.398  0.1430 -0.2292  0.2683
 1903SOL     ow 7609   5.097   6.762   3.980  0.5164  0.1905 -0.6567
 1903SOL     hw 7610   5.017   6.802   4.015  0.1955  1.6255 -2.9000
 1903SOL     hw 7611   5.068   6.676   3.949  0.4128 -0.3204  0.7658
 1903SOL     vw 7612   5.083   6.756   3.981  0.4601  0.3128 -0.7650
 1904SOL     ow 7613   4.623   6.771   1.477 -0.0873 -0.2335  0.4083
 1904SOL     hw 7614   4.711   6.748   1.507 -0.1857  0.3552  1.1799
 1904SOL     hw 7615   4.564   6.719   1.532 -0.2920  1.3439  1.7448
 1904SOL     vw 7616   4.627   6.761   1.488 -0.1271  0.0522  0.6865
 1905SOL     ow 7617   6.409   4.896   3.419 -0.5225 -0.1121  0.1879
 1905SOL     hw 7618   6.465   4.917   3.494  0.6014  0.4753 -0.7894
 1905SOL     hw 7619   6.371   4.810   3.441  0.9842 -0.6625  0.7719
 1905SOL     vw 7620   6.412   4.887   3.432 -0.1752 -0.1073  0.1360
 1906SOL     ow 7621   6.853   5.133   5.701  0.6239  0.4075  0.3154
 1906SOL     hw 7622   6.789   5.196   5.669  0.0759  0.0203  0.6223
 1906SOL     hw 7623   6.893   5.095   5.623 -0.1983 -0.0248  0.0945
 1906SOL     vw 7624   6.850   5.136   5.687  0.4430  0.2995  0.3269
 1907SOL     ow 7625   1.717   3.537   1.402  0.9485 -0.1525  0.5329
 1907SOL     hw 7626   1.788   3.597   1.380  1.7961 -1.3160  0.0539
 1907SOL     hw 7627   1.673   3.579   1.477  0.1673  2.1363 -1.1008
 1907SOL     vw 7628   1.720   3.551   1.409  0.9572 -0.0039  0.2542
 1908SOL     ow 7629   2.610   5.647   5.806  0.3380 -0.3447  0.1620
 1908SOL     hw 7630   2.593   5.737   5.776  1.7551 -0.4857 -1.1919
 1908SOL     hw 7631   2.657   5.606   5.733  2.3870 -1.2832  1.9069
 1908SOL     vw 7632   2.614   5.654   5.792  0.7952 -0.4871  0.2134
 1909SOL     ow 7633   2.672   3.167   2.021 -0.3307  0.8755 -0.4574
 1909SOL     hw 7634   2.701   3.212   2.101  0.4369  1.6760 -1.1650
 1909SOL     hw 7635   2.674   3.234   1.953 -0.5762  0.1129 -1.2439
 1909SOL     vw 7636   2.676   3.182   2.023 -0.2619  0.8806 -0.6545
 1910SOL     ow 7637   0.875   0.022   4.568 -0.6101  0.1009 -0.7176
 1910SOL     hw 7638   0.867   0.108   4.610 -0.8109 -0.7017  0.9486
 1910SOL     hw 7639   0.794   0.012   4.519 -0.1506  1.2755 -1.7703
 1910SOL     vw 7640   0.864   0.032   4.567 -0.5760  0.1500 -0.6366
 1911SOL     ow 7641   1.164   6.928   3.712  0.4883 -0.3006  0.1790
 1911SOL     hw 7642   1.234   6.861   3.710  0.2876 -0.5190 -1.9658
 1911SOL     hw 7643   1.086   6.881   3.683 -0.8308 -0.2451  3.2770
 1911SOL     vw 7644   1.163   6.913   3.708  0.2878 -0.3221  0.3046
 1912SOL     ow 7645   2.940   5.978   0.030  0.0860 -0.2255  0.0267
 1912SOL     hw 7646   2.947   6.070   0.004  0.5960 -0.0833  0.6470
 1912SOL     hw 7647   2.862   5.946  -0.016 -0.0645  0.4987 -0.2333
 1912SOL     vw 7648   2.930   5.986   0.020  0.1334 -0.1109  0.0742
 1913SOL     ow 7649   0.372   5.595   2.648  0.1894  0.4559 -0.4119
 1913SOL     hw 7650   0.407   5.547   2.722  3.3151  0.1758 -1.9080
 1913SOL     hw 7651   0.408   5.551   2.571 -1.2648  1.9450 -2.0624
 1913SOL     vw 7652   0.381   5.583   2.647  0.4099  0.6154 -0.8271
 1914SOL     ow 7653   3.425   2.569   4.756  0.1629 -0.0185  0.1751
 1914SOL     hw 7654   3.371   2.616   4.819 -0.9227 -2.0998  0.8574
 1914SOL     hw 7655   3.369   2.499   4.723  1.5154 -0.4658 -1.2805
 1914SOL     vw 7656   3.411   2.566   4.760  0.1981 -0.3523  0.0727
 1915SOL     ow 7657   3.736   3.897   2.015  1.2550  0.4649  0.1268
 1915SOL     hw 7658   3.763   3.987   1.997  1.0863  0.1691 -1.9397
 1915SOL     hw 7659   3.741   3.854   1.930 -0.8223 -0.9074  0.6175
 1915SOL     vw 7660   3.740   3.903   2.001  0.9586  0.2450 -0.0811
 1916SOL     ow 7661   5.615   0.261   4.145 -0.0719  0.0764  0.4780
 1916SOL     hw 7662   5.686   0.201   4.124  0.9821  1.5968 -0.4447
 1916SOL     hw 7663   5.621   0.272   4.240 -0.8732 -1.9288  0.8250
 1916SOL     vw 7664   5.625   0.254   4.155 -0.0386  0.0125  0.4022
 1917SOL     ow 7665   4.475   1.296   2.887 -0.2648 -0.1240  0.1892
 1917SOL     hw 7666   4.477   1.386   2.920 -2.9903 -0.7550  2.5018
 1917SOL     hw 7667   4.385   1.282   2.860  0.7444 -1.3261 -3.0992
 1917SOL     vw 7668   4.464   1.306   2.888 -0.4914 -0.3658  0.0603
 1918SOL     ow 7669   6.409   2.272   4.986  0.0383 -0.8530  0.2177
 1918SOL     hw 7670   6.492   2.270   4.939  0.4387  2.5894  0.5433
 1918SOL     hw 7671   6.343   2.274   4.917  0.4610  0.4185 -0.1850
 1918SOL     vw 7672   6.411   2.272   4.971  0.1471 -0.2310  0.2074
 1919SOL     ow 7673   3.757   4.052   4.761  0.2476  0.3859 -0.0103
 1919SOL     hw 7674   3.813   4.060   4.838  0.1323 -1.6991  0.3524
 1919SOL     hw 7675   3.688   4.117   4.774  1.6374  1.8444  0.3476
 1919SOL     vw 7676   3.755   4.062   4.773  0.4157  0.3035  0.0849
 1920SOL     ow 7677   6.491   1.122   5.473  0.0358 -0.6179  0.2942
 1920SOL     hw 7678   6.473   1.029   5.481 -2.1201 -0.4522 -1.4437
 1920SOL     hw 7679   6.407   1.164   5.493  1.2007  1.0534  2.0383
 1920SOL     vw 7680   6.477   1.115   5.476 -0.0951 -0.3756  0.2949
 1921SOL     ow 7681   5.206   4.309   2.869 -0.2254 -0.3434 -0.2847
 1921SOL     hw 7682   5.235   4.299   2.960  0.2794  0.9193 -0.2850
 1921SOL     hw 7683   5.268   4.371   2.831 -0.5396 -0.7197 -1.4529
 1921SOL     vw 7684   5.218   4.316   2.876 -0.2005 -0.2263 -0.4389
 1922SOL     ow 7685   7.260   3.841   3.711 -0.0123 -0.0083  0.2406
 1922SOL     hw 7686   7.234   3.814   3.623  0.5361  1.8366 -0.5374
 1922SOL     hw 7687   7.312   3.920   3.698 -0.5170  0.7396  2.2593
 1922SOL     vw 7688   7.263   3.848   3.698 -0.0067  0.3338  0.4044
 1923SOL     ow 7689   5.468   2.881   7.108 -0.8540  0.3371 -0.0631
 1923SOL     hw 7690   5.432   2.794   7.128 -2.0254  0.5939 -0.9220
 1923SOL     hw 7691   5.542   2.891   7.168  0.5890 -2.0657 -1.3193
 1923SOL     vw 7692   5.473   2.871   7.119 -0.8180  0.0540 -0.3419
 1924SOL     ow 7693   4.629   1.212   4.653  0.0353 -0.2481  0.2469
 1924SOL     hw 7694   4.547   1.261   4.658  1.3597  2.0620  1.0291
 1924SOL     hw 7695   4.677   1.238   4.732  1.1132 -2.3342  0.3340
 1924SOL     vw 7696   4.624   1.222   4.664  0.3521 -0.2185  0.3619
 1925SOL     ow 7697   2.236   6.440   5.467 -0.1461  0.0852  0.3420
 1925SOL     hw 7698   2.176   6.513   5.480  1.1458  1.8123 -2.5418
 1925SOL     hw 7699   2.201   6.393   5.392  2.0302  1.2114 -1.4990
 1925SOL     vw 7700   2.224   6.443   5.459  0.3115  0.4618 -0.2813
 1926SOL     ow 7701   6.235   6.427   6.991  0.2007 -0.3743 -0.2643
 1926SOL     hw 7702   6.254   6.476   6.911  2.0119 -1.7472 -0.7591
 1926SOL     hw 7703   6.275   6.478   7.061  1.6222 -0.8226 -0.7099
 1926SOL     vw 7704   6.243   6.440   6.989  0.6273 -0.6144 -0.3884
 1927SOL     ow 7705   1.657   4.296   1.607 -0.0442 -0.4955 -0.0388
 1927SOL     hw 7706   1.569   4.324   1.581  1.1295  2.4272 -1.3312
 1927SOL     hw 7707   1.686   4.363   1.669  0.3170 -2.9762  2.7376
 1927SOL     vw 7708   1.649   4.308   1.612  0.1583 -0.4370  0.1570
 1928SOL     ow 7709   5.334   6.305   5.260  0.1164 -0.0132  0.4857
 1928SOL     hw 7710   5.380   6.222   5.266 -0.7587 -0.4417  1.8156
 1928SOL     hw 7711   5.396   6.364   5.216  1.4334 -0.8892  1.0920
 1928SOL     vw 7712   5.348   6.302   5.255  0.1743 -0.1850  0.7412
 1929SOL     ow 7713   2.329   7.237   4.094  0.2870  0.0763  0.2221
 1929SOL     hw 7714   2.423   7.244   4.074  0.3675  1.2164  0.9225
 1929SOL     hw 7715   2.315   7.300   4.165 -1.4591  1.6491 -1.4088
 1929SOL     vw 7716   2.340   7.246   4.100  0.0672  0.4342  0.0994
 1930SOL     ow 7717   1.009   5.402   3.716  0.2297 -0.1553  0.1173
 1930SOL     hw 7718   0.986   5.401   3.623 -2.4090 -0.2919  0.6902
 1930SOL     hw 7719   1.034   5.311   3.735  0.2683 -0.2443 -0.3378
 1930SOL     vw 7720   1.010   5.390   3.706 -0.1133 -0.1853  0.1329
 1931SOL     ow 7721   1.077   1.771   7.262 -0.3361  0.7991  0.3021
 1931SOL     hw 7722   1.019   1.789   7.335 -0.5423  2.0405 -0.1361
 1931SOL     hw 7723   1.056   1.838   7.197 -1.5108 -1.3679 -1.7238
 1931SOL     vw 7724   1.067   1.782   7.263 -0.5183  0.6770 -0.0231
 1932SOL     ow 7725   4.030   3.658   3.492  0.3898 -0.1041  0.2191
 1932SOL     hw 7726   4.125   3.661   3.488  0.3617 -0.4527 -1.0322
 1932SOL     hw 7727   4.010   3.637   3.583  1.4738  0.9772  0.7338
 1932SOL     vw 7728   4.040   3.656   3.504  0.5293 -0.0074  0.1220
 1933SOL     ow 7729   6.716   4.929   2.208  0.2100  0.3312  0.5146
 1933SOL     hw 7730   6.671   4.978   2.140 -1.9550 -1.1636  0.7643
 1933SOL     hw 7731   6.763   4.996   2.258  0.0231  1.7185 -1.0699
 1933SOL     vw 7732   6.716   4.945   2.206 -0.1004  0.3171  0.3384
 1934SOL     ow 7733   0.590   6.222   0.153 -0.1751  0.4676 -0.2304
 1934SOL     hw 7734   0.648   6.256   0.085  0.1614  2.2140  0.8761
 1934SOL     hw 7735   0.528   6.167   0.106  2.0497 -1.1055 -1.5207
 1934SOL     vw 7736   0.589   6.219   0.138  0.1628  0.4907 -0.2547
 1935SOL     ow 7737   6.257   2.390   6.797  0.1266 -0.5675 -0.4293
 1935SOL     hw 7738   6.190   2.447   6.759 -2.3601 -2.9447  0.1412
 1935SOL     hw 7739   6.313   2.450   6.847 -0.8266  1.6729 -1.9004
 1935SOL     vw 7740   6.256   2.406   6.799 -0.3273 -0.5854 -0.5484
 1936SOL     ow 7741   4.674   1.352   2.471  0.1446 -0.1091 -0.5311
 1936SOL     hw 7742   4.615   1.306   2.531  0.9573  0.5322  0.8307
 1936SOL     hw 7743   4.648   1.324   2.384 -2.0368  0.0051  0.0341
 1936SOL     vw 7744   4.663   1.342   2.468 -0.0360 -0.0094 -0.2769
 1937SOL     ow 7745   6.966   2.551   4.404  0.7744  0.2444 -0.4450
 1937SOL     hw 7746   7.028   2.623   4.399 -0.1349  1.0314 -0.6786
 1937SOL     hw 7747   6.961   2.517   4.315 -2.9629  3.5606 -1.8084
 1937SOL     vw 7748   6.974   2.556   4.392  0.1609  0.7858 -0.6559
 1938SOL     ow 7749   1.162   4.792   0.530  0.1288 -0.4632  0.2992
 1938SOL     hw 7750   1.128   4.837   0.608 -0.5105 -0.7774  0.2107
 1938SOL     hw 7751   1.136   4.848   0.457  0.6297 -0.2268  0.2974
 1938SOL     vw 7752   1.154   4.805   0.531  0.1105 -0.4735  0.2872
 1939SOL     ow 7753   2.717   7.188   2.187 -0.0557 -0.1745  0.3510
 1939SOL     hw 7754   2.798   7.204   2.235 -1.4508  2.1768  2.1183
 1939SOL     hw 7755   2.743   7.127   2.117  3.0523 -0.0378  1.2108
 1939SOL     vw 7756   2.731   7.182   2.184  0.1702  0.1535  0.6976
 1940SOL     ow 7757   2.028   1.938   1.931  0.2207  0.5331  0.0685
 1940SOL     hw 7758   2.076   1.954   2.012 -0.5791  0.1590  0.6287
 1940SOL     hw 7759   1.982   2.020   1.913 -0.7233  0.1696  0.7729
 1940SOL     vw 7760   2.028   1.951   1.939 -0.0094  0.4359  0.2353
 1941SOL     ow 7761   1.709   5.817   5.268 -0.1219  0.0289 -0.4728
 1941SOL     hw 7762   1.698   5.761   5.345 -0.9126 -0.0851 -0.6606
 1941SOL     hw 7763   1.746   5.759   5.202  0.6962  0.1627 -0.1416
 1941SOL     vw 7764   1.712   5.802   5.270 -0.1183  0.0317 -0.4539
 1942SOL     ow 7765   1.554   1.489   0.628 -0.1456  0.2403  0.0420
 1942SOL     hw 7766   1.563   1.575   0.587  0.2370 -0.3210 -1.0856
 1942SOL     hw 7767   1.615   1.432   0.581  0.8092 -0.3038  1.8413
 1942SOL     vw 7768   1.563   1.493   0.616  0.0309  0.0944  0.1306
 1943SOL     ow 7769   4.283   1.968   4.239 -0.7860  1.0015  0.1292
 1943SOL     hw 7770   4.274   1.906   4.312 -0.1193  2.9319  1.9542
 1943SOL     hw 7771   4.195   1.974   4.202 -0.9736 -0.5970  0.2466
 1943SOL     vw 7772   4.270   1.961   4.244 -0.7229  1.0453  0.3855
 1944SOL     ow 7773   4.470   6.764   6.762 -0.0600 -0.2461 -0.0794
 1944SOL     hw 7774   4.447   6.734   6.849 -0.0751  1.2302  0.4545
 1944SOL     hw 7775   4.455   6.689   6.705 -4.4779  0.0072  0.4352
 1944SOL     vw 7776   4.465   6.750   6.766 -0.6447 -0.0181  0.0587
 1945SOL     ow 7777   2.982   2.570   5.275  0.4292  0.1712 -0.0057
 1945SOL     hw 7778   2.991   2.533   5.363 -0.1969  1.1617  0.4954
 1945SOL     hw 7779   2.977   2.493   5.217 -0.0847 -0.5216  0.9174
 1945SOL     vw 7780   2.982   2.555   5.279  0.2788  0.2104  0.1824
 1946SOL     ow 7781   6.416   7.088   2.731  0.1605  0.5442  0.4043
 1946SOL     hw 7782   6.389   7.179   2.718 -0.8457  0.1966 -0.0102
 1946SOL     hw 7783   6.468   7.090   2.811  0.1727  1.4833  0.3866
 1946SOL     vw 7784   6.420   7.100   2.740  0.0293  0.6223  0.3471
 1947SOL     ow 7785   1.763   7.228   3.953  0.6292 -0.0126 -0.5522
 1947SOL     hw 7786   1.738   7.287   4.024  3.6967  2.3348 -1.2162
 1947SOL     hw 7787   1.792   7.148   3.998  0.1342  0.4427  0.6269
 1947SOL     vw 7788   1.763   7.225   3.968  0.9686  0.3569 -0.4841
 1948SOL     ow 7789   4.555   2.154   4.619 -0.5853 -0.3793  0.2803
 1948SOL     hw 7790   4.475   2.188   4.580 -1.1281 -1.4132  0.4689
 1948SOL     hw 7791   4.533   2.065   4.646  0.7795 -0.8705 -0.1525
 1948SOL     vw 7792   4.542   2.147   4.617 -0.4766 -0.5803  0.2482
 1949SOL     ow 7793   3.581   1.499   1.497  0.1713 -0.2310 -0.1616
 1949SOL     hw 7794   3.660   1.553   1.500 -0.3054  0.5414 -0.9073
 1949SOL     hw 7795   3.541   1.520   1.412 -0.4098 -1.2214 -0.1501
 1949SOL     vw 7796   3.586   1.509   1.486  0.0317 -0.2598 -0.2585
 1950SOL     ow 7797   4.468   1.900   4.680  0.5459 -0.1434 -0.0186
 1950SOL     hw 7798   4.432   1.813   4.699 -0.1400  0.1925  0.2552
 1950SOL     hw 7799   4.404   1.961   4.717 -0.8158  0.5853 -3.2933
 1950SOL     vw 7800   4.455   1.897   4.687  0.2759 -0.0030 -0.4144
 1951SOL     ow 7801   5.330   1.613   4.774 -0.0376 -0.7178  0.4210
 1951SOL     hw 7802   5.302   1.526   4.802  0.2019 -0.9326 -0.0002
 1951SOL     hw 7803   5.250   1.657   4.747  0.1121 -1.7837 -2.0675
 1951SOL     vw 7804   5.316   1.607   4.774  0.0136 -0.8867  0.0367
 1952SOL     ow 7805   2.140   4.287   4.798  0.1235 -0.7245  0.1692
 1952SOL     hw 7806   2.233   4.265   4.788  0.2355 -1.5168  2.2963
 1952SOL     hw 7807   2.134   4.378   4.770  1.5538 -0.6685 -0.0503
 1952SOL     vw 7808   2.151   4.296   4.793  0.3269 -0.8218  0.4208
 1953SOL     ow 7809   6.334   7.205   0.227  1.3084  0.4844  0.2342
 1953SOL     hw 7810   6.298   7.117   0.242 -0.3380  1.2844  1.1860
 1953SOL     hw 7811   6.398   7.192   0.157  0.5654 -1.3496 -0.1848
 1953SOL     vw 7812   6.338   7.191   0.220  0.9933  0.3481  0.3045
 1954SOL     ow 7813   0.374   7.241   3.878  0.2005 -0.8015 -0.3792
 1954SOL     hw 7814   0.353   7.334   3.868  1.2505 -0.1815  2.1851
 1954SOL     hw 7815   0.317   7.196   3.816 -1.5153  1.4311 -0.5480
 1954SOL     vw 7816   0.364   7.248   3.869  0.1126 -0.4251 -0.0632
 1955SOL     ow 7817   3.075   3.218   1.592 -0.4919  0.4426 -0.1050
 1955SOL     hw 7818   3.145   3.179   1.539 -0.7426 -0.5009  0.2409
 1955SOL     hw 7819   3.079   3.311   1.571  1.6163  0.6084  0.7350
 1955SOL     vw 7820   3.085   3.225   1.583 -0.2469  0.3401  0.0515
 1956SOL     ow 7821   6.276   0.072   0.631 -0.1762  0.2232  0.3001
 1956SOL     hw 7822   6.304  -0.011   0.672  1.7565  0.8414  0.3430
 1956SOL     hw 7823   6.200   0.048   0.579  1.9909 -2.2965 -2.0903
 1956SOL     vw 7824   6.270   0.058   0.630  0.3648 -0.0277 -0.0096
 1957SOL     ow 7825   3.270   5.194   2.036 -0.6958 -0.0435 -0.8505
 1957SOL     hw 7826   3.202   5.257   2.058 -1.5881 -1.6793  1.3865
 1957SOL     hw 7827   3.223   5.121   1.995 -0.6190 -1.8092  1.9654
 1957SOL     vw 7828   3.255   5.193   2.033 -0.8034 -0.4923 -0.1838
 1958SOL     ow 7829   0.021   2.038   0.418 -0.2654 -0.1755  0.9288
 1958SOL     hw 7830   0.006   2.018   0.510  2.0204  2.7891  2.1265
 1958SOL     hw 7831  -0.012   2.127   0.407 -0.4562 -0.4405 -1.1565
 1958SOL     vw 7832   0.014   2.047   0.429  0.0110  0.1806  0.8117
 1959SOL     ow 7833   4.994   4.151   0.783 -0.5624  0.1792  0.1342
 1959SOL     hw 7834   5.012   4.107   0.699  0.3864  3.3895 -1.4958
 1959SOL     hw 7835   4.915   4.202   0.766  0.9917  2.8051  0.2627
 1959SOL     vw 7836   4.986   4.152   0.770 -0.2322  0.9491 -0.0639
 1960SOL     ow 7837   5.785   3.603   6.106 -0.4606  0.2704 -0.2833
 1960SOL     hw 7838   5.856   3.634   6.161  0.2957  0.4621 -1.3374
 1960SOL     hw 7839   5.796   3.508   6.105 -1.2743  0.1434  0.9333
 1960SOL     vw 7840   5.796   3.594   6.113 -0.4683  0.2789 -0.2618
 1961SOL     ow 7841   0.544   0.535   1.059  0.7252  0.4559  0.2116
 1961SOL     hw 7842   0.476   0.561   0.997  1.7358 -0.8893 -1.5230
 1961SOL     hw 7843   0.515   0.450   1.092  1.4117  0.0305 -0.2862
 1961SOL     vw 7844   0.531   0.527   1.055  0.9491  0.2223 -0.0830
 1962SOL     ow 7845   6.786   4.195   2.250  0.0675  0.1435 -0.2070
 1962SOL     hw 7846   6.710   4.245   2.280 -1.3526 -0.2967 -2.8134
 1962SOL     hw 7847   6.753   4.105   2.244  1.0212 -0.1844 -0.6435
 1962SOL     vw 7848   6.771   4.189   2.254  0.0060  0.0420 -0.6084
 1963SOL     ow 7849   4.334   1.015   2.480  0.0200 -0.3299  0.1311
 1963SOL     hw 7850   4.373   1.073   2.545  0.4811  2.3608 -2.3275
 1963SOL     hw 7851   4.381   0.932   2.489  0.9646  0.3780  2.2787
 1963SOL     vw 7852   4.345   1.012   2.489  0.2053  0.1185  0.0900
 1964SOL     ow 7853   3.498   2.479   6.682  0.5607  0.1677  0.0901
 1964SOL     hw 7854   3.425   2.523   6.726  1.0243  0.7770  0.2662
 1964SOL     hw 7855   3.572   2.540   6.692  0.8135  0.0616 -1.0442
 1964SOL     vw 7856   3.498   2.493   6.689  0.6553  0.2340 -0.0365
 1965SOL     ow 7857   5.069   5.633   3.915  0.1919 -0.3753  0.8388
 1965SOL     hw 7858   4.978   5.607   3.909  0.3775 -0.8748  0.0406
 1965SOL     hw 7859   5.097   5.645   3.825  0.6751  0.6537  1.1058
 1965SOL     vw 7860   5.061   5.631   3.903  0.2801 -0.3057  0.7688
 1966SOL     ow 7861   0.611   3.427   2.624 -0.5485  0.4835  0.3387
 1966SOL     hw 7862   0.654   3.355   2.671  1.1414  1.4234  0.3398
 1966SOL     hw 7863   0.652   3.426   2.537  0.8385  2.4973  0.9064
 1966SOL     vw 7864   0.622   3.417   2.619 -0.1425  0.8732  0.4138
 1967SOL     ow 7865   5.292   5.032   5.590  0.3620 -0.2190 -0.5203
 1967SOL     hw 7866   5.226   4.995   5.531 -0.0835 -0.1966 -0.0415
 1967SOL     hw 7867   5.332   5.103   5.540  2.3011 -2.2590 -2.0583
 1967SOL     vw 7868   5.289   5.036   5.576  0.5589 -0.4852 -0.6599
 1968SOL     ow 7869   5.395   5.518   1.733 -0.4283 -0.1029 -0.1293
 1968SOL     hw 7870   5.461   5.536   1.667 -0.5495 -0.0356 -0.2314
 1968SOL     hw 7871   5.370   5.604   1.766  0.2758 -0.1729  0.6360
 1968SOL     vw 7872   5.400   5.532   1.729 -0.3514 -0.1032 -0.0418
 1969SOL     ow 7873   0.588   6.812   4.005 -0.1283 -0.4945  0.3787
 1969SOL     hw 7874   0.609   6.720   4.019  3.1022  0.2755  1.4164
 1969SOL     hw 7875   0.518   6.831   4.067  1.1229 -1.6268  2.2295
 1969SOL     vw 7876   0.582   6.802   4.015  0.4630 -0.5422  0.7598
 1970SOL     ow 7877   0.142   3.024   3.097 -0.3823  1.0423  0.3779
 1970SOL     hw 7878   0.123   2.939   3.138 -0.7847  0.1285 -1.5978
 1970SOL     hw 7879   0.073   3.082   3.129 -2.4180 -0.3910 -1.1278
 1970SOL     vw 7880   0.130   3.020   3.107 -0.7040  0.7327 -0.0815
 1971SOL     ow 7881   0.759   0.487   0.198 -0.4161 -0.4092 -0.0452
 1971SOL     hw 7882   0.745   0.574   0.160 -2.6612 -0.4608  0.5339
 1971SOL     hw 7883   0.752   0.428   0.123  2.7777 -0.0954 -0.7484
 1971SOL     vw 7884   0.756   0.491   0.183 -0.2909 -0.3746 -0.0616
 1972SOL     ow 7885   6.407   5.653   3.472  0.1500 -0.2915  0.0072
 1972SOL     hw 7886   6.439   5.656   3.382 -2.3086 -1.2530 -0.9892
 1972SOL     hw 7887   6.336   5.589   3.470 -3.0127  2.8050  1.5889
 1972SOL     vw 7888   6.402   5.645   3.460 -0.5918 -0.0098  0.0844
 1973SOL     ow 7889   3.047   0.741   2.219 -0.0768  0.5623 -0.1343
 1973SOL     hw 7890   3.058   0.804   2.290  0.1162 -1.3935  1.6482
 1973SOL     hw 7891   2.953   0.740   2.202 -0.0072  1.8997 -0.8057
 1973SOL     vw 7892   3.036   0.749   2.226 -0.0422  0.4807  0.0124
 1974SOL     ow 7893   6.377   3.257   4.531 -0.1564 -0.4068 -0.3062
 1974SOL     hw 7894   6.317   3.292   4.465 -0.2915  0.7746  0.4087
 1974SOL     hw 7895   6.463   3.260   4.490 -0.0104  1.7789  0.0615
 1974SOL     vw 7896   6.380   3.262   4.517 -0.1547  0.0376 -0.1633
 1975SOL     ow 7897   7.059   2.708   6.055  1.0902 -0.5271  0.0360
 1975SOL     hw 7898   7.078   2.755   5.974  1.0199  1.5491  1.1518
 1975SOL     hw 7899   6.964   2.700   6.057  1.0779 -0.3872  0.0029
 1975SOL     vw 7900   7.049   2.713   6.045  1.0793 -0.2347  0.1791
 1976SOL     ow 7901   0.299   1.149   3.524 -0.2240 -0.3883  0.1759
 1976SOL     hw 7902   0.218   1.180   3.564  0.9058 -0.3458  2.5775
 1976SOL     hw 7903   0.318   1.066   3.567  1.0694 -0.3330 -0.2166
 1976SOL     vw 7904   0.291   1.142   3.535  0.0957 -0.3753  0.4411
 1977SOL     ow 7905   5.464   2.396   2.935 -0.4586  0.4087 -0.0454
 1977SOL     hw 7906   5.444   2.390   3.029 -2.6227 -1.0697 -0.5207
 1977SOL     hw 7907   5.446   2.308   2.902  3.3544 -0.0377 -1.3701
 1977SOL     vw 7908   5.459   2.383   2.943 -0.2410  0.1549 -0.2829
 1978SOL     ow 7909   1.185   3.885   6.660 -0.2824 -0.1081  0.4003
 1978SOL     hw 7910   1.255   3.895   6.724 -0.8103 -3.0166  1.5913
 1978SOL     hw 7911   1.108   3.864   6.713 -1.5079  0.6013 -1.0311
 1978SOL     vw 7912   1.184   3.884   6.675 -0.5138 -0.3982  0.3688
 1979SOL     ow 7913   3.245   5.185   5.478  0.0175 -0.0439  0.2848
 1979SOL     hw 7914   3.195   5.187   5.396  0.3537  2.3777  0.0444
 1979SOL     hw 7915   3.336   5.181   5.451  0.3024  3.2761  0.2879
 1979SOL     vw 7916   3.250   5.185   5.464  0.0994  0.7136  0.2537
 1980SOL     ow 7917   2.412   4.802   3.454 -0.3305  0.3464  0.0799
 1980SOL     hw 7918   2.372   4.863   3.392 -0.2433  0.6651  0.3343
 1980SOL     hw 7919   2.447   4.732   3.399 -0.5745  0.4424 -0.2015
 1980SOL     vw 7920   2.412   4.800   3.439 -0.3513  0.4010  0.0763
 1981SOL     ow 7921   3.169   1.681   1.148  0.3430 -0.4524 -0.4715
 1981SOL     hw 7922   3.203   1.608   1.097  0.8439 -0.0543 -0.7118
 1981SOL     hw 7923   3.223   1.755   1.124  1.7043 -0.5910  1.8456
 1981SOL     vw 7924   3.180   1.681   1.138  0.5885 -0.4181 -0.1975
 1982SOL     ow 7925   6.066   2.495   1.354 -0.0349 -0.4055 -0.1782
 1982SOL     hw 7926   6.028   2.417   1.312 -0.0416 -1.3906  1.5840
 1982SOL     hw 7927   6.147   2.463   1.393 -0.8150  0.0792  1.9349
 1982SOL     vw 7928   6.072   2.480   1.353 -0.1385 -0.4716  0.3331
 1983SOL     ow 7929   6.912   3.111   1.983  0.1301 -0.5183  0.3836
 1983SOL     hw 7930   6.818   3.121   1.973  0.0611 -1.2618  0.2069
 1983SOL     hw 7931   6.947   3.200   1.979 -0.4527 -0.3258 -0.6197
 1983SOL     vw 7932   6.904   3.124   1.981  0.0441 -0.5909  0.2279
 1984SOL     ow 7933   2.809   0.793   7.054  0.0129  0.4913 -0.1225
 1984SOL     hw 7934   2.810   0.864   7.117 -1.1139  0.1554  0.2965
 1984SOL     hw 7935   2.768   0.720   7.100 -0.1523  0.0136 -0.9976
 1984SOL     vw 7936   2.804   0.793   7.068 -0.1576  0.3840 -0.1826
 1985SOL     ow 7937   5.204   0.775   1.640 -0.3557  0.6777 -0.7093
 1985SOL     hw 7938   5.270   0.724   1.594 -1.5000 -1.1930 -0.3672
 1985SOL     hw 7939   5.201   0.737   1.728 -0.2792  2.2574  0.0117
 1985SOL     vw 7940   5.212   0.763   1.646 -0.4966  0.6393 -0.5690
 1986SOL     ow 7941   6.039   5.477   0.372 -0.3269 -0.1451  0.0418
 1986SOL     hw 7942   5.977   5.512   0.307  2.1166  1.5439 -1.5525
 1986SOL     hw 7943   5.996   5.399   0.407 -3.0981  0.6504 -1.3241
 1986SOL     vw 7944   6.025   5.471   0.368 -0.3700  0.1829 -0.3487
 1987SOL     ow 7945   4.623   3.815   1.041  0.2499 -0.3973 -0.2439
 1987SOL     hw 7946   4.576   3.898   1.039 -1.1196 -1.1520 -0.7080
 1987SOL     hw 7947   4.696   3.826   0.979 -0.6779  0.0218 -1.2813
 1987SOL     vw 7948   4.627   3.827   1.033 -0.0532 -0.4417 -0.4420
 1988SOL     ow 7949   6.878   0.558   1.426  0.0468  0.4943  0.1807
 1988SOL     hw 7950   6.788   0.526   1.424 -0.2221  1.2114  0.5764
 1988SOL     hw 7951   6.892   0.584   1.517  0.1055  1.9175 -0.2184
 1988SOL     vw 7952   6.868   0.557   1.438  0.0191  0.7767  0.1804
 1989SOL     ow 7953   2.134   0.307   5.151  0.1126 -0.1519  0.4089
 1989SOL     hw 7954   2.184   0.387   5.166  1.2386 -0.3824 -1.7421
 1989SOL     hw 7955   2.176   0.242   5.208  0.2808  0.3673  0.8869
 1989SOL     vw 7956   2.146   0.309   5.161  0.2832 -0.1138  0.1881
 1990SOL     ow 7957   3.877   5.963   1.462  0.3639 -0.0169 -0.2169
 1990SOL     hw 7958   3.849   6.054   1.458 -2.8278 -0.8899 -0.5136
 1990SOL     hw 7959   3.840   5.930   1.544  1.0654 -1.1598 -0.3373
 1990SOL     vw 7960   3.868   5.970   1.472  0.0352 -0.2828 -0.2719
 1991SOL     ow 7961   7.059   4.312   5.444  0.2572 -0.5388 -0.2566
 1991SOL     hw 7962   7.097   4.386   5.492  0.6669 -0.3888 -0.7997
 1991SOL     hw 7963   6.964   4.329   5.446  0.4078  0.6513 -1.3741
 1991SOL     vw 7964   7.051   4.324   5.451  0.3314 -0.3619 -0.4754
 1992SOL     ow 7965   0.139   4.667   1.943  0.4650 -0.1841 -0.3615
 1992SOL     hw 7966   0.113   4.703   1.859 -1.1844  0.6212  0.4475
 1992SOL     hw 7967   0.094   4.721   2.008  0.5967 -1.6274  1.0063
 1992SOL     vw 7968   0.130   4.679   1.941  0.2648 -0.2682 -0.0743
 1993SOL     ow 7969   3.098   2.840   5.555  0.5897 -0.0500 -0.3172
 1993SOL     hw 7970   3.135   2.822   5.642  0.9014  1.3809 -0.1290
 1993SOL     hw 7971   3.011   2.800   5.557  0.7392 -0.3536  0.5176
 1993SOL     vw 7972   3.091   2.832   5.567  0.6505  0.0988 -0.1822
 1994SOL     ow 7973   6.574   2.590   2.127 -0.2819  0.1803  0.3053
 1994SOL     hw 7974   6.543   2.620   2.212 -1.2902  1.3224 -0.4304
 1994SOL     hw 7975   6.611   2.503   2.144  1.5556  1.2696  2.2783
 1994SOL     vw 7976   6.574   2.582   2.141 -0.1726  0.4748  0.4685
 1995SOL     ow 7977   5.988   2.163   2.402 -0.6697 -0.3637 -0.3000
 1995SOL     hw 7978   6.027   2.244   2.435  1.1136 -1.2629 -0.0691
 1995SOL     hw 7979   5.913   2.193   2.350 -0.9781  1.3249  1.0160
 1995SOL     vw 7980   5.983   2.178   2.399 -0.4749 -0.2595 -0.0958
 1996SOL     ow 7981   6.400   7.142   5.912  0.2378  0.5479 -0.3675
 1996SOL     hw 7982   6.413   7.216   5.972  0.0046 -0.3098  0.7908
 1996SOL     hw 7983   6.314   7.107   5.936  1.3353 -1.5451  0.7904
 1996SOL     vw 7984   6.390   7.147   5.923  0.3517  0.1585 -0.0620
 1997SOL     ow 7985   3.050   4.957   5.519 -0.0652  0.2148 -0.0405
 1997SOL     hw 7986   3.068   4.865   5.536  0.2006  0.2959  0.1328
 1997SOL     hw 7987   2.966   4.958   5.475 -0.4624 -0.0570  0.6959
 1997SOL     vw 7988   3.042   4.945   5.516 -0.0825  0.1898  0.0794
 1998SOL     ow 7989   5.438   4.157   6.315  0.1395  0.0735  0.3628
 1998SOL     hw 7990   5.396   4.075   6.341 -1.6544  1.1884  1.1844
 1998SOL     hw 7991   5.387   4.188   6.241 -0.4700  1.4061  1.3013
 1998SOL     vw 7992   5.426   4.150   6.309 -0.1776  0.3965  0.5949
 1999SOL     ow 7993   1.432   3.978   5.314  0.0139 -0.3971  0.0298
 1999SOL     hw 7994   1.355   3.979   5.371 -0.8911  1.6884 -1.1370
 1999SOL     hw 7995   1.475   4.062   5.329 -0.4157  0.3478 -2.5029
 1999SOL     vw 7996   1.427   3.989   5.324 -0.1622 -0.0237 -0.4585
 2000SOL     ow 7997   4.722   6.942   6.685  0.2162 -0.6531  0.2601
 2000SOL     hw 7998   4.809   6.974   6.661 -1.0686  3.2588  0.0612
 2000SOL     hw 7999   4.681   6.919   6.601 -0.7260  3.0874 -0.5194
 2000SOL     vw 8000   4.728   6.943   6.671 -0.0777  0.3564  0.1311
 2001SOL     ow 8001   2.339   2.585   6.378 -0.4268 -0.5117 -0.8773
 2001SOL     hw 8002   2.266   2.644   6.358  1.1453  1.6343 -0.7187
 2001SOL     hw 8003   2.333   2.571   6.472 -1.8156 -2.1309 -1.1520
 2001SOL     vw 8004   2.329   2.591   6.388 -0.4028 -0.4421 -0.8926
 2002SOL     ow 8005   5.016   5.414   5.025 -0.0133  0.1388  0.4706
 2002SOL     hw 8006   5.015   5.506   4.999 -3.6621  0.4325  1.1324
 2002SOL     hw 8007   5.054   5.369   4.950 -1.3778  1.8710 -1.3771
 2002SOL     vw 8008   5.021   5.420   5.012 -0.6747  0.4060  0.3145
 2003SOL     ow 8009   5.176   6.919   0.008 -0.2578  0.3426  0.2976
 2003SOL     hw 8010   5.164   6.900  -0.085  0.5089 -0.8674  0.4247
 2003SOL     hw 8011   5.126   6.999   0.023 -3.9303 -1.6518 -0.2162
 2003SOL     vw 8012   5.168   6.927  -0.002 -0.6413 -0.0803  0.2466
 2004SOL     ow 8013   5.078   2.801   3.821  0.3564  0.3149 -0.3785
 2004SOL     hw 8014   5.086   2.706   3.822 -2.3319 -0.0003 -1.0327
 2004SOL     hw 8015   5.050   2.822   3.732 -2.1688  1.3228  0.5473
 2004SOL     vw 8016   5.075   2.791   3.809 -0.3314  0.4063 -0.3427
 2005SOL     ow 8017   3.622   0.593   2.194 -0.2192  0.2144  0.2943
 2005SOL     hw 8018   3.613   0.519   2.254  0.3400 -0.7521 -0.7702
 2005SOL     hw 8019   3.694   0.568   2.136  0.0572  1.6550 -0.0232
 2005SOL     vw 8020   3.631   0.580   2.194 -0.1090  0.2770  0.1121
 2006SOL     ow 8021   4.467   2.660   2.019  0.3698 -0.3941 -0.4751
 2006SOL     hw 8022   4.378   2.637   2.046 -0.3947  2.6724 -0.0714
 2006SOL     hw 8023   4.523   2.612   2.079 -1.1515  1.0860  2.2935
 2006SOL     vw 8024   4.462   2.650   2.030  0.0682  0.2059 -0.0565
 2007SOL     ow 8025   6.025   3.282   3.368 -0.2170 -0.4095 -0.3651
 2007SOL     hw 8026   6.055   3.298   3.279 -1.4036 -2.6187 -1.2273
 2007SOL     hw 8027   6.072   3.203   3.396 -0.7987 -0.4721  0.4850
 2007SOL     vw 8028   6.035   3.274   3.360 -0.4504 -0.7092 -0.3667
 2008SOL     ow 8029   0.623   1.224   4.124  0.3353 -0.4014 -0.0818
 2008SOL     hw 8030   0.545   1.168   4.123  0.7484 -0.9934  0.0883
 2008SOL     hw 8031   0.681   1.182   4.188  0.4853  0.4586  0.3621
 2008SOL     vw 8032   0.620   1.211   4.133  0.4096 -0.3660 -0.0007
 2009SOL     ow 8033   3.303   2.480   6.489 -0.5048  0.3298  0.0628
 2009SOL     hw 8034   3.308   2.575   6.497  0.3311  0.1163  3.0407
 2009SOL     hw 8035   3.389   2.449   6.517 -1.4197 -1.3770  1.0972
 2009SOL     vw 8036   3.315   2.488   6.494 -0.5151  0.0763  0.5922
 2010SOL     ow 8037   5.327   2.527   5.847 -0.5635 -0.4360  0.4804
 2010SOL     hw 8038   5.235   2.522   5.872 -0.7524 -0.4226 -0.1965
 2010SOL     hw 8039   5.352   2.617   5.869 -1.6973  0.7524 -2.5181
 2010SOL     vw 8040   5.318   2.539   5.853 -0.7384 -0.2774 -0.0045
 2011SOL     ow 8041   4.045   5.291   2.586 -0.6606 -0.8668 -0.1333
 2011SOL     hw 8042   4.035   5.326   2.497  0.3725  0.1102  0.1108
 2011SOL     hw 8043   3.983   5.219   2.590  0.2060 -1.8119 -2.1125
 2011SOL     vw 8044   4.036   5.286   2.575 -0.4098 -0.8626 -0.3623
 2012SOL     ow 8045   6.465   4.349   6.029 -0.3816  0.4286  0.5072
 2012SOL     hw 8046   6.496   4.260   6.013  0.2193  0.7721 -0.3289
 2012SOL     hw 8047   6.451   4.354   6.123  1.7049  0.1062  0.8878
 2012SOL     vw 8048   6.467   4.338   6.039 -0.0274  0.4315  0.4470
 2013SOL     ow 8049   6.108   5.777   6.193  0.1030 -0.6594  0.8385
 2013SOL     hw 8050   6.181   5.722   6.166  1.2958  0.5558  1.4563
 2013SOL     hw 8051   6.069   5.807   6.110  1.2126 -0.1903  0.4578
 2013SOL     vw 8052   6.113   5.774   6.178  0.4067 -0.4375  0.8700
 2014SOL     ow 8053   1.659   6.680   6.775 -0.3755 -0.1685 -0.4836
 2014SOL     hw 8054   1.649   6.688   6.870 -0.5606 -0.9160 -0.4350
 2014SOL     hw 8055   1.569   6.673   6.742 -0.2679 -2.0025 -0.5026
 2014SOL     vw 8056   1.646   6.680   6.783 -0.3857 -0.5090 -0.4797
 2015SOL     ow 8057   1.500   3.925   0.447  0.0160 -0.3973 -0.1317
 2015SOL     hw 8058   1.589   3.921   0.482  0.0650 -1.4830 -0.3182
 2015SOL     hw 8059   1.450   3.866   0.503 -0.3625 -0.5409 -0.6185
 2015SOL     vw 8060   1.505   3.916   0.459 -0.0275 -0.5593 -0.2205
 2016SOL     ow 8061   5.421   4.513   5.497 -0.5620  0.2179 -0.5462
 2016SOL     hw 8062   5.352   4.473   5.444 -2.2828  2.0878  0.1753
 2016SOL     hw 8063   5.381   4.526   5.583  1.2458 -0.1396  0.3993
 2016SOL     vw 8064   5.407   4.509   5.501 -0.5505  0.4175 -0.3264
 2017SOL     ow 8065   7.192   3.812   6.317  0.1403  0.3560 -0.3705
 2017SOL     hw 8066   7.222   3.767   6.396  1.2497  0.4807 -0.6969
 2017SOL     hw 8067   7.106   3.775   6.299 -0.0936  0.2760  0.8483
 2017SOL     vw 8068   7.185   3.801   6.325  0.2561  0.3618 -0.2530
 2018SOL     ow 8069   4.645   0.817   0.094 -0.1333  0.0094 -0.5588
 2018SOL     hw 8070   4.652   0.878   0.021 -1.1861  0.2827 -0.4549
 2018SOL     hw 8071   4.555   0.784   0.088 -0.3915  0.3855  0.8767
 2018SOL     vw 8072   4.634   0.821   0.084 -0.3064  0.0951 -0.3557
 2019SOL     ow 8073   6.092   4.603   5.579  0.0138  0.8362 -0.4370
 2019SOL     hw 8074   6.029   4.561   5.521 -0.6612  0.0508  0.8277
 2019SOL     hw 8075   6.092   4.549   5.658 -0.3098  2.7680  0.9440
 2019SOL     vw 8076   6.084   4.590   5.581 -0.1178  0.9875 -0.0877
 2020SOL     ow 8077   4.815   2.718   0.181 -0.2497 -0.1878  0.1024
 2020SOL     hw 8078   4.783   2.798   0.141 -1.4593 -0.9717 -0.5584
 2020SOL     hw 8079   4.910   2.731   0.190 -0.4195  1.2605 -0.0688
 2020SOL     vw 8080   4.824   2.730   0.177 -0.4318 -0.1000 -0.0074
 2021SOL     ow 8081   7.017   6.758   5.053  0.4991 -0.0623  0.0347
 2021SOL     hw 8082   6.979   6.750   5.141 -1.3516  1.9196 -0.5077
 2021SOL     hw 8083   6.941   6.758   4.994  1.7268 -2.6527 -1.7736
 2021SOL     vw 8084   7.002   6.757   5.057  0.4168 -0.1426 -0.2756
 2022SOL     ow 8085   5.388   4.404   6.491  0.1215 -0.2024 -0.9462
 2022SOL     hw 8086   5.320   4.344   6.522  1.1946 -1.2940 -0.5912
 2022SOL     hw 8087   5.402   4.464   6.565 -1.5621  1.0930 -1.6174
 2022SOL     vw 8088   5.381   4.404   6.505  0.0412 -0.1757 -0.9882
 2023SOL     ow 8089   3.443   6.078   5.916  0.7216  0.6690 -0.5064
 2023SOL     hw 8090   3.401   6.159   5.887 -1.1638  0.1694  0.7071
 2023SOL     hw 8091   3.477   6.099   6.003  0.1847  0.1469 -0.1678
 2023SOL     vw 8092   3.442   6.092   5.924  0.4020  0.5341 -0.3016
 2024SOL     ow 8093   1.404   1.332   2.533  0.1861 -0.1885  0.2186
 2024SOL     hw 8094   1.461   1.257   2.549 -0.0653 -0.2252  0.9884
 2024SOL     hw 8095   1.317   1.294   2.520  0.6296 -0.3427 -3.2886
 2024SOL     vw 8096   1.400   1.317   2.533  0.2114 -0.2137 -0.1426
 2025SOL     ow 8097   4.683   0.497   0.139  0.1168  0.0138 -0.0934
 2025SOL     hw 8098   4.723   0.582   0.153 -0.0274  0.0486  0.1199
 2025SOL     hw 8099   4.590   0.517   0.125  0.5245  0.1874 -3.2502
 2025SOL     vw 8100   4.676   0.511   0.139  0.1516  0.0413 -0.4817
 2026SOL     ow 8101   0.468   1.771   1.238 -0.0179  0.5179  0.5252
 2026SOL     hw 8102   0.377   1.775   1.209 -0.6181 -2.6883  1.5159
 2026SOL     hw 8103   0.465   1.795   1.331 -0.1574 -1.0111  0.9424
 2026SOL     vw 8104   0.455   1.775   1.246 -0.1155 -0.1069  0.7110
 2027SOL     ow 8105   4.750   5.262   7.242  0.5907 -0.3883 -0.0359
 2027SOL     hw 8106   4.803   5.209   7.181  2.5012 -1.2538  2.1856
 2027SOL     hw 8107   4.780   5.352   7.228  1.6815 -0.6940  0.1907
 2027SOL     vw 8108   4.761   5.267   7.232  0.9866 -0.5426  0.2873
 2028SOL     ow 8109   6.347   7.057   3.666  0.0955  0.0269  0.6871
 2028SOL     hw 8110   6.285   7.102   3.609  0.4672  0.7322  0.8179
 2028SOL     hw 8111   6.328   7.092   3.753 -0.2590 -0.8068  0.9558
 2028SOL     vw 8112   6.336   7.068   3.670  0.0978  0.0098  0.7399
 2029SOL     ow 8113   6.583   1.569   1.361  0.3575  0.3501  0.2268
 2029SOL     hw 8114   6.547   1.498   1.309  1.2048  0.3597 -0.3916
 2029SOL     hw 8115   6.649   1.527   1.417  0.8053  0.6364 -0.0848
 2029SOL     vw 8116   6.587   1.554   1.362  0.5283  0.3892  0.1041
 2030SOL     ow 8117   2.183   5.045   6.174 -0.3918  0.3005  0.2889
 2030SOL     hw 8118   2.142   5.056   6.088 -1.8594 -0.1554  0.8967
 2030SOL     hw 8119   2.119   4.995   6.225  0.4102  0.6331  1.6756
 2030SOL     vw 8120   2.169   5.040   6.169 -0.4795  0.2842  0.5522
 2031SOL     ow 8121   1.375   0.971   4.054  0.2413  0.4437  0.1105
 2031SOL     hw 8122   1.304   0.911   4.073  0.1264  1.3521  2.9238
 2031SOL     hw 8123   1.340   1.058   4.076  0.5564  1.6089 -3.3621
 2031SOL     vw 8124   1.361   0.975   4.059  0.2677  0.7172  0.0236
 2032SOL     ow 8125   5.797   2.248   4.330  0.1135  0.5003 -0.3705
 2032SOL     hw 8126   5.744   2.249   4.410 -0.0353  1.0458 -0.4703
 2032SOL     hw 8127   5.887   2.236   4.361 -0.2315 -2.9100 -0.3210
 2032SOL     vw 8128   5.802   2.247   4.345  0.0482  0.1224 -0.3772
 2033SOL     ow 8129   1.946   3.753   2.943 -0.1600  0.1030  0.2098
 2033SOL     hw 8130   2.034   3.791   2.946  0.3200 -1.0032  0.4081
 2033SOL     hw 8131   1.908   3.787   2.862  0.9061 -0.3888 -0.5124
 2033SOL     vw 8132   1.952   3.763   2.933  0.0440 -0.1078  0.1405
 2034SOL     ow 8133   1.121   3.465   7.102 -0.3448  0.0056 -0.2728
 2034SOL     hw 8134   1.137   3.546   7.151 -0.9389  0.0569 -0.1558
 2034SOL     hw 8135   1.207   3.426   7.090 -0.2673 -0.4981  1.6536
 2034SOL     vw 8136   1.134   3.470   7.107 -0.4129 -0.0540 -0.0033
 2035SOL     ow 8137   1.752   4.572   6.317 -0.3941 -0.3131  0.2497
 2035SOL     hw 8138   1.656   4.577   6.321 -0.2764  1.7609  1.8383
 2035SOL     hw 8139   1.777   4.635   6.249 -0.1124 -0.2518  0.4088
 2035SOL     vw 8140   1.743   4.581   6.308 -0.3414 -0.0315  0.4802
 2036SOL     ow 8141   4.399   6.184   1.969 -0.4920 -0.4151  0.2924
 2036SOL     hw 8142   4.486   6.144   1.968 -0.2523  0.0863  0.7287
 2036SOL     hw 8143   4.405   6.257   1.907  0.2037  1.2552  2.2312
 2036SOL     vw 8144   4.411   6.188   1.961 -0.3686 -0.1285  0.6059
 2037SOL     ow 8145   5.982   3.666   6.255 -0.3778  0.3817 -0.5346
 2037SOL     hw 8146   6.076   3.681   6.263 -0.5559  1.4856 -0.4242
 2037SOL     hw 8147   5.964   3.597   6.319  0.5296 -0.6653 -1.3548
 2037SOL     vw 8148   5.992   3.659   6.264 -0.2818  0.3893 -0.6280
 2038SOL     ow 8149   5.564   3.716   2.004 -0.2510 -0.0359 -0.7321
 2038SOL     hw 8150   5.536   3.806   2.021  0.5363  0.6744 -2.8443
 2038SOL     hw 8151   5.512   3.663   2.065 -2.5531  1.6210 -1.0986
 2038SOL     vw 8152   5.553   3.721   2.015 -0.4508  0.2764 -1.0592
 2039SOL     ow 8153   3.341   1.450   4.051 -0.1555 -0.6826  0.9832
 2039SOL     hw 8154   3.267   1.412   4.098 -0.8255 -0.3393  0.2176
 2039SOL     hw 8155   3.312   1.457   3.960 -0.5015  2.6538  1.2302
 2039SOL     vw 8156   3.328   1.446   4.045 -0.2896 -0.1971  0.9148
 2040SOL     ow 8157   6.485   3.412   1.504 -0.2473  0.0288 -0.2727
 2040SOL     hw 8158   6.431   3.334   1.491 -0.8204  0.4191 -0.2632
 2040SOL     hw 8159   6.424   3.485   1.493 -0.5477  0.4646  3.2508
 2040SOL     vw 8160   6.470   3.411   1.501 -0.3626  0.1378  0.1934
 2041SOL     ow 8161   0.962   2.295   3.127  0.5231 -0.0967 -0.4411
 2041SOL     hw 8162   0.941   2.244   3.206  0.6952  0.7297  0.1442
 2041SOL     hw 8163   0.892   2.359   3.120  1.5543  1.1394  0.1922
 2041SOL     vw 8164   0.950   2.296   3.137  0.6818  0.1754 -0.2804
 2042SOL     ow 8165   6.587   1.703   2.569  0.2664  0.0900  0.4433
 2042SOL     hw 8166   6.623   1.676   2.654  0.7797  1.4085  0.6618
 2042SOL     hw 8167   6.625   1.641   2.507  0.0352 -0.7778  1.1413
 2042SOL     vw 8168   6.597   1.691   2.572  0.3037  0.1495  0.5642
 2043SOL     ow 8169   6.183   5.228   1.215  0.4076  0.1319 -0.7736
 2043SOL     hw 8170   6.239   5.297   1.180 -0.8932  1.5605 -0.1548
 2043SOL     hw 8171   6.242   5.173   1.266  1.8770 -0.5208 -3.0032
 2043SOL     vw 8172   6.198   5.230   1.217  0.4299  0.2344 -0.9861
 2044SOL     ow 8173   5.749   0.296   2.890  0.3365 -0.0537  0.3123
 2044SOL     hw 8174   5.686   0.363   2.918  1.5713  0.0854  3.0092
 2044SOL     hw 8175   5.745   0.229   2.957  3.8415  0.5346  1.3036
 2044SOL     vw 8176   5.740   0.296   2.902  0.9618  0.0423  0.7991
 2045SOL     ow 8177   1.313   5.810   3.933 -0.3802  0.5349  0.2265
 2045SOL     hw 8178   1.323   5.763   4.016 -0.2409  1.9453  1.0451
 2045SOL     hw 8179   1.330   5.902   3.956  0.7101  0.8271 -1.5647
 2045SOL     vw 8180   1.317   5.816   3.947 -0.2181  0.7594  0.0982
 2046SOL     ow 8181   3.661   6.219   7.205 -1.0761 -0.3455 -0.7466
 2046SOL     hw 8182   3.626   6.291   7.153 -0.7459  0.3477 -0.0255
 2046SOL     hw 8183   3.629   6.236   7.294 -1.0259 -1.1101 -0.5724
 2046SOL     vw 8184   3.652   6.230   7.210 -1.0259 -0.3550 -0.6285
 2047SOL     ow 8185   0.753   0.008   5.432  0.1183  0.0806  0.1001
 2047SOL     hw 8186   0.848   0.001   5.427  0.2293 -0.9820  2.4980
 2047SOL     hw 8187   0.737   0.089   5.481 -0.1860 -0.2309  0.5210
 2047SOL     vw 8188   0.763   0.018   5.438  0.0928 -0.1007  0.4723
 2048SOL     ow 8189   5.726   1.994   4.686  0.7142 -0.4222 -0.5515
 2048SOL     hw 8190   5.698   2.014   4.776  0.4899  0.9794 -0.9170
 2048SOL     hw 8191   5.696   2.068   4.634  1.2888 -0.9767 -1.7161
 2048SOL     vw 8192   5.718   2.006   4.691  0.7603 -0.3105 -0.7532
 2049SOL     ow 8193   2.316   5.494   4.148 -0.8907  0.2417  0.3548
 2049SOL     hw 8194   2.356   5.413   4.179 -0.8844 -0.1606 -0.6538
 2049SOL     hw 8195   2.361   5.564   4.196 -1.3488 -0.3700  1.7074
 2049SOL     vw 8196   2.327   5.493   4.159 -0.9503  0.1080  0.3998
 2050SOL     ow 8197   1.647   1.788   3.659  0.5545  0.0051  0.0378
 2050SOL     hw 8198   1.563   1.832   3.673  0.4007 -0.3864  0.4040
 2050SOL     hw 8199   1.706   1.856   3.629  0.1858  0.3500  0.0891
 2050SOL     vw 8200   1.643   1.803   3.657  0.4855 -0.0010  0.0929
 2051SOL     ow 8201   1.141   4.637   5.887 -0.4255  0.3291 -0.4920
 2051SOL     hw 8202   1.060   4.688   5.877 -0.1659  0.3513 -3.1166
 2051SOL     hw 8203   1.161   4.642   5.981 -2.5010  1.7871 -0.0569
 2051SOL     vw 8204   1.133   4.644   5.898 -0.6650  0.5245 -0.7808
 2052SOL     ow 8205   5.449   0.716   3.029 -0.2262 -0.7491 -0.4615
 2052SOL     hw 8206   5.356   0.736   3.032 -0.1311 -0.2165 -0.8484
 2052SOL     hw 8207   5.492   0.799   3.052  0.1341 -1.2458  0.7111
 2052SOL     vw 8208   5.442   0.730   3.032 -0.1664 -0.7444 -0.3579
 2053SOL     ow 8209   6.928   1.869   0.521  0.2085  0.6750 -0.1615
 2053SOL     hw 8210   6.911   1.898   0.610  3.0795 -0.2872  0.8066
 2053SOL     hw 8211   6.922   1.773   0.525  1.2267  0.5703 -0.7588
 2053SOL     vw 8212   6.925   1.860   0.533  0.7217  0.5342 -0.1126
 2054SOL     ow 8213   4.652   6.637   4.048 -0.1356  0.1709  0.1795
 2054SOL     hw 8214   4.702   6.620   3.968 -0.4510  2.7981 -0.6637
 2054SOL     hw 8215   4.579   6.691   4.019 -0.8171  0.3637  2.1324
 2054SOL     vw 8216   4.649   6.642   4.033 -0.2668  0.5429  0.3259
 2055SOL     ow 8217   3.372   0.040   2.928 -0.0061 -0.0135 -0.8066
 2055SOL     hw 8218   3.400   0.131   2.928  2.6807 -0.7276 -2.1325
 2055SOL     hw 8219   3.314   0.032   2.853  0.6081  0.4185 -1.3406
 2055SOL     vw 8220   3.368   0.051   2.918  0.4295 -0.0507 -1.0519
 2056SOL     ow 8221   3.552   2.324   0.748  0.2420 -0.3765  0.1504
 2056SOL     hw 8222   3.562   2.263   0.822 -1.5165 -1.1500 -0.1924
 2056SOL     hw 8223   3.480   2.288   0.697 -0.4393  1.6495 -0.4296
 2056SOL     vw 8224   3.544   2.311   0.751 -0.0799 -0.2114  0.0286
 2057SOL     ow 8225   0.548   0.487   5.312 -0.0725  0.3180 -0.6574
 2057SOL     hw 8226   0.579   0.578   5.311  1.1769 -0.0905 -0.2379
 2057SOL     hw 8227   0.467   0.491   5.363  0.2830  1.1014 -0.1258
 2057SOL     vw 8228   0.541   0.500   5.319  0.1392  0.3675 -0.5319
 2058SOL     ow 8229   4.657   3.672   0.501 -0.1663 -0.0868  0.5646
 2058SOL     hw 8230   4.582   3.625   0.464 -0.2359  2.3107 -2.8205
 2058SOL     hw 8231   4.733   3.637   0.454  0.6187 -0.8564  2.3002
 2058SOL     vw 8232   4.657   3.661   0.490 -0.0720  0.1280  0.3469
 2059SOL     ow 8233   0.818   6.182   6.840  0.2133 -0.3479 -0.0824
 2059SOL     hw 8234   0.739   6.183   6.894 -0.0789 -1.3746 -0.4797
 2059SOL     hw 8235   0.890   6.178   6.904 -0.0086  1.1585  0.2968
 2059SOL     vw 8236   0.817   6.182   6.856  0.1454 -0.2847 -0.0846
 2060SOL     ow 8237   4.943   1.467   2.084  0.5207  0.4774 -0.0900
 2060SOL     hw 8238   4.969   1.554   2.055 -0.5099  0.0691 -2.4887
 2060SOL     hw 8239   4.976   1.409   2.015 -0.9050 -0.7418  0.2090
 2060SOL     vw 8240   4.951   1.471   2.071  0.1967  0.2626 -0.3670
 2061SOL     ow 8241   0.550   2.132   3.932  0.6545  0.1833 -0.4354
 2061SOL     hw 8242   0.459   2.113   3.955  1.0655 -0.4320  0.7709
 2061SOL     hw 8243   0.546   2.217   3.887 -0.8445 -1.2021 -3.1866
 2061SOL     vw 8244   0.537   2.141   3.929  0.5110 -0.0808 -0.6392
 2062SOL     ow 8245   4.790   4.392   4.956 -0.4857 -0.7218 -0.5900
 2062SOL     hw 8246   4.782   4.344   4.874  0.2107  0.3718 -1.3292
 2062SOL     hw 8247   4.814   4.325   5.021 -0.2049 -1.4686 -1.4420
 2062SOL     vw 8248   4.792   4.377   4.954 -0.3567 -0.6759 -0.7997
 2063SOL     ow 8249   4.743   2.546   3.938  0.3730  0.0171 -0.4679
 2063SOL     hw 8250   4.772   2.637   3.930  0.6091  0.0077  0.2373
 2063SOL     hw 8251   4.786   2.502   3.864  3.8911 -0.4177  1.5971
 2063SOL     vw 8252   4.753   2.552   3.927  0.8683 -0.0415 -0.1023
 2064SOL     ow 8253   3.447   5.838   2.603  0.2221  0.2139  0.1671
 2064SOL     hw 8254   3.360   5.870   2.626  1.1286  1.8632  1.5664
 2064SOL     hw 8255   3.432   5.756   2.557 -2.0144 -0.2831  1.6646
 2064SOL     vw 8256   3.434   5.832   2.600  0.0466  0.3655  0.5492
 2065SOL     ow 8257   5.684   3.690   3.317 -0.4350 -0.1889 -0.2271
 2065SOL     hw 8258   5.638   3.754   3.372 -0.0312  0.9161 -1.1516
 2065SOL     hw 8259   5.656   3.605   3.351 -0.3542  0.4552  1.5651
 2065SOL     vw 8260   5.674   3.687   3.329 -0.3712  0.0418 -0.1125
 2066SOL     ow 8261   1.052   1.882   3.869 -0.0475  0.5114 -0.5137
 2066SOL     hw 8262   1.102   1.901   3.947 -1.5309  0.4109  0.5096
 2066SOL     hw 8263   1.103   1.817   3.822  2.1227  2.4157 -0.9716
 2066SOL     vw 8264   1.065   1.876   3.873  0.0432  0.7493 -0.4390
 2067SOL     ow 8265   6.971   6.149   0.119  0.4411 -0.3262  0.5035
 2067SOL     hw 8266   7.016   6.230   0.143  0.1014 -0.5934  2.1296
 2067SOL     hw 8267   7.020   6.080   0.164 -0.7923 -0.7488  1.2403
 2067SOL     vw 8268   6.984   6.151   0.128  0.2337 -0.4172  0.8152
 2068SOL     ow 8269   0.924   5.657   3.867 -0.0333  0.0231 -0.2423
 2068SOL     hw 8270   0.918   5.752   3.876 -1.7261 -0.2059  1.6371
 2068SOL     hw 8271   0.854   5.623   3.922  0.5029 -2.3361 -0.9069
 2068SOL     vw 8272   0.914   5.665   3.875 -0.1859 -0.3185 -0.0819
 2069SOL     ow 8273   7.096   7.148   2.964  0.0825 -0.3895 -0.4670
 2069SOL     hw 8274   7.031   7.168   3.031  3.2700 -2.4922  3.7506
 2069SOL     hw 8275   7.074   7.059   2.935 -1.0294  0.3439 -1.9378
 2069SOL     vw 8276   7.085   7.139   2.969  0.3564 -0.5701 -0.1045
 2070SOL     ow 8277   2.927   3.572   5.153  0.1797 -0.0911  0.0778
 2070SOL     hw 8278   2.903   3.605   5.239  2.9041  0.5724  0.6935
 2070SOL     hw 8279   3.009   3.616   5.132 -0.2160 -0.4819 -2.7429
 2070SOL     vw 8280   2.935   3.582   5.161  0.4870 -0.0550 -0.2131
 2071SOL     ow 8281   3.747   7.004   3.735 -0.0053  0.1331  0.0412
 2071SOL     hw 8282   3.736   6.990   3.829 -1.6628  1.8982  0.1715
 2071SOL     hw 8283   3.667   6.967   3.696  1.2205 -1.7212 -0.8564
 2071SOL     vw 8284   3.735   6.997   3.742 -0.0623  0.1216 -0.0600
 2072SOL     ow 8285   1.181   4.311   0.389 -0.1237 -0.0991 -0.2572
 2072SOL     hw 8286   1.160   4.221   0.365  1.5001 -0.4480 -0.4819
 2072SOL     hw 8287   1.185   4.357   0.305 -0.2372  0.0108 -0.2017
 2072SOL     vw 8288   1.179   4.305   0.375  0.0755 -0.1307 -0.2795
 2073SOL     ow 8289   5.739   3.378   1.678  0.0838  0.0324 -0.1474
 2073SOL     hw 8290   5.755   3.302   1.734  0.4947  0.2015 -0.0336
 2073SOL     hw 8291   5.679   3.433   1.729  0.8951  0.4551  0.3743
 2073SOL     vw 8292   5.733   3.375   1.692  0.2451  0.1103 -0.0635
 2074SOL     ow 8293   5.611   6.223   1.583 -0.5264  0.7953 -0.2822
 2074SOL     hw 8294   5.639   6.299   1.533  0.7642  1.4390  1.3331
 2074SOL     hw 8295   5.523   6.245   1.614  0.1010  1.9851  0.7547
 2074SOL     vw 8296   5.603   6.236   1.581 -0.2732  1.0369  0.0677
 2075SOL     ow 8297   3.449   4.197   6.850  0.3059 -0.9214  0.2545
 2075SOL     hw 8298   3.460   4.112   6.808  1.4956 -0.2180 -0.9800
 2075SOL     hw 8299   3.355   4.205   6.865 -0.0460 -1.6964 -1.2898
 2075SOL     vw 8300   3.438   4.187   6.847  0.4165 -0.9308 -0.1123
 2076SOL     ow 8301   1.367   7.199   7.151  0.2274 -0.0242 -0.5838
 2076SOL     hw 8302   1.441   7.219   7.208  1.3012  1.2071 -2.3172
 2076SOL     hw 8303   1.371   7.266   7.082 -1.7101 -0.7360 -1.4538
 2076SOL     vw 8304   1.377   7.210   7.149  0.1134  0.0443 -0.9272
 2077SOL     ow 8305   0.055   1.182   2.380  0.7080  0.0087  0.5047
 2077SOL     hw 8306  -0.007   1.203   2.449 -0.2352 -1.3686  0.1102
 2077SOL     hw 8307   0.032   1.242   2.308  1.5271  1.2622  1.2424
 2077SOL     vw 8308   0.044   1.193   2.380  0.6919 -0.0076  0.5502
 2078SOL     ow 8309   5.741   7.185   4.460 -1.2533  0.1108 -0.2783
 2078SOL     hw 8310   5.797   7.213   4.388  2.6226  0.2809  2.4669
 2078SOL     hw 8311   5.751   7.090   4.463 -2.0781  0.0131 -0.4432
 2078SOL     vw 8312   5.750   7.176   4.451 -0.8509  0.1202  0.0622
 2079SOL     ow 8313   0.145   4.975   1.011 -0.2071 -0.2073 -0.4333
 2079SOL     hw 8314   0.127   4.951   1.102 -0.6202  1.2947 -0.0877
 2079SOL     hw 8315   0.236   4.950   0.996 -0.0129 -0.1052  0.5270
 2079SOL     vw 8316   0.154   4.969   1.021 -0.2360  0.0043 -0.2610
 2080SOL     ow 8317   4.807   6.845   2.610  0.6996 -0.0797 -0.4008
 2080SOL     hw 8318   4.792   6.935   2.579 -0.1843  0.4812  1.4906
 2080SOL     hw 8319   4.855   6.855   2.692  0.4528 -1.3273 -0.0797
 2080SOL     vw 8320   4.811   6.858   2.617  0.5507 -0.1702 -0.1088
 2081SOL     ow 8321   4.441   5.190   6.318 -0.0224  0.2441 -0.6077
 2081SOL     hw 8322   4.492   5.111   6.336 -0.2639 -0.1022 -1.3831
 2081SOL     hw 8323   4.498   5.243   6.262  0.2739  0.7803  0.1984
 2081SOL     vw 8324   4.455   5.186   6.313 -0.0153  0.2697 -0.6037
 2082SOL     ow 8325   4.431   2.405   3.728  0.1561  0.2146 -0.0572
 2082SOL     hw 8326   4.431   2.449   3.644 -3.1625 -0.5779 -0.6411
 2082SOL     hw 8327   4.358   2.343   3.722 -1.3429  1.2651  3.8839
 2082SOL     vw 8328   4.421   2.403   3.716 -0.4797  0.2486  0.3858
 2083SOL     ow 8329   2.189   5.729   0.636 -0.4045  0.3119 -0.7857
 2083SOL     hw 8330   2.162   5.730   0.728  1.3811  1.2613 -0.2311
 2083SOL     hw 8331   2.107   5.728   0.587 -1.3910 -0.4582  0.8052
 2083SOL     vw 8332   2.174   5.729   0.641 -0.2992  0.3355 -0.5026
 2084SOL     ow 8333   1.907   6.670   0.993 -0.3061  0.5900 -0.0924
 2084SOL     hw 8334   2.002   6.676   0.991 -0.1727 -0.5158  1.6100
 2084SOL     hw 8335   1.889   6.578   1.008 -1.5687  1.1495  2.2833
 2084SOL     vw 8336   1.917   6.659   0.994 -0.4550  0.5178  0.4456
 2085SOL     ow 8337   6.001   0.824   4.564  0.5964 -0.7178 -0.8186
 2085SOL     hw 8338   6.063   0.831   4.637  1.7524  0.1907 -1.8498
 2085SOL     hw 8339   6.012   0.906   4.516 -1.9801 -0.1871 -0.6247
 2085SOL     vw 8340   6.011   0.836   4.568  0.4091 -0.5279 -0.9291
 2086SOL     ow 8341   0.875   6.478   0.576  0.2601  0.1652 -0.5862
 2086SOL     hw 8342   0.916   6.565   0.571 -1.2843  0.9618 -0.1047
 2086SOL     hw 8343   0.822   6.481   0.655  1.0462 -1.6437  0.0489
 2086SOL     vw 8344   0.873   6.490   0.585  0.1600  0.0317 -0.4388
 2087SOL     ow 8345   6.662   5.511   6.469  0.1861 -0.8560  0.4185
 2087SOL     hw 8346   6.604   5.435   6.476 -0.7586 -0.4530 -2.0713
 2087SOL     hw 8347   6.736   5.480   6.417  0.5993 -0.5007  0.7913
 2087SOL     vw 8348   6.664   5.497   6.463  0.1159 -0.7560  0.1392
 2088SOL     ow 8349   0.617   3.486   1.240  0.4590  0.3007  0.4766
 2088SOL     hw 8350   0.526   3.504   1.265  0.7013  1.7643  0.4153
 2088SOL     hw 8351   0.619   3.392   1.224 -1.4290  0.4124 -0.9366
 2088SOL     vw 8352   0.605   3.476   1.241  0.2419  0.5085  0.2822
 2089SOL     ow 8353   4.739   5.963   1.318  0.5613  0.1249 -0.2360
 2089SOL     hw 8354   4.792   5.901   1.269  2.7040  2.0966 -0.6286
 2089SOL     hw 8355   4.757   5.944   1.410 -0.1306 -0.8766 -0.3000
 2089SOL     vw 8356   4.749   5.953   1.323  0.7527  0.2530 -0.2963
 2090SOL     ow 8357   4.361   4.656   1.499  0.0803  0.2966  0.0121
 2090SOL     hw 8358   4.364   4.672   1.405  3.2105  0.2250  0.0065
 2090SOL     hw 8359   4.429   4.713   1.536 -2.1582  1.6082  2.5191
 2090SOL     vw 8360   4.370   4.666   1.492  0.1979  0.4601  0.3421
 2091SOL     ow 8361   3.783   6.530   2.905  0.0180 -0.3789 -0.7088
 2091SOL     hw 8362   3.855   6.475   2.873  1.2063  0.3550  0.6139
 2091SOL     hw 8363   3.729   6.470   2.957  0.3247 -0.6709 -0.7252
 2091SOL     vw 8364   3.785   6.515   2.907  0.2153 -0.3209 -0.5363
 2092SOL     ow 8365   2.461   6.270   0.960 -0.1631  0.4691  0.5502
 2092SOL     hw 8366   2.495   6.188   0.925 -1.1749 -0.2625  1.2041
 2092SOL     hw 8367   2.521   6.292   1.031  0.2810  0.4534  0.1828
 2092SOL     vw 8368   2.473   6.262   0.965 -0.2379  0.3703  0.5880
 2093SOL     ow 8369   2.439   4.606   2.616 -0.5120  0.2391 -0.7438
 2093SOL     hw 8370   2.440   4.578   2.707 -0.2222  1.3350 -0.3961
 2093SOL     hw 8371   2.425   4.526   2.566 -0.8619 -0.3437  0.2720
 2093SOL     vw 8372   2.438   4.592   2.621 -0.5200  0.3066 -0.5639
 2094SOL     ow 8373   4.797   6.936   1.324  0.1066 -0.5708 -0.1467
 2094SOL     hw 8374   4.862   6.867   1.312  1.0996  0.5494 -1.4711
 2094SOL     hw 8375   4.799   6.955   1.418 -0.5232 -2.6150  0.3190
 2094SOL     vw 8376   4.806   6.930   1.335  0.1545 -0.6928 -0.2600
 2095SOL     ow 8377   6.256   3.214   5.939  0.1561 -0.3608 -0.5592
 2095SOL     hw 8378   6.175   3.175   5.974 -0.9325  1.2833 -1.1132
 2095SOL     hw 8379   6.226   3.289   5.888  2.1780  2.1870  1.6923
 2095SOL     vw 8380   6.241   3.218   5.937  0.2794  0.1923 -0.3352
 2096SOL     ow 8381   6.346   1.757   3.597  0.4244  0.2576  0.0281
 2096SOL     hw 8382   6.409   1.826   3.618  0.2309  0.7186 -0.8762
 2096SOL     hw 8383   6.298   1.743   3.679  0.8925  0.7402  0.3961
 2096SOL     vw 8384   6.348   1.764   3.611  0.4609  0.3821 -0.0427
 2097SOL     ow 8385   2.968   2.188   4.215  0.1980  0.8454  0.3538
 2097SOL     hw 8386   3.054   2.205   4.253  1.7924  1.9167 -3.2928
 2097SOL     hw 8387   2.911   2.253   4.256  1.3888  0.9066  1.9842
 2097SOL     vw 8388   2.972   2.199   4.225  0.5655  0.9948  0.0880
 2098SOL     ow 8389   6.313   5.591   2.444  0.2621 -0.0759 -0.3777
 2098SOL     hw 8390   6.242   5.653   2.465  1.6023  1.8298 -1.1748
 2098SOL     hw 8391   6.339   5.614   2.355  1.9468 -0.6444 -0.0661
 2098SOL     vw 8392   6.307   5.602   2.435  0.6611  0.1006 -0.4418
 2099SOL     ow 8393   3.052   3.546   0.787 -0.5319 -0.9789  0.1140
 2099SOL     hw 8394   3.044   3.532   0.693 -0.4430 -1.2374  0.1434
 2099SOL     hw 8395   3.056   3.641   0.797 -1.0568 -0.9283 -0.1029
 2099SOL     vw 8396   3.051   3.557   0.776 -0.5894 -1.0064  0.0893
 2100SOL     ow 8397   5.463   4.397   1.542  0.2066 -0.9678  0.3787
 2100SOL     hw 8398   5.441   4.338   1.614 -0.4668  0.1811  1.1307
 2100SOL     hw 8399   5.391   4.459   1.538  1.7005  0.8826  0.7444
 2100SOL     vw 8400   5.451   4.397   1.551  0.3147 -0.5722  0.5262
 2101SOL     ow 8401   7.133   5.582   2.743  0.0089 -0.5287 -0.3501
 2101SOL     hw 8402   7.213   5.603   2.790  0.1743 -0.5789 -0.6048
 2101SOL     hw 8403   7.063   5.619   2.796  0.2900  0.6705 -0.7928
 2101SOL     vw 8404   7.134   5.590   2.756  0.0677 -0.3772 -0.4420
 2102SOL     ow 8405   6.474   2.605   1.834 -0.4088 -0.7953  0.1384
 2102SOL     hw 8406   6.456   2.636   1.745  0.1703 -0.9051 -0.0274
 2102SOL     hw 8407   6.460   2.511   1.830 -0.0876 -0.8420  0.0815
 2102SOL     vw 8408   6.470   2.597   1.822 -0.2902 -0.8159  0.1091
 2103SOL     ow 8409   1.900   6.989   3.980  0.3037 -0.5718 -0.0560
 2103SOL     hw 8410   1.872   6.955   3.894 -0.5737  0.9225 -0.3984
 2103SOL     hw 8411   1.863   6.927   4.043 -0.5243 -0.7580 -0.6920
 2103SOL     vw 8412   1.891   6.976   3.977  0.0787 -0.3991 -0.1850
 2104SOL     ow 8413   4.859   6.941   5.350  0.0310  0.5247  0.2769
 2104SOL     hw 8414   4.851   6.911   5.441  0.3293  0.8259  0.4041
 2104SOL     hw 8415   4.831   6.866   5.298 -1.3701  0.7593  0.6387
 2104SOL     vw 8416   4.854   6.927   5.355 -0.1144  0.5953  0.3412
 2105SOL     ow 8417   1.984   0.428   4.924 -0.7035 -0.1209 -0.1557
 2105SOL     hw 8418   2.050   0.490   4.955 -0.9736 -0.6791  1.6648
 2105SOL     hw 8419   1.921   0.483   4.877 -0.0067  0.7221 -0.1415
 2105SOL     vw 8420   1.984   0.444   4.922 -0.6472 -0.0833  0.0861
 2106SOL     ow 8421   2.499   0.198   5.607 -0.3676 -0.8585  0.8762
 2106SOL     hw 8422   2.498   0.268   5.673  0.2430  0.4045 -0.3942
 2106SOL     hw 8423   2.407   0.172   5.599 -0.4051 -1.3118  2.4824
 2106SOL     vw 8424   2.486   0.204   5.614 -0.2919 -0.7517  0.9208
 2107SOL     ow 8425   5.860   1.488   0.159 -0.0497  0.2009 -0.0284
 2107SOL     hw 8426   5.891   1.504   0.070  1.8823 -2.1895  0.1189
 2107SOL     hw 8427   5.932   1.514   0.216 -1.7562  3.0296  1.0669
 2107SOL     vw 8428   5.873   1.493   0.155 -0.0200  0.2587  0.1355
 2108SOL     ow 8429   5.083   5.312   1.769  0.1659  0.2309  0.7618
 2108SOL     hw 8430   5.052   5.262   1.693 -0.2326 -0.9327  1.6583
 2108SOL     hw 8431   5.004   5.332   1.819  0.6510 -1.7509  2.4654
 2108SOL     vw 8432   5.069   5.308   1.766  0.1779 -0.1841  1.1048
 2109SOL     ow 8433   0.804   1.142   6.465  0.7820 -0.7625  0.3650
 2109SOL     hw 8434   0.797   1.193   6.546 -2.8646  0.8999 -0.8100
 2109SOL     hw 8435   0.744   1.069   6.478  1.9673 -1.8298 -0.0055
 2109SOL     vw 8436   0.796   1.139   6.477  0.4573 -0.6840  0.1612
 2110SOL     ow 8437   6.052   1.503   7.257  0.3549  0.3443 -0.3240
 2110SOL     hw 8438   6.029   1.463   7.173 -2.2821  2.1109 -0.5674
 2110SOL     hw 8439   6.128   1.558   7.237  0.7830 -0.5132 -1.1391
 2110SOL     vw 8440   6.059   1.505   7.243  0.0632  0.4643 -0.4637
 2111SOL     ow 8441   0.339   4.002   5.809  0.5629 -0.7136  0.3503
 2111SOL     hw 8442   0.266   4.008   5.747  2.2527  0.1400 -1.6795
 2111SOL     hw 8443   0.318   4.065   5.877  0.8759  2.0796 -1.9250
 2111SOL     vw 8444   0.326   4.011   5.810  0.8271 -0.2327 -0.2179
 2112SOL     ow 8445   1.980   0.075   1.852 -0.6929  0.0506  0.3962
 2112SOL     hw 8446   1.894   0.099   1.885  0.1084  0.7753  2.0894
 2112SOL     hw 8447   2.042   0.111   1.916  0.8478 -0.9982 -0.4159
 2112SOL     vw 8448   1.977   0.083   1.864 -0.3839  0.0079  0.5125
 2113SOL     ow 8449   6.267   6.723   2.319  0.2724 -0.0098 -0.0378
 2113SOL     hw 8450   6.185   6.677   2.300  0.5472 -1.4025  1.7604
 2113SOL     hw 8451   6.260   6.806   2.272 -2.8024  0.5578  1.1665
 2113SOL     vw 8452   6.255   6.728   2.311 -0.0970 -0.1187  0.3582
 2114SOL     ow 8453   5.723   3.433   2.299 -0.4795  0.0624 -0.2769
 2114SOL     hw 8454   5.635   3.456   2.330 -0.2991  1.7021 -0.8581
 2114SOL     hw 8455   5.762   3.517   2.274  2.0153 -0.3690  1.8253
 2114SOL     vw 8456   5.717   3.447   2.300 -0.1266  0.2218 -0.0763
 2115SOL     ow 8457   6.773   3.208   6.162  0.0265  0.1082 -0.0068
 2115SOL     hw 8458   6.844   3.146   6.179  0.3950  0.3433 -0.6952
 2115SOL     hw 8459   6.767   3.213   6.067 -1.5770 -0.6719  0.0011
 2115SOL     vw 8460   6.781   3.200   6.152 -0.1366  0.0362 -0.0968
 2116SOL     ow 8461   3.402   1.365   5.372 -0.5686 -0.6354  0.0513
 2116SOL     hw 8462   3.430   1.431   5.435  1.2656 -0.2654 -1.0928
 2116SOL     hw 8463   3.326   1.404   5.329  0.7431  0.9670 -0.9132
 2116SOL     vw 8464   3.395   1.378   5.375 -0.1537 -0.3751 -0.2270
 2117SOL     ow 8465   4.922   5.877   1.109 -0.2428  0.0732  0.1318
 2117SOL     hw 8466   4.877   5.811   1.055  0.8026 -0.3251 -0.2746
 2117SOL     hw 8467   4.909   5.959   1.062  0.6771 -0.2746 -0.7543
 2117SOL     vw 8468   4.914   5.879   1.096  0.0165 -0.0253 -0.0387
 2118SOL     ow 8469   4.010   2.740   6.056 -0.6443 -0.5763 -0.4682
 2118SOL     hw 8470   4.037   2.649   6.046 -1.0887 -0.9281  1.1184
 2118SOL     hw 8471   3.931   2.747   6.003 -0.5218 -1.0844 -0.7268
 2118SOL     vw 8472   4.003   2.729   6.048 -0.6866 -0.6897 -0.2930
 2119SOL     ow 8473   2.020   0.308   0.617 -0.3134 -0.1304 -0.4361
 2119SOL     hw 8474   2.104   0.283   0.655  0.6800  0.4862 -2.0925
 2119SOL     hw 8475   2.028   0.403   0.602 -1.0328 -0.1772 -1.1860
 2119SOL     vw 8476   2.032   0.317   0.620 -0.2772 -0.0552 -0.7536
 2120SOL     ow 8477   2.721   4.069   3.591  0.4675 -0.0141  0.0602
 2120SOL     hw 8478   2.710   4.002   3.524  0.3282 -2.8246  2.6868
 2120SOL     hw 8479   2.814   4.089   3.590  0.8270 -1.5397  0.3120
 2120SOL     vw 8480   2.732   4.063   3.582  0.4965 -0.5863  0.4401
 2121SOL     ow 8481   6.652   0.969   0.230 -0.2225  0.4934  0.2569
 2121SOL     hw 8482   6.698   1.052   0.238  2.3961 -1.0315  2.7047
 2121SOL     hw 8483   6.720   0.906   0.206 -1.9174 -1.1778 -0.4311
 2121SOL     vw 8484   6.667   0.972   0.228 -0.1006  0.0718  0.4890
 2122SOL     ow 8485   1.466   0.063   6.890 -1.0678 -0.6495 -0.0879
 2122SOL     hw 8486   1.528   0.086   6.959  2.0733  1.0128 -3.1421
 2122SOL     hw 8487   1.487  -0.028   6.870  0.0466 -0.2928 -0.6621
 2122SOL     vw 8488   1.477   0.054   6.897 -0.5063 -0.3831 -0.5665
 2123SOL     ow 8489   1.775   0.231   3.506 -0.4684 -0.8398  0.2519
 2123SOL     hw 8490   1.775   0.299   3.574 -0.9397 -1.2539  0.6731
 2123SOL     hw 8491   1.831   0.266   3.437 -2.7209  1.1117 -0.6866
 2123SOL     vw 8492   1.783   0.244   3.506 -0.8277 -0.6370  0.1836
 2124SOL     ow 8493   5.471   6.970   5.626  0.7273  0.0837 -0.3472
 2124SOL     hw 8494   5.429   7.056   5.626 -0.6557 -0.5433  1.4886
 2124SOL     hw 8495   5.454   6.934   5.713  0.8100 -2.2788 -1.2392
 2124SOL     vw 8496   5.463   6.977   5.637  0.5558 -0.3107 -0.2227
 2125SOL     ow 8497   6.500   6.413   2.654 -0.2520  0.4599  0.0848
 2125SOL     hw 8498   6.501   6.464   2.573  0.7131 -1.7830 -1.4347
 2125SOL     hw 8499   6.438   6.341   2.635  0.7446 -0.6545  0.9387
 2125SOL     vw 8500   6.492   6.410   2.641  0.0069  0.0167 -0.0031
 2126SOL     ow 8501   0.380   1.060   0.906 -0.0727  0.0859 -0.2086
 2126SOL     hw 8502   0.299   1.088   0.865  1.2998  0.7937 -2.6320
 2126SOL     hw 8503   0.375   0.965   0.907 -0.7920  0.1147 -0.6108
 2126SOL     vw 8504   0.369   1.051   0.901  0.0135  0.1831 -0.5814
 2127SOL     ow 8505   5.668   1.307   0.878  0.1899 -0.3540 -1.0857
 2127SOL     hw 8506   5.588   1.266   0.845 -0.7414  0.0348  0.5714
 2127SOL     hw 8507   5.657   1.400   0.860  0.0072 -0.2328 -0.3885
 2127SOL     vw 8508   5.656   1.314   0.871  0.0429 -0.2868 -0.7751
 2128SOL     ow 8509   5.105   7.147   5.346  0.5229  0.8207 -0.0547
 2128SOL     hw 8510   5.176   7.172   5.286  0.1468  1.1783 -0.3500
 2128SOL     hw 8511   5.151   7.121   5.427  0.9224  2.9243  0.4540
 2128SOL     vw 8512   5.121   7.147   5.349  0.5260  1.1454 -0.0267
 2129SOL     ow 8513   2.109   2.122   7.255  0.2452  0.7127  0.4623
 2129SOL     hw 8514   2.031   2.174   7.237 -0.7947  0.1201  2.8875
 2129SOL     hw 8515   2.097   2.043   7.202 -0.2012  1.1509 -0.0975
 2129SOL     vw 8516   2.097   2.118   7.246  0.0491  0.6922  0.7083
 2130SOL     ow 8517   0.458   6.430   6.672  0.2712  0.2704 -0.3221
 2130SOL     hw 8518   0.427   6.428   6.582  0.3321  0.0896 -0.3392
 2130SOL     hw 8519   0.450   6.340   6.702 -0.2159  0.4212  0.0116
 2130SOL     vw 8520   0.453   6.418   6.664  0.2150  0.2666 -0.2801
 2131SOL     ow 8521   2.506   5.234   2.245  0.3489  0.3918 -0.0429
 2131SOL     hw 8522   2.478   5.217   2.155  0.4662  0.7139 -0.1407
 2131SOL     hw 8523   2.593   5.272   2.237  0.6884 -0.3006  0.2492
 2131SOL     vw 8524   2.513   5.236   2.232  0.4094  0.3433 -0.0172
 2132SOL     ow 8525   3.926   6.107   7.185  0.3008  0.7766 -0.0397
 2132SOL     hw 8526   3.840   6.148   7.182  0.1616  0.4651 -2.2739
 2132SOL     hw 8527   3.961   6.130   7.271 -1.4213  2.1009  0.3609
 2132SOL     vw 8528   3.920   6.115   7.196  0.0552  0.9100 -0.2816
 2133SOL     ow 8529   1.595   1.558   3.823 -0.2574  0.0950  0.4423
 2133SOL     hw 8530   1.516   1.507   3.804 -0.1764 -0.3435  1.2505
 2133SOL     hw 8531   1.585   1.587   3.913  0.2029  0.5990  0.3379
 2133SOL     vw 8532   1.583   1.555   3.832 -0.1860  0.1037  0.5351
 2134SOL     ow 8533   5.529   6.661   6.486 -0.3493 -0.1772 -0.2398
 2134SOL     hw 8534   5.554   6.751   6.508 -1.8301  0.7086 -1.9046
 2134SOL     hw 8535   5.438   6.654   6.516 -0.0948 -1.3183  0.3202
 2134SOL     vw 8536   5.520   6.672   6.493 -0.5114 -0.2108 -0.3853
 2135SOL     ow 8537   6.535   4.819   5.915 -0.2587  0.0256 -0.3276
 2135SOL     hw 8538   6.496   4.903   5.939  0.3167  0.2910 -0.3223
 2135SOL     hw 8539   6.463   4.756   5.923 -1.0252  0.7119 -1.5844
 2135SOL     vw 8540   6.520   4.821   5.919 -0.2837  0.1509 -0.4930
 2136SOL     ow 8541   6.946   0.538   4.520 -0.5922  0.4812  0.6492
 2136SOL     hw 8542   6.858   0.570   4.502 -0.9231 -1.4120 -1.4902
 2136SOL     hw 8543   6.937   0.443   4.524  1.3513  0.2520  0.4537
 2136SOL     vw 8544   6.933   0.530   4.518 -0.3793  0.2012  0.3409
 2137SOL     ow 8545   3.315   5.137   3.504  0.0295  0.0495  0.2571
 2137SOL     hw 8546   3.287   5.228   3.514  0.7205  0.3230 -0.2014
 2137SOL     hw 8547   3.238   5.092   3.470  0.0665  0.7564 -0.8438
 2137SOL     vw 8548   3.301   5.143   3.501  0.1256  0.1791  0.0516
 2138SOL     ow 8549   7.118   6.601   4.738  0.1810 -0.4754  0.6750
 2138SOL     hw 8550   7.120   6.687   4.696 -2.3207 -0.1418  1.0844
 2138SOL     hw 8551   7.089   6.542   4.669 -0.0729 -0.6392  0.9246
 2138SOL     vw 8552   7.115   6.605   4.723 -0.1826 -0.4530  0.7620
 2139SOL     ow 8553   0.480   7.304   5.578  0.1714 -1.1104  0.3807
 2139SOL     hw 8554   0.422   7.369   5.539  1.6206 -0.0384 -0.0673
 2139SOL     hw 8555   0.496   7.337   5.667 -0.2443 -1.6361  0.6553
 2139SOL     vw 8556   0.475   7.317   5.585  0.3078 -1.0383  0.3576
 2140SOL     ow 8557   4.926   4.524   7.155  0.0447 -0.2253 -0.3449
 2140SOL     hw 8558   4.862   4.526   7.226  0.0462 -2.0175 -0.2662
 2140SOL     hw 8559   4.892   4.459   7.093  0.8505  0.1587 -1.2259
 2140SOL     vw 8560   4.913   4.516   7.156  0.1514 -0.4113 -0.4508
 2141SOL     ow 8561   6.755   0.842   0.916  0.0731  0.1454 -0.4368
 2141SOL     hw 8562   6.839   0.882   0.898 -0.5204  1.9642  0.5870
 2141SOL     hw 8563   6.703   0.856   0.837  0.2779  0.2332 -0.5548
 2141SOL     vw 8564   6.759   0.849   0.904  0.0222  0.3969 -0.3172
 2142SOL     ow 8565   2.765   5.418   5.652  0.2669 -0.6611 -0.0880
 2142SOL     hw 8566   2.802   5.495   5.610 -0.1979 -0.3912 -0.0140
 2142SOL     hw 8567   2.682   5.404   5.607 -0.9111  0.4613  1.6151
 2142SOL     vw 8568   2.759   5.426   5.641  0.0501 -0.4773  0.1464
 2143SOL     ow 8569   4.972   0.759   5.792 -0.6421  0.1548  0.3238
 2143SOL     hw 8570   4.887   0.720   5.815 -0.4534 -0.5258 -0.1006
 2143SOL     hw 8571   5.000   0.804   5.871 -1.6982  0.9369  0.2696
 2143SOL     vw 8572   4.964   0.759   5.805 -0.7567  0.1682  0.2606
 2144SOL     ow 8573   5.535   6.673   0.442 -0.4354  0.0277  0.0664
 2144SOL     hw 8574   5.448   6.665   0.482 -0.5692  1.4816  0.1091
 2144SOL     hw 8575   5.565   6.583   0.433 -1.5155 -0.4548  1.0067
 2144SOL     vw 8576   5.527   6.660   0.446 -0.5956  0.1559  0.1961
 2145SOL     ow 8577   5.338   4.774   5.283  0.0504 -0.2818  1.7376
 2145SOL     hw 8578   5.388   4.848   5.248 -0.0619 -0.9277  0.1698
 2145SOL     hw 8579   5.249   4.809   5.291 -0.3213 -0.6116 -0.3654
 2145SOL     vw 8580   5.333   4.789   5.280 -0.0134 -0.4106  1.2536
 2146SOL     ow 8581   0.587   3.925   2.602 -0.3299  0.0175  0.0111
 2146SOL     hw 8582   0.557   4.010   2.635 -0.3321  0.2661 -0.6204
 2146SOL     hw 8583   0.629   3.945   2.518 -0.5019 -0.6336 -0.2350
 2146SOL     vw 8584   0.589   3.939   2.595 -0.3529 -0.0355 -0.1045
 2147SOL     ow 8585   0.063   3.633   7.192 -0.6857 -0.3866  0.3183
 2147SOL     hw 8586   0.138   3.632   7.251 -0.8184 -1.1310  0.4956
 2147SOL     hw 8587   0.006   3.702   7.225  0.9001  1.7095 -1.1148
 2147SOL     vw 8588   0.065   3.642   7.204 -0.4940 -0.2083  0.1526
 2148SOL     ow 8589   5.749   4.778   5.105  0.8461 -0.1310 -1.2763
 2148SOL     hw 8590   5.836   4.762   5.139 -0.0038 -2.6370 -0.0370
 2148SOL     hw 8591   5.732   4.703   5.047 -1.1629 -0.8208  0.0762
 2148SOL     vw 8592   5.758   4.766   5.101  0.4690 -0.5529 -0.9344
 2149SOL     ow 8593   1.246   1.847   1.340 -0.2255 -0.2780  0.2660
 2149SOL     hw 8594   1.171   1.837   1.399  1.2267  0.8061  2.4068
 2149SOL     hw 8595   1.317   1.799   1.383  1.0462  1.0891 -0.2379
 2149SOL     vw 8596   1.245   1.839   1.353  0.1339  0.0454  0.4820
 2150SOL     ow 8597   1.746   1.527   6.814  0.8616 -0.4730  0.0217
 2150SOL     hw 8598   1.823   1.583   6.821  0.0561  0.5612  0.9672
 2150SOL     hw 8599   1.781   1.441   6.791  2.2086  0.1815 -0.4773
 2150SOL     vw 8600   1.761   1.523   6.812  0.9330 -0.2502  0.0806
 2151SOL     ow 8601   1.676   3.187   2.734 -0.2976  0.2559  0.1013
 2151SOL     hw 8602   1.620   3.151   2.666 -0.0042 -1.8815  0.9012
 2151SOL     hw 8603   1.761   3.146   2.719 -0.1128  0.0906  1.4326
 2151SOL     vw 8604   1.680   3.176   2.723 -0.2345 -0.0479  0.3825
 2152SOL     ow 8605   5.280   3.470   5.291  0.7527 -0.2855 -0.4144
 2152SOL     hw 8606   5.293   3.465   5.196 -0.1907  1.3921 -0.6619
 2152SOL     hw 8607   5.334   3.398   5.326  2.4079  0.0496 -2.0921
 2152SOL     vw 8608   5.289   3.460   5.283  0.8466 -0.0199 -0.6680
 2153SOL     ow 8609   2.284   1.441   0.108 -0.2387 -0.5276 -0.4514
 2153SOL     hw 8610   2.238   1.428   0.025 -0.2280 -1.2511 -0.3586
 2153SOL     hw 8611   2.241   1.379   0.168  0.7056 -1.0546 -0.3081
 2153SOL     vw 8612   2.272   1.431   0.105 -0.1127 -0.6926 -0.4202
 2154SOL     ow 8613   4.093   4.230   5.850 -0.1496  0.1032 -0.7616
 2154SOL     hw 8614   4.111   4.204   5.760 -1.3302 -2.7698 -0.2935
 2154SOL     hw 8615   4.009   4.276   5.845 -0.2056 -0.0356 -1.1325
 2154SOL     vw 8616   4.084   4.233   5.838 -0.3126 -0.2940 -0.7484
 2155SOL     ow 8617   5.758   6.225   1.872  0.8193  0.3279  0.1536
 2155SOL     hw 8618   5.704   6.221   1.793 -0.7397 -1.4170  1.2251
 2155SOL     hw 8619   5.839   6.181   1.847 -0.3461 -1.8758 -0.0474
 2155SOL     vw 8620   5.761   6.218   1.858  0.4601 -0.1926  0.2685
 2156SOL     ow 8621   3.671   6.790   1.599  0.0551 -0.3185  0.2376
 2156SOL     hw 8622   3.656   6.713   1.544  0.4102  1.2025 -2.1697
 2156SOL     hw 8623   3.593   6.797   1.654 -1.3259 -0.7753 -1.5844
 2156SOL     vw 8624   3.659   6.781   1.599 -0.0802 -0.1779 -0.3204
 2157SOL     ow 8625   1.400   6.574   3.023 -0.4637 -0.2049 -0.2346
 2157SOL     hw 8626   1.465   6.589   2.955 -0.3870  1.5100  0.1716
 2157SOL     hw 8627   1.451   6.563   3.103 -0.5646 -1.9748 -0.3746
 2157SOL     vw 8628   1.415   6.574   3.025 -0.4669 -0.2122 -0.1996
 2158SOL     ow 8629   5.023   0.256   5.619 -0.4639  0.0680 -0.4369
 2158SOL     hw 8630   5.100   0.200   5.612  1.2723  1.8556  2.5592
 2158SOL     hw 8631   5.013   0.294   5.531  1.3989 -1.0302 -1.1788
 2158SOL     vw 8632   5.032   0.254   5.606  0.0110  0.1589 -0.1395
 2159SOL     ow 8633   2.400   4.090   3.226 -0.2240  0.5629  0.2185
 2159SOL     hw 8634   2.369   4.159   3.168 -0.1854 -0.4438 -1.0489
 2159SOL     hw 8635   2.409   4.014   3.169  1.7343  0.0488  1.1523
 2159SOL     vw 8636   2.397   4.089   3.211  0.0395  0.3624  0.1745
 2160SOL     ow 8637   3.508   3.844   2.167 -0.1617  0.5521  0.4173
 2160SOL     hw 8638   3.585   3.860   2.113 -0.0782  2.9180  1.0977
 2160SOL     hw 8639   3.538   3.858   2.257 -1.0674  0.1084  0.8070
 2160SOL     vw 8640   3.522   3.848   2.172 -0.2702  0.8057  0.5585
 2161SOL     ow 8641   5.611   3.657   5.754  0.2149  0.0311 -0.1579
 2161SOL     hw 8642   5.619   3.571   5.796  0.0977 -1.6426 -3.2393
 2161SOL     hw 8643   5.635   3.641   5.663 -1.9764  2.7831 -1.3788
 2161SOL     vw 8644   5.615   3.643   5.748 -0.0899  0.1733 -0.7257
 2162SOL     ow 8645   1.060   3.277   0.498 -0.0312  0.3543  0.1697
 2162SOL     hw 8646   1.027   3.319   0.419  3.0511  1.9871 -0.3906
 2162SOL     hw 8647   1.012   3.194   0.503 -2.1463  1.3444 -1.9391
 2162SOL     vw 8648   1.049   3.271   0.488  0.0965  0.7004 -0.1824
 2163SOL     ow 8649   2.927   2.721   3.856  0.1080  0.3078  0.0177
 2163SOL     hw 8650   3.009   2.769   3.847  1.5406 -2.1116 -0.4604
 2163SOL     hw 8651   2.867   2.784   3.898  2.5765  1.7149  1.6811
 2163SOL     vw 8652   2.930   2.736   3.861  0.6226  0.1742  0.1742
 2164SOL     ow 8653   0.381   6.058   2.921 -0.5076 -0.1288  0.4517
 2164SOL     hw 8654   0.315   6.082   2.987 -1.3286 -0.1092 -0.3566
 2164SOL     hw 8655   0.463   6.053   2.970 -1.1043 -0.1382  1.4807
 2164SOL     vw 8656   0.383   6.061   2.937 -0.6946 -0.1273  0.4808
 2165SOL     ow 8657   1.337   3.465   2.033 -0.0464 -0.5524 -1.0784
 2165SOL     hw 8658   1.378   3.391   2.078  1.3293  0.7527 -0.1181
 2165SOL     hw 8659   1.272   3.498   2.095 -0.1517 -0.5184 -1.2072
 2165SOL     vw 8660   1.334   3.460   2.047  0.1212 -0.3756 -0.9686
 2166SOL     ow 8661   6.929   5.881   1.363  0.2757  0.2751  0.5061
 2166SOL     hw 8662   6.867   5.895   1.435  0.3176  0.5947  0.4826
 2166SOL     hw 8663   6.981   5.961   1.360 -0.2884  0.6321 -0.4266
 2166SOL     vw 8664   6.928   5.893   1.372  0.2069  0.3643  0.3800
 2167SOL     ow 8665   4.401   3.733   7.010  0.0008 -0.9332 -0.0466
 2167SOL     hw 8666   4.394   3.732   7.105  1.6591 -1.3282  0.1054
 2167SOL     hw 8667   4.489   3.700   6.992  0.0397 -0.0544 -1.6873
 2167SOL     vw 8668   4.412   3.729   7.020  0.2248 -0.8694 -0.2432
 2168SOL     ow 8669   2.420   2.420   3.912  0.5894 -0.0484 -0.3148
 2168SOL     hw 8670   2.354   2.355   3.889  2.1722 -1.7860 -0.1613
 2168SOL     hw 8671   2.404   2.493   3.853 -1.4127 -0.4535 -0.3227
 2168SOL     vw 8672   2.409   2.421   3.901  0.5341 -0.3312 -0.2955
 2169SOL     ow 8673   7.104   2.335   3.334  0.0397 -0.2336  0.2076
 2169SOL     hw 8674   7.015   2.301   3.343  1.1321 -4.0156 -1.4409
 2169SOL     hw 8675   7.130   2.314   3.245  2.9809 -0.3228  0.9710
 2169SOL     vw 8676   7.096   2.328   3.324  0.5722 -0.7445  0.0910
 2170SOL     ow 8677   2.513   5.546   2.247 -0.2436 -0.6546 -0.1857
 2170SOL     hw 8678   2.512   5.633   2.287 -0.4886 -1.4973  1.7352
 2170SOL     hw 8679   2.461   5.492   2.306  0.4242 -2.2556 -1.0124
 2170SOL     vw 8680   2.506   5.551   2.260 -0.1879 -0.9773 -0.0412
 2171SOL     ow 8681   3.960   6.335   4.211 -0.1681 -0.2189 -0.2161
 2171SOL     hw 8682   4.010   6.323   4.131  0.1512 -3.2374  0.3270
 2171SOL     hw 8683   3.869   6.338   4.183  0.0095  0.0231 -0.7771
 2171SOL     vw 8684   3.954   6.334   4.197 -0.1025 -0.5851 -0.2186
 2172SOL     ow 8685   1.031   0.847   3.699 -0.4355  0.3800  0.0176
 2172SOL     hw 8686   0.997   0.776   3.644  1.1715 -1.5563  1.3952
 2172SOL     hw 8687   1.004   0.823   3.787  0.1191  1.5212  0.5063
 2172SOL     vw 8688   1.023   0.834   3.703 -0.1503  0.2751  0.2638
 2173SOL     ow 8689   2.251   5.121   6.472 -0.1360  0.1520  0.0598
 2173SOL     hw 8690   2.295   5.205   6.488  0.3037  0.3434 -1.8782
 2173SOL     hw 8691   2.159   5.139   6.487  0.1275  0.5199  1.3270
 2173SOL     vw 8692   2.245   5.134   6.476 -0.0430  0.2260 -0.0288
 2174SOL     ow 8693   3.095   4.855   2.151  0.0243 -0.1118 -0.1667
 2174SOL     hw 8694   3.033   4.926   2.136 -0.8091 -1.0044 -1.2083
 2174SOL     hw 8695   3.046   4.792   2.206 -0.3756 -1.2411 -1.7430
 2174SOL     vw 8696   3.080   4.856   2.156 -0.1384 -0.3788 -0.5121
 2175SOL     ow 8697   5.978   3.582   4.027  0.0976 -0.2249  0.3140
 2175SOL     hw 8698   6.009   3.654   4.082  2.1789 -0.6821 -0.1414
 2175SOL     hw 8699   5.960   3.511   4.089  2.1334 -0.6392  0.5095
 2175SOL     vw 8700   5.980   3.582   4.042  0.6409 -0.3397  0.2799
 2176SOL     ow 8701   5.129   3.559   3.644 -0.6595 -0.0266 -0.0444
 2176SOL     hw 8702   5.192   3.631   3.644 -0.2653 -0.2771 -2.8224
 2176SOL     hw 8703   5.147   3.511   3.725  2.7588 -0.1079 -0.7270
 2176SOL     vw 8704   5.140   3.562   3.655 -0.1564 -0.0705 -0.5010
 2177SOL     ow 8705   0.322   6.498   0.882 -0.1810 -0.5444  0.0559
 2177SOL     hw 8706   0.392   6.502   0.947 -1.5726 -0.6874  1.6597
 2177SOL     hw 8707   0.313   6.587   0.850  0.6721 -0.5123 -0.1002
 2177SOL     vw 8708   0.330   6.510   0.887 -0.2521 -0.5591  0.2469
 2178SOL     ow 8709   6.089   6.157   5.489 -0.2494 -0.1660  0.5488
 2178SOL     hw 8710   6.156   6.225   5.483  0.6433 -1.0219  0.4349
 2178SOL     hw 8711   6.083   6.139   5.583 -0.8533  0.4127  0.6266
 2178SOL     vw 8712   6.097   6.164   5.501 -0.2115 -0.2024  0.5441
 2179SOL     ow 8713   4.737   5.385   5.146 -0.3856  0.5229  0.6636
 2179SOL     hw 8714   4.725   5.307   5.092  0.6841  1.5404 -1.1850
 2179SOL     hw 8715   4.666   5.444   5.120  0.7369  1.4313 -0.5144
 2179SOL     vw 8716   4.726   5.383   5.135 -0.0963  0.7770  0.2642
 2180SOL     ow 8717   5.488   5.684   3.140  0.7373 -0.5733 -0.4437
 2180SOL     hw 8718   5.564   5.740   3.155  0.5980  0.3784 -2.8167
 2180SOL     hw 8719   5.525   5.596   3.133  0.7809 -1.3730  5.1384
 2180SOL     vw 8720   5.503   5.680   3.141  0.7246 -0.5529 -0.0204
 2181SOL     ow 8721   5.803   2.618   1.466  0.6012 -0.0616  0.3363
 2181SOL     hw 8722   5.755   2.539   1.442 -0.4876  0.6109  0.2355
 2181SOL     hw 8723   5.736   2.687   1.469  1.6526  1.0228 -0.4012
 2181SOL     vw 8724   5.788   2.616   1.463  0.5965  0.1701  0.2257
 2182SOL     ow 8725   5.589   4.376   7.279  0.5013  0.0097  0.2733
 2182SOL     hw 8726   5.538   4.454   7.259 -0.3298 -0.9318 -1.6097
 2182SOL     hw 8727   5.661   4.378   7.216 -1.2435 -2.2042 -2.0166
 2182SOL     vw 8728   5.592   4.386   7.268  0.1616 -0.4065 -0.2770
 2183SOL     ow 8729   1.359   1.419   0.879 -0.1269  0.0153  0.0118
 2183SOL     hw 8730   1.413   1.392   0.954 -0.1223  0.1752  0.0660
 2183SOL     hw 8731   1.275   1.375   0.893  0.1370 -0.6158 -0.3178
 2183SOL     vw 8732   1.355   1.410   0.891 -0.0914 -0.0469 -0.0246
 2184SOL     ow 8733   1.235   6.004   6.634 -0.3282  0.1833  0.2538
 2184SOL     hw 8734   1.192   5.975   6.553 -1.0781 -1.4321  1.2030
 2184SOL     hw 8735   1.324   6.027   6.606  0.0699 -2.2620 -0.7421
 2184SOL     vw 8736   1.241   6.004   6.619 -0.3747 -0.3524  0.2477
 2185SOL     ow 8737   2.513   2.249   4.100 -0.1237  0.5098 -0.4002
 2185SOL     hw 8738   2.497   2.280   4.189  0.4920 -0.3091  0.0014
 2185SOL     hw 8739   2.427   2.253   4.057 -0.1964  2.0851 -0.1577
 2185SOL     vw 8740   2.500   2.254   4.106 -0.0521  0.6096 -0.3154
 2186SOL     ow 8741   5.436   3.699   6.058 -0.3994 -0.2390 -1.0934
 2186SOL     hw 8742   5.516   3.668   6.015 -0.6399  0.9206 -2.4441
 2186SOL     hw 8743   5.410   3.777   6.009 -0.2759  1.6867  1.6322
 2186SOL     vw 8744   5.443   3.705   6.046 -0.4148  0.1682 -0.9120
 2187SOL     ow 8745   6.507   6.061   3.702 -0.3280 -0.4712 -0.1717
 2187SOL     hw 8746   6.571   6.071   3.773 -0.1579  1.0369 -0.4914
 2187SOL     hw 8747   6.556   6.081   3.623 -0.6729 -1.5171 -0.6627
 2187SOL     vw 8748   6.522   6.065   3.701 -0.3512 -0.4103 -0.2787
 2188SOL     ow 8749   5.531   7.069   0.426 -0.7746 -0.7629 -0.0586
 2188SOL     hw 8750   5.600   7.003   0.414 -0.1540 -0.1050 -0.1843
 2188SOL     hw 8751   5.575   7.152   0.409 -1.3617 -0.2555  0.8697
 2188SOL     vw 8752   5.546   7.071   0.422 -0.7701 -0.6092  0.0473
 2189SOL     ow 8753   0.405   3.657   2.649 -0.0354 -0.2600 -0.0824
 2189SOL     hw 8754   0.411   3.703   2.565 -0.6945 -1.9035 -1.0665
 2189SOL     hw 8755   0.312   3.659   2.671 -0.3091 -2.3528 -0.8909
 2189SOL     vw 8756   0.393   3.664   2.641 -0.1585 -0.7530 -0.3189
 2190SOL     ow 8757   4.431   4.514   3.383 -0.8077  0.3619 -0.0727
 2190SOL     hw 8758   4.437   4.527   3.477  2.4966  2.7312 -0.4447
 2190SOL     hw 8759   4.369   4.442   3.373 -1.8743  0.5103  3.8107
 2190SOL     vw 8760   4.423   4.506   3.394 -0.5124  0.6940  0.3906
 2191SOL     ow 8761   7.206   6.456   1.051 -0.6145  0.0280 -0.7402
 2191SOL     hw 8762   7.210   6.536   1.103 -2.2607  1.9624 -3.3126
 2191SOL     hw 8763   7.235   6.483   0.964  1.2297 -2.8337 -1.1555
 2191SOL     vw 8764   7.211   6.470   1.046 -0.5883 -0.0947 -1.1345
 2192SOL     ow 8765   6.268   1.868   3.016  0.7154 -0.1773 -0.9168
 2192SOL     hw 8766   6.328   1.894   3.086  1.8320 -0.7749 -1.6344
 2192SOL     hw 8767   6.259   1.947   2.963  3.8830 -0.9822 -2.9315
 2192SOL     vw 8768   6.275   1.882   3.019  1.2808 -0.3623 -1.2774
 2193SOL     ow 8769   4.282   4.405   1.474  0.6503 -0.1232  0.3398
 2193SOL     hw 8770   4.350   4.340   1.493  1.3514 -0.0525 -1.6970
 2193SOL     hw 8771   4.329   4.488   1.465 -0.0899  0.4643  1.6947
 2193SOL     vw 8772   4.297   4.407   1.475  0.6452 -0.0362  0.2498
 2194SOL     ow 8773   3.736   4.238   6.977 -0.0489 -0.4559 -0.3714
 2194SOL     hw 8774   3.786   4.204   7.052 -1.3146 -0.3551  0.5574
 2194SOL     hw 8775   3.645   4.239   7.008 -0.5342  0.0767 -1.7494
 2194SOL     vw 8776   3.731   4.234   6.991 -0.2799 -0.3724 -0.4306
 2195SOL     ow 8777   4.517   1.915   4.394 -0.1216 -0.2836 -0.7280
 2195SOL     hw 8778   4.490   1.888   4.481 -0.6965 -1.3596 -1.2129
 2195SOL     hw 8779   4.531   1.832   4.347 -1.2779  0.2393 -2.0726
 2195SOL     vw 8780   4.515   1.900   4.399 -0.3500 -0.3566 -0.9694
 2196SOL     ow 8781   1.337   7.004   1.920 -0.0155  0.3333 -0.6882
 2196SOL     hw 8782   1.275   7.058   1.968  0.5553  0.8862 -0.5644
 2196SOL     hw 8783   1.361   6.934   1.981  0.6889  1.0197 -0.1636
 2196SOL     vw 8784   1.332   7.002   1.934  0.1527  0.4969 -0.6027
 2197SOL     ow 8785   3.063   7.309   6.534 -0.7401 -0.2461 -0.0519
 2197SOL     hw 8786   3.107   7.249   6.595 -1.7690 -0.2299  0.7209
 2197SOL     hw 8787   2.971   7.307   6.561 -0.9763  0.7994 -0.7587
 2197SOL     vw 8788   3.057   7.301   6.546 -0.9071 -0.1059 -0.0432
 2198SOL     ow 8789   1.021   5.883   3.667 -0.1654 -0.6934 -0.0399
 2198SOL     hw 8790   1.066   5.805   3.699 -1.2410 -1.0752  0.5983
 2198SOL     hw 8791   1.062   5.956   3.714 -1.6109 -1.2236  2.2032
 2198SOL     vw 8792   1.032   5.883   3.677 -0.4980 -0.8140  0.3403
 2199SOL     ow 8793   4.705   1.111   5.818 -0.5396  0.2929  1.1161
 2199SOL     hw 8794   4.681   1.169   5.746  1.5386  1.3479  1.2094
 2199SOL     hw 8795   4.757   1.165   5.877  1.7346 -1.6711  1.0645
 2199SOL     vw 8796   4.708   1.126   5.816  0.0346  0.1730  1.1213
 2200SOL     ow 8797   2.023   2.262   1.375 -0.5592  0.2134 -0.1140
 2200SOL     hw 8798   1.972   2.201   1.428  1.5275 -0.7163  0.9902
 2200SOL     hw 8799   2.059   2.324   1.438  1.3838 -0.4732 -0.4589
 2200SOL     vw 8800   2.021   2.262   1.390 -0.0275  0.0002 -0.0138
 2201SOL     ow 8801   7.116   2.312   4.680  0.1129 -0.4253 -0.4074
 2201SOL     hw 8802   7.172   2.362   4.619 -0.3543  0.7676  0.1103
 2201SOL     hw 8803   7.055   2.266   4.623 -0.1726  0.5014 -0.8863
 2201SOL     vw 8804   7.115   2.313   4.664  0.0136 -0.1456 -0.4025
 2202SOL     ow 8805   0.024   1.847   0.210 -0.8087 -0.1156  0.0341
 2202SOL     hw 8806  -0.023   1.772   0.246  0.5659 -0.0682  2.0683
 2202SOL     hw 8807   0.062   1.814   0.128  0.4350 -1.9412  1.2595
 2202SOL     vw 8808   0.022   1.833   0.204 -0.4633 -0.3502  0.4641
 2203SOL     ow 8809   0.632   6.969   4.672 -0.2657  0.4424  0.9447
 2203SOL     hw 8810   0.624   6.914   4.750 -0.6205 -2.4218 -0.9420
 2203SOL     hw 8811   0.542   6.977   4.640  0.0848 -0.0369 -0.1813
 2203SOL     vw 8812   0.619   6.963   4.678 -0.2663  0.0010  0.5472
 2204SOL     ow 8813   5.399   4.573   5.789 -0.0894  0.1350 -0.2777
 2204SOL     hw 8814   5.374   4.606   5.875  0.8238  0.8949 -0.2761
 2204SOL     hw 8815   5.465   4.636   5.758 -1.6551  0.9275 -2.2968
 2204SOL     vw 8816   5.405   4.586   5.796 -0.1755  0.3397 -0.5438
 2205SOL     ow 8817   4.842   0.718   0.253 -0.5956 -0.0617  0.4768
 2205SOL     hw 8818   4.822   0.683   0.340 -0.3251 -0.8840  0.2175
 2205SOL     hw 8819   4.763   0.765   0.227 -0.0696  1.7715  1.9115
 2205SOL     vw 8820   4.829   0.720   0.261 -0.4907  0.0717  0.6319
 2206SOL     ow 8821   6.120   3.783   1.756  0.4324 -0.5346 -0.1551
 2206SOL     hw 8822   6.184   3.795   1.686  0.5497  1.1452  0.2064
 2206SOL     hw 8823   6.075   3.867   1.762  0.4606 -0.6209  1.8017
 2206SOL     vw 8824   6.123   3.795   1.748  0.4513 -0.3242  0.1508
 2207SOL     ow 8825   2.491   2.872   3.147  0.2879 -0.0204  1.1338
 2207SOL     hw 8826   2.396   2.875   3.147  0.2560 -0.7503  0.8528
 2207SOL     hw 8827   2.513   2.787   3.184  0.8288  0.0700  1.0392
 2207SOL     vw 8828   2.482   2.861   3.152  0.3550 -0.1048  1.0842
 2208SOL     ow 8829   2.729   0.366   7.230  0.4731  0.5450  0.4098
 2208SOL     hw 8830   2.819   0.375   7.196  1.1092  0.3484  1.9680
 2208SOL     hw 8831   2.710   0.453   7.267 -0.0705  0.6463 -0.0983
 2208SOL     vw 8832   2.739   0.379   7.230  0.4854  0.5324  0.5484
 2209SOL     ow 8833   5.475   5.725   6.056  0.0111 -0.0181  0.4545
 2209SOL     hw 8834   5.570   5.728   6.047 -0.0746  0.0836 -0.5262
 2209SOL     hw 8835   5.453   5.806   6.101  0.4380 -0.3539  1.3008
 2209SOL     vw 8836   5.485   5.736   6.061  0.0558 -0.0494  0.4368
 2210SOL     ow 8837   4.653   7.079   3.498 -0.6416 -0.4138 -0.3052
 2210SOL     hw 8838   4.591   7.151   3.489 -1.5793 -1.2173 -0.4940
 2210SOL     hw 8839   4.737   7.116   3.472 -1.0471  0.6803 -0.1146
 2210SOL     vw 8840   4.656   7.093   3.494 -0.8185 -0.3757 -0.3049
 2211SOL     ow 8841   5.789   2.885   3.982 -0.4215  0.0250 -0.1272
 2211SOL     hw 8842   5.754   2.828   3.914  0.1561 -0.2316 -0.2108
 2211SOL     hw 8843   5.712   2.929   4.017 -0.5906  1.0961 -1.7735
 2211SOL     vw 8844   5.774   2.883   3.978 -0.3676  0.1323 -0.3555
 2212SOL     ow 8845   7.185   6.957   5.109  0.1447 -0.4271 -0.3031
 2212SOL     hw 8846   7.195   7.016   5.035  0.3725  0.6508  0.5600
 2212SOL     hw 8847   7.113   6.898   5.083 -0.4129  0.5279 -0.9913
 2212SOL     vw 8848   7.177   6.957   5.096  0.1013 -0.1588 -0.2799
 2213SOL     ow 8849   0.296   7.097   5.209  0.1708 -0.7391  0.3016
 2213SOL     hw 8850   0.259   7.172   5.163  1.1017 -0.8638 -0.6796
 2213SOL     hw 8851   0.268   7.021   5.158  2.7035 -0.7731 -1.2218
 2213SOL     vw 8852   0.287   7.096   5.196  0.6278 -0.7601 -0.0291
 2214SOL     ow 8853   0.432   7.127   3.523 -0.0359 -0.0856 -0.0369
 2214SOL     hw 8854   0.441   7.049   3.468 -0.4881 -1.0403  1.1757
 2214SOL     hw 8855   0.444   7.200   3.463 -1.6573 -1.0386 -1.6475
 2214SOL     vw 8856   0.435   7.126   3.508 -0.3095 -0.3374 -0.0895
 2215SOL     ow 8857   3.881   3.627   2.028  0.3182 -0.4771  0.2029
 2215SOL     hw 8858   3.958   3.662   1.982  2.2217 -0.7806  2.8882
 2215SOL     hw 8859   3.832   3.704   2.056  1.5533 -0.0780  1.3907
 2215SOL     vw 8860   3.885   3.641   2.026  0.7323 -0.4644  0.7139
 2216SOL     ow 8861   2.482   6.967   2.906 -0.6152  0.0168 -0.4216
 2216SOL     hw 8862   2.444   6.929   2.985  0.7293  1.5616  1.0470
 2216SOL     hw 8863   2.561   7.011   2.936 -1.7694  3.5569 -1.9964
 2216SOL     vw 8864   2.487   6.968   2.920 -0.5901  0.6876 -0.4356
 2217SOL     ow 8865   5.194   0.067   7.119  0.2839 -0.0760  0.6459
 2217SOL     hw 8866   5.134   0.141   7.121  0.8746  0.3973  1.8343
 2217SOL     hw 8867   5.280   0.106   7.135  0.4818 -1.1216  2.2969
 2217SOL     vw 8868   5.198   0.082   7.121  0.3879 -0.1515  1.0204
 2218SOL     ow 8869   3.463   6.073   1.675 -0.2960  0.3306 -0.0526
 2218SOL     hw 8870   3.554   6.044   1.672 -0.0084  1.1452  0.4090
 2218SOL     hw 8871   3.465   6.164   1.646 -0.8667  0.5563  0.5664
 2218SOL     vw 8872   3.475   6.081   1.671 -0.3334  0.4678  0.0899
 2219SOL     ow 8873   4.320   5.476   1.670 -0.2127 -0.2475 -0.1090
 2219SOL     hw 8874   4.330   5.556   1.721  3.3664  0.0366 -0.9334
 2219SOL     hw 8875   4.260   5.421   1.721  0.9403  1.1291  2.9348
 2219SOL     vw 8876   4.314   5.479   1.683  0.4117 -0.0284  0.1839
 2220SOL     ow 8877   3.349   5.384   2.879 -0.0075 -0.5896  0.5719
 2220SOL     hw 8878   3.400   5.458   2.847 -0.1100 -0.2198  1.2377
 2220SOL     hw 8879   3.413   5.330   2.927  0.1988 -1.2702 -0.4320
 2220SOL     vw 8880   3.364   5.386   2.881  0.0063 -0.6306  0.5274
 2221SOL     ow 8881   3.273   0.754   2.058 -0.5451 -0.3295  0.4923
 2221SOL     hw 8882   3.363   0.787   2.067 -0.6702 -0.0465  0.7321
 2221SOL     hw 8883   3.223   0.831   2.032 -0.8354 -0.3342  1.0170
 2221SOL     vw 8884   3.278   0.769   2.056 -0.5999 -0.2927  0.5932
 2222SOL     ow 8885   2.177   1.456   1.170  0.4352  0.1858 -0.1655
 2222SOL     hw 8886   2.237   1.459   1.095  0.8226 -2.4689 -0.0413
 2222SOL     hw 8887   2.234   1.469   1.246 -0.2326  5.5005 -0.1612
 2222SOL     vw 8888   2.193   1.458   1.170  0.3982  0.5367 -0.1487
 2223SOL     ow 8889   0.446   3.517   2.891 -0.3082  0.2815  0.5018
 2223SOL     hw 8890   0.405   3.591   2.937  1.4800  3.0650 -2.0486
 2223SOL     hw 8891   0.527   3.501   2.940 -0.8446 -0.2518  1.2394
 2223SOL     vw 8892   0.451   3.525   2.904 -0.1430  0.5783  0.2626
 2224SOL     ow 8893   0.587   1.055   6.632  0.1880  0.1129 -0.0953
 2224SOL     hw 8894   0.583   0.977   6.578 -1.9770 -1.3918  2.0304
 2224SOL     hw 8895   0.524   1.115   6.593 -0.5731 -0.5430  0.0964
 2224SOL     vw 8896   0.578   1.053   6.620 -0.1980 -0.1721  0.2105
 2225SOL     ow 8897   1.671   1.197   7.280  0.5912 -0.1892  0.1571
 2225SOL     hw 8898   1.652   1.269   7.341  2.1490 -1.1928  1.9483
 2225SOL     hw 8899   1.736   1.143   7.326  1.6030 -1.2099 -2.2955
 2225SOL     vw 8900   1.677   1.199   7.294  0.9302 -0.4563  0.0696
 2226SOL     ow 8901   2.040   4.383   2.580 -0.2471  0.9275  0.5158
 2226SOL     hw 8902   1.970   4.342   2.631 -1.6172  2.4291 -0.0800
 2226SOL     hw 8903   2.121   4.341   2.612 -1.3264 -0.3124  1.7483
 2226SOL     vw 8904   2.042   4.372   2.591 -0.5702  0.9623  0.5997
 2227SOL     ow 8905   2.649   6.680   1.896 -0.2417 -0.1009  1.3003
 2227SOL     hw 8906   2.613   6.599   1.932  0.0991 -0.3817  1.0201
 2227SOL     hw 8907   2.741   6.679   1.922 -0.5890  0.9740  2.6485
 2227SOL     vw 8908   2.657   6.669   1.904 -0.2426  0.0041  1.4412
 2228SOL     ow 8909   6.623   3.561   1.222 -0.2608 -0.5606 -0.9521
 2228SOL     hw 8910   6.674   3.612   1.284 -0.8944  0.1479 -1.0063
 2228SOL     hw 8911   6.539   3.546   1.265 -1.1464  0.9292 -2.0559
 2228SOL     vw 8912   6.619   3.565   1.236 -0.4611 -0.2706 -1.1048
 2229SOL     ow 8913   6.577   0.208   3.214  0.2538 -0.1261  0.6589
 2229SOL     hw 8914   6.657   0.260   3.204 -1.2273  2.0256 -1.0653
 2229SOL     hw 8915   6.519   0.239   3.144 -0.9840 -3.8241 -0.1939
 2229SOL     vw 8916   6.580   0.219   3.204 -0.1049 -0.3301  0.3188
 2230SOL     ow 8917   1.415   0.467   5.331  0.0878 -0.1220  0.4696
 2230SOL     hw 8918   1.490   0.457   5.272 -0.1814 -1.8484  0.3887
 2230SOL     hw 8919   1.447   0.436   5.416 -0.8050 -1.7996  0.2127
 2230SOL     vw 8920   1.429   0.462   5.334 -0.0656 -0.5712  0.4246
 2231SOL     ow 8921   0.229   5.494   4.012  0.0272 -0.1166  0.4285
 2231SOL     hw 8922   0.309   5.500   4.065 -0.1503 -1.1059  0.8376
 2231SOL     hw 8923   0.176   5.428   4.057 -0.5049 -0.3353 -0.5064
 2231SOL     vw 8924   0.233   5.486   4.025 -0.0664 -0.2761  0.3593
 2232SOL     ow 8925   5.675   5.774   1.442  0.6760  0.1432 -0.6058
 2232SOL     hw 8926   5.738   5.755   1.512  0.2173 -1.4215 -0.5827
 2232SOL     hw 8927   5.704   5.858   1.406  3.2392 -0.8324 -1.0752
 2232SOL     vw 8928   5.687   5.782   1.446  0.9537 -0.1919 -0.6647
 2233SOL     ow 8929   4.940   2.955   4.724  0.2703 -0.1594 -0.4219
 2233SOL     hw 8930   4.992   2.999   4.656  0.3711 -0.7549 -0.7429
 2233SOL     hw 8931   4.889   3.025   4.764  1.1197  0.3993 -0.2834
 2233SOL     vw 8932   4.940   2.970   4.720  0.3955 -0.1643 -0.4458
 2234SOL     ow 8933   5.765   0.662   4.655  0.2577  0.2193 -0.5421
 2234SOL     hw 8934   5.681   0.705   4.672  0.3984  0.2401  0.1356
 2234SOL     hw 8935   5.818   0.681   4.732  1.5023  1.6246 -1.6850
 2234SOL     vw 8936   5.761   0.670   4.667  0.4404  0.4074 -0.6037
 2235SOL     ow 8937   4.448   3.058   3.040  0.4865  0.1807 -0.1062
 2235SOL     hw 8938   4.359   3.046   3.074  0.2130  2.1215 -0.0416
 2235SOL     hw 8939   4.451   3.000   2.963  0.0063 -1.7204  1.2371
 2235SOL     vw 8940   4.436   3.049   3.034  0.3867  0.1861  0.0794
 2236SOL     ow 8941   0.165   4.606   3.229  0.1429 -0.0016  0.2551
 2236SOL     hw 8942   0.079   4.643   3.248 -0.2570 -0.6363 -0.2895
 2236SOL     hw 8943   0.209   4.604   3.314 -1.3956 -2.2298  1.0985
 2236SOL     vw 8944   0.160   4.610   3.243 -0.1129 -0.3793  0.2947
 2237SOL     ow 8945   3.323   4.785   4.209  0.0676 -0.1622  0.4412
 2237SOL     hw 8946   3.305   4.827   4.124  1.8147  0.1526  0.1921
 2237SOL     hw 8947   3.337   4.693   4.188 -0.8491 -0.3465  0.5922
 2237SOL     vw 8948   3.323   4.779   4.195  0.1773 -0.1452  0.4282
 2238SOL     ow 8949   5.031   7.251   5.635 -0.5211 -0.7144 -0.0518
 2238SOL     hw 8950   4.988   7.293   5.709 -0.4377 -0.2509 -0.2589
 2238SOL     hw 8951   5.097   7.194   5.674  0.0682  0.1400  0.2120
 2238SOL     vw 8952   5.034   7.249   5.650 -0.4325 -0.5407 -0.0441
 2239SOL     ow 8953   2.568   0.349   3.160 -0.2213  0.7400  0.4851
 2239SOL     hw 8954   2.475   0.364   3.146 -0.2294 -0.9962 -1.8181
 2239SOL     hw 8955   2.575   0.259   3.192  0.7499  0.0072 -1.6141
 2239SOL     vw 8956   2.557   0.339   3.163 -0.0942  0.4142 -0.0957
 2240SOL     ow 8957   2.658   5.334   3.316 -0.0561 -1.1415 -0.1788
 2240SOL     hw 8958   2.562   5.335   3.323 -0.3594 -0.1354 -3.0748
 2240SOL     hw 8959   2.687   5.399   3.379 -1.2898 -1.3337  0.6274
 2240SOL     vw 8960   2.649   5.343   3.325 -0.2588 -1.0340 -0.4544
 2241SOL     ow 8961   2.989   5.260   5.567 -0.0921 -0.4806 -0.6351
 2241SOL     hw 8962   3.028   5.317   5.501  1.9866  0.4679  1.2715
 2241SOL     hw 8963   2.918   5.312   5.605  0.9285  0.3467  0.1810
 2241SOL     vw 8964   2.985   5.275   5.563  0.3170 -0.2463 -0.2756
 2242SOL     ow 8965   2.538   3.240   3.363  0.4187 -0.4838 -0.1551
 2242SOL     hw 8966   2.444   3.223   3.373  0.1548  0.8177 -0.2825
 2242SOL     hw 8967   2.575   3.220   3.449 -0.2232  0.4692  0.3666
 2242SOL     vw 8968   2.530   3.235   3.376  0.2992 -0.1864 -0.1031
 2243SOL     ow 8969   5.458   6.424   3.466  0.5133 -0.2615 -0.3528
 2243SOL     hw 8970   5.483   6.374   3.543 -0.1115 -0.8156 -0.5004
 2243SOL     hw 8971   5.506   6.506   3.474  1.9833 -1.0792 -0.3817
 2243SOL     vw 8972   5.468   6.428   3.477  0.6247 -0.4423 -0.3761
 2244SOL     ow 8973   5.561   3.319   1.933  0.2296 -0.0951 -0.0427
 2244SOL     hw 8974   5.640   3.354   1.974  1.0809 -1.3093 -0.6007
 2244SOL     hw 8975   5.513   3.278   2.006  0.3588  0.2083  0.2162
 2244SOL     vw 8976   5.565   3.318   1.948  0.3591 -0.2153 -0.0821
 2245SOL     ow 8977   2.207   1.925   3.269  0.1541  0.8902  0.2513
 2245SOL     hw 8978   2.146   1.960   3.205 -0.0229 -0.8609 -0.5690
 2245SOL     hw 8979   2.158   1.856   3.314  1.6011 -0.8789 -0.7475
 2245SOL     vw 8980   2.193   1.921   3.267  0.3215  0.4258  0.0114
 2246SOL     ow 8981   2.695   3.455   5.011 -0.2197  0.1905 -0.3253
 2246SOL     hw 8982   2.698   3.407   4.928 -0.3862 -1.1059  0.4068
 2246SOL     hw 8983   2.675   3.389   5.077 -0.5421  1.2824  0.7029
 2246SOL     vw 8984   2.693   3.440   5.009 -0.2842  0.1637 -0.0930
 2247SOL     ow 8985   5.427   6.381   2.936 -0.1452  0.2356 -0.1380
 2247SOL     hw 8986   5.460   6.407   3.022  0.6626 -1.7001  0.1709
 2247SOL     hw 8987   5.494   6.324   2.900 -1.3215 -0.5045 -1.2558
 2247SOL     vw 8988   5.440   6.377   2.942 -0.1938 -0.1175 -0.2447
 2248SOL     ow 8989   2.930   1.690   3.912  0.2544 -0.0480  0.2776
 2248SOL     hw 8990   2.955   1.605   3.949  0.1953  0.7206  2.2082
 2248SOL     hw 8991   3.004   1.715   3.856  0.7716 -0.8476  0.5956
 2248SOL     vw 8992   2.943   1.682   3.909  0.3150 -0.0521  0.5745
 2249SOL     ow 8993   1.372   6.074   1.879  0.7868  0.5417 -0.0440
 2249SOL     hw 8994   1.357   6.069   1.784  1.1532  0.2318 -0.0880
 2249SOL     hw 8995   1.445   6.015   1.894 -0.5044 -0.9162  0.7177
 2249SOL     vw 8996   1.379   6.066   1.868  0.6648  0.3083  0.0508
 2250SOL     ow 8997   6.574   3.533   1.771  0.0712  0.1266  0.3284
 2250SOL     hw 8998   6.481   3.542   1.792  0.1518 -0.4895  0.9993
 2250SOL     hw 8999   6.595   3.612   1.721 -1.1286 -0.3750 -1.0345
 2250SOL     vw 9000   6.565   3.545   1.767 -0.0765 -0.0209  0.2372
 2251SOL     ow 9001   6.262   1.991   2.325  0.1802  0.2971  0.2847
 2251SOL     hw 9002   6.350   2.018   2.349  0.1328 -0.8442  1.9014
 2251SOL     hw 9003   6.257   1.899   2.351 -1.1834  0.0699 -0.6528
 2251SOL     vw 9004   6.273   1.982   2.331 -0.0062  0.1165  0.3744
 2252SOL     ow 9005   5.616   2.654   0.485  0.0342 -0.5811 -0.8556
 2252SOL     hw 9006   5.526   2.640   0.456 -0.7001 -1.4800  1.5996
 2252SOL     hw 9007   5.613   2.736   0.533 -0.1246 -1.8520  1.4226
 2252SOL     vw 9008   5.604   2.663   0.487 -0.0834 -0.8674 -0.2311
 2253SOL     ow 9009   4.662   5.357   2.840 -0.2063  0.6671 -0.7029
 2253SOL     hw 9010   4.726   5.386   2.904 -0.2199 -0.7445 -0.0090
 2253SOL     hw 9011   4.585   5.412   2.854  0.5070  1.7359 -0.9094
 2253SOL     vw 9012   4.660   5.368   2.850 -0.1140  0.6220 -0.6386
 2254SOL     ow 9013   0.320   0.418   5.432  0.8686  0.2269 -0.0530
 2254SOL     hw 9014   0.242   0.451   5.388 -0.0308 -1.7965 -0.1074
 2254SOL     hw 9015   0.319   0.460   5.518  0.5185  1.2941 -0.5641
 2254SOL     vw 9016   0.310   0.428   5.438  0.7037  0.1008 -0.1276
 2255SOL     ow 9017   1.004   6.818   4.595  0.2663  0.0964  0.0040
 2255SOL     hw 9018   1.062   6.854   4.528  0.5441  0.1684  0.2797
 2255SOL     hw 9019   0.979   6.731   4.562  0.6019  0.0300 -0.0735
 2255SOL     vw 9020   1.008   6.811   4.582  0.3472  0.0973  0.0300
 2256SOL     ow 9021   3.443   7.077   3.000  0.2475 -0.5827  0.3288
 2256SOL     hw 9022   3.530   7.074   3.040 -0.3434 -1.9203  1.6248
 2256SOL     hw 9023   3.438   7.164   2.960  1.1803  0.5643  2.5415
 2256SOL     vw 9024   3.454   7.088   3.000  0.2927 -0.6077  0.7918
 2257SOL     ow 9025   0.155   1.401   3.434 -0.1904 -0.0993 -0.5353
 2257SOL     hw 9026   0.246   1.390   3.460 -0.1458 -0.1832 -0.7253
 2257SOL     hw 9027   0.105   1.381   3.513 -0.0154  0.8047 -0.1873
 2257SOL     vw 9028   0.160   1.397   3.448 -0.1614  0.0089 -0.5144
 2258SOL     ow 9029   2.661   1.863   2.255  0.2888  0.6735  0.3198
 2258SOL     hw 9030   2.566   1.866   2.272 -0.3544 -1.0365 -2.3798
 2258SOL     hw 9031   2.697   1.817   2.331 -0.7158  2.7490  2.1956
 2258SOL     vw 9032   2.653   1.857   2.268  0.0714  0.7218  0.2110
 2259SOL     ow 9033   6.993   4.359   2.401  0.3108  0.3873 -0.7516
 2259SOL     hw 9034   7.042   4.419   2.457 -1.2132  0.5980  0.4135
 2259SOL     hw 9035   6.965   4.288   2.459 -0.2475 -0.0413 -1.5170
 2259SOL     vw 9036   6.996   4.357   2.416  0.0360  0.3583 -0.6989
 2260SOL     ow 9037   3.606   0.190   3.916  0.3450  0.5440 -0.5814
 2260SOL     hw 9038   3.619   0.197   4.011 -2.5852 -0.3314 -0.0178
 2260SOL     hw 9039   3.608   0.281   3.885  2.3034  0.7820  0.0947
 2260SOL     vw 9040   3.608   0.203   3.924  0.2170  0.4599 -0.4177
 2261SOL     ow 9041   2.210   6.409   6.637  0.1625  0.0710  0.0932
 2261SOL     hw 9042   2.252   6.406   6.551  2.3754  1.9812  1.0058
 2261SOL     hw 9043   2.236   6.326   6.679 -1.4029 -1.1367 -1.1934
 2261SOL     vw 9044   2.219   6.398   6.631  0.2480  0.1636  0.0441
 2262SOL     ow 9045   1.094   1.960   3.122 -0.1443 -0.3597  0.3048
 2262SOL     hw 9046   1.144   1.961   3.204 -1.2827  0.6708  1.0209
 2262SOL     hw 9047   1.003   1.966   3.149 -0.4704  1.8380 -1.0667
 2262SOL     vw 9048   1.089   1.961   3.136 -0.3375  0.0662  0.2183
 2263SOL     ow 9049   3.248   2.741   5.253 -0.1077 -0.6086 -0.0659
 2263SOL     hw 9050   3.297   2.659   5.263  1.5067  0.1902 -0.8786
 2263SOL     hw 9051   3.240   2.776   5.342  0.7792 -0.8031  0.0998
 2263SOL     vw 9052   3.254   2.735   5.266  0.2222 -0.5288 -0.1512
 2264SOL     ow 9053   1.008   7.121   4.081 -0.5361  0.5991 -0.5309
 2264SOL     hw 9054   1.093   7.123   4.037 -0.3685  3.6439 -0.2966
 2264SOL     hw 9055   1.000   7.031   4.113  2.6950  0.2228 -0.3901
 2264SOL     vw 9056   1.018   7.109   4.079 -0.0877  0.9511 -0.4814
 2265SOL     ow 9057   1.322   1.316   0.597  0.5147  0.0254 -0.0739
 2265SOL     hw 9058   1.234   1.327   0.560 -0.3751 -0.2803  1.7831
 2265SOL     hw 9059   1.326   1.224   0.623  0.2750  0.6193  2.3216
 2265SOL     vw 9060   1.311   1.305   0.596  0.3656  0.0634  0.4872
 2266SOL     ow 9061   0.701   6.869   4.306  0.3899  0.2361  0.3634
 2266SOL     hw 9062   0.666   6.845   4.392  0.0597  1.3113  0.5399
 2266SOL     hw 9063   0.703   6.787   4.258  0.0593 -0.2891  1.2183
 2266SOL     vw 9064   0.697   6.855   4.311  0.3027  0.3085  0.4992
 2267SOL     ow 9065   2.319   5.754   3.838  0.0112  0.0058  0.6356
 2267SOL     hw 9066   2.313   5.659   3.850 -1.6593  0.2959  2.7936
 2267SOL     hw 9067   2.391   5.781   3.895  2.3887 -0.1550 -2.0653
 2267SOL     vw 9068   2.328   5.745   3.847  0.1044  0.0226  0.5640
 2268SOL     ow 9069   6.461   4.910   4.162  0.1956 -0.3688 -0.1818
 2268SOL     hw 9070   6.470   5.004   4.177  0.8789 -0.3560 -0.6268
 2268SOL     hw 9071   6.370   4.898   4.137  0.2813  0.2763 -0.8177
 2268SOL     vw 9072   6.451   4.921   4.161  0.2973 -0.2820 -0.3242
 2269SOL     ow 9073   2.927   2.842   0.650 -0.0808 -0.3010 -0.3921
 2269SOL     hw 9074   2.960   2.833   0.560 -1.2420 -2.1454 -0.6965
 2269SOL     hw 9075   2.837   2.809   0.645  0.0219 -0.9662  1.5713
 2269SOL     vw 9076   2.919   2.837   0.637 -0.2205 -0.6323 -0.1732
 2270SOL     ow 9077   1.321   1.321   7.305 -0.4571 -1.0831 -0.3327
 2270SOL     hw 9078   1.315   1.227   7.291  1.6655 -1.0527 -2.1298
 2270SOL     hw 9079   1.362   1.330   7.392  0.6641 -1.9107 -0.7463
 2270SOL     vw 9080   1.326   1.310   7.315 -0.0291 -1.1883 -0.6242
 2271SOL     ow 9081   4.337   4.121   0.482  0.0821 -0.0508 -0.8336
 2271SOL     hw 9082   4.328   4.126   0.577 -0.3367 -0.5032 -0.8519
 2271SOL     hw 9083   4.407   4.057   0.468 -0.8993 -1.1478 -0.8648
 2271SOL     vw 9084   4.345   4.114   0.493 -0.1025 -0.2551 -0.8401
 2272SOL     ow 9085   3.626   5.688   7.127  0.5231  0.2717  0.0217
 2272SOL     hw 9086   3.642   5.631   7.052 -1.8369 -0.8464  0.2465
 2272SOL     hw 9087   3.695   5.666   7.189  1.7391  0.2594 -1.2803
 2272SOL     vw 9088   3.637   5.678   7.125  0.3722  0.1228 -0.1204
 2273SOL     ow 9089   3.898   0.092   3.914  0.7820 -1.2924 -0.5068
 2273SOL     hw 9090   3.952   0.169   3.930  0.7481 -1.3250 -0.2392
 2273SOL     hw 9091   3.858   0.073   3.999 -0.9028 -0.3140 -1.0270
 2273SOL     vw 9092   3.900   0.100   3.927  0.5552 -1.1676 -0.5400
 2274SOL     ow 9093   2.794   2.911   3.252  0.0339 -0.4693  0.6204
 2274SOL     hw 9094   2.796   2.858   3.172  1.2051 -1.8672  1.5100
 2274SOL     hw 9095   2.880   2.954   3.254 -1.4867  3.0550 -0.9968
 2274SOL     vw 9096   2.806   2.910   3.242 -0.0122 -0.1888  0.5245
 2275SOL     ow 9097   2.253   4.094   0.966 -0.8745 -0.1234 -0.0841
 2275SOL     hw 9098   2.297   4.174   0.995 -1.1719  0.3492 -0.8929
 2275SOL     hw 9099   2.310   4.060   0.897 -1.6530  0.4038 -1.0242
 2275SOL     vw 9100   2.266   4.100   0.960 -1.0164  0.0083 -0.3148
 2276SOL     ow 9101   6.383   4.600   5.964  0.4088 -0.0107  0.0391
 2276SOL     hw 9102   6.413   4.515   5.995  2.9851  1.2233  1.1539
 2276SOL     hw 9103   6.291   4.604   5.991  0.1154 -2.5224 -0.3424
 2276SOL     vw 9104   6.375   4.589   5.971  0.7100 -0.1793  0.1359
 2277SOL     ow 9105   7.130   3.950   5.874  0.5002 -0.2534  0.1296
 2277SOL     hw 9106   7.173   4.023   5.918  0.0323 -0.7510  1.4300
 2277SOL     hw 9107   7.049   3.936   5.921 -0.2996 -0.4469 -1.2380
 2277SOL     vw 9108   7.125   3.958   5.886  0.3328 -0.3446  0.1206
 2278SOL     ow 9109   0.325   0.915   1.151 -0.4272 -0.1126  0.2595
 2278SOL     hw 9110   0.360   0.979   1.089 -1.0887 -0.9103 -0.9974
 2278SOL     hw 9111   0.238   0.947   1.173 -1.5215 -1.4521 -1.8318
 2278SOL     vw 9112   0.318   0.927   1.146 -0.6589 -0.3945 -0.1823
 2279SOL     ow 9113   7.068   2.844   0.715 -0.0860 -0.5013  0.3662
 2279SOL     hw 9114   7.149   2.814   0.755  1.0481 -0.7846 -1.9613
 2279SOL     hw 9115   7.001   2.784   0.748  1.0899 -1.8241  0.4550
 2279SOL     vw 9116   7.070   2.832   0.725  0.2191 -0.7132  0.0708
 2280SOL     ow 9117   0.212   2.783   5.124 -0.1810  0.5848  0.3832
 2280SOL     hw 9118   0.244   2.697   5.099 -1.0075  0.1923  0.6196
 2280SOL     hw 9119   0.278   2.844   5.093  0.3973 -0.1338  0.1847
 2280SOL     vw 9120   0.225   2.780   5.117 -0.2137  0.4383  0.3881
 2281SOL     ow 9121   3.015   6.223   3.999  0.2690  0.2314 -0.8748
 2281SOL     hw 9122   2.958   6.294   3.970 -0.4302  0.2229  0.4030
 2281SOL     hw 9123   2.955   6.152   4.023  0.6709  0.6693  1.7003
 2281SOL     vw 9124   3.000   6.223   3.998  0.2298  0.2882 -0.3664
 2282SOL     ow 9125   0.772   0.595   2.469 -0.6262 -0.1715  0.1932
 2282SOL     hw 9126   0.819   0.647   2.534 -0.2765 -0.9300  0.5448
 2282SOL     hw 9127   0.683   0.587   2.505 -0.7538  0.3699  0.0219
 2282SOL     vw 9128   0.766   0.601   2.482 -0.5969 -0.2002  0.2170
 2283SOL     ow 9129   6.410   6.414   1.995  0.4828 -0.5406 -0.3146
 2283SOL     hw 9130   6.463   6.445   1.922  0.1287  1.8290  0.3294
 2283SOL     hw 9131   6.319   6.429   1.967  0.1662 -2.8350 -0.6846
 2283SOL     vw 9132   6.405   6.420   1.982  0.3941 -0.5310 -0.2785
 2284SOL     ow 9133   2.512   7.037   2.649  0.3222  0.9620  0.4324
 2284SOL     hw 9134   2.536   7.060   2.559 -0.4132  0.9880  0.2310
 2284SOL     hw 9135   2.491   7.121   2.690 -0.9924  0.8226  0.1118
 2284SOL     vw 9136   2.512   7.051   2.643  0.0517  0.9468  0.3636
 2285SOL     ow 9137   5.038   5.912   2.669 -0.2040 -0.5176  0.0959
 2285SOL     hw 9138   5.123   5.939   2.702 -0.6148  0.5984  0.2981
 2285SOL     hw 9139   4.993   5.875   2.745  0.0735 -1.0463  0.0038
 2285SOL     vw 9140   5.043   5.911   2.684 -0.2217 -0.4401  0.1104
 2286SOL     ow 9141   2.159   4.525   1.080 -0.3693  0.1599 -0.7022
 2286SOL     hw 9142   2.068   4.494   1.075 -0.3926  0.2929 -1.0888
 2286SOL     hw 9143   2.192   4.516   0.991 -0.6831  2.1824 -1.0605
 2286SOL     vw 9144   2.151   4.519   1.068 -0.4139  0.4442 -0.8005
 2287SOL     ow 9145   0.249   2.051   5.049  0.6575 -0.3747  0.3258
 2287SOL     hw 9146   0.236   2.015   5.137  1.6611 -1.9204 -0.1145
 2287SOL     hw 9147   0.277   2.141   5.064  1.4493 -0.8079  1.6230
 2287SOL     vw 9148   0.251   2.058   5.063  0.8944 -0.6357  0.4389
 2288SOL     ow 9149   4.385   1.219   2.270  0.1840  0.2970  0.4158
 2288SOL     hw 9150   4.336   1.157   2.323 -0.8453  0.3144 -0.4844
 2288SOL     hw 9151   4.477   1.198   2.286 -0.1402 -1.3033  0.3082
 2288SOL     vw 9152   4.391   1.208   2.279  0.0052  0.0882  0.2830
 2289SOL     ow 9153   2.385   4.276   0.325  0.0257 -0.3246  0.1169
 2289SOL     hw 9154   2.421   4.246   0.408  1.8175 -2.4356 -1.3024
 2289SOL     hw 9155   2.363   4.196   0.277 -2.8701  0.8467 -0.7392
 2289SOL     vw 9156   2.387   4.262   0.330 -0.1200 -0.4487 -0.1833
 2290SOL     ow 9157   1.737   2.706   2.401 -0.0497  0.1850 -0.2599
 2290SOL     hw 9158   1.807   2.760   2.437  1.4897 -2.0684  0.3650
 2290SOL     hw 9159   1.781   2.644   2.343 -1.6183 -0.7247 -0.5498
 2290SOL     vw 9160   1.752   2.705   2.398 -0.0536 -0.2323 -0.2159
 2291SOL     ow 9161   6.061   1.081   2.270  0.4107 -0.0304  0.1867
 2291SOL     hw 9162   6.000   1.011   2.292  1.5988 -0.4685  2.4781
 2291SOL     hw 9163   6.007   1.160   2.268 -1.0595 -0.9416 -3.0135
 2291SOL     vw 9164   6.046   1.082   2.273  0.3734 -0.2084  0.0669
 2292SOL     ow 9165   6.201   2.405   4.823  0.1180  0.4787 -0.4379
 2292SOL     hw 9166   6.108   2.385   4.810  0.8941 -3.7177 -0.9740
 2292SOL     hw 9167   6.228   2.446   4.741 -1.1760  1.6150 -0.3313
 2292SOL     vw 9168   6.192   2.408   4.810  0.0498  0.0751 -0.4947
 2293SOL     ow 9169   0.372   3.247   3.176  0.5762  0.0184  0.4442
 2293SOL     hw 9170   0.381   3.254   3.081 -0.7038 -2.9273  0.0074
 2293SOL     hw 9171   0.395   3.334   3.209  1.2792  1.0562 -2.5175
 2293SOL     vw 9172   0.376   3.259   3.168  0.5001 -0.2334 -0.0042
 2294SOL     ow 9173   6.268   5.920   6.447 -0.0507  0.4932 -0.6513
 2294SOL     hw 9174   6.339   5.870   6.487  0.0665  1.1175 -0.0593
 2294SOL     hw 9175   6.300   6.010   6.446  0.2384  0.4078 -2.8069
 2294SOL     vw 9176   6.281   5.925   6.452  0.0026  0.5641 -0.8574
 2295SOL     ow 9177   4.419   6.918   3.618 -0.1627 -0.2635 -0.0336
 2295SOL     hw 9178   4.377   6.851   3.564  0.9164 -1.1016  0.1307
 2295SOL     hw 9179   4.347   6.957   3.668 -0.8174 -1.2889 -0.1432
 2295SOL     vw 9180   4.404   6.914   3.617 -0.1066 -0.5097 -0.0263
 2296SOL     ow 9181   5.319   7.204   5.648 -0.2912  0.6162 -0.1381
 2296SOL     hw 9182   5.316   7.299   5.634  1.1269  0.8515  0.9647
 2296SOL     hw 9183   5.305   7.193   5.742  2.7463  0.0151  0.3281
 2296SOL     vw 9184   5.316   7.215   5.658  0.2968  0.5682  0.0689
 2297SOL     ow 9185   3.393   4.927   1.601  0.0105 -0.0294  0.0128
 2297SOL     hw 9186   3.337   4.873   1.656  0.2777  1.6722  2.1093
 2297SOL     hw 9187   3.482   4.897   1.621  0.0011 -0.8939 -1.2129
 2297SOL     vw 9188   3.398   4.916   1.611  0.0443  0.0811  0.1277
 2298SOL     ow 9189   2.188   7.084   3.176 -0.2200  0.1958 -1.4708
 2298SOL     hw 9190   2.280   7.060   3.190 -0.6189  0.3741  2.4379
 2298SOL     hw 9191   2.182   7.175   3.205 -2.1374 -0.8009  1.7695
 2298SOL     vw 9192   2.199   7.093   3.182 -0.5255  0.0877 -0.5275
 2299SOL     ow 9193   0.330   4.376   0.607  0.0968  0.2018  0.1032
 2299SOL     hw 9194   0.318   4.407   0.517  1.0775  0.9010  0.2000
 2299SOL     hw 9195   0.351   4.283   0.597 -1.7604 -0.2229 -0.2482
 2299SOL     vw 9196   0.331   4.368   0.594 -0.0188  0.2379  0.0696
 2300SOL     ow 9197   6.702   2.128   7.225 -0.3663 -0.2047  0.0748
 2300SOL     hw 9198   6.642   2.055   7.233 -0.6454  0.2278  2.5682
 2300SOL     hw 9199   6.670   2.193   7.287 -0.2267  2.1611 -2.1658
 2300SOL     vw 9200   6.690   2.127   7.234 -0.3848  0.1646  0.1080
 2301SOL     ow 9201   4.896   2.930   5.017 -0.6869  0.1154 -0.8915
 2301SOL     hw 9202   4.962   2.932   5.086  0.0968  0.3051 -1.6302
 2301SOL     hw 9203   4.813   2.946   5.063 -1.0028 -4.6637  0.8189
 2301SOL     vw 9204   4.894   2.932   5.032 -0.6251 -0.4901 -0.7632
 2302SOL     ow 9205   4.687   2.614   1.518 -0.1093  0.0370 -0.4777
 2302SOL     hw 9206   4.677   2.705   1.491 -1.9279 -0.1025 -0.3565
 2302SOL     hw 9207   4.639   2.564   1.453 -0.3959 -0.7129  0.2929
 2302SOL     vw 9208   4.680   2.619   1.506 -0.3872 -0.0803 -0.3600
 2303SOL     ow 9209   1.596   3.256   3.669 -0.8169 -0.6228 -0.3324
 2303SOL     hw 9210   1.530   3.303   3.618  0.6434  0.5242 -1.2534
 2303SOL     hw 9211   1.654   3.218   3.603 -0.0857 -0.8911  0.4540
 2303SOL     vw 9212   1.595   3.258   3.653 -0.5278 -0.5068 -0.3502
 2304SOL     ow 9213   3.214   3.855   5.469  0.7350  0.0133 -0.8277
 2304SOL     hw 9214   3.301   3.815   5.465  0.9920  0.6073 -1.3138
 2304SOL     hw 9215   3.200   3.892   5.382  0.4450  0.8506 -0.4428
 2304SOL     vw 9216   3.224   3.855   5.457  0.7308  0.2022 -0.8411
 2305SOL     ow 9217   4.537   5.353   1.564 -0.1085 -0.3425  0.3445
 2305SOL     hw 9218   4.597   5.412   1.519 -0.4799 -1.1560 -1.3229
 2305SOL     hw 9219   4.466   5.409   1.594 -0.7242  0.0565 -1.6712
 2305SOL     vw 9220   4.536   5.368   1.562 -0.2389 -0.3972 -0.1414
 2306SOL     ow 9221   3.942   3.014   1.689  0.0925 -0.3422  0.4702
 2306SOL     hw 9222   3.962   2.981   1.776 -1.5314 -0.8350  0.6868
 2306SOL     hw 9223   3.846   3.019   1.686  0.1440  0.4556 -0.9952
 2306SOL     vw 9224   3.932   3.010   1.700 -0.1150 -0.3018  0.3054
 2307SOL     ow 9225   2.524   5.002   3.620  0.1749 -0.1483  0.6568
 2307SOL     hw 9226   2.546   4.975   3.709 -2.1836 -1.3505  0.9534
 2307SOL     hw 9227   2.535   4.923   3.567 -1.8913 -0.4557  0.5946
 2307SOL     vw 9228   2.528   4.988   3.625 -0.4088 -0.3474  0.6877
 2308SOL     ow 9229   0.751   6.333   2.073  0.2755  0.3532  0.2396
 2308SOL     hw 9230   0.815   6.403   2.056 -1.2416  1.4536 -1.1920
 2308SOL     hw 9231   0.804   6.260   2.106  2.1783  1.4374 -0.2529
 2308SOL     vw 9232   0.767   6.333   2.075  0.3264  0.6413 -0.0141
 2309SOL     ow 9233   3.564   7.137   0.446 -0.1901 -0.0936 -0.2144
 2309SOL     hw 9234   3.513   7.216   0.430  1.6869  1.2308  0.0902
 2309SOL     hw 9235   3.587   7.140   0.538  1.5961  0.0968 -0.6292
 2309SOL     vw 9236   3.560   7.148   0.456  0.2934  0.1061 -0.2289
 2310SOL     ow 9237   1.312   4.566   0.522  0.7506 -0.1751  0.2998
 2310SOL     hw 9238   1.261   4.645   0.543  0.7173 -0.4331  1.2264
 2310SOL     hw 9239   1.342   4.580   0.433 -0.2795  0.3468  0.0188
 2310SOL     vw 9240   1.309   4.578   0.513  0.6103 -0.1404  0.3849
 2311SOL     ow 9241   1.123   4.718   7.129  0.2474 -0.4337 -0.3765
 2311SOL     hw 9242   1.183   4.703   7.055  0.8053  0.0089 -0.0272
 2311SOL     hw 9243   1.060   4.646   7.124  0.4534 -0.5728 -1.1090
 2311SOL     vw 9244   1.123   4.707   7.118  0.3482 -0.3936 -0.4272
 2312SOL     ow 9245   2.107   1.579   5.232  0.5540 -0.3613 -0.1964
 2312SOL     hw 9246   2.172   1.649   5.219 -0.1949  0.4039  0.1081
 2312SOL     hw 9247   2.034   1.622   5.277  0.8829 -1.7531  1.8309
 2312SOL     vw 9248   2.106   1.594   5.237  0.4987 -0.4440  0.1113
 2313SOL     ow 9249   7.251   1.180   2.629  0.1232  0.4636 -0.5966
 2313SOL     hw 9250   7.287   1.101   2.670  0.2920  1.6525  1.7095
 2313SOL     hw 9251   7.160   1.183   2.661 -0.3382  0.4758 -1.8430
 2313SOL     vw 9252   7.244   1.170   2.639  0.0846  0.6221 -0.4569
 2314SOL     ow 9253   5.250   3.555   3.197 -0.2507  0.7398  0.0428
 2314SOL     hw 9254   5.203   3.632   3.165 -0.6426  0.1492 -0.8809
 2314SOL     hw 9255   5.193   3.482   3.173  0.0749  0.1710  0.9764
 2314SOL     vw 9256   5.236   3.555   3.189 -0.2594  0.5869  0.0442
 2315SOL     ow 9257   6.421   1.581   2.929 -0.5365  0.0595 -0.3734
 2315SOL     hw 9258   6.451   1.501   2.886  0.8443  0.3406  0.0132
 2315SOL     hw 9259   6.418   1.646   2.858  0.7003  0.2541 -0.2711
 2315SOL     vw 9260   6.425   1.579   2.914 -0.1912  0.1222 -0.3089
 2316SOL     ow 9261   2.267   5.517   1.740 -0.1536  0.2198 -0.1721
 2316SOL     hw 9262   2.255   5.422   1.738  0.0985  0.1745  0.3876
 2316SOL     hw 9263   2.330   5.535   1.670 -0.0919 -0.0403 -0.1842
 2316SOL     vw 9264   2.274   5.507   1.730 -0.1123  0.1793 -0.1000
 2317SOL     ow 9265   4.427   1.381   4.665  0.0209 -0.0044 -0.1384
 2317SOL     hw 9266   4.410   1.475   4.658  2.3015  0.5494  0.7223
 2317SOL     hw 9267   4.382   1.354   4.745 -1.3661  0.1349 -0.8472
 2317SOL     vw 9268   4.419   1.390   4.675  0.1388  0.0870 -0.1185
 2318SOL     ow 9269   5.704   1.532   1.797 -0.1447  0.2733  0.0648
 2318SOL     hw 9270   5.734   1.504   1.710 -0.5277 -0.0087  0.0216
 2318SOL     hw 9271   5.656   1.456   1.831  0.8010  0.0167  0.9170
 2318SOL     vw 9272   5.702   1.518   1.790 -0.0706  0.2023  0.1715
 2319SOL     ow 9273   3.006   0.622   3.428  0.0598 -0.0925 -0.4649
 2319SOL     hw 9274   2.942   0.579   3.485 -0.1535 -0.8996 -1.3104
 2319SOL     hw 9275   3.006   0.571   3.348 -0.4764  1.6708 -1.6562
 2319SOL     vw 9276   2.998   0.610   3.425 -0.0390  0.0336 -0.7336
 2320SOL     ow 9277   0.194   6.565   5.073  0.0039  0.8427 -0.7680
 2320SOL     hw 9278   0.272   6.607   5.037 -0.4457  1.2866 -1.2334
 2320SOL     hw 9279   0.211   6.471   5.062  0.4544  0.9342 -0.9009
 2320SOL     vw 9280   0.207   6.558   5.067  0.0040  0.9134 -0.8471
 2321SOL     ow 9281   6.306   0.205   3.664  0.0644  0.0386  0.2919
 2321SOL     hw 9282   6.245   0.249   3.724  0.3717 -1.6292  1.9086
 2321SOL     hw 9283   6.386   0.194   3.715  0.6305 -0.6894 -0.7214
 2321SOL     vw 9284   6.309   0.209   3.678  0.1800 -0.2775  0.3715
 2322SOL     ow 9285   2.027   2.306   5.553  0.0368  0.7026 -0.2389
 2322SOL     hw 9286   1.982   2.236   5.601  1.5531  0.3570  0.7372
 2322SOL     hw 9287   1.990   2.387   5.589 -0.8380  0.4264 -0.4942
 2322SOL     vw 9288   2.016   2.307   5.564  0.1215  0.6205 -0.1435
 2323SOL     ow 9289   4.492   4.261   1.523  0.4325  0.2974 -0.0371
 2323SOL     hw 9290   4.559   4.307   1.472 -1.8214  1.0081 -2.6458
 2323SOL     hw 9291   4.527   4.259   1.612  2.5333  3.3493 -0.6016
 2323SOL     vw 9292   4.506   4.267   1.528  0.4120  0.7942 -0.4557
 2324SOL     ow 9293   2.592   6.046   0.868  0.2679  0.0492  0.0501
 2324SOL     hw 9294   2.677   6.015   0.899  0.0239  1.8302  2.7770
 2324SOL     hw 9295   2.612   6.095   0.788  1.9351  0.9439  0.9714
 2324SOL     vw 9296   2.606   6.048   0.861  0.4556  0.4022  0.5315
 2325SOL     ow 9297   4.582   1.964   0.707  0.1260  0.3151 -0.0204
 2325SOL     hw 9298   4.554   1.912   0.632 -0.8280  1.2280 -0.3284
 2325SOL     hw 9299   4.574   1.905   0.782  0.3952 -0.3845 -0.5282
 2325SOL     vw 9300   4.578   1.950   0.707  0.0355  0.3432 -0.1280
 2326SOL     ow 9301   5.797   1.846   4.456 -0.2497  0.1620  1.0888
 2326SOL     hw 9302   5.816   1.883   4.542 -3.2143  0.9363  1.5420
 2326SOL     hw 9303   5.712   1.803   4.467  0.2774 -1.5817 -0.9568
 2326SOL     vw 9304   5.788   1.845   4.469 -0.5715  0.0341  0.8788
 2327SOL     ow 9305   0.418   6.327   6.415 -0.4685 -0.1074  0.4065
 2327SOL     hw 9306   0.366   6.382   6.356  0.3193 -0.7834 -0.9731
 2327SOL     hw 9307   0.363   6.252   6.432 -1.5808  1.0812  2.3579
 2327SOL     vw 9308   0.404   6.325   6.409 -0.5113 -0.0398  0.4818
 2328SOL     ow 9309   3.141   4.332   4.579  0.7050  0.2687 -0.9871
 2328SOL     hw 9310   3.075   4.279   4.535 -1.2213  2.7980 -1.3708
 2328SOL     hw 9311   3.224   4.303   4.542 -0.3096 -1.8706 -1.7318
 2328SOL     vw 9312   3.143   4.321   4.568  0.3170  0.3202 -1.1361
 2329SOL     ow 9313   5.336   3.502   3.447  0.1424  0.3800  0.2581
 2329SOL     hw 9314   5.317   3.520   3.355 -0.9817  0.2903  0.4508
 2329SOL     hw 9315   5.259   3.534   3.493  0.0820 -0.8173  1.0334
 2329SOL     vw 9316   5.323   3.509   3.441 -0.0138  0.2102  0.3858
 2330SOL     ow 9317   0.981   6.896   3.532 -0.0876  0.6736  0.4008
 2330SOL     hw 9318   0.896   6.936   3.549  0.2291  1.8896 -0.6943
 2330SOL     hw 9319   0.962   6.826   3.469 -0.3238  0.7361  0.4024
 2330SOL     vw 9320   0.967   6.892   3.526 -0.0769  0.8421  0.2564
 2331SOL     ow 9321   3.449   1.015   1.439 -0.6634 -0.3357 -0.1911
 2331SOL     hw 9322   3.436   1.070   1.362 -0.3382  0.9987  0.6700
 2331SOL     hw 9323   3.373   0.957   1.440 -0.9001 -0.0668 -1.2515
 2331SOL     vw 9324   3.437   1.015   1.429 -0.6518 -0.1243 -0.2173
 2332SOL     ow 9325   3.937   5.431   5.205 -0.2532 -0.1484 -0.2823
 2332SOL     hw 9326   3.927   5.432   5.110 -0.4558 -2.3530 -0.3333
 2332SOL     hw 9327   3.903   5.516   5.233 -2.3259 -0.2994 -1.9997
 2332SOL     vw 9328   3.931   5.443   5.196 -0.5534 -0.4590 -0.5157
 2333SOL     ow 9329   1.004   5.689   7.141  0.4468  0.1039  0.0499
 2333SOL     hw 9330   0.959   5.649   7.066 -0.8900  1.4848  0.0822
 2333SOL     hw 9331   1.037   5.772   7.108 -0.7937  1.0764  1.1479
 2333SOL     vw 9332   1.003   5.695   7.127  0.1067  0.4146  0.1993
 2334SOL     ow 9333   5.460   0.058   7.183 -0.7144 -0.1727 -0.3505
 2334SOL     hw 9334   5.459  -0.032   7.152 -0.5637 -0.2007 -0.2756
 2334SOL     hw 9335   5.545   0.092   7.154  0.2569 -0.7648  1.6320
 2334SOL     vw 9336   5.472   0.051   7.175 -0.5662 -0.2545 -0.0789
 2335SOL     ow 9337   6.573   2.700   3.896 -0.0038  0.5273  0.1444
 2335SOL     hw 9338   6.599   2.786   3.930  0.2302  0.4223  0.2271
 2335SOL     hw 9339   6.617   2.637   3.952  0.5260  0.3550 -0.4489
 2335SOL     vw 9340   6.582   2.703   3.908  0.0968  0.4907  0.0770
 2336SOL     ow 9341   3.722   7.157   3.000 -0.0506 -0.3463  0.4463
 2336SOL     hw 9342   3.755   7.163   2.910  0.6614 -0.1987  0.7097
 2336SOL     hw 9343   3.752   7.238   3.042 -0.2157 -0.5015  0.8717
 2336SOL     vw 9344   3.730   7.168   2.994  0.0217 -0.3474  0.5372
 2337SOL     ow 9345   5.198   0.370   1.329 -0.0342  0.0250 -0.2511
 2337SOL     hw 9346   5.165   0.450   1.288 -1.4730 -1.1504 -1.4906
 2337SOL     hw 9347   5.253   0.401   1.400 -3.1526  2.1603  1.4568
 2337SOL     vw 9348   5.201   0.384   1.333 -0.6356  0.1517 -0.1892
 2338SOL     ow 9349   6.147   5.732   0.371  0.3466 -0.0983 -0.4513
 2338SOL     hw 9350   6.158   5.725   0.276 -0.1995 -0.3729 -0.5002
 2338SOL     hw 9351   6.090   5.658   0.394  0.4717 -0.0289  0.0897
 2338SOL     vw 9352   6.141   5.721   0.361  0.2911 -0.1252 -0.3864
 2339SOL     ow 9353   6.943   2.044   7.308 -0.0245 -0.0287 -0.1353
 2339SOL     hw 9354   6.924   1.954   7.282  0.1761 -0.3307  0.7265
 2339SOL     hw 9355   6.860   2.090   7.298 -0.1497 -0.3309 -0.4990
 2339SOL     vw 9356   6.930   2.038   7.304 -0.0143 -0.1085 -0.0696
 2340SOL     ow 9357   6.408   5.191   4.215  0.7276  0.3514  0.2411
 2340SOL     hw 9358   6.403   5.252   4.141  0.9927  1.4681  1.1117
 2340SOL     hw 9359   6.469   5.232   4.276  3.3196 -2.2235 -0.4007
 2340SOL     vw 9360   6.416   5.204   4.213  1.1046  0.1588  0.2711
 2341SOL     ow 9361   1.552   3.367   1.835 -0.6240 -0.7055 -0.6077
 2341SOL     hw 9362   1.613   3.355   1.762  0.9673  3.1606 -0.1385
 2341SOL     hw 9363   1.609   3.379   1.911 -2.1719 -1.1104  0.6600
 2341SOL     vw 9364   1.568   3.367   1.835 -0.6183 -0.2488 -0.3785
 2342SOL     ow 9365   2.117   4.205   5.402  1.0403 -0.0817  0.0801
 2342SOL     hw 9366   2.162   4.235   5.323  0.3385  0.2853 -0.1903
 2342SOL     hw 9367   2.100   4.113   5.386  0.7365  0.0344 -0.2803
 2342SOL     vw 9368   2.121   4.197   5.390  0.9075 -0.0179 -0.0031
 2343SOL     ow 9369   2.010   7.068   4.642 -0.0049 -0.2152 -0.0794
 2343SOL     hw 9370   1.970   7.074   4.555 -0.6848  3.2373  0.3217
 2343SOL     hw 9371   1.941   7.093   4.703  1.5249  1.5751  1.0300
 2343SOL     vw 9372   1.996   7.072   4.638  0.1072  0.4761  0.1199
 2344SOL     ow 9373   0.431   2.989   3.051  0.0697  0.2080  1.0466
 2344SOL     hw 9374   0.510   3.031   3.016 -0.2192  0.3567  0.5611
 2344SOL     hw 9375   0.381   2.963   2.974 -0.4796  0.3439  1.3486
 2344SOL     vw 9376   0.435   2.991   3.036 -0.0409  0.2453  1.0225
 2345SOL     ow 9377   0.329   1.377   1.202  0.4113  0.1599  0.1918
 2345SOL     hw 9378   0.393   1.415   1.262 -0.1889 -1.6029  2.0599
 2345SOL     hw 9379   0.256   1.440   1.202  0.1384 -0.1131  1.8798
 2345SOL     vw 9380   0.327   1.391   1.210  0.2961 -0.1087  0.6610
 2346SOL     ow 9381   4.880   0.638   7.295 -0.7296  0.2741  0.2745
 2346SOL     hw 9382   4.895   0.574   7.225  0.2495  1.4458 -0.6388
 2346SOL     hw 9383   4.851   0.717   7.249  2.5424  1.9712  0.8208
 2346SOL     vw 9384   4.878   0.640   7.279 -0.1688  0.6526  0.2258
 2347SOL     ow 9385   6.024   6.317   3.583  0.9781 -0.3769  0.8172
 2347SOL     hw 9386   5.966   6.374   3.533  0.8041 -0.1389  1.2788
 2347SOL     hw 9387   5.973   6.237   3.597  1.5933 -1.0820 -0.7148
 2347SOL     vw 9388   6.010   6.314   3.578  1.0364 -0.4385  0.6759
 2348SOL     ow 9389   3.206   0.958   7.259  0.1821 -0.7186 -0.7852
 2348SOL     hw 9390   3.244   1.044   7.277  1.8418 -0.8152 -3.3010
 2348SOL     hw 9391   3.229   0.905   7.336 -0.2413  0.8610  0.4737
 2348SOL     vw 9392   3.214   0.962   7.272  0.3451 -0.5230 -0.9511
 2349SOL     ow 9393   3.692   0.919   0.479  0.2231  0.4248 -0.1069
 2349SOL     hw 9394   3.731   0.872   0.405 -2.9344 -0.2414 -1.4805
 2349SOL     hw 9395   3.718   1.010   0.466  1.8242 -0.0462 -0.5086
 2349SOL     vw 9396   3.701   0.924   0.468  0.0178  0.2747 -0.3411
 2350SOL     ow 9397   7.124   6.589   1.745  0.4573  0.1392 -0.2851
 2350SOL     hw 9398   7.030   6.596   1.730  0.4869  0.5915 -0.2686
 2350SOL     hw 9399   7.164   6.627   1.667  0.6347 -0.3905 -0.4614
 2350SOL     vw 9400   7.117   6.595   1.733  0.4847  0.1290 -0.3062
 2351SOL     ow 9401   5.488   3.054   1.719  0.2941 -0.1788  0.4827
 2351SOL     hw 9402   5.459   3.024   1.805  1.2760  0.6859  1.1439
 2351SOL     hw 9403   5.570   3.006   1.704 -0.0100 -0.5317 -0.1125
 2351SOL     vw 9404   5.495   3.044   1.728  0.3836 -0.1112  0.4914
 2352SOL     ow 9405   5.175   6.961   3.812  0.3080 -0.2253  0.2200
 2352SOL     hw 9406   5.248   6.929   3.759  2.0112 -0.2621  2.4590
 2352SOL     hw 9407   5.151   6.886   3.867 -0.0206  0.4277  0.9752
 2352SOL     vw 9408   5.182   6.947   3.812  0.4895 -0.1440  0.6151
 2353SOL     ow 9409   3.982   3.330   2.123  0.9182  0.3255 -0.0501
 2353SOL     hw 9410   4.031   3.288   2.052  1.2906  1.2344 -0.3505
 2353SOL     hw 9411   4.013   3.286   2.202  2.2336  0.8635 -0.2388
 2353SOL     vw 9412   3.993   3.319   2.124  1.1408  0.5165 -0.1147
 2354SOL     ow 9413   4.627   0.913   6.234  0.1068 -0.1495 -0.3191
 2354SOL     hw 9414   4.598   0.824   6.252  2.4466 -0.7086  1.2648
 2354SOL     hw 9415   4.606   0.961   6.314 -0.4077  0.5085 -0.8488
 2354SOL     vw 9416   4.621   0.908   6.247  0.3479 -0.1364 -0.1800
 2355SOL     ow 9417   0.884   1.688   5.690  0.1112  0.1130 -0.0501
 2355SOL     hw 9418   0.895   1.737   5.608 -1.5768 -1.2230 -1.1296
 2355SOL     hw 9419   0.872   1.756   5.757  2.0296  1.2509 -0.7555
 2355SOL     vw 9420   0.884   1.703   5.688  0.1416  0.0868 -0.2859
 2356SOL     ow 9421   0.240   6.722   5.284 -0.1348 -0.0133 -0.1163
 2356SOL     hw 9422   0.278   6.790   5.228  2.2285 -1.0359  0.1376
 2356SOL     hw 9423   0.237   6.644   5.228 -1.7697 -0.0329 -0.0583
 2356SOL     vw 9424   0.244   6.720   5.269 -0.0387 -0.1509 -0.0749
 2357SOL     ow 9425   2.738   3.476   6.072 -0.1338  0.2532 -0.2618
 2357SOL     hw 9426   2.739   3.382   6.057  3.2672  0.1632 -0.1230
 2357SOL     hw 9427   2.705   3.513   5.990  2.9991 -0.9124 -2.2085
 2357SOL     vw 9428   2.734   3.469   6.059  0.7282  0.0875 -0.5002
 2358SOL     ow 9429   5.821   2.594   1.032 -0.6434  0.5583  0.0315
 2358SOL     hw 9430   5.905   2.622   0.995 -0.6450  2.7581  1.5207
 2358SOL     hw 9431   5.842   2.513   1.080  0.2100  0.0755 -1.0983
 2358SOL     vw 9432   5.835   2.587   1.033 -0.5310  0.7848  0.0790
 2359SOL     ow 9433   7.221   3.530   2.362  0.3007  0.0884 -0.4001
 2359SOL     hw 9434   7.245   3.622   2.349 -2.1904  0.4878 -3.1447
 2359SOL     hw 9435   7.184   3.527   2.450  0.8985  1.5781 -0.0680
 2359SOL     vw 9436   7.219   3.542   2.372  0.0508  0.3376 -0.7185
 2360SOL     ow 9437   4.798   1.626   2.601  0.2124  0.1841 -0.4261
 2360SOL     hw 9438   4.801   1.612   2.696 -3.4948 -1.4691 -0.3780
 2360SOL     hw 9439   4.793   1.721   2.591  2.7292  0.5265  0.8051
 2360SOL     vw 9440   4.797   1.637   2.612  0.0553  0.0111 -0.2574
 2361SOL     ow 9441   3.290   2.391   0.863 -0.1532  0.3931 -0.3705
 2361SOL     hw 9442   3.288   2.302   0.826 -2.5275  0.3371 -0.3012
 2361SOL     hw 9443   3.231   2.387   0.938  2.1017  1.3192  1.5687
 2361SOL     vw 9444   3.282   2.379   0.868 -0.1692  0.5080 -0.1055
 2362SOL     ow 9445   2.262   2.107   5.568 -0.6409  0.3394  0.0209
 2362SOL     hw 9446   2.195   2.056   5.522 -0.6636 -0.3344  0.7839
 2362SOL     hw 9447   2.341   2.053   5.563 -0.7390  0.0722  1.0869
 2362SOL     vw 9448   2.264   2.093   5.561 -0.6568  0.2152  0.2623
 2363SOL     ow 9449   0.742   3.630   4.869 -0.3206  0.3741 -0.1435
 2363SOL     hw 9450   0.737   3.603   4.778 -1.3310 -1.3077  0.3654
 2363SOL     hw 9451   0.709   3.555   4.918  0.5121  1.1205  1.6331
 2363SOL     vw 9452   0.737   3.617   4.864 -0.3440  0.2507  0.1578
 2364SOL     ow 9453   3.195   5.095   1.244 -0.3733  0.2590 -0.8283
 2364SOL     hw 9454   3.155   5.107   1.330  0.6200 -0.1211 -0.2994
 2364SOL     hw 9455   3.141   5.148   1.185 -1.6577 -0.2427 -0.1490
 2364SOL     vw 9456   3.182   5.103   1.248 -0.4117  0.1426 -0.6689
 2365SOL     ow 9457   0.276   3.492   1.075 -0.4662 -0.3699  0.2646
 2365SOL     hw 9458   0.312   3.473   1.161  0.9146 -2.2116 -0.6448
 2365SOL     hw 9459   0.353   3.499   1.018 -1.2441  2.2638 -0.6297
 2365SOL     vw 9460   0.291   3.491   1.079 -0.3867 -0.2655  0.0266
 2366SOL     ow 9461   0.300   0.992   2.483 -0.3462 -0.2600 -0.7552
 2366SOL     hw 9462   0.383   1.040   2.489 -1.4561  1.6145  1.2606
 2366SOL     hw 9463   0.284   0.959   2.572 -2.5731  0.9843 -0.6094
 2366SOL     vw 9464   0.309   0.994   2.496 -0.7865  0.1515 -0.4700
 2367SOL     ow 9465   1.942   0.181   2.451 -0.7134 -0.3185 -0.4148
 2367SOL     hw 9466   2.031   0.148   2.465 -0.5886  0.4197  0.6720
 2367SOL     hw 9467   1.891   0.103   2.431  0.2578 -0.6983 -1.5535
 2367SOL     vw 9468   1.947   0.166   2.450 -0.5689 -0.2712 -0.4215
 2368SOL     ow 9469   2.737   7.016   1.977 -0.3331  0.9738 -0.1939
 2368SOL     hw 9470   2.817   7.001   1.927  0.3469 -0.2260  1.1561
 2368SOL     hw 9471   2.666   6.987   1.919  0.3678  0.2979 -0.7319
 2368SOL     vw 9472   2.738   7.010   1.963 -0.1509  0.7262 -0.0867
 2369SOL     ow 9473   5.341   0.068   0.949  0.1218 -0.3383  0.0497
 2369SOL     hw 9474   5.345   0.106   0.861  2.3294 -0.2241  0.1509
 2369SOL     hw 9475   5.376  -0.021   0.938  1.5282  0.0769  0.9873
 2369SOL     vw 9476   5.346   0.061   0.936  0.5987 -0.2685  0.1867
 2370SOL     ow 9477   7.048   0.315   2.290 -0.0871 -0.2351  0.2883
 2370SOL     hw 9478   7.068   0.227   2.256 -0.7557 -0.0546 -0.6318
 2370SOL     hw 9479   7.132   0.348   2.323  0.5834 -0.4906 -1.0904
 2370SOL     vw 9480   7.062   0.308   2.290 -0.0868 -0.2450 -0.0150
 2371SOL     ow 9481   5.900   5.463   6.804 -0.1947 -0.0231 -0.4752
 2371SOL     hw 9482   5.924   5.446   6.895 -0.7684  0.3793 -0.2395
 2371SOL     hw 9483   5.966   5.524   6.772  0.8270 -1.2620 -0.7704
 2371SOL     vw 9484   5.912   5.469   6.812 -0.1354 -0.1335 -0.4830
 2372SOL     ow 9485   5.157   1.400   3.412 -0.0682 -0.0818 -0.4521
 2372SOL     hw 9486   5.086   1.459   3.434 -0.5588 -0.0790 -1.9293
 2372SOL     hw 9487   5.197   1.438   3.334  2.0091  0.2755  0.7210
 2372SOL     vw 9488   5.153   1.413   3.404  0.1411 -0.0343 -0.4922
 2373SOL     ow 9489   6.673   5.756   0.500 -0.1618  0.5642 -0.4649
 2373SOL     hw 9490   6.736   5.701   0.452  2.0360  0.6253  2.1191
 2373SOL     hw 9491   6.725   5.829   0.532 -1.5198  0.6408  1.7730
 2373SOL     vw 9492   6.688   5.758   0.498 -0.0510  0.5827  0.1713
 2374SOL     ow 9493   3.314   4.990   2.213  0.1821  0.0630  0.6213
 2374SOL     hw 9494   3.310   5.081   2.184  0.6773  0.3423  1.4112
 2374SOL     hw 9495   3.225   4.957   2.199 -0.2473  0.9337  1.1978
 2374SOL     vw 9496   3.302   4.998   2.207  0.1907  0.2148  0.8014
 2375SOL     ow 9497   2.786   5.459   5.951 -0.7372  0.2160  0.0055
 2375SOL     hw 9498   2.758   5.379   5.995 -1.1026 -0.5357 -1.5364
 2375SOL     hw 9499   2.800   5.433   5.860  0.1296  1.6871 -0.3151
 2375SOL     vw 9500   2.784   5.445   5.945 -0.6709  0.3109 -0.2403
 2376SOL     ow 9501   0.076   7.294   2.953  0.3830  0.2019 -0.1788
 2376SOL     hw 9502   0.145   7.354   2.924  0.4076  0.0291 -0.4803
 2376SOL     hw 9503   0.123   7.226   3.002  0.4739 -0.1100 -0.6879
 2376SOL     vw 9504   0.092   7.293   2.955  0.3982  0.1378 -0.2857
 2377SOL     ow 9505   3.451   7.276   1.145  0.1281  0.1274  0.6194
 2377SOL     hw 9506   3.516   7.248   1.210  0.9529 -0.6658 -0.5238
 2377SOL     hw 9507   3.494   7.265   1.061 -1.2261  0.3319 -0.1303
 2377SOL     vw 9508   3.465   7.271   1.143  0.0583  0.0497  0.3696
 2378SOL     ow 9509   4.808   2.387   1.821 -0.5120 -1.0593  0.0345
 2378SOL     hw 9510   4.806   2.483   1.823  0.0765 -1.0252 -0.4972
 2378SOL     hw 9511   4.746   2.360   1.889  0.0826 -0.2936  0.9159
 2378SOL     vw 9512   4.800   2.396   1.831 -0.3557 -0.9539  0.0806
 2379SOL     ow 9513   0.579   3.529   7.173  0.2650  0.0915 -0.0457
 2379SOL     hw 9514   0.538   3.552   7.089  1.1023 -1.3236 -0.8809
 2379SOL     hw 9515   0.545   3.442   7.193  2.3438 -0.8930 -0.4932
 2379SOL     vw 9516   0.569   3.521   7.164  0.6498 -0.2251 -0.2151
 2380SOL     ow 9517   3.595   0.074   4.732  0.3201  0.0218  0.2309
 2380SOL     hw 9518   3.660   0.144   4.737  0.5079  0.3999 -4.0308
 2380SOL     hw 9519   3.630   0.006   4.790  1.6196  2.2503  2.2507
 2380SOL     vw 9520   3.608   0.074   4.740  0.5162  0.3657 -0.0648
 2381SOL     ow 9521   4.868   1.001   3.880 -0.2705 -0.2998 -0.6604
 2381SOL     hw 9522   4.903   0.944   3.949 -0.9112  0.6493  0.4760
 2381SOL     hw 9523   4.821   0.941   3.821  1.7074 -1.3466 -1.2435
 2381SOL     vw 9524   4.866   0.985   3.881 -0.0939 -0.3127 -0.5873
 2382SOL     ow 9525   1.489   1.314   5.458  0.0910  0.1882  0.4860
 2382SOL     hw 9526   1.466   1.389   5.404 -3.6961 -1.2607 -0.2237
 2382SOL     hw 9527   1.508   1.351   5.544 -2.6673  1.9953  0.4364
 2382SOL     vw 9528   1.489   1.329   5.462 -0.7725  0.2355  0.3860
 2383SOL     ow 9529   5.413   6.050   5.277  0.2526 -0.1994 -0.3588
 2383SOL     hw 9530   5.404   6.017   5.367  0.8819  1.0693  0.1925
 2383SOL     hw 9531   5.330   6.029   5.236  0.2749 -1.6089  0.2319
 2383SOL     vw 9532   5.401   6.043   5.284  0.3386 -0.2182 -0.2081
 2384SOL     ow 9533   4.828   0.955   1.524  0.1238  0.1678  0.0478
 2384SOL     hw 9534   4.739   0.928   1.547  0.5799  0.7800  2.8927
 2384SOL     hw 9535   4.821   0.988   1.434 -2.7582  1.3521  0.6096
 2384SOL     vw 9536   4.816   0.956   1.515 -0.1962  0.4049  0.4973
 2385SOL     ow 9537   1.082   6.702   6.869 -0.6139 -0.8515  0.7817
 2385SOL     hw 9538   1.005   6.722   6.922  0.0718 -0.1566  1.5388
 2385SOL     hw 9539   1.061   6.737   6.782 -0.0357  2.0334  1.6924
 2385SOL     vw 9540   1.069   6.709   6.865 -0.4472 -0.3791  1.0016
 2386SOL     ow 9541   2.250   0.487   2.102 -0.4032  0.5836  0.2034
 2386SOL     hw 9542   2.166   0.527   2.081  0.4292  2.1250 -0.3608
 2386SOL     hw 9543   2.274   0.523   2.187 -0.3529  0.0881  0.4003
 2386SOL     vw 9544   2.242   0.497   2.110 -0.2867  0.7216  0.1550
 2387SOL     ow 9545   6.361   4.893   3.150 -0.2242 -0.1942 -0.3699
 2387SOL     hw 9546   6.384   4.875   3.241  0.7080 -0.4576 -0.6467
 2387SOL     hw 9547   6.415   4.969   3.126  0.2882 -0.7399 -0.9889
 2387SOL     vw 9548   6.371   4.901   3.159 -0.0336 -0.3009 -0.4880
 2388SOL     ow 9549   2.776   0.588   0.965  0.2075  0.5614  0.8118
 2388SOL     hw 9550   2.866   0.621   0.961  0.1428  0.6635  0.0243
 2388SOL     hw 9551   2.764   0.562   1.056  1.3915 -0.4373  0.7096
 2388SOL     vw 9552   2.786   0.589   0.976  0.3552  0.4431  0.6945
 2389SOL     ow 9553   4.405   0.278   5.788  0.6544 -0.4052 -0.1375
 2389SOL     hw 9554   4.390   0.247   5.877 -0.4114 -0.4107 -0.3047
 2389SOL     hw 9555   4.337   0.343   5.773  1.1016 -0.0709 -0.7993
 2389SOL     vw 9556   4.394   0.282   5.798  0.5732 -0.3618 -0.2470
 2390SOL     ow 9557   5.174   2.887   1.677 -0.4951 -0.0045  0.0894
 2390SOL     hw 9558   5.124   2.969   1.683  1.2781  1.1486 -0.3008
 2390SOL     hw 9559   5.170   2.850   1.765 -2.6650 -0.3646 -0.1092
 2390SOL     vw 9560   5.167   2.893   1.689 -0.5474  0.1001  0.0117
 2391SOL     ow 9561   5.822   2.575   5.695 -0.2206 -0.1522 -0.1688
 2391SOL     hw 9562   5.850   2.592   5.785 -0.0060 -0.7640 -0.1186
 2391SOL     hw 9563   5.811   2.662   5.657  1.9381  0.1424 -0.2588
 2391SOL     vw 9564   5.824   2.589   5.702  0.0923 -0.1941 -0.1740
 2392SOL     ow 9565   2.336   1.729   6.736 -0.0334 -0.3688 -0.5430
 2392SOL     hw 9566   2.339   1.641   6.774 -1.0139 -1.2379 -2.3162
 2392SOL     hw 9567   2.350   1.714   6.642 -1.0399  1.2801 -0.9992
 2392SOL     vw 9568   2.338   1.715   6.728 -0.2956 -0.2659 -0.8373
 2393SOL     ow 9569   7.265   3.655   6.962 -0.3133  0.2513  0.3962
 2393SOL     hw 9570   7.296   3.646   7.052 -1.3914 -0.8355  0.6803
 2393SOL     hw 9571   7.189   3.597   6.957 -0.6336  0.7610 -1.0461
 2393SOL     vw 9572   7.259   3.646   6.973 -0.4978  0.1751  0.2432
 2394SOL     ow 9573   2.205   5.867   3.542  0.1327  0.1358  0.1704
 2394SOL     hw 9574   2.165   5.785   3.512 -1.0948  0.0408  1.8858
 2394SOL     hw 9575   2.287   5.874   3.494 -1.0001 -0.7205 -2.0104
 2394SOL     vw 9576   2.210   5.857   3.532 -0.1787  0.0103  0.1091
 2395SOL     ow 9577   6.101   5.400   2.498  0.8470 -0.0497  0.9009
 2395SOL     hw 9578   6.086   5.474   2.556  2.3701  1.7650 -0.8842
 2395SOL     hw 9579   6.017   5.355   2.493 -0.4060  2.1696  1.2244
 2395SOL     vw 9580   6.088   5.404   2.505  0.8826  0.4826  0.7080
 2396SOL     ow 9581   6.294   4.207   4.826  0.7804  0.4322  0.3299
 2396SOL     hw 9582   6.214   4.214   4.879 -0.5581 -0.8599 -1.3833
 2396SOL     hw 9583   6.331   4.295   4.827 -1.8801  1.6908 -0.5244
 2396SOL     vw 9584   6.288   4.220   4.833  0.2527  0.4277 -0.0086
 2397SOL     ow 9585   0.073   5.045   5.353  0.4700 -0.1610  0.0187
 2397SOL     hw 9586   0.001   5.108   5.362  0.4361  0.6855 -4.2365
 2397SOL     hw 9587   0.036   4.963   5.387 -2.8937  0.0752 -2.4954
 2397SOL     vw 9588   0.058   5.043   5.359  0.0216 -0.0181 -0.8745
 2398SOL     ow 9589   5.630   4.707   4.048 -0.2213  0.6918 -0.4739
 2398SOL     hw 9590   5.634   4.650   4.125 -0.3645 -1.1730 -1.7627
 2398SOL     hw 9591   5.552   4.678   4.001 -0.0119  1.6163 -1.4387
 2398SOL     vw 9592   5.620   4.695   4.052 -0.2129  0.5677 -0.7713
 2399SOL     ow 9593   1.473   6.027   6.944  0.9298 -0.0027 -0.0430
 2399SOL     hw 9594   1.550   6.027   6.887  1.4706 -1.7099  0.6433
 2399SOL     hw 9595   1.414   5.962   6.906 -1.5777  3.1669 -2.2166
 2399SOL     vw 9596   1.475   6.019   6.931  0.6703  0.1903 -0.2391
 2400SOL     ow 9597   0.889   0.313   0.357  0.2790 -0.3543 -0.2006
 2400SOL     hw 9598   0.873   0.378   0.289 -0.7153 -0.9420 -0.5400
 2400SOL     hw 9599   0.918   0.235   0.309 -1.9874 -1.2977 -0.1397
 2400SOL     vw 9600   0.891   0.311   0.342 -0.1512 -0.5563 -0.2374
 2401SOL     ow 9601   0.868   7.058   4.579 -0.4228  0.4500 -0.2222
 2401SOL     hw 9602   0.915   6.983   4.615 -0.2493  1.4599  1.7980
 2401SOL     hw 9603   0.776   7.031   4.577 -0.3876  0.2365  0.6927
 2401SOL     vw 9604   0.862   7.044   4.583 -0.3952  0.5550  0.1652
 2402SOL     ow 9605   3.967   5.726   3.625  0.0005  0.2528 -0.5855
 2402SOL     hw 9606   4.037   5.669   3.593  0.9763  0.5875  0.8387
 2402SOL     hw 9607   3.910   5.739   3.550  1.7143  0.3226 -1.9436
 2402SOL     vw 9608   3.969   5.721   3.611  0.3554  0.3061 -0.5766
 2403SOL     ow 9609   7.132   3.807   2.302  0.4138  0.0774 -0.1288
 2403SOL     hw 9610   7.204   3.867   2.322  0.3629  0.0970 -0.0093
 2403SOL     hw 9611   7.063   3.829   2.364 -1.1371  2.5568 -2.4784
 2403SOL     vw 9612   7.132   3.818   2.313  0.2024  0.4072 -0.4228
 2404SOL     ow 9613   3.608   4.904   2.161 -0.0586 -0.1254  0.3202
 2404SOL     hw 9614   3.638   4.958   2.234  1.4398 -0.6337  0.1118
 2404SOL     hw 9615   3.629   4.814   2.187 -3.6700 -0.8575  1.2397
 2404SOL     vw 9616   3.615   4.899   2.174 -0.3372 -0.2890  0.4140
 2405SOL     ow 9617   4.630   4.583   3.134  0.3923  0.1896 -0.2120
 2405SOL     hw 9618   4.710   4.585   3.187  0.6740 -0.0083 -0.6153
 2405SOL     hw 9619   4.648   4.515   3.068 -0.7212 -0.9882  0.6447
 2405SOL     vw 9620   4.643   4.574   3.132  0.2825  0.0079 -0.1521
 2406SOL     ow 9621   4.032   3.924   3.603  0.6269 -0.4399  0.1979
 2406SOL     hw 9622   4.036   3.838   3.561 -0.3949  0.1767 -1.2596
 2406SOL     hw 9623   4.047   3.986   3.532  3.0567  0.5995  1.5171
 2406SOL     vw 9624   4.035   3.921   3.588  0.8128 -0.2214  0.1795
 2407SOL     ow 9625   2.280   7.276   3.793  0.7063  0.2786  0.5342
 2407SOL     hw 9626   2.229   7.300   3.716 -1.1423 -0.1214  1.5692
 2407SOL     hw 9627   2.322   7.358   3.821 -0.1387  0.8310  0.1988
 2407SOL     vw 9628   2.279   7.290   3.786  0.3510  0.2985  0.6266
 2408SOL     ow 9629   1.032   7.282   5.368 -0.3573 -0.0974 -0.2216
 2408SOL     hw 9630   1.024   7.313   5.278 -1.0065 -0.8070 -0.4205
 2408SOL     hw 9631   1.082   7.200   5.361  1.1546  0.7429  0.2697
 2408SOL     vw 9632   1.037   7.275   5.355 -0.2435 -0.0803 -0.1829
 2409SOL     ow 9633   0.425   4.303   7.050 -0.3013  0.3928  0.2675
 2409SOL     hw 9634   0.439   4.209   7.063 -2.1635 -0.1160 -1.0599
 2409SOL     hw 9635   0.485   4.327   6.980  2.0726  0.8510  2.2882
 2409SOL     vw 9636   0.435   4.294   7.043 -0.2338  0.3860  0.3588
 2410SOL     ow 9637   3.562   4.983   4.171  0.1830 -0.6793 -0.2216
 2410SOL     hw 9638   3.647   4.950   4.141  0.2428 -0.7481  0.0167
 2410SOL     hw 9639   3.544   5.058   4.115  1.1821  0.3480  0.7928
 2410SOL     vw 9640   3.571   4.988   4.160  0.3227 -0.5527 -0.0563
 2411SOL     ow 9641   7.104   6.856   6.561 -1.0083  0.3229 -0.0849
 2411SOL     hw 9642   7.082   6.778   6.510 -1.5075  0.6028 -0.3043
 2411SOL     hw 9643   7.080   6.833   6.651  2.8657 -1.4117  0.7192
 2411SOL     vw 9644   7.098   6.843   6.566 -0.5634  0.1311 -0.0079
 2412SOL     ow 9645   0.156   2.233   6.024  0.2243  0.1028  0.2930
 2412SOL     hw 9646   0.153   2.326   6.002 -2.7663  0.2280  0.8397
 2412SOL     hw 9647   0.232   2.199   5.976  0.3086  2.4482 -1.3855
 2412SOL     vw 9648   0.166   2.241   6.015 -0.1591  0.4288  0.1435
 2413SOL     ow 9649   7.188   5.088   7.101  0.0511 -0.0680 -0.0658
 2413SOL     hw 9650   7.245   5.077   7.025 -0.3913  1.8992 -0.7333
 2413SOL     hw 9651   7.160   5.179   7.097 -0.5571 -0.1112  2.0709
 2413SOL     vw 9652   7.192   5.099   7.090 -0.0873  0.1860  0.1278
 2414SOL     ow 9653   7.034   0.237   2.685  0.1517  0.3765 -0.0143
 2414SOL     hw 9654   6.982   0.318   2.687  2.9038  2.2468  1.7293
 2414SOL     hw 9655   7.115   0.262   2.641  0.8337 -1.6136  0.0598
 2414SOL     vw 9656   7.038   0.251   2.679  0.6049  0.3607  0.2254
 2415SOL     ow 9657   0.682   5.583   5.738 -0.5949 -0.1464  0.4170
 2415SOL     hw 9658   0.705   5.674   5.754  0.1473 -0.3360  0.4376
 2415SOL     hw 9659   0.590   5.577   5.766 -0.9988  0.8501 -0.6163
 2415SOL     vw 9660   0.673   5.594   5.744 -0.5503 -0.0403  0.2835
 2416SOL     ow 9661   5.146   7.059   1.099  0.5635  0.5229  0.3437
 2416SOL     hw 9662   5.083   6.998   1.137  0.6650  1.5162  2.2373
 2416SOL     hw 9663   5.111   7.079   1.012 -0.9481 -0.0691  0.7863
 2416SOL     vw 9664   5.133   7.054   1.092  0.3774  0.5760  0.6519
 2417SOL     ow 9665   6.554   1.584   3.474 -0.8506 -0.0281  0.4477
 2417SOL     hw 9666   6.565   1.560   3.566  0.3653 -2.1548 -0.1741
 2417SOL     hw 9667   6.627   1.540   3.430  0.4513  3.4209 -1.1857
 2417SOL     vw 9668   6.565   1.575   3.481 -0.5183  0.1463  0.1502
 2418SOL     ow 9669   5.999   2.339   4.091 -0.0716 -0.3461 -0.1236
 2418SOL     hw 9670   6.028   2.352   4.181  2.8882 -0.1337 -0.9754
 2418SOL     hw 9671   6.015   2.246   4.074 -0.4525 -0.3497 -0.4881
 2418SOL     vw 9672   6.005   2.329   4.100  0.2689 -0.3185 -0.2842
 2419SOL     ow 9673   4.916   5.633   2.147 -0.2481  0.0825 -0.3931
 2419SOL     hw 9674   4.864   5.662   2.222 -0.0275  0.4452 -0.3804
 2419SOL     hw 9675   4.893   5.541   2.136 -1.2767  0.3573 -0.6989
 2419SOL     vw 9676   4.906   5.625   2.155 -0.3545  0.1664 -0.4318
 2420SOL     ow 9677   5.566   2.217   2.645 -0.7395  0.6729  0.3583
 2420SOL     hw 9678   5.583   2.197   2.553  0.2848 -1.0187  0.8673
 2420SOL     hw 9679   5.525   2.303   2.644 -2.2694 -0.0060 -1.7899
 2420SOL     vw 9680   5.563   2.226   2.633 -0.8063  0.3603  0.1420
 2421SOL     ow 9681   1.774   5.329   0.392  0.8047  0.1244 -0.2756
 2421SOL     hw 9682   1.801   5.350   0.481 -3.3182  1.1381  0.9583
 2421SOL     hw 9683   1.771   5.233   0.389  0.2231  0.0871  1.0109
 2421SOL     vw 9684   1.777   5.319   0.403  0.1841  0.2534  0.0569
 2422SOL     ow 9685   3.564   5.304   5.064 -0.2472 -0.2235  0.3719
 2422SOL     hw 9686   3.519   5.243   5.005 -0.0316 -0.2489  0.2281
 2422SOL     hw 9687   3.631   5.250   5.107  0.8402  0.1741 -0.7467
 2422SOL     vw 9688   3.567   5.289   5.062 -0.0753 -0.1745  0.2053
 2423SOL     ow 9689   0.089   1.248   3.660 -0.3346 -0.3049  0.5045
 2423SOL     hw 9690   0.131   1.309   3.720  1.5813  0.8956 -1.8951
 2423SOL     hw 9691  -0.005   1.264   3.671  0.0812  2.1802  0.8912
 2423SOL     vw 9692   0.082   1.258   3.669 -0.0270  0.1813  0.2389
 2424SOL     ow 9693   6.151   1.613   2.968 -0.4608 -0.1152  0.3762
 2424SOL     hw 9694   6.244   1.592   2.960 -0.7628 -0.9500 -1.2086
 2424SOL     hw 9695   6.108   1.529   2.981 -0.8149  0.4580  3.8121
 2424SOL     vw 9696   6.157   1.600   2.969 -0.5474 -0.1496  0.6202
 2425SOL     ow 9697   7.291   2.014   3.277 -0.4537  0.4686  0.1866
 2425SOL     hw 9698   7.370   2.039   3.325 -0.3550 -0.2567  0.4094
 2425SOL     hw 9699   7.231   2.088   3.289  0.6408  1.5959 -1.0511
 2425SOL     vw 9700   7.293   2.027   3.285 -0.2964  0.5217  0.0527
 2426SOL     ow 9701   3.225   6.011   2.541  0.7397 -0.6167 -0.4318
 2426SOL     hw 9702   3.280   6.077   2.499  0.0971  0.5621  0.5070
 2426SOL     hw 9703   3.203   5.949   2.471 -1.0066  1.7175 -2.0678
 2426SOL     vw 9704   3.229   6.011   2.527  0.4246 -0.1535 -0.5238
 2427SOL     ow 9705   0.935   5.687   6.227  0.3131 -0.3023  0.3552
 2427SOL     hw 9706   0.967   5.597   6.233  0.6028 -0.1176  2.0179
 2427SOL     hw 9707   0.904   5.696   6.137  1.3250 -1.7097 -0.1559
 2427SOL     vw 9708   0.935   5.677   6.216  0.4849 -0.4635  0.5071
 2428SOL     ow 9709   5.289   2.319   4.156  0.2376 -0.5094 -0.3596
 2428SOL     hw 9710   5.326   2.394   4.109  0.3572 -0.7419 -0.6383
 2428SOL     hw 9711   5.205   2.351   4.190  1.3669  0.5239  1.6437
 2428SOL     vw 9712   5.283   2.333   4.154  0.4025 -0.4038 -0.1321
 2429SOL     ow 9713   1.018   5.191   6.575  0.6020 -0.3325  0.0896
 2429SOL     hw 9714   1.035   5.235   6.659  0.9691  0.5043 -0.4136
 2429SOL     hw 9715   1.104   5.181   6.535  0.4322 -0.7672 -0.1715
 2429SOL     vw 9716   1.032   5.196   6.581  0.6280 -0.2794 -0.0112
 2430SOL     ow 9717   4.161   3.174   6.656 -0.0519 -0.6881  0.2168
 2430SOL     hw 9718   4.107   3.095   6.658 -2.1443  0.6222  4.1919
 2430SOL     hw 9719   4.113   3.239   6.707  2.1551  2.8842 -1.7720
 2430SOL     vw 9720   4.148   3.172   6.663 -0.0367 -0.0440  0.4792
 2431SOL     ow 9721   3.482   4.320   1.589 -0.5881  0.0622 -0.5864
 2431SOL     hw 9722   3.480   4.284   1.678  0.4734  0.4679 -0.3918
 2431SOL     hw 9723   3.396   4.298   1.553 -0.7071 -0.8802  0.2306
 2431SOL     vw 9724   3.470   4.312   1.596 -0.4638 -0.0083 -0.4529
 2432SOL     ow 9725   3.612   3.986   5.905 -0.2421 -0.3435  0.6246
 2432SOL     hw 9726   3.545   3.916   5.907  0.5501 -1.1084  0.9259
 2432SOL     hw 9727   3.597   4.035   5.986 -0.7661 -0.1902  0.4424
 2432SOL     vw 9728   3.601   3.983   5.916 -0.2068 -0.4241  0.6404
 2433SOL     ow 9729   0.270   3.628   0.070  1.0580  0.0540  0.4778
 2433SOL     hw 9730   0.316   3.697   0.118  1.3278  0.4531 -0.3363
 2433SOL     hw 9731   0.340   3.575   0.030  0.8534 -0.6926  1.0872
 2433SOL     vw 9732   0.285   3.630   0.071  1.0666  0.0081  0.4508
 2434SOL     ow 9733   5.814   4.454   7.127  0.3355 -0.3946  0.5439
 2434SOL     hw 9734   5.819   4.488   7.038  0.3897 -0.7552  0.4080
 2434SOL     hw 9735   5.888   4.393   7.134  1.4713  1.0113  1.4317
 2434SOL     vw 9736   5.824   4.450   7.116  0.4926 -0.2565  0.6433
 2435SOL     ow 9737   4.782   6.357   5.306 -0.0945 -0.3047  0.2430
 2435SOL     hw 9738   4.714   6.420   5.333  0.6963  0.5900  0.1947
 2435SOL     hw 9739   4.733   6.284   5.268 -1.0766 -0.1029  1.0592
 2435SOL     vw 9740   4.766   6.356   5.305 -0.1194 -0.1602  0.3445
 2436SOL     ow 9741   4.159   3.179   1.932 -0.7165 -0.0272 -0.0679
 2436SOL     hw 9742   4.096   3.121   1.974 -0.8175 -0.8992 -1.3631
 2436SOL     hw 9743   4.115   3.210   1.853 -0.9391  2.4270  0.9285
 2436SOL     vw 9744   4.145   3.176   1.927 -0.7594  0.1816 -0.1073
 2437SOL     ow 9745   2.160   6.043   6.935  0.1134 -0.4952 -1.2830
 2437SOL     hw 9746   2.162   6.041   7.030  0.0675 -0.9140 -1.2888
 2437SOL     hw 9747   2.070   6.070   6.913 -0.2442 -1.5627 -1.2111
 2437SOL     vw 9748   2.148   6.046   6.944  0.0601 -0.6917 -1.2743
 2438SOL     ow 9749   6.213   3.569   7.136 -0.1308  0.0326 -0.2244
 2438SOL     hw 9750   6.154   3.519   7.080 -0.1688  1.1405 -1.2012
 2438SOL     hw 9751   6.171   3.567   7.222  0.1329 -2.0273 -0.0832
 2438SOL     vw 9752   6.200   3.562   7.140 -0.1009 -0.0929 -0.3345
 2439SOL     ow 9753   5.573   3.176   0.234  0.6500 -0.2363  0.2106
 2439SOL     hw 9754   5.595   3.268   0.220  1.2577 -0.3208  0.5657
 2439SOL     hw 9755   5.587   3.162   0.327 -0.7276 -0.3595  0.4075
 2439SOL     vw 9756   5.578   3.187   0.244  0.5484 -0.2637  0.2834
 2440SOL     ow 9757   5.440   5.057   3.910 -0.3459 -0.0776 -0.6132
 2440SOL     hw 9758   5.480   5.023   3.990 -0.8034 -1.9239 -1.1148
 2440SOL     hw 9759   5.510   5.109   3.869 -0.3031  1.3960  1.2269
 2440SOL     vw 9760   5.455   5.059   3.915 -0.4003 -0.1268 -0.4365
 2441SOL     ow 9761   4.404   3.073   1.949 -0.0733  0.5969 -0.1957
 2441SOL     hw 9762   4.335   3.129   1.913 -0.4716  1.2249  1.4526
 2441SOL     hw 9763   4.361   3.023   2.018  0.7000 -0.4420 -0.4369
 2441SOL     vw 9764   4.389   3.074   1.953 -0.0238  0.5426 -0.0101
 2442SOL     ow 9765   6.152   5.247   4.077 -0.4594  0.3330  1.1445
 2442SOL     hw 9766   6.147   5.189   4.001 -3.0801  0.8604  0.8062
 2442SOL     hw 9767   6.196   5.195   4.145  1.2588 -0.4049 -0.4724
 2442SOL     vw 9768   6.157   5.233   4.076 -0.5784  0.3052  0.8862
 2443SOL     ow 9769   6.190   5.611   6.432  0.0746  0.4328  0.4271
 2443SOL     hw 9770   6.233   5.572   6.355 -0.1180  1.4840 -0.2282
 2443SOL     hw 9771   6.258   5.610   6.499  0.2021 -0.6400  0.3061
 2443SOL     vw 9772   6.205   5.606   6.430  0.0663  0.4301  0.3245
 2444SOL     ow 9773   7.014   2.636   3.339  0.1204  0.6883  0.2696
 2444SOL     hw 9774   6.988   2.657   3.428 -0.4283  0.4915  0.1600
 2444SOL     hw 9775   7.038   2.544   3.341 -0.5245  0.5112  0.0793
 2444SOL     vw 9776   7.014   2.627   3.351 -0.0374  0.6390  0.2301
 2445SOL     ow 9777   1.734   0.437   2.371 -0.3960  0.2098  0.3179
 2445SOL     hw 9778   1.646   0.409   2.347  0.6314 -0.8202 -2.7331
 2445SOL     hw 9779   1.748   0.518   2.322  0.3077  0.4700  0.9189
 2445SOL     vw 9780   1.724   0.444   2.361 -0.1677  0.1082 -0.0054
 2446SOL     ow 9781   6.718   1.629   2.303  0.3341  0.3483 -0.0572
 2446SOL     hw 9782   6.789   1.582   2.347 -0.3845  1.6430  2.7309
 2446SOL     hw 9783   6.735   1.721   2.323 -2.3749  0.6640  1.1849
 2446SOL     vw 9784   6.730   1.635   2.312 -0.1180  0.5609  0.4746
 2447SOL     ow 9785   4.133   1.425   4.450  0.0482 -0.0089  0.2578
 2447SOL     hw 9786   4.124   1.483   4.374  1.3748  0.1368  0.1933
 2447SOL     hw 9787   4.212   1.375   4.433 -0.6336 -1.2856  0.7051
 2447SOL     vw 9788   4.142   1.426   4.438  0.1330 -0.1581  0.3083
 2448SOL     ow 9789   5.263   3.269   6.454  0.9910  0.7121 -0.4582
 2448SOL     hw 9790   5.186   3.326   6.453  0.5542  0.1626 -2.0392
 2448SOL     hw 9791   5.231   3.185   6.421  1.8908 -0.0985  0.6583
 2448SOL     vw 9792   5.249   3.266   6.449  1.0521  0.5326 -0.5195
 2449SOL     ow 9793   0.814   1.718   3.808  0.3530 -0.8925  0.1453
 2449SOL     hw 9794   0.783   1.701   3.720  0.2880 -0.9625  0.1819
 2449SOL     hw 9795   0.896   1.669   3.815  2.2754  1.8557 -1.0860
 2449SOL     vw 9796   0.821   1.710   3.798  0.5980 -0.5392 -0.0124
 2450SOL     ow 9797   3.790   0.055   3.139 -0.1269 -0.4100  0.4036
 2450SOL     hw 9798   3.767   0.144   3.166 -0.3402 -0.5533  0.6949
 2450SOL     hw 9799   3.876   0.064   3.098  1.5229 -0.5650  3.5075
 2450SOL     vw 9800   3.798   0.068   3.137  0.0626 -0.4493  0.8515
 2451SOL     ow 9801   1.975   2.958   0.291 -0.0091  0.4446  0.4457
 2451SOL     hw 9802   1.973   3.031   0.354  1.8111  1.0011 -0.0806
 2451SOL     hw 9803   2.043   2.982   0.229 -2.4596  0.4584 -2.4927
 2451SOL     vw 9804   1.983   2.971   0.291 -0.0923  0.5198 -0.0114
 2452SOL     ow 9805   0.296   6.578   1.899 -0.0035 -0.3766 -0.1873
 2452SOL     hw 9806   0.220   6.539   1.856 -1.2955  1.8291 -0.0383
 2452SOL     hw 9807   0.271   6.585   1.991  1.9364 -3.1132  0.6870
 2452SOL     vw 9808   0.283   6.573   1.905  0.0819 -0.4468 -0.0523
 2453SOL     ow 9809   5.443   5.969   3.093  0.1886  0.1480  0.0591
 2453SOL     hw 9810   5.493   5.896   3.131 -0.2785  0.2865  0.9660
 2453SOL     hw 9811   5.359   5.930   3.069 -0.3659  0.5449  1.2960
 2453SOL     vw 9812   5.439   5.954   3.095  0.0536  0.2182  0.3419
 2454SOL     ow 9813   6.372   2.151   6.952 -0.3952  0.0620 -0.2641
 2454SOL     hw 9814   6.468   2.145   6.952 -0.4584 -1.3763 -0.2027
 2454SOL     hw 9815   6.348   2.144   7.044 -0.5151  2.0642 -0.1048
 2454SOL     vw 9816   6.382   2.149   6.964 -0.4194  0.1363 -0.2351
 2455SOL     ow 9817   0.131   1.385   3.160 -0.6278 -0.8829 -0.1760
 2455SOL     hw 9818   0.126   1.411   3.252  1.3451  1.3287 -0.6000
 2455SOL     hw 9819   0.049   1.416   3.121 -0.4749  0.2923  0.4026
 2455SOL     vw 9820   0.120   1.393   3.167 -0.3473 -0.4361 -0.1557
 2456SOL     ow 9821   0.324   2.610   4.573 -0.4565  0.1265  0.5564
 2456SOL     hw 9822   0.402   2.638   4.621 -0.5257  1.2491  0.0533
 2456SOL     hw 9823   0.330   2.515   4.570  1.1671  0.2172  0.0945
 2456SOL     vw 9824   0.335   2.601   4.579 -0.2514  0.2866  0.4292
 2457SOL     ow 9825   5.241   6.607   2.079 -0.2922 -0.1015 -0.2694
 2457SOL     hw 9826   5.186   6.685   2.081  0.5316  0.5165 -0.8750
 2457SOL     hw 9827   5.311   6.628   2.017 -0.3308 -1.5202 -0.8444
 2457SOL     vw 9828   5.243   6.620   2.071 -0.1888 -0.2069 -0.4251
 2458SOL     ow 9829   6.655   1.845   1.031 -0.4804 -0.6279  0.3015
 2458SOL     hw 9830   6.663   1.863   1.125 -0.5833 -0.2852  0.2469
 2458SOL     hw 9831   6.575   1.890   1.005  0.9268  1.5904 -0.4979
 2458SOL     vw 9832   6.646   1.854   1.040 -0.3085 -0.2900  0.1888
 2459SOL     ow 9833   3.013   5.497   1.408  0.0171  0.3274  0.8798
 2459SOL     hw 9834   3.019   5.589   1.433  0.1498  0.9839 -1.3472
 2459SOL     hw 9835   2.920   5.481   1.397  0.0331  0.4136  0.5968
 2459SOL     vw 9836   3.002   5.507   1.410  0.0367  0.4253  0.5487
 2460SOL     ow 9837   3.367   3.599   0.527 -0.0139  0.2639  0.8313
 2460SOL     hw 9838   3.284   3.615   0.482  0.3263 -0.9765 -0.3062
 2460SOL     hw 9839   3.434   3.623   0.463  0.5659  2.0648  2.0302
 2460SOL     vw 9840   3.365   3.604   0.513  0.1076  0.3378  0.8393
 2461SOL     ow 9841   0.983   6.652   4.027  0.2240  0.3797 -0.1442
 2461SOL     hw 9842   1.029   6.568   4.036  0.5148  0.2855 -1.9528
 2461SOL     hw 9843   0.890   6.628   4.026  0.2716  0.1815  0.2798
 2461SOL     vw 9844   0.977   6.637   4.028  0.2686  0.3412 -0.3271
 2462SOL     ow 9845   5.508   0.571   3.328  0.4964  0.1934  0.8680
 2462SOL     hw 9846   5.413   0.575   3.340  0.4786 -0.7522  1.1458
 2462SOL     hw 9847   5.534   0.662   3.316 -0.5253  0.4189  0.1508
 2462SOL     vw 9848   5.499   0.584   3.328  0.3593  0.0984  0.8100
 2463SOL     ow 9849   1.340   2.022   2.961  0.2315 -0.6036 -0.3179
 2463SOL     hw 9850   1.385   2.076   2.895  0.6270  0.4514  0.7719
 2463SOL     hw 9851   1.328   2.081   3.036 -2.8149 -0.8741 -0.4559
 2463SOL     vw 9852   1.344   2.037   2.962 -0.1181 -0.5002 -0.1924
 2464SOL     ow 9853   4.593   6.781   1.147 -0.0608  0.5182 -0.0699
 2464SOL     hw 9854   4.635   6.696   1.149  0.7889  0.9382  0.1594
 2464SOL     hw 9855   4.590   6.803   1.054 -0.5933  0.0937 -0.1582
 2464SOL     vw 9856   4.598   6.773   1.135 -0.0191  0.5176 -0.0513
 2465SOL     ow 9857   2.798   3.547   2.828  0.1673  0.0606  0.3747
 2465SOL     hw 9858   2.736   3.615   2.857 -1.9512 -0.5372 -2.3320
 2465SOL     hw 9859   2.775   3.530   2.737  2.1366 -2.6821  0.2450
 2465SOL     vw 9860   2.786   3.553   2.820  0.1476 -0.3803  0.0005
 2466SOL     ow 9861   1.608   1.372   6.529  0.4771  0.6009  0.1604
 2466SOL     hw 9862   1.606   1.461   6.495 -0.8464  0.3863 -0.3794
 2466SOL     hw 9863   1.573   1.318   6.458  2.1697 -0.5124  0.0955
 2466SOL     vw 9864   1.603   1.377   6.515  0.5259  0.4257  0.0808
 2467SOL     ow 9865   2.847   1.063   4.559  0.2777  0.1852 -0.1025
 2467SOL     hw 9866   2.786   1.068   4.486 -0.5397  2.8644  0.6551
 2467SOL     hw 9867   2.930   1.095   4.524 -0.1379  1.5608  0.1263
 2467SOL     vw 9868   2.850   1.068   4.545  0.1150  0.7202  0.0277
 2468SOL     ow 9869   6.940   2.794   2.096  0.1987  0.0822 -0.1961
 2468SOL     hw 9870   7.026   2.769   2.062  0.7728  0.9773  0.5478
 2468SOL     hw 9871   6.923   2.732   2.166 -0.9514 -1.7180 -1.9664
 2468SOL     vw 9872   6.949   2.783   2.100  0.1228 -0.0371 -0.3315
 2469SOL     ow 9873   6.407   2.364   1.761  0.5256 -0.0834 -0.4216
 2469SOL     hw 9874   6.322   2.346   1.720  0.3128  0.6280 -0.3088
 2469SOL     hw 9875   6.456   2.283   1.750  0.3080 -0.0741 -1.6726
 2469SOL     vw 9876   6.402   2.351   1.754  0.4687  0.0118 -0.5717
 2470SOL     ow 9877   2.913   6.217   1.145  0.6419 -0.0498 -0.1156
 2470SOL     hw 9878   3.004   6.190   1.132  0.6338 -1.5618  2.3240
 2470SOL     hw 9879   2.905   6.231   1.239 -1.0058  2.7778 -0.5813
 2470SOL     vw 9880   2.924   6.215   1.156  0.4234  0.1240  0.1448
 2471SOL     ow 9881   2.678   0.934   6.571 -0.2667 -0.2950  0.2847
 2471SOL     hw 9882   2.740   0.920   6.499  0.7130 -0.6243  1.1536
 2471SOL     hw 9883   2.627   0.853   6.575 -1.4976  0.3645 -1.0871
 2471SOL     vw 9884   2.680   0.921   6.562 -0.2999 -0.2514  0.2182
 2472SOL     ow 9885   2.656   4.092   3.862 -0.3639  0.2808 -0.0214
 2472SOL     hw 9886   2.668   4.080   3.768  2.4310  1.6729  0.0523
 2472SOL     hw 9887   2.693   4.013   3.902  0.2099  0.5189 -0.0679
 2472SOL     vw 9888   2.663   4.080   3.855  0.0807  0.4957 -0.0179
 2473SOL     ow 9889   5.024   7.156   4.010 -0.2026  0.1584  0.3146
 2473SOL     hw 9890   5.093   7.103   3.970  1.7808  2.2030  0.7515
 2473SOL     hw 9891   4.959   7.093   4.041  1.1211 -1.8395 -0.7720
 2473SOL     vw 9892   5.025   7.141   4.009  0.2337  0.1647  0.2289
 2474SOL     ow 9893   3.912   2.911   0.410  0.0469  0.1433 -0.2346
 2474SOL     hw 9894   3.984   2.973   0.402  0.1535 -0.1376 -1.6065
 2474SOL     hw 9895   3.889   2.913   0.503  1.4700  0.6289  0.1275
 2474SOL     vw 9896   3.919   2.919   0.421  0.2488  0.1702 -0.3678
 2475SOL     ow 9897   3.960   1.962   5.186  0.6359  0.1842 -0.2901
 2475SOL     hw 9898   3.867   1.977   5.175  0.3264 -0.6616  0.9766
 2475SOL     hw 9899   3.999   1.990   5.103 -0.9573 -1.2978 -1.6230
 2475SOL     vw 9900   3.953   1.968   5.173  0.3847 -0.1229 -0.2985
 2476SOL     ow 9901   5.754   6.981   5.594  0.5446 -0.3956 -0.1914
 2476SOL     hw 9902   5.827   6.949   5.647  2.6284  1.5447 -1.6895
 2476SOL     hw 9903   5.699   7.031   5.654  1.1304 -0.8448  0.7306
 2476SOL     vw 9904   5.756   6.983   5.609  0.8967 -0.1988 -0.2675
 2477SOL     ow 9905   5.199   2.878   1.325 -0.3116 -0.4986 -0.1043
 2477SOL     hw 9906   5.122   2.837   1.286  0.8607 -0.4951 -2.5581
 2477SOL     hw 9907   5.213   2.958   1.275  1.0441 -0.2643  0.5771
 2477SOL     vw 9908   5.191   2.883   1.313  0.0219 -0.4672 -0.3382
 2478SOL     ow 9909   2.579   6.521   4.956  0.0126  0.1363 -0.3069
 2478SOL     hw 9910   2.484   6.525   4.958  0.0348  0.7287  1.2677
 2478SOL     hw 9911   2.607   6.609   4.981  0.9700 -0.1361 -0.3757
 2478SOL     vw 9912   2.571   6.533   4.959  0.1417  0.1783 -0.1080
 2479SOL     ow 9913   0.934   0.292   7.278  0.2778 -0.7494 -0.3823
 2479SOL     hw 9914   0.952   0.237   7.354 -1.0091 -2.2389 -1.1043
 2479SOL     hw 9915   1.004   0.358   7.280  0.6901 -1.1582  1.6651
 2479SOL     vw 9916   0.946   0.294   7.289  0.1624 -0.9998 -0.2072
 2480SOL     ow 9917   4.172   6.191   4.402  0.0596  0.5599 -0.7249
 2480SOL     hw 9918   4.246   6.205   4.461 -0.2194 -0.2377 -0.1645
 2480SOL     hw 9919   4.209   6.146   4.326 -0.4736 -4.5853  1.6480
 2480SOL     vw 9920   4.186   6.187   4.400 -0.0474 -0.2241 -0.3378
 2481SOL     ow 9921   0.276   6.781   2.410 -0.9010  0.0194  0.1773
 2481SOL     hw 9922   0.264   6.713   2.477 -0.7292 -0.5168 -0.3300
 2481SOL     hw 9923   0.336   6.843   2.450 -0.6235 -0.4113  0.4406
 2481SOL     vw 9924   0.282   6.780   2.424 -0.8417 -0.1080  0.1452
 2482SOL     ow 9925   5.129   6.009   3.805  0.5170 -0.5820  0.0784
 2482SOL     hw 9926   5.088   6.093   3.784 -1.0833 -1.5128 -0.7822
 2482SOL     hw 9927   5.071   5.944   3.765  1.7864 -2.0965  0.5948
 2482SOL     vw 9928   5.116   6.012   3.797  0.4735 -0.9046  0.0331
 2483SOL     ow 9929   4.768   4.688   4.344  0.2160 -0.0072  0.4250
 2483SOL     hw 9930   4.681   4.713   4.314 -0.2897 -1.5244  0.5361
 2483SOL     hw 9931   4.763   4.593   4.356  2.2670 -0.3269 -0.7911
 2483SOL     vw 9932   4.756   4.679   4.342  0.4199 -0.2494  0.2792
 2484SOL     ow 9933   6.573   2.867   2.028 -0.3696  0.2500  0.1010
 2484SOL     hw 9934   6.617   2.915   1.958  2.2584 -1.6720  0.3042
 2484SOL     hw 9935   6.605   2.906   2.109  0.8391 -0.9702  0.2476
 2484SOL     vw 9936   6.583   2.878   2.029  0.1366 -0.1645  0.1471
 2485SOL     ow 9937   6.280   2.397   1.465 -0.1593 -0.0108 -0.0965
 2485SOL     hw 9938   6.357   2.449   1.488  0.1244 -0.4077 -0.1464
 2485SOL     hw 9939   6.314   2.309   1.450 -0.2945  0.2303 -2.1020
 2485SOL     vw 9940   6.295   2.393   1.466 -0.1400 -0.0314 -0.3677
 2486SOL     ow 9941   2.780   7.108   6.143  0.5667  0.2386  0.0718
 2486SOL     hw 9942   2.723   7.038   6.175 -1.3935  1.5014 -0.4588
 2486SOL     hw 9943   2.841   7.124   6.214 -0.1864 -0.7111  0.9594
 2486SOL     vw 9944   2.780   7.101   6.156  0.2087  0.2801  0.1190
 2487SOL     ow 9945   1.808   0.587   4.764 -0.0160 -0.5005 -0.0317
 2487SOL     hw 9946   1.810   0.676   4.799 -2.1697 -0.2301 -0.4880
 2487SOL     hw 9947   1.846   0.595   4.676  1.8425 -0.4853  0.7245
 2487SOL     vw 9948   1.813   0.600   4.757 -0.0550 -0.4629  0.0076
 2488SOL     ow 9949   0.375   0.537   6.065 -0.3274 -0.0922 -0.0118
 2488SOL     hw 9950   0.383   0.442   6.062  1.6266  0.0407 -0.5412
 2488SOL     hw 9951   0.419   0.567   5.985 -1.0590  1.2527  0.0637
 2488SOL     vw 9952   0.382   0.528   6.054 -0.1661  0.1028 -0.0715
 2489SOL     ow 9953   6.607   6.084   2.991  0.4797 -0.1345 -0.4688
 2489SOL     hw 9954   6.672   6.127   2.935  0.1336 -0.2595 -0.9694
 2489SOL     hw 9955   6.641   5.995   3.003  1.2289  0.2814  0.6213
 2489SOL     vw 9956   6.620   6.078   2.985  0.5329 -0.0961 -0.3909
 2490SOL     ow 9957   3.064   3.012   1.811  0.4631  0.4409  0.2334
 2490SOL     hw 9958   3.072   3.083   1.747  1.2646 -0.3357 -0.5555
 2490SOL     hw 9959   3.048   3.056   1.894  0.3057  1.5126 -0.3464
 2490SOL     vw 9960   3.063   3.027   1.814  0.5480  0.4799  0.0528
 2491SOL     ow 9961   5.300   1.146   1.938 -0.1130  0.1259  0.5312
 2491SOL     hw 9962   5.313   1.081   1.869  1.5339 -0.3901  1.2958
 2491SOL     hw 9963   5.260   1.097   2.009 -0.7366  0.4108  0.3868
 2491SOL     vw 9964   5.296   1.131   1.938  0.0222  0.0953  0.6130
 2492SOL     ow 9965   2.712   0.040   5.672 -0.1637 -0.4165  0.2802
 2492SOL     hw 9966   2.767   0.039   5.594  1.0954  2.0640  1.0368
 2492SOL     hw 9967   2.634   0.088   5.647  0.9061  1.7422  0.8631
 2492SOL     vw 9968   2.709   0.046   5.659  0.1435  0.1956  0.4570
 2493SOL     ow 9969   4.090   3.947   0.342 -0.4050 -0.2086 -0.3672
 2493SOL     hw 9970   4.122   3.882   0.279  0.5676 -0.5467  0.4497
 2493SOL     hw 9971   3.996   3.953   0.324  0.1850  1.6428 -3.5942
 2493SOL     vw 9972   4.082   3.939   0.331 -0.1988 -0.0089 -0.6852
 2494SOL     ow 9973   0.283   5.496   6.447 -0.2946  0.1549  0.4361
 2494SOL     hw 9974   0.197   5.532   6.471  1.1519  2.2051  3.1214
 2494SOL     hw 9975   0.343   5.570   6.456  1.7297 -1.0726 -1.9600
 2494SOL     vw 9976   0.279   5.510   6.452  0.1633  0.2637  0.4742
 2495SOL     ow 9977   2.884   3.899   5.568  0.3108 -0.4984  0.2897
 2495SOL     hw 9978   2.865   3.985   5.531 -3.9495 -0.7876  1.3395
 2495SOL     hw 9979   2.860   3.837   5.498  0.7246 -0.9182  0.5102
 2495SOL     vw 9980   2.878   3.902   5.554 -0.1966 -0.5920  0.4575
 2496SOL     ow 9981   6.871   1.978   6.893  0.0247  0.0621 -1.0161
 2496SOL     hw 9982   6.946   1.923   6.870 -0.7933 -0.0534 -3.7918
 2496SOL     hw 9983   6.816   1.922   6.947  0.6676 -0.7789 -1.2140
 2496SOL     vw 9984   6.874   1.963   6.897  0.0019 -0.0640 -1.4083
 2497SOL     ow 9985   4.633   3.809   4.393 -0.4577 -0.1906  0.2337
 2497SOL     hw 9986   4.586   3.885   4.357 -1.4018 -1.5668 -1.5849
 2497SOL     hw 9987   4.564   3.745   4.411  0.4076 -0.9346  0.9815
 2497SOL     vw 9988   4.618   3.811   4.390 -0.4680 -0.4704  0.0923
 2498SOL     ow 9989   6.221   5.519   0.564 -0.4545 -0.1167 -0.0686
 2498SOL     hw 9990   6.177   5.503   0.481 -0.5416 -1.8915  0.2709
 2498SOL     hw 9991   6.171   5.468   0.628  1.6542 -1.7090  0.4431
 2498SOL     vw 9992   6.209   5.510   0.562 -0.1876 -0.5608  0.0437
 2499SOL     ow 9993   1.538   1.115   0.398 -0.0362 -0.3036 -0.1984
 2499SOL     hw 9994   1.547   1.061   0.319  0.0726 -1.5808  0.6545
 2499SOL     hw 9995   1.465   1.076   0.446 -0.8185  1.1425 -0.1817
 2499SOL     vw 9996   1.530   1.103   0.394 -0.1251 -0.2813 -0.0837
 2500SOL     ow 9997   5.411   4.016   2.337 -0.9082 -0.1591  0.5261
 2500SOL     hw 9998   5.412   3.997   2.243 -2.1596  1.3909  0.1613
 2500SOL     hw 9999   5.362   3.943   2.375 -0.2804 -0.8697  0.0035
 2500SOL     vw10000   5.405   4.004   2.329 -0.9902 -0.0482  0.4091
 2501SOL     ow10001   3.428   2.708   3.765 -0.2386 -0.4765 -0.9248
 2501SOL     hw10002   3.346   2.756   3.751 -0.6172 -1.3871 -2.0587
 2501SOL     hw10003   3.439   2.706   3.860  0.2911  2.6045 -0.8151
 2501SOL     vw10004   3.418   2.714   3.775 -0.2187 -0.1901 -1.0599
 2502SOL     ow10005   0.645   3.713   2.800  1.0971 -0.2793  0.4087
 2502SOL     hw10006   0.683   3.759   2.875  0.6378  1.5183 -0.3938
 2502SOL     hw10007   0.628   3.783   2.736 -2.9526 -0.9831  0.4350
 2502SOL     vw10008   0.648   3.729   2.801  0.5022 -0.1349  0.3062
 2503SOL     ow10009   4.793   3.142   3.460 -0.1762 -0.3080  0.9107
 2503SOL     hw10010   4.850   3.207   3.502  0.2325 -0.3479  0.4287
 2503SOL     hw10011   4.853   3.082   3.417 -0.5769 -0.5828  0.7305
 2503SOL     vw10012   4.808   3.143   3.460 -0.1750 -0.3495  0.8234
 2504SOL     ow10013   1.418   5.500   3.609 -0.4713  0.0995  0.3452
 2504SOL     hw10014   1.364   5.426   3.581  0.1715 -0.1365 -0.3221
 2504SOL     hw10015   1.465   5.526   3.529 -0.6190  1.1697  0.5944
 2504SOL     vw10016   1.417   5.494   3.595 -0.4060  0.2096  0.2900
 2505SOL     ow10017   1.918   4.881   3.599 -0.4136 -0.5070  0.5410
 2505SOL     hw10018   1.835   4.875   3.648 -1.2974  0.4127 -0.7728
 2505SOL     hw10019   1.893   4.864   3.508  0.5577  1.2825 -0.1055
 2505SOL     vw10020   1.904   4.878   3.594 -0.4020 -0.1495  0.2823
 2506SOL     ow10021   1.962   0.908   3.885  0.4536 -0.0827 -0.2788
 2506SOL     hw10022   1.921   0.989   3.916 -1.6819 -0.9424 -0.6730
 2506SOL     hw10023   1.947   0.909   3.790  1.6518 -0.3124 -0.4857
 2506SOL     vw10024   1.955   0.919   3.876  0.3300 -0.2264 -0.3582
 2507SOL     ow10025   3.789   1.449   4.433 -0.2860  0.1474  0.3011
 2507SOL     hw10026   3.739   1.368   4.419  2.8494 -1.9618  0.2018
 2507SOL     hw10027   3.760   1.480   4.519 -0.5340 -1.9994  1.0668
 2507SOL     vw10028   3.779   1.442   4.442  0.0949 -0.4142  0.3889
 2508SOL     ow10029   1.500   3.557   3.072 -0.2988 -0.1030 -0.2409
 2508SOL     hw10030   1.442   3.631   3.092  0.3491  0.4064 -0.1934
 2508SOL     hw10031   1.477   3.491   3.137 -0.9122  0.0335 -0.3051
 2508SOL     vw10032   1.489   3.558   3.083 -0.2943 -0.0176 -0.2431
 2509SOL     ow10033   5.612   7.301   2.377 -0.2857 -0.0411  0.1678
 2509SOL     hw10034   5.545   7.233   2.385  0.6994 -1.1993 -0.8886
 2509SOL     hw10035   5.620   7.316   2.283 -2.7734  4.0161  0.3841
 2509SOL     vw10036   5.604   7.294   2.366 -0.4840  0.3414  0.0571
 2510SOL     ow10037   5.199   2.892   6.747 -0.3087  0.1764  0.2070
 2510SOL     hw10038   5.178   2.918   6.657 -0.5708  0.4845  0.3518
 2510SOL     hw10039   5.138   2.943   6.801 -1.6532 -1.6119  0.4513
 2510SOL     vw10040   5.188   2.902   6.743 -0.5207 -0.0190  0.2584
 2511SOL     ow10041   3.934   3.188   1.450 -0.3231  0.7376  0.1485
 2511SOL     hw10042   3.977   3.269   1.425 -1.1972  0.7195 -1.5786
 2511SOL     hw10043   3.855   3.185   1.396  0.0720 -1.6068 -0.4146
 2511SOL     vw10044   3.929   3.198   1.439 -0.3864  0.4259 -0.1537
 2512SOL     ow10045   6.152   3.567   0.361 -0.5992 -0.2906  0.6970
 2512SOL     hw10046   6.210   3.492   0.375 -1.9335 -1.8109 -1.3053
 2512SOL     hw10047   6.075   3.547   0.414  0.0514  1.0493  2.2563
 2512SOL     vw10048   6.149   3.555   0.370 -0.6893 -0.3142  0.6386
 2513SOL     ow10049   2.556   6.454   2.044 -0.0176 -0.1979  0.2264
 2513SOL     hw10050   2.468   6.418   2.042  0.5034 -1.8900  2.8991
 2513SOL     hw10051   2.609   6.393   1.992 -0.0599 -0.3640  0.3783
 2513SOL     vw10052   2.552   6.441   2.037  0.0455 -0.4432  0.5991
 2514SOL     ow10053   5.552   6.415   5.142  0.1750  0.2791  0.6683
 2514SOL     hw10054   5.576   6.434   5.052  1.8204  0.2723  1.0628
 2514SOL     hw10055   5.597   6.333   5.162 -2.2221 -1.0991  0.7448
 2514SOL     vw10056   5.561   6.407   5.133  0.0758  0.0966  0.7305
 2515SOL     ow10057   4.317   5.899   1.864  0.8133 -0.3048  0.7867
 2515SOL     hw10058   4.318   5.804   1.873  0.7254 -0.4066 -0.2354
 2515SOL     hw10059   4.355   5.915   1.778  1.9341  0.6471  1.4294
 2515SOL     vw10060   4.322   5.888   1.854  0.9496 -0.1926  0.7367
 2516SOL     ow10061   2.212   4.349   7.234  0.0242 -0.3588  0.5391
 2516SOL     hw10062   2.197   4.426   7.179  1.6277 -0.5970 -0.2867
 2516SOL     hw10063   2.289   4.371   7.285  0.3526 -1.3212  0.4793
 2516SOL     vw10064   2.220   4.362   7.233  0.2791 -0.5171  0.4222
 2517SOL     ow10065   6.740   4.331   3.601 -0.2932 -0.0915  0.2374
 2517SOL     hw10066   6.791   4.386   3.661  2.0583 -0.6685 -1.1147
 2517SOL     hw10067   6.705   4.392   3.537 -1.9454  0.3948  1.5349
 2517SOL     vw10068   6.742   4.346   3.601 -0.2010 -0.1032  0.2301
 2518SOL     ow10069   1.819   0.929   2.220 -0.5131  0.1804 -0.5251
 2518SOL     hw10070   1.847   0.954   2.308 -0.2007  1.7874 -1.0414
 2518SOL     hw10071   1.800   0.836   2.227 -2.8535  0.7033  1.8594
 2518SOL     vw10072   1.820   0.920   2.233 -0.7808  0.4614 -0.2786
 2519SOL     ow10073   7.225   1.695   5.957  0.2655  0.6007 -0.2855
 2519SOL     hw10074   7.268   1.774   5.925 -0.5192 -0.0789 -3.4113
 2519SOL     hw10075   7.248   1.628   5.893  0.9255 -1.7915  2.2658
 2519SOL     vw10076   7.233   1.696   5.944  0.2489  0.1954 -0.3614
 2520SOL     ow10077   0.404   3.579   6.575 -0.0118  0.2606 -0.0613
 2520SOL     hw10078   0.484   3.529   6.561 -1.1225 -1.3195 -1.0714
 2520SOL     hw10079   0.372   3.600   6.488 -3.1599 -3.3450 -0.0371
 2520SOL     vw10080   0.410   3.575   6.562 -0.5737 -0.4236 -0.1915
 2521SOL     ow10081   1.421   4.928   4.951  0.3893 -0.4611  0.0055
 2521SOL     hw10082   1.362   4.859   4.984 -0.5858  1.0578  1.6024
 2521SOL     hw10083   1.390   5.008   4.994  1.8987  0.8782 -1.2971
 2521SOL     vw10084   1.409   4.929   4.961  0.4598 -0.0842  0.0443
 2522SOL     ow10085   1.461   3.183   6.809  0.0924 -0.2256  0.2747
 2522SOL     hw10086   1.499   3.203   6.895  1.2257 -1.7467  0.1563
 2522SOL     hw10087   1.524   3.218   6.746  1.0174 -2.1397  0.0820
 2522SOL     vw10088   1.474   3.191   6.812  0.3640 -0.6788  0.2337
 2523SOL     ow10089   4.997   7.011   6.662  0.0658  0.0885  0.1727
 2523SOL     hw10090   4.970   7.088   6.712 -1.1386 -1.5113  2.1892
 2523SOL     hw10091   5.079   7.036   6.620 -0.4100  2.5119  0.5618
 2523SOL     vw10092   5.004   7.025   6.663 -0.1554  0.1974  0.4900
 2524SOL     ow10093   0.959   4.284   2.890  0.0018 -0.0379 -0.4678
 2524SOL     hw10094   1.020   4.221   2.927 -1.8658 -1.2243  0.7697
 2524SOL     hw10095   0.918   4.326   2.965 -2.5081 -1.1219 -1.1225
 2524SOL     vw10096   0.962   4.281   2.905 -0.5758 -0.3376 -0.3909
 2525SOL     ow10097   5.587   0.205   4.429 -0.2930  0.4882 -0.9510
 2525SOL     hw10098   5.541   0.122   4.439  1.1595 -0.0957  3.5297
 2525SOL     hw10099   5.522   0.272   4.450 -0.1397 -0.0715  1.6072
 2525SOL     vw10100   5.572   0.203   4.433 -0.0813  0.3373 -0.0222
 2526SOL     ow10101   1.362   6.857   7.075  0.1428 -0.3504 -0.1588
 2526SOL     hw10102   1.316   6.781   7.114  0.2042  0.1964  1.0340
 2526SOL     hw10103   1.453   6.828   7.068 -0.0350 -0.7841 -0.7878
 2526SOL     vw10104   1.368   6.843   7.079  0.1274 -0.3355 -0.0846
 2527SOL     ow10105   3.874   5.105   2.584 -0.3525 -0.4180 -0.0537
 2527SOL     hw10106   3.861   5.073   2.673  1.8584  1.6728  1.1389
 2527SOL     hw10107   3.913   5.031   2.537 -1.3781 -1.4888  0.7168
 2527SOL     vw10108   3.877   5.091   2.589 -0.1962 -0.2837  0.2053
 2528SOL     ow10109   5.545   5.994   2.820 -0.2674  0.5067  0.9666
 2528SOL     hw10110   5.608   6.066   2.814 -2.7591  2.8444  0.9199
 2528SOL     hw10111   5.537   5.977   2.914  0.3925  0.2361  0.9752
 2528SOL     vw10112   5.552   6.001   2.832 -0.5090  0.7796  0.9615
 2529SOL     ow10113   7.130   3.355   0.794 -0.8408 -0.7229  0.7762
 2529SOL     hw10114   7.163   3.400   0.716 -1.1360 -0.0976  1.0042
 2529SOL     hw10115   7.036   3.373   0.794 -0.6476  0.4810  2.0203
 2529SOL     vw10116   7.122   3.363   0.784 -0.8543 -0.4814  0.9704
 2530SOL     ow10117   7.213   4.228   6.314 -0.3790 -0.7712 -0.0358
 2530SOL     hw10118   7.230   4.199   6.225  0.8387  1.3432 -0.5558
 2530SOL     hw10119   7.234   4.321   6.314 -3.0202 -0.0660  1.7858
 2530SOL     vw10120   7.218   4.236   6.303 -0.5665 -0.3989  0.1361
 2531SOL     ow10121   0.709   6.562   6.146  0.3480 -0.2874 -0.3358
 2531SOL     hw10122   0.759   6.485   6.119 -0.4260 -1.2185  0.7824
 2531SOL     hw10123   0.621   6.547   6.110  0.4566  0.5803 -0.9839
 2531SOL     vw10124   0.704   6.550   6.138  0.2601 -0.2956 -0.2737
 2532SOL     ow10125   2.606   2.901   1.002  0.0789  0.4582 -0.3164
 2532SOL     hw10126   2.580   2.825   0.950 -1.9794 -1.0489  2.6140
 2532SOL     hw10127   2.524   2.939   1.032  1.1504  1.8775  0.9760
 2532SOL     vw10128   2.592   2.896   0.999 -0.0513  0.4468  0.2408
 2533SOL     ow10129   6.705   4.261   0.680 -0.1037  0.1809  0.3371
 2533SOL     hw10130   6.647   4.251   0.604 -0.2850  1.3105  0.3053
 2533SOL     hw10131   6.789   4.287   0.643 -0.2396  0.9041  0.5217
 2533SOL     vw10132   6.708   4.264   0.665 -0.1454  0.4251  0.3573
 2534SOL     ow10133   4.752   6.690   6.898 -0.1650 -0.7217  0.3014
 2534SOL     hw10134   4.751   6.603   6.859  1.4037 -1.6067  2.1109
 2534SOL     hw10135   4.761   6.675   6.992 -1.5231  1.3778  0.8443
 2534SOL     vw10136   4.753   6.677   6.905 -0.1371 -0.5612  0.6120
 2535SOL     ow10137   2.884   1.997   0.045 -0.8600 -0.9638 -0.1340
 2535SOL     hw10138   2.918   2.087   0.044  0.5545 -1.4387  0.7385
 2535SOL     hw10139   2.827   1.991  -0.031  0.2875  0.2143 -1.1399
 2535SOL     vw10140   2.881   2.008   0.035 -0.5219 -0.8711 -0.1516
 2536SOL     ow10141   0.369   7.189   1.073 -0.0039 -0.0016 -0.3915
 2536SOL     hw10142   0.344   7.268   1.120 -0.9868 -0.1501 -0.6459
 2536SOL     hw10143   0.418   7.137   1.137  0.2771  0.6165 -0.0965
 2536SOL     vw10144   0.373   7.193   1.087 -0.0965  0.0601 -0.3861
 2537SOL     ow10145   1.079   0.809   4.677 -0.0864  0.5567  0.0329
 2537SOL     hw10146   1.046   0.884   4.627 -1.8739 -1.9840 -2.9928
 2537SOL     hw10147   1.010   0.790   4.740  0.7589  1.8377  1.4312
 2537SOL     vw10148   1.066   0.816   4.678 -0.2108  0.3905 -0.1817
 2538SOL     ow10149   0.721   4.769   4.729  0.5614  0.0519  0.2673
 2538SOL     hw10150   0.729   4.703   4.799 -1.2518  0.0002  0.4778
 2538SOL     hw10151   0.640   4.816   4.751  0.1464  0.2706 -1.5996
 2538SOL     vw10152   0.711   4.766   4.741  0.2674  0.0739  0.0489
 2539SOL     ow10153   4.031   0.659   3.546  0.2831  0.5007 -0.3276
 2539SOL     hw10154   4.001   0.681   3.634  1.7554 -1.1338  0.6481
 2539SOL     hw10155   3.954   0.623   3.503 -0.5000  1.4721  0.2206
 2539SOL     vw10156   4.017   0.657   3.552  0.3741  0.4132 -0.1266
 2540SOL     ow10157   4.996   1.284   3.207  0.5490  0.0094  0.3027
 2540SOL     hw10158   4.961   1.197   3.226  1.4394 -0.6366 -0.9214
 2540SOL     hw10159   5.046   1.307   3.285 -2.2782  0.8651  2.0165
 2540SOL     vw10160   4.998   1.275   3.220  0.2935  0.0371  0.3673
 2541SOL     ow10161   2.283   3.306   0.427  0.2994 -0.1152  0.1420
 2541SOL     hw10162   2.294   3.388   0.380  0.1699 -0.4340 -0.4589
 2541SOL     hw10163   2.215   3.259   0.378  0.4246 -0.6097  0.4289
 2541SOL     vw10164   2.275   3.310   0.415  0.2986 -0.2226  0.1006
 2542SOL     ow10165   0.093   4.967   3.288 -0.2387 -0.0677  0.2260
 2542SOL     hw10166   0.025   4.900   3.295  0.5906 -0.8372  1.1270
 2542SOL     hw10167   0.112   4.992   3.379  0.0429  0.8046 -0.0600
 2542SOL     vw10168   0.087   4.962   3.301 -0.0921 -0.0541  0.3072
 2543SOL     ow10169   5.925   0.506   2.953 -1.2379  0.6055  0.4352
 2543SOL     hw10170   5.958   0.550   2.875  0.8498  0.0449  0.9345
 2543SOL     hw10171   5.889   0.424   2.921  2.6861 -1.2689  0.2077
 2543SOL     vw10172   5.925   0.501   2.939 -0.4447  0.2843  0.4709
 2544SOL     ow10173   2.309   2.415   6.135  0.4604 -0.0537 -0.1572
 2544SOL     hw10174   2.225   2.458   6.119  0.3149 -0.8138 -1.6540
 2544SOL     hw10175   2.358   2.428   6.053  1.5346 -0.2237  0.4449
 2544SOL     vw10176   2.305   2.422   6.122  0.5829 -0.1764 -0.2754
 2545SOL     ow10177   4.371   3.243   5.433 -0.4749  0.0688  0.4171
 2545SOL     hw10178   4.279   3.215   5.426 -1.1699  2.5111 -1.6988
 2545SOL     hw10179   4.366   3.331   5.471  1.0513  0.0538  0.6951
 2545SOL     vw10180   4.358   3.251   5.437 -0.3653  0.3891  0.1745
 2546SOL     ow10181   3.642   3.315   4.639  0.2815 -0.2368 -0.1443
 2546SOL     hw10182   3.570   3.252   4.648 -0.7674  0.7334 -1.2853
 2546SOL     hw10183   3.598   3.398   4.623  1.6146 -0.0153 -3.4379
 2546SOL     vw10184   3.627   3.317   4.638  0.3190 -0.0796 -0.7293
 2547SOL     ow10185   5.521   0.263   3.234  0.0128  0.0965  0.4894
 2547SOL     hw10186   5.567   0.211   3.168  0.1691  0.2231  0.4968
 2547SOL     hw10187   5.430   0.263   3.205  0.2144  0.8226 -0.1702
 2547SOL     vw10188   5.515   0.256   3.221  0.0596  0.2090  0.4034
 2548SOL     ow10189   1.901   7.089   3.061 -0.5952 -0.0518  0.4052
 2548SOL     hw10190   1.852   7.018   3.022 -0.7407 -0.8636  1.9586
 2548SOL     hw10191   1.853   7.168   3.038 -0.8768 -0.5261 -0.6816
 2548SOL     vw10192   1.889   7.090   3.053 -0.6515 -0.2220  0.4668
 2549SOL     ow10193   0.135   3.736   2.707  0.2747 -1.0933  0.0360
 2549SOL     hw10194   0.153   3.821   2.746  1.4949 -2.4454  2.6167
 2549SOL     hw10195   0.041   3.723   2.719  0.4917 -1.1357  1.9630
 2549SOL     vw10196   0.125   3.745   2.714  0.4643 -1.2774  0.6306
 2550SOL     ow10197   1.163   1.903   4.104 -0.2073 -0.1585  0.3389
 2550SOL     hw10198   1.245   1.865   4.135  1.2676  2.0104 -0.6804
 2550SOL     hw10199   1.161   1.991   4.143 -1.6655  0.1253 -0.3026
 2550SOL     vw10200   1.174   1.910   4.113 -0.2050  0.1651  0.1197
 2551SOL     ow10201   3.764   6.826   3.264  0.7619 -0.3312  0.0076
 2551SOL     hw10202   3.699   6.761   3.289 -0.3398  0.5523 -0.4813
 2551SOL     hw10203   3.748   6.844   3.172  0.2374  1.4689  0.3952
 2551SOL     vw10204   3.753   6.820   3.255  0.5475  0.0229 -0.0056
 2552SOL     ow10205   2.280   1.980   1.655  0.7649 -0.0673  0.8657
 2552SOL     hw10206   2.256   2.073   1.647  1.2840  0.0039 -0.0562
 2552SOL     hw10207   2.355   1.971   1.597  1.0115 -0.9687  1.3207
 2552SOL     vw10208   2.287   1.991   1.646  0.8658 -0.1769  0.8041
 2553SOL     ow10209   0.536   5.337   6.483  0.0041 -0.1711  0.1737
 2553SOL     hw10210   0.595   5.393   6.535 -0.9159  0.4779  0.5377
 2553SOL     hw10211   0.541   5.373   6.395  1.9414 -1.5694 -0.3469
 2553SOL     vw10212   0.545   5.349   6.478  0.1383 -0.2699  0.1533
 2554SOL     ow10213   3.109   0.498   2.052  0.4087 -0.2566 -0.0437
 2554SOL     hw10214   3.015   0.503   2.033  0.1190 -3.0474  0.2389
 2554SOL     hw10215   3.151   0.510   1.967 -0.3175 -0.8737 -0.5064
 2554SOL     vw10216   3.102   0.500   2.039  0.2747 -0.7062 -0.0675
 2555SOL     ow10217   2.446   5.862   0.752  0.1778  0.2939  0.0469
 2555SOL     hw10218   2.395   5.840   0.830 -0.1826  2.1436  0.3709
 2555SOL     hw10219   2.507   5.929   0.782  0.7654  0.2536 -1.0312
 2555SOL     vw10220   2.447   5.868   0.766  0.2078  0.5324 -0.0526
 2556SOL     ow10221   4.826   1.555   0.191  0.5121  1.2735  0.5755
 2556SOL     hw10222   4.850   1.521   0.277  1.0967  2.3470  0.8619
 2556SOL     hw10223   4.852   1.647   0.194  1.7768  1.0385 -1.2010
 2556SOL     vw10224   4.833   1.563   0.203  0.7563  1.3840  0.3789
 2557SOL     ow10225   3.524   0.996   1.761 -0.0069  0.7444  0.4644
 2557SOL     hw10226   3.527   1.030   1.850  1.2242  1.1736  0.2725
 2557SOL     hw10227   3.484   0.909   1.770  3.1978 -0.7506  1.9819
 2557SOL     vw10228   3.519   0.989   1.774  0.5783  0.6038  0.6393
 2558SOL     ow10229   4.233   0.475   5.139  0.2449  0.0861 -0.2342
 2558SOL     hw10230   4.327   0.469   5.154  0.0522 -3.5307  0.5266
 2558SOL     hw10231   4.224   0.469   5.043  0.8216 -2.6247 -0.2114
 2558SOL     vw10232   4.244   0.473   5.128  0.2954 -0.7487 -0.1307
 2559SOL     ow10233   3.386   2.780   1.948  0.3685 -0.0345  0.2978
 2559SOL     hw10234   3.423   2.809   2.031  1.1226 -1.0963  0.3533
 2559SOL     hw10235   3.425   2.838   1.882  3.0057 -1.7238  0.2272
 2559SOL     vw10236   3.396   2.792   1.950  0.8159 -0.3973  0.2958
 2560SOL     ow10237   6.625   7.090   6.171 -0.2249  0.1521  0.2011
 2560SOL     hw10238   6.703   7.110   6.222  0.2124  1.9540 -1.1164
 2560SOL     hw10239   6.591   7.175   6.143 -1.8628 -0.6658 -0.4248
 2560SOL     vw10240   6.631   7.103   6.174 -0.3831  0.2818 -0.0551
 2561SOL     ow10241   5.656   1.760   0.690  0.1322  0.2980 -0.1901
 2561SOL     hw10242   5.626   1.681   0.734 -1.0588  0.4709 -0.6647
 2561SOL     hw10243   5.694   1.814   0.760 -1.7235  0.5696  0.6593
 2561SOL     vw10244   5.657   1.757   0.705 -0.2697  0.3566 -0.1407
 2562SOL     ow10245   1.076   6.574   1.775  0.5272  0.2019 -1.0841
 2562SOL     hw10246   1.030   6.606   1.852 -0.4545 -0.9221 -1.1720
 2562SOL     hw10247   1.160   6.542   1.809  0.1011 -0.2943 -0.4807
 2562SOL     vw10248   1.081   6.574   1.790  0.3415 -0.0119 -1.0162
 2563SOL     ow10249   6.009   5.049   5.883  0.3217 -0.5745 -0.3907
 2563SOL     hw10250   5.986   4.985   5.951  1.2398  0.6271  1.1155
 2563SOL     hw10251   6.074   5.106   5.925 -0.1299  1.0714 -1.8310
 2563SOL     vw10252   6.015   5.048   5.898  0.3831 -0.1986 -0.3817
 2564SOL     ow10253   1.181   4.098   1.695 -0.1784 -0.0968 -0.1803
 2564SOL     hw10254   1.172   4.062   1.607 -1.0191  0.9690 -0.5515
 2564SOL     hw10255   1.190   4.021   1.751 -0.3066 -0.8184 -1.1193
 2564SOL     vw10256   1.181   4.083   1.691 -0.3062 -0.0513 -0.3532
 2565SOL     ow10257   6.194   2.571   5.041 -0.5370  0.2451 -0.1254
 2565SOL     hw10258   6.213   2.665   5.036 -1.2125  0.3438 -1.3757
 2565SOL     hw10259   6.206   2.540   4.951  0.3803 -1.0275  0.4014
 2565SOL     vw10260   6.198   2.579   5.028 -0.5052  0.0901 -0.2210
 2566SOL     ow10261   5.645   1.406   2.736 -0.2220  0.0846  0.0513
 2566SOL     hw10262   5.550   1.403   2.737 -0.2714  1.2687  0.5513
 2566SOL     hw10263   5.669   1.435   2.825  0.5779  0.2836 -0.2177
 2566SOL     vw10264   5.636   1.409   2.748 -0.1230  0.2671  0.0817
 2567SOL     ow10265   1.158   0.327   5.269  0.5077 -0.3614 -0.4083
 2567SOL     hw10266   1.075   0.289   5.242  0.5161 -2.4570  2.1410
 2567SOL     hw10267   1.224   0.285   5.213  0.0968 -0.5334 -0.7662
 2567SOL     vw10268   1.156   0.317   5.258  0.4546 -0.6606 -0.1190
 2568SOL     ow10269   7.140   5.065   0.873  0.0279 -0.5708  0.5073
 2568SOL     hw10270   7.069   5.032   0.928 -2.1210  1.8205 -0.6219
 2568SOL     hw10271   7.098   5.090   0.791  2.5499 -0.8213 -0.9772
 2568SOL     vw10272   7.125   5.064   0.869  0.0772 -0.2878  0.1624
 2569SOL     ow10273   2.179   4.650   2.540 -0.2323 -0.4868  0.3706
 2569SOL     hw10274   2.169   4.743   2.561 -0.3572 -0.8477  2.0508
 2569SOL     hw10275   2.262   4.625   2.580 -1.5266 -1.7236  2.4824
 2569SOL     vw10276   2.189   4.659   2.548 -0.4196 -0.6974  0.8707
 2570SOL     ow10277   0.998   0.110   0.158  0.3513  0.0629 -0.0944
 2570SOL     hw10278   0.931   0.041   0.158 -0.0869  0.4736 -0.9258
 2570SOL     hw10279   1.072   0.071   0.111 -0.9085  1.0478 -3.1361
 2570SOL     vw10280   0.999   0.096   0.152  0.1273  0.2471 -0.6054
 2571SOL     ow10281   1.147   6.429   3.175 -0.3936  0.3578 -0.1140
 2571SOL     hw10282   1.071   6.464   3.222 -1.1179 -1.6549  0.3252
 2571SOL     hw10283   1.133   6.335   3.174  2.6040 -0.2122  0.8517
 2571SOL     vw10284   1.135   6.421   3.181 -0.0937  0.0169  0.0714
 2572SOL     ow10285   3.259   4.717   1.744 -0.5683 -0.7973  0.1039
 2572SOL     hw10286   3.216   4.657   1.804 -1.6580  0.1038  0.2617
 2572SOL     hw10287   3.257   4.672   1.659 -2.8131 -0.3653 -0.1250
 2572SOL     vw10288   3.253   4.703   1.741 -1.0083 -0.6213  0.0945
 2573SOL     ow10289   3.786   5.340   4.155 -0.4451  0.7014  0.2077
 2573SOL     hw10290   3.729   5.326   4.079  0.2709 -0.7949 -0.0822
 2573SOL     hw10291   3.808   5.252   4.186  2.6280  1.1183 -0.4032
 2573SOL     vw10292   3.782   5.326   4.149  0.0550  0.5586  0.0889
 2574SOL     ow10293   6.220   4.910   4.063  0.1561 -0.3624 -0.0375
 2574SOL     hw10294   6.205   4.842   3.998 -0.9336  0.1438 -0.3495
 2574SOL     hw10295   6.156   4.892   4.132  0.2553  0.0038  0.1556
 2574SOL     vw10296   6.209   4.899   4.064  0.0255 -0.2472 -0.0532
 2575SOL     ow10297   6.316   5.421   6.654  0.5157  0.3802 -0.2146
 2575SOL     hw10298   6.235   5.376   6.678  0.6308 -0.3829 -1.1811
 2575SOL     hw10299   6.372   5.412   6.732  0.2666 -0.5388 -0.1305
 2575SOL     vw10300   6.313   5.414   6.667  0.4978  0.1583 -0.3312
 2576SOL     ow10301   6.425   4.634   7.165  0.1780  0.6618  0.2387
 2576SOL     hw10302   6.396   4.631   7.256  1.5052  0.8485  0.6856
 2576SOL     hw10303   6.440   4.542   7.141 -1.1273  0.5158 -0.1470
 2576SOL     vw10304   6.423   4.621   7.174  0.1812  0.6671  0.2468
 2577SOL     ow10305   3.617   2.812   0.106  0.1029  0.5295  0.0894
 2577SOL     hw10306   3.602   2.899   0.143 -2.4354 -0.1573  0.8997
 2577SOL     hw10307   3.569   2.812   0.024 -0.6051 -0.3535  0.4921
 2577SOL     vw10308   3.609   2.823   0.100 -0.3254  0.3226  0.2494
 2578SOL     ow10309   0.585   7.124   4.265 -0.6876 -0.1948  0.0613
 2578SOL     hw10310   0.627   7.043   4.294 -0.2879 -0.7583 -1.9635
 2578SOL     hw10311   0.521   7.096   4.200 -0.3181  1.1397 -0.9133
 2578SOL     vw10312   0.582   7.110   4.260 -0.5861 -0.0930 -0.3343
 2579SOL     ow10313   2.143   5.679   4.051  0.6471  0.6007  0.3146
 2579SOL     hw10314   2.176   5.712   3.967  0.4458  0.8426  0.3295
 2579SOL     hw10315   2.196   5.602   4.069 -0.8072 -0.8501 -1.1807
 2579SOL     vw10316   2.154   5.673   4.042  0.4288  0.4411  0.1190
 2580SOL     ow10317   0.257   5.880   2.751 -0.1874  0.2328 -0.2873
 2580SOL     hw10318   0.299   5.958   2.786  1.5191  0.6217 -2.9294
 2580SOL     hw10319   0.166   5.887   2.779  0.7000  1.2031  2.6600
 2580SOL     vw10320   0.251   5.891   2.759  0.1549  0.4122 -0.2470
 2581SOL     ow10321   1.083   3.214   5.100  0.1995  0.3389 -0.7082
 2581SOL     hw10322   1.032   3.241   5.176 -0.0781 -2.4248  0.2038
 2581SOL     hw10323   1.063   3.279   5.033 -2.7903  0.6037  0.3154
 2581SOL     vw10324   1.074   3.226   5.101 -0.2316  0.0092 -0.4528
 2582SOL     ow10325   1.869   3.906   4.914 -0.3990 -0.2841  0.3638
 2582SOL     hw10326   1.874   4.000   4.898 -2.3641 -0.3320 -0.8883
 2582SOL     hw10327   1.953   3.872   4.881  0.4280  1.0056  1.0223
 2582SOL     vw10328   1.881   3.914   4.908 -0.5492 -0.1204  0.2854
 2583SOL     ow10329   3.903   1.422   4.685  0.1158  0.1033  0.2012
 2583SOL     hw10330   3.971   1.460   4.740  0.4822 -1.3372  0.7773
 2583SOL     hw10331   3.826   1.478   4.700  0.7906  0.9682  0.5432
 2583SOL     vw10332   3.902   1.435   4.694  0.2532  0.0274  0.3221
 2584SOL     ow10333   3.052   4.200   4.836 -0.1180  0.4365  0.4063
 2584SOL     hw10334   3.010   4.202   4.921 -0.9189 -1.9336  0.1291
 2584SOL     hw10335   2.981   4.217   4.774 -0.4033 -1.8190  0.0380
 2584SOL     vw10336   3.037   4.203   4.839 -0.2614 -0.1738  0.3211
 2585SOL     ow10337   0.399   4.103   0.641 -0.5621 -0.3363 -0.3436
 2585SOL     hw10338   0.477   4.120   0.588 -0.7508  2.1560  0.0658
 2585SOL     hw10339   0.412   4.155   0.721 -1.9664 -1.0775  0.4050
 2585SOL     vw10340   0.411   4.112   0.645 -0.7723 -0.1051 -0.1908
 2586SOL     ow10341   1.943   5.092   1.654 -0.2870  0.5210  0.2765
 2586SOL     hw10342   1.965   5.007   1.615 -2.2379 -0.1299  0.4539
 2586SOL     hw10343   1.915   5.071   1.743 -1.9602  1.1466 -0.0525
 2586SOL     vw10344   1.942   5.078   1.661 -0.7651  0.5178  0.2565
 2587SOL     ow10345   6.130   5.584   6.769 -0.4506 -0.7116  0.2178
 2587SOL     hw10346   6.175   5.617   6.848 -0.1817 -2.4666  0.8509
 2587SOL     hw10347   6.200   5.544   6.717 -0.5227  1.0103 -1.2731
 2587SOL     vw10348   6.145   5.583   6.773 -0.4246 -0.7160  0.1044
 2588SOL     ow10349   0.126   1.753   2.960  0.2057  0.4714 -0.0065
 2588SOL     hw10350   0.200   1.739   2.900 -0.7076 -0.8587 -0.8802
 2588SOL     hw10351   0.129   1.847   2.980  3.3273  0.1584  1.6368
 2588SOL     vw10352   0.136   1.764   2.954  0.4970  0.2546  0.0951
 2589SOL     ow10353   1.169   1.205   0.929 -0.0023  0.6052  0.3416
 2589SOL     hw10354   1.190   1.118   0.897 -1.1713 -0.0735  1.3311
 2589SOL     hw10355   1.202   1.205   1.019 -0.8834  0.8232  0.6711
 2589SOL     vw10356   1.176   1.194   0.937 -0.2728  0.5444  0.5156
 2590SOL     ow10357   2.594   2.228   3.762 -0.3182 -0.0179  0.2787
 2590SOL     hw10358   2.663   2.164   3.780 -0.2953  0.1789  0.9240
 2590SOL     hw10359   2.603   2.248   3.669 -0.7367 -1.4194 -0.0809
 2590SOL     vw10360   2.604   2.223   3.752 -0.3704 -0.1769  0.3164
 2591SOL     ow10361   0.219   6.216   0.783 -0.4684  0.3691  0.2958
 2591SOL     hw10362   0.288   6.161   0.746 -0.4789  0.0541  0.7319
 2591SOL     hw10363   0.149   6.155   0.804 -1.3143  0.8196 -1.0991
 2591SOL     vw10364   0.219   6.200   0.781 -0.5814  0.3870  0.1692
 2592SOL     ow10365   3.386   5.008   4.415 -0.0086  0.7119  0.3759
 2592SOL     hw10366   3.320   5.075   4.395 -0.3279  0.0108 -1.0897
 2592SOL     hw10367   3.381   4.997   4.510 -1.6893  1.0207  0.3632
 2592SOL     vw10368   3.376   5.015   4.425 -0.2724  0.6599  0.1807
 2593SOL     ow10369   5.341   7.040   0.648  0.7815 -0.6258 -0.3803
 2593SOL     hw10370   5.262   7.090   0.625  1.9519  1.4580 -0.0946
 2593SOL     hw10371   5.389   7.034   0.565  0.5877 -1.4459 -0.4415
 2593SOL     vw10372   5.337   7.046   0.634  0.9103 -0.4592 -0.3506
 2594SOL     ow10373   6.145   0.005   4.614  0.0884 -0.7148  0.1692
 2594SOL     hw10374   6.180  -0.019   4.528 -1.2102  0.2455 -0.6612
 2594SOL     hw10375   6.219   0.046   4.659  0.7260 -1.0338 -0.5570
 2594SOL     vw10376   6.160   0.007   4.609  0.0010 -0.6301 -0.0360
 2595SOL     ow10377   0.893   0.176   4.258 -0.3677 -0.0302 -0.5171
 2595SOL     hw10378   0.836   0.159   4.183 -0.8120 -0.0902 -0.1708
 2595SOL     hw10379   0.925   0.265   4.245 -0.6617  0.0577 -0.6323
 2595SOL     vw10380   0.890   0.185   4.247 -0.4651 -0.0265 -0.4866
 2596SOL     ow10381   6.179   4.880   5.757  0.0518 -0.2204  0.0550
 2596SOL     hw10382   6.246   4.941   5.789  0.6646 -1.7566  1.8520
 2596SOL     hw10383   6.097   4.915   5.792  0.3851 -0.3110  0.9659
 2596SOL     vw10384   6.177   4.893   5.766  0.1764 -0.4349  0.4122
 2597SOL     ow10385   0.146   3.995   6.946  0.2184  0.5165 -0.1334
 2597SOL     hw10386   0.110   4.017   7.032  1.2412 -1.4743  0.8739
 2597SOL     hw10387   0.240   3.984   6.960  0.2876 -0.7385 -1.2827
 2597SOL     vw10388   0.153   3.996   6.959  0.3625  0.0883 -0.1521
 2598SOL     ow10389   5.590   2.448   5.696 -0.1512 -0.1093  0.3958
 2598SOL     hw10390   5.615   2.379   5.635 -1.3546 -2.5634  2.4855
 2598SOL     hw10391   5.673   2.490   5.720  0.4851 -0.0112 -1.7803
 2598SOL     vw10392   5.605   2.445   5.691 -0.2260 -0.4201  0.3843
 2599SOL     ow10393   5.247   4.230   2.338 -0.0099  0.7854 -0.2707
 2599SOL     hw10394   5.300   4.152   2.317 -1.2877 -0.5546  1.1847
 2599SOL     hw10395   5.200   4.249   2.257  0.3013  0.0254 -0.6453
 2599SOL     vw10396   5.248   4.222   2.325 -0.1371  0.5085 -0.1280
 2600SOL     ow10397   0.001   1.601   3.559  0.4764 -0.2028  0.2695
 2600SOL     hw10398   0.072   1.645   3.606 -0.0224  1.1926 -0.2015
 2600SOL     hw10399   0.045   1.557   3.486  1.1579 -1.7525  1.5473
 2600SOL     vw10400   0.016   1.601   3.555  0.5005 -0.2231  0.3759
 2601SOL     ow10401   1.722   3.840   5.290  0.1320 -0.6118  0.2614
 2601SOL     hw10402   1.703   3.852   5.197  0.0513  0.1005  0.3607
 2601SOL     hw10403   1.746   3.748   5.298  1.5059 -0.3734 -0.7110
 2601SOL     vw10404   1.723   3.830   5.279  0.3026 -0.4864  0.1462
 2602SOL     ow10405   4.343   5.101   0.894  0.1130 -0.0427 -0.1356
 2602SOL     hw10406   4.248   5.104   0.889 -0.1220 -3.4273 -0.1724
 2602SOL     hw10407   4.371   5.080   0.805  0.8607  0.3953 -0.0118
 2602SOL     vw10408   4.335   5.098   0.882  0.1805 -0.4315 -0.1241
 2603SOL     ow10409   4.730   0.873   5.957  0.7172  0.3925 -0.1496
 2603SOL     hw10410   4.708   0.798   5.902  1.2742  0.6415 -0.7196
 2603SOL     hw10411   4.749   0.943   5.895  0.0918  1.0457  0.3749
 2603SOL     vw10412   4.729   0.873   5.942  0.7081  0.5115 -0.1557
 2604SOL     ow10413   3.623   0.177   3.402 -0.0057  0.3052 -0.1908
 2604SOL     hw10414   3.650   0.085   3.407 -1.7522 -0.6254 -4.1174
 2604SOL     hw10415   3.528   0.173   3.393 -0.0773  2.4632 -0.9345
 2604SOL     vw10416   3.614   0.164   3.402 -0.2456  0.4671 -0.8069
 2605SOL     ow10417   4.530   1.188   2.620  0.2323 -0.4940  0.4415
 2605SOL     hw10418   4.487   1.218   2.701  1.4153  2.0742  0.2117
 2605SOL     hw10419   4.593   1.122   2.649 -0.1251 -0.4055  1.4528
 2605SOL     vw10420   4.533   1.183   2.635  0.3412 -0.1435  0.5445
 2606SOL     ow10421   2.694   5.909   0.417  0.2775 -0.3337 -1.2637
 2606SOL     hw10422   2.721   5.822   0.446  2.1199  0.6603  0.2750
 2606SOL     hw10423   2.661   5.896   0.328  1.6956 -2.4261 -1.5589
 2606SOL     vw10424   2.693   5.896   0.409  0.7075 -0.4787 -1.0996
 2607SOL     ow10425   0.749   5.165   6.416 -0.1409  0.7870 -0.4044
 2607SOL     hw10426   0.661   5.158   6.455  0.9238 -3.7263  1.9657
 2607SOL     hw10427   0.737   5.138   6.325 -1.3209  1.4336 -0.4652
 2607SOL     vw10428   0.735   5.160   6.409 -0.1561  0.2763 -0.0997
 2608SOL     ow10429   5.585   1.308   1.924  0.3691 -0.2210 -0.3497
 2608SOL     hw10430   5.643   1.233   1.937  2.1852  0.8003 -1.9651
 2608SOL     hw10431   5.497   1.272   1.927  1.1930 -2.4128 -1.0599
 2608SOL     vw10432   5.581   1.294   1.926  0.7176 -0.3754 -0.6565
 2609SOL     ow10433   6.206   5.852   4.535  0.1075 -0.1807  0.5531
 2609SOL     hw10434   6.114   5.832   4.519  0.4451 -1.7540  0.3478
 2609SOL     hw10435   6.254   5.796   4.473  1.1866  1.2837  0.0218
 2609SOL     vw10436   6.200   5.842   4.525  0.2944 -0.1948  0.4559
 2610SOL     ow10437   3.808   0.882   2.550  0.2759 -0.3754 -0.0628
 2610SOL     hw10438   3.745   0.837   2.606  0.8003 -1.5092 -0.3542
 2610SOL     hw10439   3.830   0.962   2.598 -3.2381  1.3877 -1.0668
 2610SOL     vw10440   3.802   0.886   2.564 -0.1186 -0.2924 -0.2338
 2611SOL     ow10441   1.813   2.964   4.295 -0.1585  0.6950 -0.2491
 2611SOL     hw10442   1.872   2.967   4.220  2.7359  0.4034  1.8409
 2611SOL     hw10443   1.823   3.050   4.336 -1.7980  0.8936 -0.2090
 2611SOL     vw10444   1.822   2.976   4.290  0.0070  0.6828  0.0319
 2612SOL     ow10445   3.424   1.680   4.511  1.2704  0.6110 -0.4552
 2612SOL     hw10446   3.386   1.744   4.571 -1.9672 -1.4129 -0.1146
 2612SOL     hw10447   3.505   1.653   4.554  1.8294  3.0937  0.2352
 2612SOL     vw10448   3.430   1.685   4.525  0.9170  0.6714 -0.3192
 2613SOL     ow10449   5.108   0.139   4.107 -0.2142  0.9904 -0.1883
 2613SOL     hw10450   5.040   0.075   4.087 -0.1688  1.1870 -0.9877
 2613SOL     hw10451   5.115   0.138   4.203  0.0564 -0.4872 -0.2009
 2613SOL     vw10452   5.100   0.130   4.117 -0.1726  0.8214 -0.2954
 2614SOL     ow10453   1.042   7.128   2.599  0.4309 -0.3494 -0.7328
 2614SOL     hw10454   1.106   7.066   2.564 -1.0755 -0.8208 -2.8716
 2614SOL     hw10455   0.984   7.074   2.653 -0.0891 -0.5985 -1.5128
 2614SOL     vw10456   1.042   7.113   2.601  0.1636 -0.4444 -1.1181
 2615SOL     ow10457   4.660   6.241   6.358  0.3121 -0.0730  0.2571
 2615SOL     hw10458   4.623   6.245   6.446 -2.5073  1.2797 -0.8658
 2615SOL     hw10459   4.597   6.188   6.308 -0.2961  2.3297 -1.7625
 2615SOL     vw10460   4.646   6.234   6.363 -0.1402  0.4227 -0.1576
 2616SOL     ow10461   0.304   0.706   0.388  0.1108 -1.1404  0.4178
 2616SOL     hw10462   0.226   0.655   0.411 -0.0651 -0.9341  0.2869
 2616SOL     hw10463   0.340   0.733   0.472 -1.5380  1.1345  0.5111
 2616SOL     vw10464   0.298   0.703   0.402 -0.1300 -0.8130  0.4128
 2617SOL     ow10465   4.159   5.535   5.460  0.4227 -0.4435  0.2764
 2617SOL     hw10466   4.079   5.540   5.511  0.8297 -0.6212  0.9415
 2617SOL     hw10467   4.209   5.613   5.486 -0.0909  0.3829 -1.1072
 2617SOL     vw10468   4.155   5.546   5.470  0.4086 -0.3579  0.1817
 2618SOL     ow10469   6.361   1.749   2.727  0.5337 -0.1058  0.1758
 2618SOL     hw10470   6.270   1.745   2.696  0.2600 -0.3019  0.9842
 2618SOL     hw10471   6.412   1.711   2.656  0.2791  2.2140 -1.3522
 2618SOL     vw10472   6.355   1.743   2.713  0.4642  0.1744  0.0809
 2619SOL     ow10473   3.617   4.672   3.304  0.0526  0.2371  0.7792
 2619SOL     hw10474   3.677   4.598   3.295  0.8964  0.4669  3.4360
 2619SOL     hw10475   3.651   4.738   3.244  2.3479  0.2251  1.9574
 2619SOL     vw10476   3.630   4.671   3.295  0.4668  0.2656  1.2853
 2620SOL     ow10477   1.279   1.904   1.055  0.5215  0.2487  0.4605
 2620SOL     hw10478   1.368   1.901   1.019  0.4361 -2.9976  0.1562
 2620SOL     hw10479   1.224   1.927   0.980  0.9754  0.6796  0.2547
 2620SOL     vw10480   1.283   1.907   1.040  0.5701 -0.1227  0.3932
 2621SOL     ow10481   1.235   0.847   1.688 -0.2227  0.4161  0.2434
 2621SOL     hw10482   1.146   0.881   1.695 -1.4136 -2.4184  0.5827
 2621SOL     hw10483   1.235   0.794   1.608  0.0237 -2.3177  1.9118
 2621SOL     vw10484   1.223   0.844   1.679 -0.3473 -0.3185  0.5084
 2622SOL     ow10485   6.940   4.001   6.085  0.4566  0.2140 -0.1545
 2622SOL     hw10486   6.948   4.092   6.113  0.4030 -0.0603  0.8170
 2622SOL     hw10487   6.845   3.986   6.080  0.4608  0.0968  0.0976
 2622SOL     vw10488   6.928   4.011   6.088  0.4499  0.1626  0.0069
 2623SOL     ow10489   7.010   4.403   2.094 -0.0579  0.4555  0.0247
 2623SOL     hw10490   7.104   4.415   2.109  0.0648 -1.0309  0.6261
 2623SOL     hw10491   7.003   4.377   2.002  0.2217 -0.2545  0.1960
 2623SOL     vw10492   7.021   4.401   2.084 -0.0045  0.1657  0.1267
 2624SOL     ow10493   4.059   0.967   7.298 -0.4553  0.1945 -0.0237
 2624SOL     hw10494   4.102   1.052   7.285  0.2045 -0.2189 -0.5459
 2624SOL     hw10495   4.025   0.972   7.388  3.4722 -0.6462  1.7117
 2624SOL     vw10496   4.060   0.979   7.308  0.1497  0.0290  0.1364
 2625SOL     ow10497   5.307   0.296   4.067 -0.4922  0.3870  0.3743
 2625SOL     hw10498   5.268   0.363   4.122 -1.8246  0.6715 -0.8489
 2625SOL     hw10499   5.245   0.224   4.068  1.2207 -1.1696  2.1932
 2625SOL     vw10500   5.294   0.296   4.074 -0.4423  0.2192  0.4528
 2626SOL     ow10501   1.313   0.923   4.820 -0.5262 -0.5308 -0.0931
 2626SOL     hw10502   1.265   1.005   4.830 -2.5534 -1.8516  1.9191
 2626SOL     hw10503   1.402   0.943   4.848 -0.5122  1.3605 -1.3515
 2626SOL     vw10504   1.318   0.936   4.825 -0.7917 -0.4556  0.0064
 2627SOL     ow10505   2.421   6.532   2.382  0.1788 -0.4549 -0.4557
 2627SOL     hw10506   2.391   6.532   2.473 -0.0572 -0.5582 -0.5326
 2627SOL     hw10507   2.341   6.536   2.330  0.3330  0.2386 -0.6555
 2627SOL     vw10508   2.407   6.532   2.387  0.1682 -0.3772 -0.4922
 2628SOL     ow10509   1.934   1.191   1.728  0.9524 -1.4459  0.4329
 2628SOL     hw10510   1.915   1.143   1.647 -0.9678  2.1269 -1.5031
 2628SOL     hw10511   1.848   1.218   1.760  1.8913  1.0404  1.0813
 2628SOL     vw10512   1.920   1.188   1.721  0.8228 -0.6465  0.2630
 2629SOL     ow10513   4.768   7.158   3.772  1.0382 -0.5847 -0.9594
 2629SOL     hw10514   4.784   7.245   3.809 -2.6697 -0.5158  1.0273
 2629SOL     hw10515   4.711   7.174   3.697 -0.9992 -1.2503  0.3639
 2629SOL     vw10516   4.763   7.171   3.767  0.2801 -0.6635 -0.5225
 2630SOL     ow10517   3.706   0.816   0.723 -0.3227 -0.1759 -0.7529
 2630SOL     hw10518   3.776   0.867   0.763  0.2440 -1.4083 -0.1060
 2630SOL     hw10519   3.690   0.859   0.639 -0.9767  1.9847  0.4040
 2630SOL     vw10520   3.714   0.828   0.717 -0.3343 -0.0535 -0.5149
 2631SOL     ow10521   0.723   1.536   5.897 -0.2083  0.3283 -0.1480
 2631SOL     hw10522   0.677   1.466   5.943 -1.6355  2.7369  2.3475
 2631SOL     hw10523   0.680   1.617   5.924  0.6478  2.2184 -3.7178
 2631SOL     vw10524   0.711   1.538   5.907 -0.2836  0.8954 -0.2897
 2632SOL     ow10525   4.670   0.205   1.976  0.4650  0.3339 -0.3048
 2632SOL     hw10526   4.720   0.180   1.899 -1.3639 -2.1386 -0.8354
 2632SOL     hw10527   4.582   0.224   1.942  0.1648  1.3665  0.9550
 2632SOL     vw10528   4.665   0.204   1.962  0.1841  0.1439 -0.2086
 2633SOL     ow10529   6.476   5.851   0.363  0.8312 -0.3390 -0.1335
 2633SOL     hw10530   6.486   5.800   0.282  0.4446  0.2071 -0.5363
 2633SOL     hw10531   6.545   5.820   0.420  0.5434 -1.3879 -0.3344
 2633SOL     vw10532   6.486   5.840   0.360  0.7420 -0.4051 -0.2131
 2634SOL     ow10533   1.844   4.400   6.027 -0.0964 -0.6343  0.0973
 2634SOL     hw10534   1.764   4.376   5.980  0.1397 -2.1071  0.4026
 2634SOL     hw10535   1.861   4.490   6.000 -1.6359 -0.4231 -0.2746
 2634SOL     vw10536   1.836   4.409   6.017 -0.2684 -0.8006  0.0887
 2635SOL     ow10537   0.970   0.084   5.093  0.1963 -0.0555  0.4574
 2635SOL     hw10538   1.015   0.100   5.010 -1.4881  0.3406 -0.4104
 2635SOL     hw10539   0.923   0.001   5.080 -1.0482  0.6116  0.5620
 2635SOL     vw10540   0.970   0.075   5.080 -0.1901  0.0848  0.3567
 2636SOL     ow10541   4.066   1.007   2.434 -0.3317  0.2152 -0.3683
 2636SOL     hw10542   4.050   1.101   2.430 -1.6205 -0.0010 -1.4231
 2636SOL     hw10543   4.161   0.998   2.437 -0.2039  1.5446  0.1113
 2636SOL     vw10544   4.076   1.018   2.434 -0.4847  0.3621 -0.4441
 2637SOL     ow10545   4.999   4.055   1.257 -0.0847  0.4316 -0.2492
 2637SOL     hw10546   4.957   4.072   1.341 -1.1353 -0.6979 -0.5164
 2637SOL     hw10547   4.927   4.055   1.194  0.2246 -1.8255 -0.6798
 2637SOL     vw10548   4.984   4.057   1.260 -0.1826 -0.0150 -0.3412
 2638SOL     ow10549   5.702   2.731   3.780 -0.8454  0.0159 -0.4821
 2638SOL     hw10550   5.738   2.779   3.705 -0.8807  0.7190 -0.0558
 2638SOL     hw10551   5.609   2.755   3.781 -0.6645  0.6992  0.3057
 2638SOL     vw10552   5.694   2.740   3.770 -0.8261  0.1987 -0.3219
 2639SOL     ow10553   0.070   7.006   5.403 -0.2916 -0.3248 -0.4489
 2639SOL     hw10554   0.158   7.009   5.364 -0.8400  0.4567 -1.6762
 2639SOL     hw10555   0.075   7.065   5.478 -0.1281  0.7986 -1.3237
 2639SOL     vw10556   0.082   7.014   5.408 -0.3424 -0.0734 -0.7262
 2640SOL     ow10557   5.507   0.463   3.034  0.0984  0.0759 -0.5330
 2640SOL     hw10558   5.434   0.407   3.007  0.9966 -1.0121 -0.7594
 2640SOL     hw10559   5.479   0.551   3.011 -1.0556 -0.3424 -0.8099
 2640SOL     vw10560   5.493   0.467   3.028  0.0646 -0.1229 -0.5994
 2641SOL     ow10561   6.760   6.585   0.600  0.1649  0.3240 -0.1099
 2641SOL     hw10562   6.830   6.559   0.658  1.1374  1.4772 -0.7206
 2641SOL     hw10563   6.679   6.561   0.646  0.9268  0.3194  1.2508
 2641SOL     vw10564   6.758   6.578   0.613  0.3939  0.4756 -0.0109
 2642SOL     ow10565   2.731   4.937   5.503  0.4810 -0.0466  0.1181
 2642SOL     hw10566   2.720   4.980   5.588  0.6495  0.3374 -0.0511
 2642SOL     hw10567   2.729   4.843   5.523  0.0317  0.0397  0.4811
 2642SOL     vw10568   2.729   4.930   5.517  0.4441  0.0157  0.1438
 2643SOL     ow10569   3.791   2.463   4.603 -1.0333 -0.1871 -0.2101
 2643SOL     hw10570   3.874   2.417   4.589  0.8517  3.1710 -1.5146
 2643SOL     hw10571   3.779   2.463   4.698  1.4960  0.6825  0.1933
 2643SOL     vw10572   3.800   2.457   4.614 -0.4508  0.3709 -0.3293
 2644SOL     ow10573   1.064   1.974   7.085  0.3459  0.3420  0.7788
 2644SOL     hw10574   0.981   2.018   7.067 -0.3326 -1.4462 -0.8896
 2644SOL     hw10575   1.131   2.033   7.050 -0.6069 -0.3544 -2.5595
 2644SOL     vw10576   1.062   1.987   7.078  0.1307  0.0142  0.1183
 2645SOL     ow10577   5.173   4.256   6.592  0.2321  0.2449  0.8961
 2645SOL     hw10578   5.173   4.166   6.626 -0.0438 -0.8299 -1.7520
 2645SOL     hw10579   5.084   4.288   6.611 -0.9445 -1.4174 -1.2738
 2645SOL     vw10580   5.161   4.248   6.599  0.0405 -0.1161  0.2601
 2646SOL     ow10581   1.343   3.249   0.601 -0.5404  0.1105 -0.3589
 2646SOL     hw10582   1.362   3.329   0.649  1.2196 -0.1040 -0.6488
 2646SOL     hw10583   1.369   3.178   0.660 -3.2131 -0.3721  0.4010
 2646SOL     vw10584   1.349   3.250   0.615 -0.6607  0.0184 -0.2969
 2647SOL     ow10585   4.996   1.380   2.595 -0.7833  0.0495  0.8722
 2647SOL     hw10586   5.074   1.430   2.621  1.6801 -1.7204 -2.2314
 2647SOL     hw10587   5.014   1.291   2.624 -1.4238 -0.4575 -0.2060
 2647SOL     vw10588   5.009   1.375   2.602 -0.5431 -0.2509  0.3204
 2648SOL     ow10589   6.220   5.260   0.868 -0.2795 -0.0469 -0.6163
 2648SOL     hw10590   6.251   5.304   0.947 -1.5018  0.0866 -0.1994
 2648SOL     hw10591   6.156   5.321   0.830 -1.0193 -0.8826 -0.7378
 2648SOL     vw10592   6.216   5.274   0.873 -0.5381 -0.1392 -0.5773
 2649SOL     ow10593   5.346   5.024   6.391 -0.0050 -0.1854 -0.2361
 2649SOL     hw10594   5.262   5.010   6.435 -1.1903  0.2635 -2.2115
 2649SOL     hw10595   5.407   4.968   6.438 -1.6050 -1.2751  0.6608
 2649SOL     vw10596   5.343   5.015   6.403 -0.3726 -0.2699 -0.3786
 2650SOL     ow10597   1.339   6.745   0.828 -0.0952 -0.2111 -0.6614
 2650SOL     hw10598   1.297   6.733   0.913 -2.8768 -1.6033 -2.0931
 2650SOL     hw10599   1.302   6.827   0.794 -0.3068 -0.5382 -1.2291
 2650SOL     vw10600   1.329   6.754   0.835 -0.4901 -0.4380 -0.9252
 2651SOL     ow10601   6.452   5.152   0.793  0.0347 -0.1467 -0.0538
 2651SOL     hw10602   6.512   5.176   0.863  1.1616 -0.2323 -0.9660
 2651SOL     hw10603   6.367   5.188   0.820  0.8508  1.5143  0.4330
 2651SOL     vw10604   6.449   5.160   0.805  0.2909  0.0610 -0.1099
 2652SOL     ow10605   6.624   3.238   1.680 -0.3718 -0.1172  0.0295
 2652SOL     hw10606   6.672   3.157   1.658  0.2504  0.3022 -0.1868
 2652SOL     hw10607   6.533   3.210   1.690  0.1604 -1.2521  2.1844
 2652SOL     vw10608   6.618   3.223   1.678 -0.2196 -0.2116  0.2853
 2653SOL     ow10609   5.444   3.934   5.910 -0.0794  0.6349 -0.1706
 2653SOL     hw10610   5.410   4.023   5.910 -0.6202  0.5400 -3.7361
 2653SOL     hw10611   5.538   3.944   5.896  0.0363  0.6220  0.5264
 2653SOL     vw10612   5.452   3.947   5.908 -0.1354  0.6207 -0.5491
 2654SOL     ow10613   6.435   6.736   3.706 -0.5312  0.0555  0.4362
 2654SOL     hw10614   6.463   6.685   3.629 -0.9385 -1.9722  1.5733
 2654SOL     hw10615   6.498   6.713   3.774 -1.0193  0.7207  1.1307
 2654SOL     vw10616   6.447   6.726   3.705 -0.6495 -0.1245  0.6779
 2655SOL     ow10617   1.030   4.111   6.630  0.3862 -0.2018  0.0303
 2655SOL     hw10618   0.969   4.158   6.572 -1.2419 -1.6247  0.4798
 2655SOL     hw10619   1.055   4.175   6.696  0.1734  0.6988 -0.7395
 2655SOL     vw10620   1.025   4.125   6.631  0.1433 -0.2706 -0.0119
 2656SOL     ow10621   1.982   5.898   0.830  0.0481  0.5625  0.1752
 2656SOL     hw10622   1.895   5.860   0.823 -0.5238  1.9516 -0.5975
 2656SOL     hw10623   1.992   5.951   0.751  1.3178  1.0001  0.6000
 2656SOL     vw10624   1.972   5.900   0.818  0.1402  0.8035  0.1293
 2657SOL     ow10625   1.216   4.777   3.725 -0.4645 -0.0371  0.0784
 2657SOL     hw10626   1.260   4.862   3.723  0.6192 -0.5926 -0.6644
 2657SOL     hw10627   1.228   4.741   3.637  0.2744 -1.5269  0.7531
 2657SOL     vw10628   1.223   4.783   3.713 -0.2241 -0.3071  0.0694
 2658SOL     ow10629   6.748   0.706   6.299 -0.4680 -0.4700  0.6699
 2658SOL     hw10630   6.742   0.610   6.302 -0.8716 -0.5193 -0.9363
 2658SOL     hw10631   6.661   0.736   6.326 -0.7482 -0.6020 -0.0634
 2658SOL     vw10632   6.736   0.697   6.303 -0.5586 -0.4939  0.3612
 2659SOL     ow10633   5.664   1.282   4.959 -0.2210 -0.5480  0.3247
 2659SOL     hw10634   5.604   1.229   4.906  0.3393 -0.5754 -0.2937
 2659SOL     hw10635   5.742   1.293   4.904 -0.1349  0.5137  0.6293
 2659SOL     vw10636   5.666   1.277   4.945 -0.1359 -0.4115  0.2832
 2660SOL     ow10637   3.716   2.765   4.818  0.6463  0.6131 -0.0488
 2660SOL     hw10638   3.707   2.686   4.872 -0.7099  1.1243  0.5178
 2660SOL     hw10639   3.719   2.837   4.881 -0.4319  1.1861 -0.6312
 2660SOL     vw10640   3.715   2.764   4.834  0.3251  0.7560 -0.0508
 2661SOL     ow10641   1.900   5.326   7.129 -0.0012 -0.7707  0.6245
 2661SOL     hw10642   1.954   5.330   7.208 -1.0130  0.1936  1.3043
 2661SOL     hw10643   1.906   5.414   7.092 -1.8945 -0.3079  1.2931
 2661SOL     vw10644   1.908   5.338   7.135 -0.3845 -0.5825  0.8028
 2662SOL     ow10645   6.840   5.137   2.319  0.4456  0.2472 -0.3812
 2662SOL     hw10646   6.909   5.144   2.253 -0.9451  4.2411 -1.6692
 2662SOL     hw10647   6.883   5.163   2.401  0.8526  1.1032 -0.8534
 2662SOL     vw10648   6.855   5.141   2.321  0.3159  0.8872 -0.6135
 2663SOL     ow10649   7.182   2.270   3.092  0.8404 -0.0519  0.1988
 2663SOL     hw10650   7.259   2.214   3.081  1.0665  0.2202  0.3750
 2663SOL     hw10651   7.135   2.264   3.009  1.3480  0.2286 -0.1087
 2663SOL     vw10652   7.186   2.262   3.080  0.9372  0.0211  0.1814
 2664SOL     ow10653   6.203   5.942   0.847 -0.6462 -0.1636 -0.7541
 2664SOL     hw10654   6.181   5.870   0.907 -1.9874  0.5246 -0.3833
 2664SOL     hw10655   6.296   5.961   0.865 -0.0823 -2.1696 -1.2909
 2664SOL     vw10656   6.213   5.935   0.858 -0.7489 -0.3374 -0.7760
 2665SOL     ow10657   4.638   0.264   0.332 -0.0772  0.1283  0.7098
 2665SOL     hw10658   4.621   0.170   0.335 -0.5391  0.2071  0.5774
 2665SOL     hw10659   4.594   0.299   0.410 -2.9227  0.7048 -1.0006
 2665SOL     vw10660   4.630   0.256   0.343 -0.5136  0.2148  0.4667
 2666SOL     ow10661   2.345   5.931   3.079  0.2778  0.1891 -0.5202
 2666SOL     hw10662   2.322   5.895   3.165  1.5370 -0.8353 -0.5873
 2666SOL     hw10663   2.410   5.998   3.098  1.4396 -0.8474 -0.7352
 2666SOL     vw10664   2.350   5.935   3.093  0.5971 -0.0830 -0.5573
 2667SOL     ow10665   1.243   4.376   3.871  0.3843  0.4464  0.5008
 2667SOL     hw10666   1.244   4.331   3.786 -1.1584 -0.7260  1.0482
 2667SOL     hw10667   1.320   4.433   3.869  1.8917 -1.4992 -0.6332
 2667SOL     vw10668   1.253   4.378   3.860  0.3796  0.0348  0.4234
 2668SOL     ow10669   0.395   0.225   5.165 -0.4730  0.2166  0.2001
 2668SOL     hw10670   0.337   0.166   5.116 -0.0890 -0.8353  0.9640
 2668SOL     hw10671   0.381   0.201   5.257  1.7525 -0.6518  0.3732
 2668SOL     vw10672   0.386   0.214   5.171 -0.1287 -0.0367  0.3238
 2669SOL     ow10673   1.571   2.474   2.336  0.1345  0.2674 -0.0133
 2669SOL     hw10674   1.648   2.425   2.364  0.4713  0.7529 -0.0893
 2669SOL     hw10675   1.565   2.458   2.242  0.4204  0.6187 -0.0910
 2669SOL     vw10676   1.580   2.466   2.327  0.2166  0.3779 -0.0335
 2670SOL     ow10677   5.018   5.869   2.153 -0.5842 -0.4922  0.4569
 2670SOL     hw10678   4.948   5.900   2.096  1.1236 -2.4522 -3.0080
 2670SOL     hw10679   4.999   5.776   2.167 -0.3484 -0.3123  2.3005
 2670SOL     vw10680   5.006   5.861   2.147 -0.3278 -0.7272  0.2429
 2671SOL     ow10681   5.999   6.388   7.070  0.0441 -0.2934 -0.3861
 2671SOL     hw10682   6.079   6.396   7.019  1.5078 -2.0939  1.4367
 2671SOL     hw10683   6.026   6.401   7.161 -1.9329  0.0576  0.2197
 2671SOL     vw10684   6.013   6.391   7.075 -0.0236 -0.4847 -0.0656
 2672SOL     ow10685   0.510   2.233   0.337  0.5631  0.7636  0.2143
 2672SOL     hw10686   0.570   2.167   0.302 -1.0670  0.1909 -1.6922
 2672SOL     hw10687   0.556   2.269   0.412  2.3311 -1.2016  0.1816
 2672SOL     vw10688   0.524   2.229   0.342  0.5813  0.4288 -0.0415
 2673SOL     ow10689   1.221   6.151   5.066  0.7132 -0.4538 -0.3193
 2673SOL     hw10690   1.311   6.180   5.050  0.9249  0.8929  2.5812
 2673SOL     hw10691   1.169   6.194   4.998  2.1581 -0.7340 -1.6402
 2673SOL     vw10692   1.226   6.161   5.055  0.9317 -0.3133 -0.1111
 2674SOL     ow10693   1.200   5.113   3.731  0.5877  0.0191 -0.5948
 2674SOL     hw10694   1.153   5.129   3.649  0.8951 -2.0135 -1.2274
 2674SOL     hw10695   1.291   5.133   3.711  0.4980  0.6962 -0.3634
 2674SOL     vw10696   1.206   5.118   3.717  0.6164 -0.1597 -0.6477
 2675SOL     ow10697   4.551   3.126   3.310 -0.4649  0.0164 -0.3211
 2675SOL     hw10698   4.611   3.158   3.377 -0.6882 -1.1675  0.4787
 2675SOL     hw10699   4.476   3.093   3.359 -1.1450  0.1823 -1.2316
 2675SOL     vw10700   4.549   3.126   3.325 -0.5841 -0.1179 -0.3357
 2676SOL     ow10701   5.868   3.725   5.670  0.2720 -0.0812 -0.0801
 2676SOL     hw10702   5.928   3.800   5.666  1.6983 -1.2345 -0.9768
 2676SOL     hw10703   5.831   3.718   5.582  1.2065 -1.2443 -0.4034
 2676SOL     vw10704   5.871   3.734   5.658  0.5836 -0.3867 -0.2413
 2677SOL     ow10705   6.303   2.353   5.211 -0.1161 -0.1652 -0.4725
 2677SOL     hw10706   6.376   2.398   5.252 -1.7696  3.0466 -0.7050
 2677SOL     hw10707   6.342   2.306   5.137  2.0551 -1.1902  1.2155
 2677SOL     vw10708   6.318   2.353   5.206 -0.0477  0.1233 -0.2806
 2678SOL     ow10709   3.082   4.938   4.408  0.0865 -0.3304  0.6706
 2678SOL     hw10710   3.146   4.943   4.337  2.1372 -0.2540  2.4296
 2678SOL     hw10711   3.085   5.024   4.449 -2.5860  0.3171 -0.3084
 2678SOL     vw10712   3.091   4.950   4.404  0.0045 -0.2348  0.7734
 2679SOL     ow10713   6.913   3.707   6.223 -0.7488  0.2567 -0.0173
 2679SOL     hw10714   6.921   3.798   6.195  1.7674  0.4368  1.1066
 2679SOL     hw10715   6.950   3.656   6.151 -2.6334  0.0143 -0.8797
 2679SOL     vw10716   6.919   3.712   6.210 -0.6652  0.2484  0.0174
 2680SOL     ow10717   0.106   4.188   6.769  0.6942  0.1882  0.7045
 2680SOL     hw10718   0.192   4.213   6.736  1.5830 -1.5643  1.5412
 2680SOL     hw10719   0.122   4.108   6.819 -1.4953 -0.4502  0.4998
 2680SOL     vw10720   0.119   4.181   6.771  0.5226 -0.1273  0.7877
 2681SOL     ow10721   4.362   0.287   5.461 -0.0546 -0.1138 -0.4407
 2681SOL     hw10722   4.401   0.372   5.439  0.0459 -0.1998 -0.5900
 2681SOL     hw10723   4.286   0.280   5.403 -2.3139  1.5620  2.0483
 2681SOL     vw10724   4.357   0.297   5.451 -0.3390  0.0960 -0.1318
 2682SOL     ow10725   3.202   5.843   3.201 -0.6296  0.1074 -0.5440
 2682SOL     hw10726   3.131   5.849   3.265 -0.3094  1.8849 -0.3016
 2682SOL     hw10727   3.276   5.807   3.251 -1.5072 -2.5392 -0.9923
 2682SOL     vw10728   3.202   5.839   3.216 -0.7032 -0.0074 -0.5713
 2683SOL     ow10729   1.050   6.195   6.956 -0.1332  0.5732 -0.3328
 2683SOL     hw10730   1.135   6.189   6.914 -0.2530  1.1017 -0.6697
 2683SOL     hw10731   1.067   6.237   7.041 -0.0449  0.6017 -0.3651
 2683SOL     vw10732   1.063   6.200   6.962 -0.1374  0.6464 -0.3812
 2684SOL     ow10733   3.288   3.745   4.117  0.2749 -0.1804 -0.5384
 2684SOL     hw10734   3.223   3.739   4.186  1.9362  2.0755  1.3566
 2684SOL     hw10735   3.279   3.834   4.082  2.0288  0.0535 -0.4978
 2684SOL     vw10736   3.278   3.756   4.121  0.7255  0.1482 -0.2828
 2685SOL     ow10737   6.101   4.585   6.973 -0.1670 -0.5350  0.2633
 2685SOL     hw10738   6.190   4.604   7.003 -0.1046  3.7693 -1.8699
 2685SOL     hw10739   6.048   4.658   7.005 -2.2372 -1.2897 -1.2087
 2685SOL     vw10740   6.106   4.597   6.981 -0.4320 -0.0668 -0.2124
 2686SOL     ow10741   5.900   6.486   5.380 -0.0683 -0.3721 -0.5381
 2686SOL     hw10742   5.983   6.440   5.368  1.2055  0.7690  2.8008
 2686SOL     hw10743   5.874   6.465   5.470 -0.9302  2.9837  0.1278
 2686SOL     vw10744   5.907   6.477   5.390 -0.0138  0.2213 -0.0095
 2687SOL     ow10745   1.614   1.403   0.131  0.0517 -0.3339 -0.5396
 2687SOL     hw10746   1.585   1.479   0.080 -1.0809 -1.5020 -1.7128
 2687SOL     hw10747   1.540   1.383   0.188  0.8918  0.2777  0.8230
 2687SOL     vw10748   1.601   1.410   0.132  0.0131 -0.4073 -0.5146
 2688SOL     ow10749   5.675   5.146   0.959  0.1760 -0.1979 -0.1630
 2688SOL     hw10750   5.681   5.239   0.980 -2.3797 -0.0887  0.4958
 2688SOL     hw10751   5.644   5.144   0.868  1.5174 -0.4562 -0.6295
 2688SOL     vw10752   5.672   5.158   0.950  0.0157 -0.2177 -0.1377
 2689SOL     ow10753   6.756   2.988   2.197 -0.0106  0.0474 -0.5789
 2689SOL     hw10754   6.707   3.070   2.199 -0.4844 -0.2014 -1.6426
 2689SOL     hw10755   6.735   2.946   2.280  2.3190  2.1537  1.2421
 2689SOL     vw10756   6.747   2.993   2.208  0.2344  0.2924 -0.4789
 2690SOL     ow10757   0.697   3.552   1.522  0.4136  0.5916  0.3058
 2690SOL     hw10758   0.776   3.574   1.572  1.6965 -2.1055 -0.3886
 2690SOL     hw10759   0.641   3.508   1.586  1.6435 -1.9649 -0.2399
 2690SOL     vw10760   0.700   3.549   1.537  0.7451 -0.1016  0.1422
 2691SOL     ow10761   4.617   5.027   1.911  0.0762 -0.1868 -0.2482
 2691SOL     hw10762   4.677   5.001   1.981 -1.1845  0.3141  1.0666
 2691SOL     hw10763   4.663   5.097   1.865 -0.0635  1.2889  1.7187
 2691SOL     vw10764   4.631   5.032   1.914 -0.1085  0.0737  0.1848
 2692SOL     ow10765   0.148   6.381   5.760 -0.1427 -0.6663 -0.0918
 2692SOL     hw10766   0.071   6.404   5.811  1.0009  1.3745  0.8422
 2692SOL     hw10767   0.152   6.285   5.764 -0.7994 -0.6572  2.6617
 2692SOL     vw10768   0.139   6.371   5.767 -0.0785 -0.3955  0.3948
 2693SOL     ow10769   4.551   2.186   4.209 -0.0192  0.1790 -0.1698
 2693SOL     hw10770   4.545   2.279   4.229  1.2145  0.0509  0.9308
 2693SOL     hw10771   4.628   2.179   4.153 -0.0915 -0.1806 -0.2258
 2693SOL     vw10772   4.560   2.197   4.204  0.1340  0.1147 -0.0319
 2694SOL     ow10773   6.879   5.848   4.617  0.3678 -0.8351  0.2387
 2694SOL     hw10774   6.848   5.919   4.562  1.4860  1.2116  2.0924
 2694SOL     hw10775   6.865   5.769   4.565  0.2393  0.8403 -2.4279
 2694SOL     vw10776   6.873   5.847   4.603  0.4983 -0.3438  0.1314
 2695SOL     ow10777   6.492   5.514   3.716 -0.5103  0.0213  0.2970
 2695SOL     hw10778   6.474   5.449   3.648  0.2016 -0.6849  0.7656
 2695SOL     hw10779   6.475   5.468   3.798 -0.1775  0.4872  0.6344
 2695SOL     vw10780   6.487   5.499   3.718 -0.3724 -0.0103  0.4034
 2696SOL     ow10781   0.095   4.046   3.655  0.1873  0.6296 -0.7257
 2696SOL     hw10782   0.071   4.119   3.599 -0.3779 -0.9023 -2.5610
 2696SOL     hw10783   0.156   3.994   3.603  0.9228  0.0104  0.6974
 2696SOL     vw10784   0.100   4.049   3.641  0.2097  0.3459 -0.7800
 2697SOL     ow10785   5.183   6.153   6.720  0.3129  0.2105  0.1484
 2697SOL     hw10786   5.151   6.220   6.781  2.9392  0.5623  1.2573
 2697SOL     hw10787   5.278   6.153   6.732  0.5254 -2.8184 -0.7599
 2697SOL     vw10788   5.191   6.162   6.730  0.6876 -0.1428  0.1750
 2698SOL     ow10789   0.143   6.956   2.202 -0.8169  0.2534 -0.5669
 2698SOL     hw10790   0.083   6.997   2.264  0.7704  0.7531  0.7176
 2698SOL     hw10791   0.100   6.965   2.118 -1.9060  1.8663  0.1034
 2698SOL     vw10792   0.130   6.962   2.199 -0.7512  0.5324 -0.3090
 2699SOL     ow10793   3.152   1.003   6.958 -0.2640  0.4737  0.5689
 2699SOL     hw10794   3.146   0.993   6.863 -0.0005 -1.9758  0.7409
 2699SOL     hw10795   3.209   1.079   6.971 -0.1505  0.7327 -1.2202
 2699SOL     vw10796   3.159   1.011   6.947 -0.2141  0.1847  0.3555
 2700SOL     ow10797   7.145   1.332   3.328 -0.7047 -0.0083  0.1630
 2700SOL     hw10798   7.133   1.389   3.252 -2.3837  0.9600  1.0953
 2700SOL     hw10799   7.080   1.262   3.316 -0.2511 -0.4429  0.2014
 2700SOL     vw10800   7.135   1.330   3.316 -0.8664  0.0620  0.2911
 2701poe    c3110801   7.304   0.950   3.747  0.3164  0.1064 -0.1294
 2701poe     o210802   7.320   0.845   3.654 -0.2060 -0.0434 -0.0581
 2701poe    c2310803   7.210   0.842   3.567 -0.1290  0.1709 -0.1654
 2701poe    c2310804   7.271   0.802   3.432  0.6498  0.1767  0.1830
 2701poe     o210805   7.409   0.833   3.425  0.7061  0.0182  0.5631
 2701poe    c2310806   7.462   0.776   3.307 -0.4874  0.0871 -0.0191
 2701poe    c2310807   7.601   0.842   3.306 -0.5177  0.1563  0.3263
 2701poe     o210808   7.672   0.792   3.417 -0.0337 -0.4370 -0.2478
 2701poe    c2310809   7.812   0.795   3.401  0.0037 -0.0730  0.1338
 2701poe    c2310810   7.892   0.744   3.522  0.1646 -0.0448  0.0398
 2701poe     o210811   7.873   0.836   3.627  0.2583  0.0931 -0.0637
 2701poe    c3110812   7.944   0.793   3.741 -0.3545 -0.2294  0.1985
 2702poe    c3110813   4.139   5.441   3.039 -0.2125  0.4847  0.1132
 2702poe     o210814   4.178   5.351   3.141 -0.0555  0.1089 -0.2744
 2702poe    c2310815   4.299   5.294   3.096 -0.0346 -0.2289  0.2121
 2702poe    c2310816   4.428   5.342   3.166  0.3461  0.1748 -0.7478
 2702poe     o210817   4.443   5.278   3.291 -0.0860  0.4446 -0.5555
 2702poe    c2310818   4.563   5.292   3.363 -0.2439 -0.0868 -0.1806
 2702poe    c2310819   4.534   5.290   3.515 -0.2802  0.5439 -0.1742
 2702poe     o210820   4.487   5.163   3.556  0.4320  0.4232  0.2826
 2702poe    c2310821   4.499   5.153   3.696  0.5782 -0.2862  0.2224
 2702poe    c2310822   4.393   5.048   3.733 -0.0902  0.2224 -0.2273
 2702poe     o210823   4.260   5.082   3.702 -0.1589  0.5068  0.3821
 2702poe    c3110824   4.182   4.965   3.693  0.2683  0.2228  0.3196
 2703poe    c3110825   0.041   1.533   3.989 -0.2687  0.0338 -0.0792
 2703poe     o210826  -0.039   1.649   3.983  0.0400  0.2830  0.5440
 2703poe    c2310827  -0.171   1.627   4.028  0.0851 -0.2211  0.4391
 2703poe    c2310828  -0.265   1.749   4.017 -0.2155 -0.5341 -0.6034
 2703poe     o210829  -0.317   1.765   3.886  0.3108 -0.1709 -0.7715
 2703poe    c2310830  -0.322   1.899   3.846  0.0681  0.1670  0.3366
 2703poe    c2310831  -0.261   1.919   3.706 -0.4821  0.9136  0.1970
 2703poe     o210832  -0.138   1.852   3.691 -0.7371  0.3590  0.5714
 2703poe    c2310833  -0.027   1.939   3.682  0.0878 -0.6648  0.5265
 2703poe    c2310834   0.100   1.886   3.749  0.1511 -0.0951  0.8629
 2703poe     o210835   0.162   1.776   3.686  0.1500  0.3025  0.1557
 2703poe    c3110836   0.292   1.764   3.740 -0.2773  0.0760  1.1622
 2704poe    c3110837   2.167   4.475   6.065 -0.0614  0.1334  0.0520
 2704poe     o210838   2.101   4.376   6.140  0.2886  0.1650  0.4084
 2704poe    c2310839   2.203   4.280   6.158  0.2622  0.0489 -0.0452
 2704poe    c2310840   2.138   4.164   6.235  0.3754 -0.1121 -0.1914
 2704poe     o210841   2.012   4.146   6.173  0.3693 -0.5991 -0.0389
 2704poe    c2310842   1.931   4.043   6.226 -0.2052  0.0813  0.4166
 2704poe    c2310843   1.791   4.024   6.163 -0.4899 -0.4532  1.2041
 2704poe     o210844   1.707   4.137   6.156  0.4221  0.1790  0.0780
 2704poe    c2310845   1.617   4.118   6.049  0.1152  0.1161  0.3431
 2704poe    c2310846   1.524   4.240   6.038 -0.0035 -0.0278 -0.2771
 2704poe     o210847   1.591   4.363   6.025  0.2463 -0.1448 -0.0951
 2704poe    c3110848   1.495   4.467   6.022  0.3569 -0.0343  0.1504
 2705poe    c3110849   4.754   0.526   5.863  0.4157  0.2352  0.6243
 2705poe     o210850   4.740   0.657   5.814 -0.3038 -0.1878 -0.3498
 2705poe    c2310851   4.643   0.663   5.712 -0.1157  0.0483 -0.5160
 2705poe    c2310852   4.639   0.800   5.641  0.1137  0.3686  0.0817
 2705poe     o210853   4.749   0.812   5.554 -0.4917 -0.2502 -0.7833
 2705poe    c2310854   4.778   0.947   5.526  0.3973 -0.2538  0.0698
 2705poe    c2310855   4.922   0.942   5.470  0.2890  1.2207 -0.3662
 2705poe     o210856   5.023   0.906   5.561 -0.5569 -0.0287  0.1090
 2705poe    c2310857   5.148   0.910   5.496 -0.4529 -0.4163  0.2821
 2705poe    c2310858   5.257   0.871   5.598  0.1328 -0.7125 -0.4448
 2705poe     o210859   5.240   0.749   5.667  0.4162 -0.6220 -0.2125
 2705poe    c3110860   5.363   0.694   5.708  0.0858 -0.5732  0.8766
 2706poe    c3110861   0.939   2.150   6.518  0.1222  0.3903 -0.0142
 2706poe     o210862   0.912   2.170   6.655 -0.5261 -0.2541 -0.0442
 2706poe    c2310863   0.925   2.044   6.718  0.6796  0.0419  0.3285
 2706poe    c2310864   0.837   1.998   6.836  0.3925 -0.5525 -0.1138
 2706poe     o210865   0.842   2.071   6.956 -0.3362 -0.4284 -0.1536
 2706poe    c2310866   0.735   2.013   7.027  0.1143 -0.5904  0.4069
 2706poe    c2310867   0.687   2.099   7.146  0.2380 -0.2489  0.2116
 2706poe     o210868   0.648   2.225   7.096  0.2559 -0.1272  0.5045
 2706poe    c2310869   0.538   2.260   7.178  0.4039 -0.1173  0.7006
 2706poe    c2310870   0.469   2.388   7.127  0.3359 -0.4864 -0.1643
 2706poe     o210871   0.558   2.497   7.128  0.0717 -0.2720  0.3372
 2706poe    c3110872   0.499   2.606   7.061 -0.4397 -0.0877  1.0705
 2707poe    c3110873   0.512   0.841   5.280 -0.1937 -0.0329 -0.2655
 2707poe     o210874   0.550   0.753   5.383  0.7291  0.4433 -0.1869
 2707poe    c2310875   0.525   0.794   5.516 -0.7622  0.5247 -0.4703
 2707poe    c2310876   0.385   0.776   5.577 -0.4408 -0.1864  0.0755
 2707poe     o210877   0.332   0.646   5.594 -0.2349 -0.3158 -0.2545
 2707poe    c2310878   0.225   0.640   5.686  0.3371  0.1025  0.4514
 2707poe    c2310879   0.229   0.508   5.765 -0.4686  0.0558  0.4163
 2707poe     o210880   0.204   0.387   5.697  0.1770  0.3645 -0.3813
 2707poe    c2310881   0.067   0.363   5.673  0.3069 -0.3171 -0.4570
 2707poe    c2310882   0.055   0.212   5.643  0.1112 -0.4856  0.4642
 2707poe     o210883   0.068   0.148   5.518 -0.1308  0.4338 -0.0406
 2707poe    c3110884  -0.045   0.174   5.438 -0.2411 -0.2584 -0.1145
 2708poe    c3110885   2.301   5.584   5.531  0.3648 -0.4405 -0.4324
 2708poe     o210886   2.232   5.707   5.529  0.2239 -0.5131 -0.0455
 2708poe    c2310887   2.271   5.775   5.412  0.0876 -0.5281 -0.0991
 2708poe    c2310888   2.158   5.873   5.374  0.4335 -0.1825 -0.2474
 2708poe     o210889   2.110   5.937   5.490  0.2342 -0.0487 -0.4019
 2708poe    c2310890   2.011   6.033   5.459  0.0555 -0.1537 -0.1613
 2708poe    c2310891   1.873   5.988   5.510  0.1560 -0.3054 -0.0232
 2708poe     o210892   1.872   5.964   5.649  0.1162  0.1821  0.0594
 2708poe    c2310893   1.740   5.955   5.697  0.1101  0.1704  0.0401
 2708poe    c2310894   1.749   5.920   5.847  0.4042  0.3875  0.0728
 2708poe     o210895   1.808   5.796   5.878  0.2512  0.2223 -0.2975
 2708poe    c3110896   1.823   5.776   6.017 -0.4530 -0.2787 -0.2902
 2709poe    c3110897   3.280   4.692   6.212 -0.1978 -0.0998  0.3230
 2709poe     o210898   3.260   4.683   6.073 -0.1232 -0.2282  0.3204
 2709poe    c2310899   3.124   4.651   6.053 -0.1636 -0.3197  0.7450
 2709poe    c2310900   3.047   4.702   5.931 -0.2034 -0.9195  0.5190
 2709poe     o210901   3.095   4.645   5.811  0.1223  0.3024  0.0595
 2709poe    c2310902   2.996   4.668   5.714  0.5539  0.5025 -0.3372
 2709poe    c2310903   3.027   4.614   5.573 -0.8584 -0.2221 -0.3926
 2709poe     o210904   3.098   4.708   5.495 -0.0872 -0.2702  0.2374
 2709poe    c2310905   3.149   4.651   5.377  0.1932  0.2368  0.1070
 2709poe    c2310906   3.268   4.708   5.298 -0.2096 -0.5367 -1.1010
 2709poe     o210907   3.391   4.673   5.358 -0.5503  0.2098  0.0641
 2709poe    c3110908   3.496   4.686   5.265 -0.4547  0.9083  0.2619
 2710poe    c3110909   6.845   0.154   1.672  0.1615 -0.1309  0.1269
 2710poe     o210910   6.949   0.120   1.583  0.1345 -0.4710  0.2244
 2710poe    c2310911   6.962  -0.019   1.562  0.3950 -0.4151  0.0029
 2710poe    c2310912   7.065  -0.059   1.456  0.3265  0.1731 -0.2865
 2710poe     o210913   7.029   0.000   1.333  0.0709  1.0314  0.1963
 2710poe    c2310914   7.106  -0.044   1.224 -0.3449 -0.0824  0.3383
 2710poe    c2310915   7.065   0.024   1.092  0.4341  0.0678  0.1649
 2710poe     o210916   7.080   0.164   1.076  0.4426  0.0093 -0.3521
 2710poe    c2310917   7.094   0.217   0.947 -0.4634  0.2768 -0.3472
 2710poe    c2310918   7.127   0.367   0.940  0.1767  0.1566  0.0945
 2710poe     o210919   7.012   0.446   0.955  0.3085  0.4458 -0.3909
 2710poe    c3110920   7.008   0.554   0.865 -0.4543  0.3078 -0.5355
 2711poe    c3110921   1.620   5.173   3.879  0.1747  0.6913  0.5154
 2711poe     o210922   1.668   5.123   3.756 -0.6206 -0.2329  0.5673
 2711poe    c2310923   1.649   5.215   3.650 -1.2304 -0.1841  0.7123
 2711poe    c2310924   1.591   5.153   3.522  0.4104  0.5580 -0.4403
 2711poe     o210925   1.457   5.116   3.550  0.7644 -0.5381 -0.1320
 2711poe    c2310926   1.387   5.044   3.451  0.5559 -0.2502 -0.1953
 2711poe    c2310927   1.432   4.897   3.446 -0.0384 -0.4425  0.0323
 2711poe     o210928   1.554   4.885   3.375 -0.0840 -0.1857 -0.0906
 2711poe    c2310929   1.616   4.761   3.396  0.6385  0.3435  1.0209
 2711poe    c2310930   1.738   4.738   3.304 -0.6291 -0.1169 -0.5951
 2711poe     o210931   1.840   4.810   3.369 -0.4372 -0.0511 -0.9711
 2711poe    c3110932   1.944   4.853   3.283  0.4265 -0.0631  0.0416
 2712poe    c3110933   5.084   0.234   2.143 -0.0074 -0.3640 -0.6940
 2712poe     o210934   4.982   0.149   2.190 -0.3632  0.2869 -0.2803
 2712poe    c2310935   4.983   0.129   2.330  0.1042  0.1266 -0.3073
 2712poe    c2310936   4.941   0.249   2.416  0.2379  0.3903 -0.6049
 2712poe     o210937   4.801   0.256   2.432  0.3109  0.6191 -0.0384
 2712poe    c2310938   4.756   0.358   2.518  0.2572  0.2947  0.3195
 2712poe    c2310939   4.653   0.304   2.619  0.4198 -0.4462  0.0936
 2712poe     o210940   4.541   0.246   2.555 -0.0231 -0.3632  0.7811
 2712poe    c2310941   4.480   0.132   2.611 -0.2552 -0.5323  0.1881
 2712poe    c2310942   4.370   0.063   2.528 -0.3714  0.0133 -0.1138
 2712poe     o210943   4.389   0.058   2.388 -0.0741  0.3557 -0.0878
 2712poe    c3110944   4.305  -0.042   2.334  0.2440  0.0840 -0.0798
 2713poe    c3110945   4.532   2.589   4.791 -0.5066  0.3525  1.0727
 2713poe     o210946   4.641   2.574   4.879  0.0849 -0.0732  0.2721
 2713poe    c2310947   4.648   2.448   4.941 -0.0533  0.0206  0.4779
 2713poe    c2310948   4.790   2.389   4.954 -0.0807 -0.1886 -0.1197
 2713poe     o210949   4.862   2.394   4.833  0.5420 -0.5398  0.2284
 2713poe    c2310950   4.999   2.374   4.855  0.5376 -0.5915  0.2060
 2713poe    c2310951   5.076   2.387   4.722 -0.2870 -0.3323 -0.2525
 2713poe     o210952   5.058   2.517   4.670 -0.0390 -0.1912  0.0134
 2713poe    c2310953   5.159   2.542   4.575  0.0388 -0.3239  0.0603
 2713poe    c2310954   5.140   2.662   4.480  0.2454 -0.0995  0.2999
 2713poe     o210955   5.044   2.637   4.379  0.3391 -0.1835  0.2325
 2713poe    c3110956   5.038   2.739   4.282 -0.3296  0.4491  0.9273
 2714poe    c3110957   3.782   5.984   1.111  0.0887 -0.4453 -0.0965
 2714poe     o210958   3.902   5.965   1.181 -0.0042 -0.6433  0.0104
 2714poe    c2310959   4.023   5.983   1.111  0.3171 -0.0075  0.7203
 2714poe    c2310960   4.142   5.969   1.208  0.4110 -0.0813  0.5954
 2714poe     o210961   4.101   5.860   1.287 -0.6426 -0.2908 -0.2155
 2714poe    c2310962   4.205   5.787   1.348 -0.3416  0.2836 -0.0338
 2714poe    c2310963   4.165   5.663   1.430  0.2035  0.1274  0.0048
 2714poe     o210964   4.069   5.702   1.526 -0.1020 -0.4729 -0.0505
 2714poe    c2310965   4.011   5.583   1.575  0.6576 -0.5776  0.6234
 2714poe    c2310966   3.934   5.594   1.708  0.1985  0.1036  0.3115
 2714poe     o210967   3.822   5.679   1.717  0.2256  0.1797 -0.0507
 2714poe    c3110968   3.784   5.665   1.852  0.0227 -0.4925 -0.1717
 2715poe    c3110969   6.064   5.130   5.407 -0.0240 -0.3831  0.2457
 2715poe     o210970   6.038   4.998   5.365 -0.1351 -0.3354  0.1620
 2715poe    c2310971   6.046   4.989   5.224 -0.0024 -0.1117  0.1549
 2715poe    c2310972   6.084   4.846   5.184 -0.1607 -0.0891 -0.0791
 2715poe     o210973   5.992   4.741   5.202 -0.1529 -0.1919 -0.6292
 2715poe    c2310974   6.077   4.629   5.218  0.0441 -0.0567 -0.7255
 2715poe    c2310975   6.008   4.492   5.234 -0.2074  0.1752  0.2446
 2715poe     o210976   5.950   4.496   5.363  0.1434 -0.1511  0.4129
 2715poe    c2310977   5.830   4.424   5.344  0.3836 -0.5054  0.2250
 2715poe    c2310978   5.790   4.350   5.473 -0.1390  0.0872  0.4069
 2715poe     o210979   5.762   4.443   5.574 -0.0716  0.2652  0.2627
 2715poe    c3110980   5.719   4.377   5.691 -0.2771 -0.2138 -0.0825
 2716poe    c3110981   3.227   2.718   1.072  0.3740  0.1252 -0.2147
 2716poe     o210982   3.093   2.752   1.043  0.4144  0.5757  0.1143
 2716poe    c2310983   3.052   2.696   0.920  0.2736  0.0597  0.3911
 2716poe    c2310984   2.940   2.593   0.941 -0.1189  0.2625 -0.6825
 2716poe     o210985   2.824   2.635   1.010  0.2056  0.6392 -0.3644
 2716poe    c2310986   2.810   2.572   1.135  0.1455 -0.3604 -0.8632
 2716poe    c2310987   2.676   2.593   1.209  0.7504 -0.2865  0.2407
 2716poe     o210988   2.671   2.730   1.242 -0.3556 -0.3245  0.2527
 2716poe    c2310989   2.582   2.764   1.346 -0.6162  0.1378 -0.1149
 2716poe    c2310990   2.588   2.915   1.376  0.5350  0.0532  0.1585
 2716poe     o210991   2.601   2.982   1.253  0.0133 -0.3888 -0.1469
 2716poe    c3110992   2.567   3.118   1.267 -0.6582 -0.6945  1.4892
 2717poe    c3110993   3.174   3.993   2.379  0.3208  0.2511 -0.2717
 2717poe     o210994   3.174   3.996   2.238 -0.5709  0.3237 -0.2744
 2717poe    c2310995   3.250   4.108   2.198 -0.0282  0.0640  0.0165
 2717poe    c2310996   3.246   4.108   2.044  0.5483  0.3261 -0.0020
 2717poe     o210997   3.334   4.009   1.996 -0.5510 -0.8622  0.3888
 2717poe    c2310998   3.305   4.009   1.858  0.2513  0.2266  0.2172
 2717poe    c2310999   3.411   3.907   1.811  0.2387  0.3428 -0.0679
 2717poe     o211000   3.399   3.800   1.902  0.2294  0.1586 -0.2834
 2717poe    c2311001   3.461   3.683   1.854  0.1634  0.0155 -0.0232
 2717poe    c2311002   3.352   3.583   1.812  0.3292 -0.1752  0.0025
 2717poe     o211003   3.273   3.537   1.919 -0.0181 -0.0504 -0.1999
 2717poe    c3111004   3.174   3.451   1.867 -0.1552 -0.1429  0.2122
 2718poe    c3111005   6.513   0.682   3.650  0.3659  0.1798  0.2277
 2718poe     o211006   6.547   0.776   3.749 -0.0475  0.0108  0.5354
 2718poe    c2311007   6.686   0.765   3.774  0.0211 -0.2452  0.0500
 2718poe    c2311008   6.710   0.882   3.872 -0.1156  0.0108 -0.2179
 2718poe     o211009   6.616   0.878   3.977 -0.0107  0.0788 -0.1214
 2718poe    c2311010   6.649   0.973   4.076  0.1155 -0.5218  0.4223
 2718poe    c2311011   6.524   0.982   4.166 -0.3355  0.2441 -0.2641
 2718poe     o211012   6.404   0.998   4.093 -0.5047  0.2670  0.0170
 2718poe    c2311013   6.289   0.966   4.168  0.2461 -0.5630  0.8573
 2718poe    c2311014   6.163   1.022   4.098  0.5903 -0.6189  0.1839
 2718poe     o211015   6.146   0.989   3.962  0.1558  0.0494  0.0740
 2718poe    c3111016   6.014   1.029   3.934 -0.1452 -0.8906  0.1056
 2719poe    c3111017   3.130   3.002   3.475  0.0459  0.1165 -0.7274
 2719poe     o211018   3.097   2.866   3.461 -0.3043  0.1507 -0.2693
 2719poe    c2311019   3.176   2.785   3.376 -0.0908  0.4011 -0.3096
 2719poe    c2311020   3.123   2.641   3.361 -0.0777  0.3527  0.0984
 2719poe     o211021   3.147   2.576   3.483 -0.2422  0.2584  0.0808
 2719poe    c2311022   3.049   2.482   3.522  0.0306  0.1153  0.4315
 2719poe    c2311023   3.096   2.336   3.516  1.0695  0.4729 -0.4778
 2719poe     o211024   3.199   2.303   3.606  0.6207  0.3789  0.0081
 2719poe    c2311025   3.234   2.167   3.587 -0.4309  0.1230 -0.1253
 2719poe    c2311026   3.317   2.113   3.705 -0.3029  0.2178 -0.1718
 2719poe     o211027   3.222   2.121   3.809 -0.1621  0.2139 -0.0437
 2719poe    c3111028   3.272   2.037   3.911  0.1929 -0.2658 -0.6039
 2720poe    c3111029   6.020   1.298   4.841  0.1280 -0.2288 -0.1302
 2720poe     o211030   5.888   1.260   4.812  0.1837 -0.2320 -0.3835
 2720poe    c2311031   5.882   1.151   4.724  0.5190  0.1022 -0.8205
 2720poe    c2311032   5.744   1.093   4.687  0.1221  0.3995  0.1678
 2720poe     o211033   5.750   1.007   4.575  0.2327  0.1088  0.3949
 2720poe    c2311034   5.629   0.972   4.512  0.5339  0.0740 -0.1722
 2720poe    c2311035   5.658   0.906   4.376 -0.0058  0.4541 -0.4780
 2720poe     o211036   5.748   0.798   4.385 -0.0650  0.4500  0.1051
 2720poe    c2311037   5.786   0.756   4.256 -0.3876 -0.5416  0.3285
 2720poe    c2311038   5.821   0.606   4.263  0.4015 -0.3695  0.1690
 2720poe     o211039   5.920   0.596   4.363  0.3733 -0.3651  0.1975
 2720poe    c3111040   5.964   0.466   4.394  0.7406 -0.2136  0.3172
 2721poe    c3111041   2.545   2.751   2.665  0.5322 -0.0931 -0.1394
 2721poe     o211042   2.649   2.656   2.676 -0.1151 -0.7688  0.3145
 2721poe    c2311043   2.707   2.631   2.549 -0.1386 -0.4532  0.2408
 2721poe    c2311044   2.824   2.533   2.565  0.0640 -0.2408  0.0613
 2721poe     o211045   2.789   2.397   2.579 -0.0300 -0.2695 -0.4532
 2721poe    c2311046   2.764   2.360   2.712 -0.3869  1.0469 -0.1420
 2721poe    c2311047   2.662   2.244   2.709  0.3551  0.3848  0.0580
 2721poe     o211048   2.525   2.272   2.697  0.1743 -0.3631  0.3117
 2721poe    c2311049   2.493   2.308   2.564  0.3802  0.4332  0.4710
 2721poe    c2311050   2.351   2.366   2.551  0.2222 -0.0355  0.1069
 2721poe     o211051   2.317   2.490   2.608 -0.5673 -0.4599  0.5864
 2721poe    c3111052   2.194   2.543   2.565 -0.0270  0.2078 -0.1769
 2722poe    c3111053   1.254   1.701   5.964 -0.2274  0.8988  1.1115
 2722poe     o211054   1.167   1.593   5.993  0.1638  0.2704 -0.0088
 2722poe    c2311055   1.152   1.574   6.131  0.2449 -0.1963 -0.0641
 2722poe    c2311056   1.034   1.479   6.158 -0.2415  0.3875 -0.1151
 2722poe     o211057   1.047   1.344   6.119 -0.1014  0.2966  0.2378
 2722poe    c2311058   0.931   1.264   6.113 -0.0233  0.1843  0.2206
 2722poe    c2311059   0.928   1.169   5.992 -0.3796  0.2565  0.1718
 2722poe     o211060   0.944   1.240   5.871 -0.5254  0.1387  0.0837
 2722poe    c2311061   0.888   1.172   5.760 -0.0365  0.4518 -0.3629
 2722poe    c2311062   0.904   1.253   5.630  0.5896  0.6041 -0.1926
 2722poe     o211063   0.822   1.367   5.634 -0.2385  0.0204 -0.2749
 2722poe    c3111064   0.742   1.394   5.521  0.3586  0.8887 -0.5012
 2723poe    c3111065   7.265   4.606   7.231 -0.1247 -0.3520  0.4459
 2723poe     o211066   7.309   4.626   7.099 -0.5554  0.4399  0.4139
 2723poe    c2311067   7.347   4.760   7.081  0.4009  0.1315  0.0797
 2723poe    c2311068   7.333   4.810   6.936  0.2871  0.2781  0.1407
 2723poe     o211069   7.364   4.946   6.916  0.2752  0.2097 -0.3648
 2723poe    c2311070   7.356   4.972   6.778 -0.1392 -0.3408 -0.4497
 2723poe    c2311071   7.329   5.124   6.769 -0.0449 -0.2596  0.5362
 2723poe     o211072   7.227   5.166   6.856 -0.3818 -0.3551  0.1943
 2723poe    c2311073   7.198   5.302   6.832  0.2191 -0.2561 -0.0034
 2723poe    c2311074   7.086   5.356   6.924  0.0115 -0.2336 -0.2679
 2723poe     o211075   7.135   5.338   7.055  0.2942  0.2387 -0.3051
 2723poe    c3111076   7.188   5.451   7.119  0.0389  0.0773  0.1928
 2724poe    c3111077   3.024   6.423   3.581  0.1689 -0.7873  0.1100
 2724poe     o211078   2.902   6.492   3.565  0.4327 -0.3182  0.1202
 2724poe    c2311079   2.908   6.630   3.536  0.0630 -0.4436 -0.5484
 2724poe    c2311080   2.783   6.692   3.471 -0.1265  0.3583  0.5650
 2724poe     o211081   2.663   6.693   3.545 -0.4098 -0.6996  0.1419
 2724poe    c2311082   2.555   6.705   3.456 -0.2079 -0.4313 -0.0697
 2724poe    c2311083   2.449   6.608   3.511 -0.5860 -0.1658 -0.3218
 2724poe     o211084   2.430   6.629   3.649  0.0596 -0.3058 -0.2104
 2724poe    c2311085   2.315   6.553   3.681  0.2876 -0.6934 -0.3022
 2724poe    c2311086   2.304   6.557   3.835  0.2320  0.4217 -0.3293
 2724poe     o211087   2.243   6.673   3.887  0.0040  0.0730  0.1872
 2724poe    c3111088   2.185   6.657   4.015 -0.0781 -0.5054  0.0791
 2725poe    c3111089   1.668   0.235   4.139 -0.8670  0.2623 -0.5899
 2725poe     o211090   1.661   0.096   4.162 -0.3665  0.3612  0.2022
 2725poe    c2311091   1.734   0.025   4.259 -1.0066 -0.2676  0.2278
 2725poe    c2311092   1.703   0.068   4.404  0.4725 -0.2499  0.5504
 2725poe     o211093   1.725  -0.034   4.499 -0.2372 -0.7588  0.1778
 2725poe    c2311094   1.687   0.007   4.628 -0.0655  0.1103 -0.0425
 2725poe    c2311095   1.669  -0.093   4.743  0.4123 -0.0247 -0.0818
 2725poe     o211096   1.776  -0.177   4.781  0.4657  0.0773 -0.0063
 2725poe    c2311097   1.750  -0.238   4.906  0.3173  0.8555  0.3467
 2725poe    c2311098   1.848  -0.351   4.939 -0.2362  0.2858  0.0533
 2725poe     o211099   1.970  -0.301   4.987 -0.3150  0.4701  0.0630
 2725poe    c3111100   2.059  -0.400   5.037  0.3156  0.5211 -0.9360
 2726poe    c3111101   3.997   4.163   1.055 -0.3136 -0.0284 -0.6744
 2726poe     o211102   4.117   4.231   1.025 -0.3260  0.1300 -0.3673
 2726poe    c2311103   4.189   4.274   1.138 -0.6461 -0.8839  0.2415
 2726poe    c2311104   4.304   4.184   1.189  0.0661 -0.1025  0.0384
 2726poe     o211105   4.271   4.059   1.244  0.1607 -0.0259  0.2703
 2726poe    c2311106   4.237   3.955   1.155 -0.3445  0.3613  0.0046
 2726poe    c2311107   4.229   3.824   1.235 -0.7820  0.4287  0.0721
 2726poe     o211108   4.362   3.811   1.278 -0.5031 -0.0804 -0.9206
 2726poe    c2311109   4.381   3.681   1.331 -0.1337  0.1698 -0.4286
 2726poe    c2311110   4.534   3.662   1.337 -0.0749  0.8270  0.3088
 2726poe     o211111   4.591   3.790   1.358 -0.0029  0.7503  0.5775
 2726poe    c3111112   4.728   3.771   1.386  0.0124  0.1137  0.1035
 2727poe    c3111113   3.303   7.105   4.352 -0.0175  0.1169 -0.1285
 2727poe     o211114   3.327   7.127   4.489 -0.2046  0.2575 -0.1176
 2727poe    c2311115   3.337   6.994   4.536  0.0140  0.2961 -0.0542
 2727poe    c2311116   3.357   6.992   4.689 -0.1297 -0.8746 -0.0458
 2727poe     o211117   3.260   7.049   4.774  0.1626 -0.1138 -0.2170
 2727poe    c2311118   3.185   6.951   4.843 -0.4451  0.1586 -0.4826
 2727poe    c2311119   3.067   7.024   4.908 -0.2745 -0.3085  0.3590
 2727poe     o211120   3.099   7.144   4.976 -0.4179 -0.3140  0.4356
 2727poe    c2311121   3.156   7.139   5.105  0.7236 -0.5821 -0.0743
 2727poe    c2311122   3.157   7.270   5.185  0.0473 -0.4009 -0.3594
 2727poe     o211123   3.245   7.378   5.160 -0.4171  0.2203  0.6067
 2727poe    c3111124   3.176   7.500   5.167 -0.3386  0.3229 -0.2341
 2728poe    c3111125   4.917   1.573   0.533 -0.2254  0.1638 -0.2817
 2728poe     o211126   4.886   1.489   0.424 -0.3983 -0.4588  0.2348
 2728poe    c2311127   4.920   1.357   0.460 -0.6357 -0.5832  0.0029
 2728poe    c2311128   4.962   1.284   0.331  0.1508  0.1114 -0.1379
 2728poe     o211129   4.860   1.279   0.234 -0.1231 -0.5348  0.1821
 2728poe    c2311130   4.898   1.182   0.139 -0.2012 -0.3383 -0.0516
 2728poe    c2311131   4.766   1.137   0.074  0.0771 -0.3097 -0.6474
 2728poe     o211132   4.688   1.252   0.052  0.0914 -0.1474  0.1249
 2728poe    c2311133   4.556   1.228   0.008  0.1676  0.1153 -0.2552
 2728poe    c2311134   4.506   1.355  -0.061 -0.0558 -0.0544 -0.4081
 2728poe     o211135   4.536   1.451   0.037 -0.0377 -0.5226  0.0457
 2728poe    c3111136   4.524   1.586  -0.002  0.3505 -0.4546  0.1557
 2729poe    c3111137   1.384   5.357   5.948  0.4722 -0.0817 -0.0854
 2729poe     o211138   1.291   5.463   5.962 -0.0752 -0.5736  0.0646
 2729poe    c2311139   1.367   5.569   6.016 -0.3662 -0.4529  0.2389
 2729poe    c2311140   1.291   5.694   6.063 -0.0599 -0.3204  0.3894
 2729poe     o211141   1.222   5.677   6.185 -0.2217  0.5259  0.4215
 2729poe    c2311142   1.299   5.674   6.303  0.1554 -0.3771  0.1613
 2729poe    c2311143   1.217   5.619   6.422 -0.7245 -0.1824 -0.3435
 2729poe     o211144   1.103   5.696   6.455 -0.1047  0.3971  0.5074
 2729poe    c2311145   1.005   5.631   6.532 -0.5873  0.3598 -0.1342
 2729poe    c2311146   0.913   5.742   6.587 -0.7644  0.1818 -0.0697
 2729poe     o211147   0.878   5.825   6.479 -0.5271 -0.0988 -0.3664
 2729poe    c3111148   0.804   5.941   6.513 -0.2244 -0.0758  0.2232
 2730poe    c3111149   4.239   7.000   1.692 -0.4232  0.5452 -0.1677
 2730poe     o211150   4.113   6.939   1.672 -0.0117 -0.3634 -0.0183
 2730poe    c2311151   4.130   6.810   1.618 -0.3164 -0.2808 -0.3164
 2730poe    c2311152   4.073   6.783   1.477 -0.2909 -0.1340 -0.3540
 2730poe     o211153   4.151   6.840   1.374 -0.0399 -0.7876 -0.5266
 2730poe    c2311154   4.098   6.809   1.247 -0.3300 -0.0038 -0.5993
 2730poe    c2311155   4.192   6.851   1.132  0.6916 -0.5078  0.0355
 2730poe     o211156   4.194   6.991   1.113 -0.0597 -0.5004 -0.0367
 2730poe    c2311157   4.281   6.998   1.002  0.1992  0.5646  0.2250
 2730poe    c2311158   4.331   7.142   0.980  0.2473  0.4674 -0.3274
 2730poe     o211159   4.412   7.206   1.077  0.3952 -0.1223 -0.0608
 2730poe    c3111160   4.447   7.333   1.029  0.2993 -0.0175  0.1459
 2731poe    c3111161   1.098   5.170   0.858  0.2089 -0.1850 -0.9000
 2731poe     o211162   1.065   5.046   0.916 -0.4423  0.2329 -0.3550
 2731poe    c2311163   1.161   4.981   0.997 -0.8299 -0.0708 -0.1362
 2731poe    c2311164   1.118   4.838   1.034 -0.1940 -0.3844 -0.5933
 2731poe     o211165   0.979   4.829   1.057 -0.0817 -0.2767  0.1543
 2731poe    c2311166   0.944   4.698   1.096 -0.5719 -0.2625 -0.2256
 2731poe    c2311167   0.792   4.677   1.084 -0.6369  0.2330 -0.3089
 2731poe     o211168   0.746   4.682   0.951  0.2203  0.5945 -0.6012
 2731poe    c2311169   0.607   4.660   0.950  0.3082 -0.0236 -0.1140
 2731poe    c2311170   0.556   4.681   0.806 -0.7814  0.3475  0.3164
 2731poe     o211171   0.536   4.813   0.761 -0.6800  0.3033  0.1410
 2731poe    c3111172   0.542   4.820   0.620 -0.7034 -0.0141  0.1244
 2732poe    c3111173   6.647   1.568   4.384  0.3830  0.2179  0.4066
 2732poe     o211174   6.770   1.511   4.424  0.0696 -0.0986  0.9349
 2732poe    c2311175   6.809   1.405   4.341 -0.1876 -0.1405  0.8680
 2732poe    c2311176   6.958   1.369   4.358  0.1152  0.5427 -0.2111
 2732poe     o211177   6.981   1.331   4.492  0.2852 -0.2246 -0.4522
 2732poe    c2311178   7.112   1.290   4.526  0.2173  0.0803  0.1851
 2732poe    c2311179   7.109   1.238   4.671  0.2511  0.0604  0.1784
 2732poe     o211180   7.093   1.338   4.769  0.3917 -0.3217  0.5986
 2732poe    c2311181   7.076   1.288   4.899 -0.1078 -1.1977  0.2098
 2732poe    c2311182   7.010   1.398   4.985 -0.1033 -0.9624 -0.0867
 2732poe     o211183   6.884   1.441   4.940  0.3291  0.5006  0.0617
 2732poe    c3111184   6.815   1.528   5.026  0.3685  0.8189 -0.2255
 2733poe    c3111185   2.944   6.682   2.946  0.9366  0.1139  0.6846
 2733poe     o211186   2.941   6.738   2.817 -0.2046 -0.1154  0.5980
 2733poe    c2311187   2.976   6.875   2.825 -0.5218 -0.0161  0.3044
 2733poe    c2311188   3.118   6.906   2.774 -0.7067  0.2149 -0.0725
 2733poe     o211189   3.111   6.854   2.643  0.1157  0.2724 -0.1459
 2733poe    c2311190   3.222   6.890   2.565  0.2311 -0.5853 -0.3914
 2733poe    c2311191   3.192   6.883   2.414  0.6639  0.2702 -0.5274
 2733poe     o211192   3.126   6.766   2.373  0.3317  0.4013 -0.3710
 2733poe    c2311193   3.067   6.768   2.245 -0.3591  0.4907 -0.0570
 2733poe    c2311194   2.937   6.685   2.244  0.0088 -0.0926 -1.0067
 2733poe     o211195   2.965   6.548   2.261 -0.5834 -0.0808  0.1609
 2733poe    c3111196   3.003   6.480   2.143 -0.1354 -0.2449  0.3980
 2734poe    c3111197   4.880   4.412   3.341  0.3860 -0.7547 -0.5539
 2734poe     o211198   4.828   4.538   3.304  0.5433 -0.5340 -0.0272
 2734poe    c2311199   4.800   4.602   3.427 -0.0938 -0.5671 -0.1496
 2734poe    c2311200   4.739   4.743   3.427 -0.1365 -0.5855 -0.2283
 2734poe     o211201   4.610   4.753   3.371 -0.0824  0.2240 -0.2277
 2734poe    c2311202   4.575   4.889   3.359  0.4439  0.3831  0.0040
 2734poe    c2311203   4.423   4.887   3.336  0.4761  0.0252 -0.1891
 2734poe     o211204   4.407   4.818   3.214  0.0763  0.3799 -0.3405
 2734poe    c2311205   4.269   4.798   3.191 -0.0193  0.0738  0.4712
 2734poe    c2311206   4.247   4.690   3.084 -0.0978  0.2684  0.2912
 2734poe     o211207   4.326   4.577   3.114 -0.1947  0.0040 -0.4152
 2734poe    c3111208   4.280   4.464   3.043  0.4090 -0.6220  0.1729
 2735poe    c3111209   1.866   3.487   2.849  0.1398  0.0030  0.1692
 2735poe     o211210   1.803   3.464   2.725 -0.1788  0.4874  0.2387
 2735poe    c2311211   1.819   3.567   2.629  0.4809 -0.3059 -0.5199
 2735poe    c2311212   1.789   3.498   2.494 -0.5541 -0.0226 -0.4495
 2735poe     o211213   1.691   3.398   2.506 -0.7195  0.1705 -0.2040
 2735poe    c2311214   1.653   3.328   2.390 -0.1967  0.0410 -0.2973
 2735poe    c2311215   1.601   3.188   2.428  0.3392  0.0603  0.5283
 2735poe     o211216   1.519   3.186   2.543  0.1252 -1.1624  0.3714
 2735poe    c2311217   1.393   3.140   2.499 -0.0913  0.3317 -0.6666
 2735poe    c2311218   1.302   3.117   2.621  0.9474 -0.1125  0.0440
 2735poe     o211219   1.321   2.988   2.673 -0.1722 -0.1510  0.3814
 2735poe    c3111220   1.282   2.983   2.808 -0.4280 -0.1362  0.3090
 2736poe    c3111221   5.282   0.647   3.858 -0.0157 -0.4572 -0.0200
 2736poe     o211222   5.419   0.679   3.846  0.1516 -0.8910  0.7017
 2736poe    c2311223   5.470   0.625   3.726  0.0490  0.0132  0.2490
 2736poe    c2311224   5.620   0.651   3.705  0.0259 -0.1174 -0.0872
 2736poe     o211225   5.635   0.791   3.688  0.6031 -0.1495  0.1279
 2736poe    c2311226   5.719   0.848   3.786  0.0000 -0.1670  0.6653
 2736poe    c2311227   5.683   0.998   3.785 -0.8316 -0.3592  0.1629
 2736poe     o211228   5.549   1.024   3.818 -0.6000  0.3691  0.5473
 2736poe    c2311229   5.515   1.016   3.955  0.0685 -0.2187  0.6845
 2736poe    c2311230   5.364   1.028   3.981 -0.0613 -0.1084 -0.0845
 2736poe     o211231   5.303   1.154   3.960  0.2947  0.0136 -0.4080
 2736poe    c3111232   5.184   1.172   4.035  0.0616 -0.3334 -0.6931
 2737poe    c3111233   3.424   6.927   3.672  0.0091  0.2549 -0.5201
 2737poe     o211234   3.495   6.968   3.786 -0.0479 -0.3880 -0.2514
 2737poe    c2311235   3.527   6.861   3.873 -0.4707 -0.1737  0.1723
 2737poe    c2311236   3.582   6.902   4.010  0.0128 -0.9464  0.2145
 2737poe     o211237   3.710   6.962   4.001 -0.1259 -0.6774  0.0203
 2737poe    c2311238   3.761   7.007   4.124 -0.3035  0.1333 -0.1998
 2737poe    c2311239   3.845   7.135   4.136  0.1720 -0.1326 -0.6816
 2737poe     o211240   3.781   7.261   4.135  0.3452 -0.0254  0.2040
 2737poe    c2311241   3.689   7.280   4.239  0.2770 -0.2239  0.1815
 2737poe    c2311242   3.694   7.430   4.275 -0.5058 -0.1422 -0.0308
 2737poe     o211243   3.680   7.507   4.157 -0.1364  0.1462  0.1120
 2737poe    c3111244   3.711   7.640   4.192  0.2433  0.0892 -0.0097
 2738poe    c3111245   1.784   4.627   2.675  0.1228 -0.1745 -0.3777
 2738poe     o211246   1.867   4.639   2.562  0.0266 -0.0735 -0.4372
 2738poe    c2311247   1.796   4.688   2.450 -0.3896  0.1239 -0.0887
 2738poe    c2311248   1.788   4.842   2.443 -0.6152  0.1330  0.3393
 2738poe     o211249   1.688   4.902   2.522 -0.5053  0.2245  0.4084
 2738poe    c2311250   1.677   5.043   2.511  0.0006  0.2365 -0.0074
 2738poe    c2311251   1.632   5.101   2.646 -0.4928  0.0558 -0.0917
 2738poe     o211252   1.504   5.062   2.692 -0.6184  0.1128 -0.3921
 2738poe    c2311253   1.490   5.124   2.818 -0.3786 -0.0120 -0.3022
 2738poe    c2311254   1.376   5.064   2.903  0.1508 -0.4651  0.0911
 2738poe     o211255   1.244   5.087   2.859  0.1816 -0.3854  0.0397
 2738poe    c3111256   1.141   5.045   2.946  0.1012 -0.5263 -0.1237
 2739poe    c3111257   3.311   5.296   4.578  0.1049  0.1047  0.2352
 2739poe     o211258   3.208   5.217   4.523  0.0184  0.0496  0.4782
 2739poe    c2311259   3.087   5.236   4.592  0.1676  0.4565  0.6338
 2739poe    c2311260   2.960   5.265   4.510  0.3964  0.1442  0.1661
 2739poe     o211261   2.920   5.146   4.445 -0.2005  0.3191  0.1998
 2739poe    c2311262   2.798   5.177   4.382 -0.2873 -0.3205  0.0487
 2739poe    c2311263   2.775   5.078   4.266 -0.4573  0.3921 -0.5325
 2739poe     o211264   2.761   4.942   4.302 -0.0673  0.4335 -0.2220
 2739poe    c2311265   2.747   4.866   4.185 -0.7118 -0.2124  0.2598
 2739poe    c2311266   2.793   4.725   4.227 -0.6993 -0.1604  0.4167
 2739poe     o211267   2.901   4.722   4.318  0.0990 -0.0879 -0.5183
 2739poe    c3111268   2.959   4.594   4.314 -0.4521 -0.3471 -0.2175
 2740poe    c3111269   6.187   0.741   7.145 -0.2295  0.1971 -0.1528
 2740poe     o211270   6.124   0.749   7.019 -0.2619  0.3014 -0.1309
 2740poe    c2311271   5.991   0.792   7.043 -0.4084 -0.0646 -0.2795
 2740poe    c2311272   5.931   0.843   6.911 -0.4778 -0.5966 -0.4564
 2740poe     o211273   6.006   0.941   6.843 -0.0138 -0.4460  0.2658
 2740poe    c2311274   5.929   1.043   6.783  0.4655  0.0341  0.4621
 2740poe    c2311275   6.007   1.114   6.671  0.3985 -0.1233  0.3152
 2740poe     o211276   6.114   1.177   6.738  0.1023  0.4188  0.2854
 2740poe    c2311277   6.214   1.224   6.650  0.1866 -0.0320  0.1353
 2740poe    c2311278   6.306   1.303   6.746 -0.2128  0.1571  0.3666
 2740poe     o211279   6.351   1.216   6.847  0.0957 -0.1397 -0.0183
 2740poe    c3111280   6.466   1.259   6.917 -0.0977  0.1359  0.1353
 2741poe    c3111281   1.566   5.805   4.679 -0.0936 -0.3784 -0.3307
 2741poe     o211282   1.700   5.828   4.640 -0.0293 -0.5960 -0.2393
 2741poe    c2311283   1.771   5.880   4.750  0.0129 -0.2237 -0.4424
 2741poe    c2311284   1.921   5.874   4.712  0.0613  0.1173 -0.3128
 2741poe     o211285   1.982   5.965   4.624 -0.2840  0.2161 -0.4518
 2741poe    c2311286   1.990   6.100   4.667 -0.6496  0.1770 -0.2551
 2741poe    c2311287   2.087   6.183   4.581  0.1986 -0.6113 -0.0826
 2741poe     o211288   2.043   6.202   4.448  0.1750 -0.3410 -0.0366
 2741poe    c2311289   2.145   6.263   4.372  0.4033 -0.1023  0.4581
 2741poe    c2311290   2.081   6.326   4.247  0.5387 -0.4956  0.1872
 2741poe     o211291   2.016   6.218   4.184 -1.0356  0.4001  0.2078
 2741poe    c3111292   1.971   6.253   4.055 -0.5361 -0.1387 -0.1163
 2742poe    c3111293   2.465   0.383   6.988  0.6028  0.3269 -0.1991
 2742poe     o211294   2.425   0.420   7.118 -0.1253  0.1431 -0.3675
 2742poe    c2311295   2.331   0.525   7.113 -0.5477 -0.1783  0.6344
 2742poe    c2311296   2.311   0.613   7.238  0.0266  0.0517  0.5651
 2742poe     o211297   2.421   0.696   7.268  0.2802 -0.0844  0.0107
 2742poe    c2311298   2.413   0.748   7.398 -0.0903 -0.0573 -0.0218
 2742poe    c2311299   2.497   0.877   7.410 -0.0513 -0.0605 -0.2533
 2742poe     o211300   2.633   0.841   7.401  0.0776  0.4388 -0.3034
 2742poe    c2311301   2.724   0.947   7.423 -0.0617  0.4330  0.3106
 2742poe    c2311302   2.723   1.060   7.318 -0.1031  0.5746  0.4624
 2742poe     o211303   2.775   1.016   7.194  0.2851  0.1168  0.7846
 2742poe    c3111304   2.860   1.120   7.150  0.0322 -0.3860 -0.9397
 2743poe    c3111305   1.219   4.195   2.498 -0.3097  0.1006  0.3982
 2743poe     o211306   1.259   4.330   2.497 -0.0427  0.0247 -0.4132
 2743poe    c2311307   1.392   4.342   2.545 -0.2506  0.4074  0.0873
 2743poe    c2311308   1.449   4.483   2.520  0.0517  0.1840 -0.5178
 2743poe     o211309   1.358   4.577   2.573 -0.1435 -0.5062  0.4095
 2743poe    c2311310   1.417   4.691   2.630 -0.1925  0.1141 -0.7454
 2743poe    c2311311   1.318   4.808   2.615 -0.1537  0.2122 -0.2570
 2743poe     o211312   1.191   4.749   2.608 -0.0214 -0.0008 -1.0441
 2743poe    c2311313   1.092   4.842   2.648  0.4378  0.4506 -0.9461
 2743poe    c2311314   0.950   4.792   2.617  0.4127 -0.1007 -0.0009
 2743poe     o211315   0.922   4.792   2.478 -0.2789 -1.1049  0.1243
 2743poe    c3111316   0.787   4.753   2.463 -0.4707 -0.3580 -0.1725
 2744poe    c3111317   6.664   6.081   6.597  0.4225  1.0899  0.5514
 2744poe     o211318   6.560   6.127   6.514 -0.4436 -0.6326  0.6282
 2744poe    c2311319   6.486   6.223   6.586 -0.0122  0.0557  0.1754
 2744poe    c2311320   6.375   6.296   6.508  0.1704  0.0721 -0.0698
 2744poe     o211321   6.273   6.220   6.447 -0.3118  0.3696  0.3529
 2744poe    c2311322   6.189   6.296   6.364  0.2524 -0.0723 -0.6388
 2744poe    c2311323   6.081   6.214   6.290  0.3118 -0.5319 -0.2214
 2744poe     o211324   6.020   6.126   6.382  0.5045 -0.1753  0.2522
 2744poe    c2311325   5.924   6.046   6.317  1.1041 -0.5734 -0.1512
 2744poe    c2311326   5.874   5.942   6.420 -0.3438 -0.3195 -0.5750
 2744poe     o211327   5.973   5.843   6.438  0.0228  0.0637 -0.4441
 2744poe    c3111328   5.956   5.808   6.574 -0.1526 -0.1128 -0.5093
 2745poe    c3111329   4.294   1.016   5.436 -0.0933 -0.8740 -0.8628
 2745poe     o211330   4.201   0.923   5.488 -0.0080 -0.1796  0.5776
 2745poe    c2311331   4.195   0.819   5.393 -0.6569  0.5864 -0.2351
 2745poe    c2311332   4.071   0.730   5.416  0.0483 -0.2927  0.1951
 2745poe     o211333   4.074   0.647   5.530  0.9599  0.0674  0.4475
 2745poe    c2311334   3.942   0.612   5.566  0.7505  0.2350 -0.1400
 2745poe    c2311335   3.951   0.587   5.718  0.2143  0.2862 -0.0964
 2745poe     o211336   4.007   0.687   5.800  0.2819  0.3219 -0.1855
 2745poe    c2311337   3.972   0.674   5.936 -0.2287  0.0291 -0.3423
 2745poe    c2311338   4.008   0.800   6.016  0.2271 -0.6018  0.4632
 2745poe     o211339   4.136   0.845   5.976 -0.3416  0.3652 -0.3045
 2745poe    c3111340   4.150   0.965   6.048 -0.0632  0.0149  0.2281
 2746poe    c3111341   4.707   2.895   2.120  0.0561 -0.2508  0.4061
 2746poe     o211342   4.739   2.998   2.212  0.1944  0.0925 -0.0207
 2746poe    c2311343   4.841   2.963   2.303 -0.2082 -0.3542  0.2643
 2746poe    c2311344   4.854   3.088   2.393 -0.4914  0.0066 -0.1948
 2746poe     o211345   4.828   3.205   2.319  0.4754  0.1675 -0.2975
 2746poe    c2311346   4.837   3.316   2.406 -0.2057 -0.1588  0.2024
 2746poe    c2311347   4.789   3.442   2.334 -0.6120 -0.4859 -0.0987
 2746poe     o211348   4.665   3.424   2.269 -0.4831 -0.8608 -0.2411
 2746poe    c2311349   4.599   3.543   2.232  0.4606 -0.2702 -0.0473
 2746poe    c2311350   4.456   3.519   2.182  0.3409  0.5747 -0.1225
 2746poe     o211351   4.386   3.440   2.275  0.2206  0.4475 -0.3204
 2746poe    c3111352   4.250   3.433   2.236 -0.0108  0.0047  0.5406
 2747poe    c3111353   2.395   6.087   4.109  0.0234  0.5411  0.3193
 2747poe     o211354   2.431   6.159   3.993  0.3307 -0.1427 -0.0182
 2747poe    c2311355   2.558   6.220   4.001 -0.1657  0.9709 -0.3739
 2747poe    c2311356   2.584   6.310   3.879  0.4687  0.0306 -0.9446
 2747poe     o211357   2.526   6.255   3.763 -0.6610 -0.1771 -0.2968
 2747poe    c2311358   2.590   6.292   3.642 -0.4726  0.2829 -0.0584
 2747poe    c2311359   2.514   6.229   3.524 -0.3586  0.1157 -0.0429
 2747poe     o211360   2.493   6.090   3.522 -0.2087  0.0980 -0.5232
 2747poe    c2311361   2.590   6.004   3.467 -0.3224 -0.2574 -0.1766
 2747poe    c2311362   2.573   5.856   3.503 -0.1497 -0.0592  0.7522
 2747poe     o211363   2.449   5.806   3.456 -0.1420  0.4783  0.1359
 2747poe    c3111364   2.479   5.686   3.388  0.5176  0.6230  0.1592
 2748poe    c3111365   5.759   2.935   1.857  0.7888 -0.0199 -0.1113
 2748poe     o211366   5.704   2.947   1.727  0.3725 -0.1479  0.0519
 2748poe    c2311367   5.809   2.966   1.634 -0.1245  0.1608 -0.4458
 2748poe    c2311368   5.758   2.977   1.489  0.4602 -0.5945 -0.7094
 2748poe     o211369   5.683   2.870   1.435 -0.4001 -0.2555 -0.2020
 2748poe    c2311370   5.681   2.876   1.295 -0.1132 -0.2144 -0.2053
 2748poe    c2311371   5.577   2.794   1.216 -0.2798 -0.1052 -0.0991
 2748poe     o211372   5.557   2.665   1.271 -0.1548 -0.2200 -0.3221
 2748poe    c2311373   5.503   2.562   1.191  0.2771 -0.6700 -0.0393
 2748poe    c2311374   5.355   2.580   1.152  0.3699  0.6306  0.1558
 2748poe     o211375   5.256   2.567   1.251 -0.5626 -0.9193 -0.9421
 2748poe    c3111376   5.125   2.577   1.200 -0.5247  0.1510 -0.8384
 2749poe    c3111377   1.392   0.999   5.522 -0.0166  0.1177  0.0020
 2749poe     o211378   1.520   1.003   5.464 -0.0922  0.1310 -0.1639
 2749poe    c2311379   1.583   0.877   5.461  0.0129  0.1925 -0.5420
 2749poe    c2311380   1.716   0.844   5.391  0.0142 -0.2841 -0.3181
 2749poe     o211381   1.829   0.927   5.409 -0.0885 -0.1995 -0.0554
 2749poe    c2311382   1.948   0.889   5.342  0.0696  0.7616 -0.3355
 2749poe    c2311383   2.073   0.936   5.417 -0.0629 -0.6133  0.7952
 2749poe     o211384   2.072   1.076   5.431 -0.2518 -0.5632  0.2837
 2749poe    c2311385   2.195   1.125   5.479 -0.0394 -0.2534 -0.5429
 2749poe    c2311386   2.198   1.278   5.490  0.8475 -0.3001 -0.0345
 2749poe     o211387   2.231   1.350   5.373  0.0512  0.4487  0.1851
 2749poe    c3111388   2.365   1.320   5.338 -0.2308 -0.4126 -0.1977
 2750poe    c3111389   1.760   3.117   6.607 -0.5355 -0.5794  0.2568
 2750poe     o211390   1.663   3.071   6.516 -0.7744  0.3453  0.0305
 2750poe    c2311391   1.651   2.931   6.530 -0.8291  0.3502  0.0325
 2750poe    c2311392   1.554   2.868   6.429 -0.2651  0.3325 -0.5053
 2750poe     o211393   1.609   2.858   6.300 -0.1012  0.2491 -0.4284
 2750poe    c2311394   1.505   2.860   6.204 -0.6141  0.3236  0.1270
 2750poe    c2311395   1.553   2.861   6.058 -0.0068  0.0606  0.3197
 2750poe     o211396   1.622   2.982   6.039  0.1832 -0.0649  0.2098
 2750poe    c2311397   1.674   2.990   5.908 -0.3291  0.3433  0.0291
 2750poe    c2311398   1.720   3.136   5.892  0.2917  0.1848  0.3272
 2750poe     o211399   1.796   3.172   6.005  0.3379 -0.0242  0.3634
 2750poe    c3111400   1.924   3.215   5.965  0.2112 -0.2753 -0.3344
 2751poe    c3111401   0.907   4.565   3.755 -0.3512 -0.4475 -0.7902
 2751poe     o211402   0.952   4.686   3.810 -0.3333 -0.5227 -0.6397
 2751poe    c2311403   0.849   4.778   3.785  0.0389  0.0336 -0.1666
 2751poe    c2311404   0.896   4.914   3.839  0.3557 -0.2107  0.1731
 2751poe     o211405   0.993   4.906   3.942  0.5107  0.0314  0.0471
 2751poe    c2311406   1.017   5.033   4.000 -0.1032  0.2112 -0.0829
 2751poe    c2311407   1.159   5.047   4.057 -0.2634  0.1248  0.3407
 2751poe     o211408   1.174   4.969   4.173 -0.3519 -0.0906  0.2069
 2751poe    c2311409   1.297   4.952   4.238 -0.0799 -0.6304 -0.4355
 2751poe    c2311410   1.275   4.927   4.389 -0.2588 -0.5799 -0.4540
 2751poe     o211411   1.159   4.853   4.420 -0.8275  0.3585 -0.2988
 2751poe    c3111412   1.154   4.717   4.381 -0.1928  0.2837 -0.1267
 2752poe    c3111413   0.890   3.408   3.798  0.2269 -0.5340 -0.2376
 2752poe     o211414   0.964   3.395   3.917 -0.3623 -0.2090  0.1699
 2752poe    c2311415   0.987   3.517   3.985 -0.2329  0.2055 -0.6050
 2752poe    c2311416   0.967   3.494   4.136  0.4430  0.5713 -0.4548
 2752poe     o211417   1.068   3.408   4.182 -0.2614  0.0670  0.1746
 2752poe    c2311418   1.042   3.350   4.308  0.0214 -0.1022  0.1566
 2752poe    c2311419   1.142   3.242   4.353  0.2392  0.1169  0.1998
 2752poe     o211420   1.139   3.136   4.260 -0.5103  0.1320  0.2036
 2752poe    c2311421   1.211   3.023   4.304 -0.1261  0.2412 -0.1432
 2752poe    c2311422   1.309   2.956   4.205 -0.3834 -0.1032 -0.1639
 2752poe     o211423   1.239   2.896   4.098  0.1075 -0.4647 -0.2844
 2752poe    c3111424   1.337   2.828   4.023  0.2275 -0.5369 -0.0638
 2753poe    c3111425   6.062   0.878   6.411 -0.1824  0.5939 -0.4520
 2753poe     o211426   6.101   0.818   6.289 -0.0922 -0.1635 -0.0536
 2753poe    c2311427   6.225   0.882   6.266 -0.0541 -0.2916 -0.2071
 2753poe    c2311428   6.309   0.810   6.159  0.6973  0.2728 -0.0032
 2753poe     o211429   6.250   0.824   6.032 -0.0284 -0.0753  0.2875
 2753poe    c2311430   6.327   0.742   5.946  0.3449  0.7333 -0.1701
 2753poe    c2311431   6.255   0.745   5.810  0.0137  0.2764 -0.0083
 2753poe     o211432   6.117   0.728   5.830  0.1342 -0.4697  0.2377
 2753poe    c2311433   6.062   0.667   5.715 -0.1775  0.3260 -0.0449
 2753poe    c2311434   5.914   0.639   5.747 -0.2763  0.9266  0.0306
 2753poe     o211435   5.842   0.758   5.764 -0.1316  1.0521 -0.2321
 2753poe    c3111436   5.715   0.713   5.807  0.4988 -0.0124  0.5487
 2754poe    c3111437   6.702   3.135   4.715  0.1340 -0.6190 -0.1913
 2754poe     o211438   6.624   3.176   4.825  0.4388 -0.0877 -0.1695
 2754poe    c2311439   6.704   3.152   4.939  0.7898 -0.0256 -0.3984
 2754poe    c2311440   6.613   3.133   5.062  0.2415  0.0020 -0.7980
 2754poe     o211441   6.531   3.019   5.055  0.5025 -0.2848  0.5535
 2754poe    c2311442   6.454   2.993   5.170  0.2154  0.2557  0.4851
 2754poe    c2311443   6.366   2.867   5.158 -0.0718  0.4990  0.0067
 2754poe     o211444   6.262   2.882   5.064  0.2199 -0.1542 -0.4264
 2754poe    c2311445   6.155   2.965   5.104  0.4798 -0.0630  0.0952
 2754poe    c2311446   6.017   2.940   5.039  0.3677 -0.0816  0.3368
 2754poe     o211447   6.026   2.981   4.904 -0.8823  0.4006  0.3910
 2754poe    c3111448   5.949   2.898   4.819 -0.0694  0.0266  0.0082
 2755poe    c3111449   1.382   1.953   3.821  0.4289  0.0456 -0.5655
 2755poe     o211450   1.520   1.967   3.850  0.3300 -0.7464  0.2842
 2755poe    c2311451   1.562   2.083   3.917 -0.4857  0.0690 -0.5881
 2755poe    c2311452   1.502   2.100   4.058  0.2169 -0.4462 -0.2180
 2755poe     o211453   1.561   2.005   4.143  0.1576 -0.1551  0.1479
 2755poe    c2311454   1.523   2.018   4.278  0.1852  0.6061  0.0860
 2755poe    c2311455   1.630   1.958   4.371  0.2003  0.1508 -0.2263
 2755poe     o211456   1.663   1.837   4.306  0.1040 -0.3360  0.6259
 2755poe    c2311457   1.735   1.765   4.404 -0.0034 -0.7690  0.3914
 2755poe    c2311458   1.795   1.631   4.359  0.2958 -0.6191  0.3417
 2755poe     o211459   1.721   1.536   4.286  0.3573 -0.1114 -0.3889
 2755poe    c3111460   1.805   1.434   4.235  0.6356  0.0101 -0.1765
 2756poe    c3111461   6.931   5.660   0.339 -0.2936  0.7643 -0.0281
 2756poe     o211462   6.796   5.625   0.320 -0.0972 -0.0381  0.0190
 2756poe    c2311463   6.777   5.593   0.183 -0.8621  0.0259  0.1073
 2756poe    c2311464   6.631   5.551   0.162 -0.9403 -0.1480  0.9467
 2756poe     o211465   6.543   5.661   0.160  0.0543  0.6497 -0.2147
 2756poe    c2311466   6.417   5.612   0.120 -0.0621  0.2478  0.6197
 2756poe    c2311467   6.317   5.708   0.053 -0.2085 -0.2512  0.1065
 2756poe     o211468   6.249   5.793   0.142 -0.6436 -0.4491 -0.0367
 2756poe    c2311469   6.179   5.893   0.071 -0.1284  0.0244  0.1121
 2756poe    c2311470   6.105   6.010   0.139  0.2332  0.5786 -0.4361
 2756poe     o211471   6.188   6.099   0.210 -0.0657  0.3952  0.1442
 2756poe    c3111472   6.136   6.230   0.220 -0.0463  0.3751  0.5258
 2757poe    c3111473   2.739   5.183   6.388  0.0103 -0.2851 -0.0845
 2757poe     o211474   2.614   5.243   6.414  0.3287  0.3454  0.0155
 2757poe    c2311475   2.586   5.251   6.552  0.0743  0.4466 -0.0407
 2757poe    c2311476   2.488   5.362   6.594 -0.2736  0.0562  0.1861
 2757poe     o211477   2.367   5.355   6.522 -0.3855 -0.1762  0.3995
 2757poe    c2311478   2.333   5.479   6.466 -0.3817 -0.2457  0.2419
 2757poe    c2311479   2.182   5.492   6.438 -0.4136 -1.1039  0.0124
 2757poe     o211480   2.165   5.452   6.303  0.2733 -0.6546 -0.2103
 2757poe    c2311481   2.031   5.430   6.265  0.1170  0.0499 -0.0725
 2757poe    c2311482   2.029   5.342   6.139  0.1506 -0.5128  0.3185
 2757poe     o211483   2.081   5.414   6.030  0.5000 -0.5794  0.4387
 2757poe    c3111484   1.979   5.426   5.933  0.7285 -0.0787  0.2537
 2758poe    c3111485   4.053   1.442   2.167 -0.1446  0.2320  0.8382
 2758poe     o211486   4.185   1.427   2.216  0.0332 -0.3860  0.1787
 2758poe    c2311487   4.236   1.549   2.265  0.1683 -0.2689 -0.2426
 2758poe    c2311488   4.390   1.549   2.276  0.1415  0.6599  0.2237
 2758poe     o211489   4.439   1.476   2.166 -0.0710  0.4171  0.2889
 2758poe    c2311490   4.577   1.503   2.156 -0.1502  0.7819  0.1850
 2758poe    c2311491   4.617   1.444   2.019  0.1616  0.5568  0.3735
 2758poe     o211492   4.616   1.303   2.036  0.5127  0.5146  0.0543
 2758poe    c2311493   4.635   1.251   1.906  0.6696  0.6600  0.0176
 2758poe    c2311494   4.613   1.098   1.906 -0.2547  0.7908 -0.0248
 2758poe     o211495   4.476   1.069   1.928 -0.1820  0.3279 -0.1842
 2758poe    c3111496   4.449   0.932   1.908 -0.8739  0.4997 -0.4375
 2759poe    c3111497   3.803   3.070   6.514 -0.0737  0.1595  0.0273
 2759poe     o211498   3.867   3.183   6.568  0.1816  0.2483 -0.4573
 2759poe    c2311499   3.814   3.214   6.695 -0.3162  0.4867 -0.7197
 2759poe    c2311500   3.868   3.345   6.757 -0.0458 -0.1202  0.3515
 2759poe     o211501   4.006   3.337   6.781 -0.0605  0.0885  0.5037
 2759poe    c2311502   4.062   3.437   6.864  0.2719  0.3286 -0.0053
 2759poe    c2311503   4.190   3.391   6.935  0.3006 -0.3167 -0.4618
 2759poe     o211504   4.290   3.366   6.839  0.5518 -0.2261 -0.2279
 2759poe    c2311505   4.404   3.297   6.885  0.2331 -0.1251  0.7261
 2759poe    c2311506   4.480   3.203   6.789 -0.0103  0.0211  0.3875
 2759poe     o211507   4.545   3.267   6.681 -0.0017 -0.7055 -0.0390
 2759poe    c3111508   4.616   3.166   6.613  0.1566 -0.3901 -0.3401
 2760poe    c3111509   6.586   4.572   0.199 -0.1742  0.2684  0.3991
 2760poe     o211510   6.477   4.644   0.147 -0.0977  0.2370  0.1938
 2760poe    c2311511   6.385   4.680   0.248 -0.3972 -0.0010  0.0072
 2760poe    c2311512   6.261   4.752   0.193 -0.5691 -0.8671 -0.7705
 2760poe     o211513   6.157   4.667   0.150 -0.4808 -1.0042 -0.7120
 2760poe    c2311514   6.050   4.748   0.107 -0.2401 -0.5660 -0.4875
 2760poe    c2311515   5.930   4.661   0.068 -0.5517 -0.0154 -0.7745
 2760poe     o211516   5.858   4.581   0.158 -0.1510  0.4292 -0.0554
 2760poe    c2311517   5.757   4.661   0.215 -0.4480 -0.0286  0.0698
 2760poe    c2311518   5.728   4.649   0.366  0.2689 -0.2305  0.1921
 2760poe     o211519   5.681   4.521   0.402  0.5903 -0.4461 -0.1392
 2760poe    c3111520   5.687   4.501   0.541  0.0093  0.7378  0.0704
 2761poe    c3111521   5.669   7.145   0.069  0.0282 -0.8591  0.2370
 2761poe     o211522   5.641   7.120  -0.067 -0.4466  0.2559  0.1225
 2761poe    c2311523   5.606   6.983  -0.061  0.2092  0.0904  0.2575
 2761poe    c2311524   5.588   6.916  -0.198 -0.1421  0.1102  0.2927
 2761poe     o211525   5.474   6.938  -0.278 -0.2812  0.1131  0.4926
 2761poe    c2311526   5.403   6.816  -0.279 -0.0951  0.0090 -0.2243
 2761poe    c2311527   5.267   6.806  -0.350 -0.0944 -0.0668 -0.2153
 2761poe     o211528   5.171   6.853  -0.258  0.4825 -0.0035  0.3568
 2761poe    c2311529   5.042   6.857  -0.314  0.7174  0.8780 -0.1321
 2761poe    c2311530   4.973   6.971  -0.237 -0.7008  0.3169 -0.5487
 2761poe     o211531   5.044   7.091  -0.257  0.3949 -0.2526 -0.1078
 2761poe    c3111532   4.950   7.189  -0.218  0.7656  0.1576 -0.2395
 2762poe    c3111533   7.071   3.459   6.020 -0.1092  0.5941  0.2571
 2762poe     o211534   6.981   3.568   6.018 -0.3936  0.3568  0.1090
 2762poe    c2311535   6.919   3.576   5.891 -0.1434 -0.1230 -0.0476
 2762poe    c2311536   6.805   3.680   5.889 -0.1892 -0.1779 -0.2295
 2762poe     o211537   6.689   3.640   5.958 -0.2850 -0.3277 -0.4741
 2762poe    c2311538   6.595   3.741   5.930 -0.2148  0.0242  0.5113
 2762poe    c2311539   6.453   3.723   5.987 -0.3493 -0.4557  0.0314
 2762poe     o211540   6.362   3.658   5.901 -0.0849 -0.2150 -0.4358
 2762poe    c2311541   6.252   3.610   5.976  0.0385  0.7601  0.3990
 2762poe    c2311542   6.144   3.548   5.886  0.6308  0.0033  0.1936
 2762poe     o211543   6.150   3.415   5.838  0.1627  0.1928 -0.4055
 2762poe    c3111544   6.052   3.392   5.739 -0.1805 -0.5940  0.1126
 2763poe    c3111545   5.125   3.250   3.323  0.2622  0.7251 -0.1988
 2763poe     o211546   5.087   3.290   3.194  0.0730  0.3015 -0.2752
 2763poe    c2311547   5.115   3.196   3.093 -0.0800 -0.3313  0.2680
 2763poe    c2311548   5.084   3.245   2.950 -0.1823  0.1194  0.4431
 2763poe     o211549   4.949   3.270   2.918 -0.2423 -0.0718  0.5443
 2763poe    c2311550   4.922   3.362   2.815 -0.0278 -0.8903 -0.2564
 2763poe    c2311551   4.772   3.371   2.783 -0.1331 -0.6467  0.2953
 2763poe     o211552   4.702   3.447   2.880  0.2622  0.6273 -0.3951
 2763poe    c2311553   4.690   3.582   2.842  0.6436  0.7861  0.0582
 2763poe    c2311554   4.546   3.634   2.858  0.2464 -0.3494  0.2413
 2763poe     o211555   4.466   3.584   2.753 -0.0440 -0.1365  0.3593
 2763poe    c3111556   4.466   3.681   2.652  0.2631 -0.5110 -0.0066
 2764poe    c3111557   5.012   0.634   1.361  0.5343  0.2066  0.2944
 2764poe     o211558   5.127   0.604   1.285  0.1267 -0.5746 -0.0265
 2764poe    c2311559   5.223   0.707   1.295 -0.1911 -0.1762 -0.8870
 2764poe    c2311560   5.187   0.846   1.239  0.7715  0.4390 -0.0222
 2764poe     o211561   5.080   0.912   1.303  0.6837  0.5429 -0.2754
 2764poe    c2311562   5.049   1.018   1.215 -0.0173 -0.0653 -0.7737
 2764poe    c2311563   4.900   1.047   1.192 -0.2499  0.2219  0.9476
 2764poe     o211564   4.842   1.096   1.311  0.0979  0.2892  1.0907
 2764poe    c2311565   4.727   1.168   1.269  1.0664  1.2496 -0.0136
 2764poe    c2311566   4.653   1.249   1.377 -0.2239  0.9051 -0.6246
 2764poe     o211567   4.734   1.342   1.445 -0.2627 -0.0893  0.8335
 2764poe    c3111568   4.645   1.424   1.517 -0.2321  0.5411  0.1612
 2765poe    c3111569   4.056   4.422   2.781  0.3760 -0.7293  0.1122
 2765poe     o211570   3.967   4.405   2.674  0.1416  0.2053  0.1490
 2765poe    c2311571   4.018   4.340   2.559  0.5481  0.3273  0.2592
 2765poe    c2311572   4.044   4.193   2.595  0.2555  0.1318 -0.3295
 2765poe     o211573   4.085   4.116   2.484  0.0667 -0.2435 -0.1423
 2765poe    c2311574   4.153   4.007   2.543  0.0317 -0.3204 -0.2434
 2765poe    c2311575   4.196   3.908   2.433  0.2375 -0.6066  0.0939
 2765poe     o211576   4.275   3.967   2.333  0.0765 -0.6965 -0.0878
 2765poe    c2311577   4.291   3.889   2.216 -0.0749 -0.3121 -0.3663
 2765poe    c2311578   4.308   3.993   2.103 -0.0350 -0.1822 -0.2404
 2765poe     o211579   4.201   4.084   2.099 -0.0511 -0.2032 -0.2784
 2765poe    c3111580   4.183   4.124   1.965 -0.4421  0.4336 -0.0427
 2766poe    c3111581   6.473   6.105   5.648  0.7720  0.4110  0.5800
 2766poe     o211582   6.563   5.998   5.665 -0.1207 -0.5211 -0.3977
 2766poe    c2311583   6.585   5.960   5.799  0.1112 -0.0091 -0.2883
 2766poe    c2311584   6.703   5.869   5.837 -0.1186 -0.2888 -0.2347
 2766poe     o211585   6.828   5.897   5.776 -0.3159  0.7715 -0.1636
 2766poe    c2311586   6.856   5.865   5.642 -0.1502 -0.4967  0.1645
 2766poe    c2311587   6.914   5.992   5.578 -0.3794 -0.4062  0.1374
 2766poe     o211588   7.038   6.042   5.622 -0.6498  0.1246  0.3066
 2766poe    c2311589   7.060   6.177   5.589  0.1237 -0.2878 -0.9025
 2766poe    c2311590   7.018   6.289   5.686 -0.3046 -0.6822 -0.6316
 2766poe     o211591   7.066   6.283   5.818 -0.1854 -0.0050 -0.6388
 2766poe    c3111592   7.004   6.373   5.907  0.2805 -0.5929  0.3003
 2767poe    c3111593   1.760   3.274   0.884 -0.4425  0.1275 -0.1070
 2767poe     o211594   1.672   3.270   0.994 -0.1332 -0.2497  0.1285
 2767poe    c2311595   1.632   3.400   1.029  0.8496  0.0183  0.2868
 2767poe    c2311596   1.500   3.375   1.104  0.4297  0.3061 -0.3480
 2767poe     o211597   1.510   3.300   1.223 -0.3161 -0.1899 -0.5846
 2767poe    c2311598   1.382   3.272   1.275 -0.0276 -0.3620  0.0395
 2767poe    c2311599   1.387   3.170   1.390  0.2062  0.1512  0.4851
 2767poe     o211600   1.458   3.055   1.351  0.2290  0.2894  0.1154
 2767poe    c2311601   1.483   2.965   1.457 -0.1142 -0.0272 -0.0712
 2767poe    c2311602   1.578   2.865   1.387 -0.0491  0.1354 -0.2168
 2767poe     o211603   1.693   2.934   1.344  0.3545 -0.1303  0.4115
 2767poe    c3111604   1.771   2.838   1.276  0.1325 -0.7499  1.0247
 2768poe    c3111605   0.651   5.413   3.981  0.6436  0.0167 -0.2449
 2768poe     o211606   0.737   5.523   4.002  0.1386  0.4067 -0.2040
 2768poe    c2311607   0.734   5.567   4.136 -0.2864  0.2419 -0.1565
 2768poe    c2311608   0.837   5.510   4.235 -0.4921 -0.5790 -0.4142
 2768poe     o211609   0.799   5.378   4.268 -0.1208 -0.5387  0.1898
 2768poe    c2311610   0.888   5.332   4.366  0.0941  0.5705  0.5274
 2768poe    c2311611   0.810   5.241   4.463 -0.2253  0.2173 -0.0584
 2768poe     o211612   0.751   5.127   4.405 -0.0241  0.1305 -0.0916
 2768poe    c2311613   0.634   5.156   4.333  0.2473  0.5284 -0.3796
 2768poe    c2311614   0.557   5.023   4.320  0.5015  0.3188  0.2398
 2768poe     o211615   0.615   4.938   4.223 -0.3091  0.0630 -0.0292
 2768poe    c3111616   0.552   4.963   4.099 -0.6670 -0.1458  0.1112
 2769poe    c3111617   7.080   2.155   6.441 -0.5280  0.2605 -0.4430
 2769poe     o211618   7.082   2.114   6.306  0.1135  0.4570 -0.4963
 2769poe    c2311619   7.106   2.218   6.213  0.0076  0.9430  0.0131
 2769poe    c2311620   7.074   2.149   6.079  0.1531  0.2631  0.3239
 2769poe     o211621   7.174   2.060   6.036 -0.0422  0.2276 -0.0619
 2769poe    c2311622   7.149   2.032   5.900 -0.1220  0.1366 -0.0288
 2769poe    c2311623   7.279   2.007   5.822 -0.1202 -0.0188  0.0243
 2769poe     o211624   7.356   1.895   5.860 -0.2628 -0.1917 -0.1878
 2769poe    c2311625   7.489   1.917   5.819 -0.0805 -0.0336  0.4654
 2769poe    c2311626   7.585   1.808   5.868 -0.3924 -0.6349 -0.2372
 2769poe     o211627   7.588   1.799   6.009  0.0626 -0.2386 -0.2167
 2769poe    c3111628   7.654   1.679   6.043  0.3842 -0.0282 -0.0920
 2770poe    c3111629   0.886   3.020   0.595  0.3771 -0.4286 -0.1103
 2770poe     o211630   0.893   3.061   0.461  0.0024  0.6855  0.2016
 2770poe    c2311631   0.802   2.998   0.374  0.2534  0.0024  0.4250
 2770poe    c2311632   0.843   3.011   0.226 -0.2842 -0.0619  0.2667
 2770poe     o211633   0.952   2.928   0.190  0.2287  0.6608  0.1339
 2770poe    c2311634   0.998   2.962   0.061  0.2874  0.0860 -0.0006
 2770poe    c2311635   1.151   2.983   0.055  0.2641  0.1828 -0.2843
 2770poe     o211636   1.213   3.095   0.113 -0.3592  0.3565  0.0617
 2770poe    c2311637   1.152   3.222   0.120 -0.7512  0.2083 -0.5491
 2770poe    c2311638   1.257   3.329   0.158 -0.2958 -0.5108  0.2695
 2770poe     o211639   1.262   3.360   0.295  0.0994 -0.0661  0.1567
 2770poe    c3111640   1.346   3.470   0.323  0.1905 -0.1792  0.3366
 2771poe    c3111641   1.182   3.130   6.124 -0.1724 -0.0486 -0.4860
 2771poe     o211642   1.074   3.039   6.120  0.0558 -0.3666  0.5110
 2771poe    c2311643   0.961   3.084   6.192  0.2869  0.3520  0.4278
 2771poe    c2311644   0.979   3.060   6.343  0.7400  0.5509  0.4063
 2771poe     o211645   0.995   2.925   6.381  0.1065  0.4373  0.2742
 2771poe    c2311646   0.991   2.906   6.521 -1.0218  0.0664  0.2015
 2771poe    c2311647   1.011   2.758   6.558 -0.0873  0.0739 -0.2407
 2771poe     o211648   1.144   2.729   6.521 -0.0217 -0.1095  0.1302
 2771poe    c2311649   1.187   2.606   6.573  0.5457  0.0270 -0.0063
 2771poe    c2311650   1.260   2.513   6.474  0.1648 -0.5110  0.2137
 2771poe     o211651   1.377   2.585   6.443  0.3386 -0.6536  0.5262
 2771poe    c3111652   1.456   2.527   6.342 -0.4817 -0.5502 -0.1865
 2772poe    c3111653   6.799   4.092   5.181  0.2110 -0.6698 -1.1265
 2772poe     o211654   6.864   3.981   5.239 -0.0306 -0.3178 -0.1558
 2772poe    c2311655   6.765   3.885   5.266 -0.0185 -0.1358  0.5431
 2772poe    c2311656   6.836   3.774   5.346  0.1856 -0.2352  0.2269
 2772poe     o211657   6.960   3.742   5.287  0.0273 -0.0875 -0.1907
 2772poe    c2311658   7.038   3.651   5.361  0.4114  0.1553 -0.2953
 2772poe    c2311659   7.167   3.614   5.285  0.2960 -0.6711 -0.0953
 2772poe     o211660   7.241   3.733   5.275 -0.5114 -0.2305 -0.9299
 2772poe    c2311661   7.347   3.698   5.188 -0.1488 -0.6620 -0.3200
 2772poe    c2311662   7.426   3.823   5.144 -0.0856 -0.6165 -0.0783
 2772poe     o211663   7.370   3.904   5.044 -0.4071 -0.1503  0.4728
 2772poe    c3111664   7.464   3.995   4.993 -0.2747 -0.2320  0.5699
 2773poe    c3111665   0.388   1.317   6.477  0.6606 -0.5656 -1.0730
 2773poe     o211666   0.389   1.211   6.570 -0.2046  0.3557  0.0164
 2773poe    c2311667   0.288   1.229   6.667 -0.0161  0.1911  0.2446
 2773poe    c2311668   0.237   1.091   6.715  0.1938  0.2658  0.6855
 2773poe     o211669   0.333   1.018   6.788 -0.2077  0.2844  1.2342
 2773poe    c2311670   0.301   0.882   6.810 -0.4289  0.1117 -0.1018
 2773poe    c2311671   0.403   0.828   6.911 -0.1606  0.0835 -0.3850
 2773poe     o211672   0.527   0.870   6.857  0.1421  0.3359  0.4815
 2773poe    c2311673   0.641   0.808   6.911  0.2588 -0.3129 -0.4941
 2773poe    c2311674   0.777   0.856   6.856  0.3877 -0.3185 -0.1811
 2773poe     o211675   0.805   0.993   6.868  0.4986 -0.4044  0.5776
 2773poe    c3111676   0.938   1.022   6.833  0.1282  0.6958  0.0365
 2774poe    c3111677   2.269   1.302   3.839 -0.2896 -0.3040 -0.1828
 2774poe     o211678   2.288   1.195   3.929 -0.7601 -0.1409  0.1128
 2774poe    c2311679   2.314   1.246   4.058 -0.6044 -0.0467  0.0441
 2774poe    c2311680   2.326   1.138   4.166 -0.4836 -0.3488 -0.2680
 2774poe     o211681   2.212   1.062   4.202 -0.3252 -0.3052  0.3396
 2774poe    c2311682   2.137   1.112   4.311  0.1455 -0.1519  0.5998
 2774poe    c2311683   2.003   1.037   4.324 -0.1752  0.4087  0.5259
 2774poe     o211684   1.917   1.108   4.237  0.0008  0.5194  0.4420
 2774poe    c2311685   1.807   1.025   4.206  0.4936  0.0659 -0.1115
 2774poe    c2311686   1.724   1.073   4.086 -0.1295  0.4177  0.4523
 2774poe     o211687   1.794   1.109   3.969 -0.2931  0.0408  0.2364
 2774poe    c3111688   1.688   1.122   3.877  0.1451 -0.2877 -0.3203
 2775poe    c3111689   3.015   5.557   4.287  0.1780  0.1111 -0.1331
 2775poe     o211690   3.073   5.673   4.231 -0.0991  0.3392  0.0502
 2775poe    c2311691   3.160   5.638   4.126 -0.2864 -0.0581  0.0226
 2775poe    c2311692   3.238   5.755   4.064  0.2705 -0.1619  0.5113
 2775poe     o211693   3.324   5.825   4.151  0.6613  0.0775 -0.0542
 2775poe    c2311694   3.442   5.763   4.195  0.2186 -0.6634  0.1011
 2775poe    c2311695   3.521   5.835   4.305  0.0685  0.2736 -0.3991
 2775poe     o211696   3.446   5.854   4.423  0.0157 -0.0065 -0.3877
 2775poe    c2311697   3.503   5.958   4.499 -0.2646 -0.2172  0.1125
 2775poe    c2311698   3.425   5.990   4.628  0.4729  0.1048  0.4840
 2775poe     o211699   3.303   5.920   4.633  0.1546  0.6677  0.5990
 2775poe    c3111700   3.234   5.937   4.755 -0.3447 -0.2252  0.4452
 2776poe    c3111701   4.495   0.751   2.403  0.0540 -0.1374 -0.4594
 2776poe     o211702   4.416   0.768   2.518  0.3676 -0.1857 -0.2325
 2776poe    c2311703   4.417   0.658   2.607 -0.1781  0.0149  0.0273
 2776poe    c2311704   4.315   0.682   2.719 -0.2192 -0.4328  0.0870
 2776poe     o211705   4.183   0.681   2.668 -0.1827  0.3962 -0.0332
 2776poe    c2311706   4.078   0.677   2.762 -0.7686 -0.5344 -0.7102
 2776poe    c2311707   4.056   0.808   2.840  0.6448 -0.7235  0.0448
 2776poe     o211708   4.162   0.835   2.928  0.6611 -0.5693 -0.0210
 2776poe    c2311709   4.213   0.965   2.909 -0.3587 -0.1976 -0.2820
 2776poe    c2311710   4.352   0.986   2.972 -0.3516 -0.7292 -0.1171
 2776poe     o211711   4.337   0.993   3.112 -0.7849  0.2234 -0.2068
 2776poe    c3111712   4.456   0.990   3.189 -0.7326 -0.0199 -0.2968
 2777poe    c3111713   6.984   0.795   7.008 -0.1071  0.0581  0.5326
 2777poe     o211714   7.041   0.922   7.026  0.3141 -0.0487 -0.0304
 2777poe    c2311715   6.966   1.017   6.953  0.4932  0.2349  0.1503
 2777poe    c2311716   7.017   1.156   6.994  0.1435  0.4020  0.0271
 2777poe     o211717   7.149   1.193   6.959  0.3741 -0.1539  0.2927
 2777poe    c2311718   7.172   1.327   6.995 -0.0465 -0.0737  0.2647
 2777poe    c2311719   7.312   1.386   6.973 -0.0241 -0.2547 -0.0886
 2777poe     o211720   7.410   1.320   7.050  0.0959  0.4415  0.3668
 2777poe    c2311721   7.527   1.395   7.075 -0.0072  0.7143  0.0264
 2777poe    c2311722   7.631   1.309   7.149  0.1002  1.0141  0.2209
 2777poe     o211723   7.608   1.321   7.288 -0.3015 -0.3630  0.2880
 2777poe    c3111724   7.729   1.298   7.356  0.1623 -0.1287 -0.4414
 2778poe    c3111725   5.512   1.996   3.387 -0.2325 -0.5158  0.2970
 2778poe     o211726   5.651   2.010   3.402 -0.2885  0.2009  0.1845
 2778poe    c2311727   5.710   2.047   3.279  0.0905  0.8830  0.5624
 2778poe    c2311728   5.848   2.114   3.286  0.1236  0.8441  0.2913
 2778poe     o211729   5.931   2.086   3.176 -0.0424  0.7635  0.1864
 2778poe    c2311730   6.005   2.192   3.119  0.0434  0.4228 -0.3444
 2778poe    c2311731   6.010   2.189   2.965 -0.5734 -0.6239 -0.3538
 2778poe     o211732   6.090   2.077   2.931  0.3640 -0.0116 -0.2115
 2778poe    c2311733   6.044   2.021   2.810 -0.5862 -0.2099  0.2280
 2778poe    c2311734   5.924   1.926   2.823 -0.4658 -0.4898 -0.6423
 2778poe     o211735   5.957   1.821   2.911 -0.5743 -0.2990 -0.3742
 2778poe    c3111736   5.849   1.737   2.945 -0.3064 -0.8891 -0.9672
 2779poe    c3111737   6.549   4.589   6.276  1.1065  0.6647  0.4711
 2779poe     o211738   6.531   4.551   6.410 -0.2902 -0.1556  0.0779
 2779poe    c2311739   6.634   4.465   6.453 -0.2122 -0.0832  0.0354
 2779poe    c2311740   6.777   4.521   6.467 -0.1434 -0.3205  0.2945
 2779poe     o211741   6.795   4.609   6.576 -0.2693 -0.2113  0.2267
 2779poe    c2311742   6.932   4.639   6.588 -0.4458  0.8236 -0.2190
 2779poe    c2311743   6.947   4.731   6.711  0.4694 -0.0958  0.3722
 2779poe     o211744   6.915   4.663   6.830  0.0231 -0.1050  0.2480
 2779poe    c2311745   7.032   4.592   6.865  0.2028  0.2669  0.4119
 2779poe    c2311746   6.990   4.483   6.965 -0.0996  0.1207  0.1281
 2779poe     o211747   6.958   4.544   7.088 -0.3892  0.3778 -0.0744
 2779poe    c3111748   6.908   4.443   7.173  0.5340 -0.0521 -0.0306
 2780poe    c3111749   6.107   3.456   1.046 -0.1947  0.2052  0.8137
 2780poe     o211750   6.177   3.420   0.929 -0.3785 -0.6189  0.9531
 2780poe    c2311751   6.095   3.400   0.816  0.1361  0.4675  0.3719
 2780poe    c2311752   6.147   3.308   0.704 -0.0714  0.2740  0.4332
 2780poe     o211753   6.155   3.170   0.734 -0.2277  0.0889 -0.3547
 2780poe    c2311754   6.177   3.100   0.613 -0.4340  0.1887 -0.4521
 2780poe    c2311755   6.046   3.066   0.540 -0.3953 -0.3808 -0.2572
 2780poe     o211756   6.079   2.988   0.427 -0.0967 -0.5610 -0.0493
 2780poe    c2311757   5.960   2.929   0.380 -0.1876 -0.5040  0.1084
 2780poe    c2311758   5.982   2.795   0.308 -0.2675 -0.1779 -0.5284
 2780poe     o211759   6.028   2.701   0.402  0.1080  0.1841 -0.3506
 2780poe    c3111760   6.155   2.656   0.359  0.0380 -0.7595  0.3995
 2781poe    c3111761   6.539   5.937   0.818 -0.1879 -1.0271 -0.5031
 2781poe     o211762   6.449   5.959   0.924  0.3721  0.1942 -0.2523
 2781poe    c2311763   6.501   5.936   1.053  0.3079 -0.0069 -0.2611
 2781poe    c2311764   6.417   6.035   1.137 -0.2724 -0.0069 -0.8259
 2781poe     o211765   6.281   6.004   1.121 -0.3961  0.0508  0.0433
 2781poe    c2311766   6.207   6.054   1.231 -0.0504 -0.0747  0.3324
 2781poe    c2311767   6.063   6.006   1.208  0.0648 -0.1905 -0.1673
 2781poe     o211768   6.022   6.050   1.080 -0.0194 -0.4689 -0.2362
 2781poe    c2311769   5.917   5.971   1.030 -0.2052 -0.4636  0.1437
 2781poe    c2311770   5.837   6.054   0.928 -0.0169  0.1193  0.4691
 2781poe     o211771   5.929   6.101   0.831 -0.2468  0.1183  0.2513
 2781poe    c3111772   5.862   6.162   0.722 -0.5100 -0.2153  0.2240
 2782poe    c3111773   2.736   6.492   0.426  0.3214  0.1305  0.6895
 2782poe     o211774   2.674   6.430   0.315  0.0142  0.1761  0.8356
 2782poe    c2311775   2.764   6.349   0.243 -0.5507  0.0800  0.2322
 2782poe    c2311776   2.688   6.269   0.136  0.3315  0.0204 -0.3656
 2782poe     o211777   2.593   6.173   0.178  0.1845  0.0640 -0.5933
 2782poe    c2311778   2.554   6.110   0.058 -0.2809 -0.3818 -0.2124
 2782poe    c2311779   2.479   5.978   0.083 -0.4458 -0.2980 -0.2680
 2782poe     o211780   2.568   5.888   0.146 -0.4892 -0.1838 -0.0411
 2782poe    c2311781   2.501   5.764   0.151 -0.3792 -0.2453 -0.1018
 2782poe    c2311782   2.560   5.660   0.053  0.0748 -0.3007  0.2240
 2782poe     o211783   2.573   5.704  -0.081 -0.2198  0.4033  0.4195
 2782poe    c3111784   2.595   5.596  -0.168 -0.7986  0.5433  0.0947
 2783poe    c3111785   5.730   2.786   0.058  0.7635  0.2855  0.2995
 2783poe     o211786   5.670   2.888  -0.018  0.1619  0.1512  0.5878
 2783poe    c2311787   5.714   3.020   0.009  0.0521  0.1360  0.8427
 2783poe    c2311788   5.668   3.121  -0.097  0.1304 -0.3382  0.3492
 2783poe     o211789   5.528   3.135  -0.092  0.1422 -0.2086  0.3299
 2783poe    c2311790   5.477   3.253  -0.150 -0.0107 -0.4491 -0.0329
 2783poe    c2311791   5.330   3.255  -0.104  0.0694  0.3322  0.2075
 2783poe     o211792   5.330   3.246   0.037  0.4378  0.5023  0.2197
 2783poe    c2311793   5.197   3.266   0.078  0.1809 -0.3242 -0.1852
 2783poe    c2311794   5.191   3.262   0.232  0.4892 -0.5876 -0.1812
 2783poe     o211795   5.257   3.141   0.266  0.3289 -0.4853  0.4920
 2783poe    c3111796   5.248   3.120   0.406 -0.0204  0.3710  0.6095
 2784poe    c3111797   6.339   2.438   3.895  0.3651 -0.1991  0.6270
 2784poe     o211798   6.306   2.575   3.886 -0.1039 -0.3834 -0.6558
 2784poe    c2311799   6.268   2.620   4.014  0.9080 -0.3153 -0.3693
 2784poe    c2311800   6.232   2.770   4.008 -0.1911 -0.5470  0.1600
 2784poe     o211801   6.322   2.835   3.920 -0.5759  0.2990  0.3834
 2784poe    c2311802   6.305   2.975   3.918  0.0614  0.3776  0.3580
 2784poe    c2311803   6.418   3.045   3.841  0.1437  0.1385  0.2596
 2784poe     o211804   6.526   3.010   3.925  0.0472  0.0221  0.3358
 2784poe    c2311805   6.647   3.051   3.865  0.1167 -0.9304 -0.2014
 2784poe    c2311806   6.737   3.027   3.988 -0.3545 -0.4754  0.2402
 2784poe     o211807   6.742   2.889   4.017 -0.0431 -0.5395 -0.1124
 2784poe    c3111808   6.802   2.880   4.144 -0.6822 -0.5912  0.1868
 2785poe    c3111809   4.070   7.049   3.123  0.3818 -0.3943 -0.4392
 2785poe     o211810   4.136   6.932   3.080  0.0691 -0.6348 -0.2691
 2785poe    c2311811   4.051   6.879   2.981 -0.3205  0.4178 -0.5166
 2785poe    c2311812   4.103   6.740   2.939 -0.0035  0.5219 -0.4741
 2785poe     o211813   4.129   6.630   3.024 -0.0241  0.6849 -0.2554
 2785poe    c2311814   4.016   6.602   3.104  0.1857  0.0413 -0.1788
 2785poe    c2311815   4.073   6.540   3.233  0.5702  0.2061 -0.2683
 2785poe     o211816   4.143   6.421   3.205 -0.1938 -0.2690 -0.1776
 2785poe    c2311817   4.208   6.388   3.326 -0.3026  0.0511 -0.0305
 2785poe    c2311818   4.306   6.272   3.304 -0.1940  0.1114  0.1335
 2785poe     o211819   4.381   6.305   3.190 -0.5392 -0.0183 -0.1328
 2785poe    c3111820   4.453   6.195   3.138  0.1926  0.6297 -0.5133
 2786poe    c3111821   1.844   4.078   5.655 -0.1342  0.1691  0.4371
 2786poe     o211822   1.918   4.197   5.663  0.3233 -0.1167  0.4686
 2786poe    c2311823   1.847   4.315   5.631  0.1754 -0.4723 -0.5305
 2786poe    c2311824   1.945   4.425   5.676 -0.7693  0.1900 -0.0627
 2786poe     o211825   2.074   4.393   5.628 -0.6531  0.4263  0.0888
 2786poe    c2311826   2.159   4.505   5.633 -0.0782 -0.0260  0.5157
 2786poe    c2311827   2.309   4.469   5.625 -0.2082 -0.5257  0.2557
 2786poe     o211828   2.321   4.343   5.562 -0.2856 -0.4152  0.0190
 2786poe    c2311829   2.457   4.308   5.548 -0.1694  0.1053 -0.1843
 2786poe    c2311830   2.480   4.175   5.473  0.0712  0.0439 -0.0027
 2786poe     o211831   2.434   4.063   5.545  0.3287  0.3247  0.6035
 2786poe    c3111832   2.460   3.939   5.482 -0.4228  0.4708  0.0047
 2787poe    c3111833   4.696   3.022   4.372  0.3316  0.2017  0.1753
 2787poe     o211834   4.707   3.087   4.247  0.1597  0.2807  0.2017
 2787poe    c2311835   4.615   3.194   4.247 -0.0350  0.1166 -0.2715
 2787poe    c2311836   4.465   3.170   4.222 -0.1045  0.2325  0.0269
 2787poe     o211837   4.426   3.129   4.093  0.2065  0.2027 -0.0583
 2787poe    c2311838   4.288   3.155   4.081  0.0825 -0.4708 -0.1514
 2787poe    c2311839   4.249   3.144   3.932 -0.1247 -0.1525 -0.1238
 2787poe     o211840   4.326   3.035   3.887 -0.1619 -0.3207  0.2150
 2787poe    c2311841   4.315   3.040   3.747  0.2431 -0.7700  0.1623
 2787poe    c2311842   4.385   2.910   3.704  0.2018 -0.7212 -0.0564
 2787poe     o211843   4.505   2.884   3.774  0.3938 -0.1942 -0.1874
 2787poe    c3111844   4.547   2.753   3.743  0.1538 -0.4491  0.5367
 2788poe    c3111845   0.373   4.060   5.338 -0.5224 -0.6270  0.6353
 2788poe     o211846   0.464   4.110   5.434  0.0849 -0.0645 -0.2154
 2788poe    c2311847   0.411   4.233   5.477  0.2110  0.1473 -0.6630
 2788poe    c2311848   0.512   4.286   5.581 -0.1023 -0.2131 -0.1726
 2788poe     o211849   0.564   4.188   5.668 -0.2828 -0.0714  0.0976
 2788poe    c2311850   0.651   4.244   5.764  0.3640 -0.4762 -0.2453
 2788poe    c2311851   0.711   4.124   5.840  0.3656 -0.4727 -0.2411
 2788poe     o211852   0.608   4.038   5.884 -0.1206 -0.0532 -0.5352
 2788poe    c2311853   0.639   3.978   6.008  0.3014  0.4206 -0.4096
 2788poe    c2311854   0.671   3.831   5.978  0.2339  0.2672  0.2558
 2788poe     o211855   0.573   3.779   5.890  0.6307  0.1669 -0.1277
 2788poe    c3111856   0.639   3.672   5.825  0.2542  0.1629 -0.5054
 2789poe    c3111857   2.829   6.443   0.834  0.3347 -0.0177  0.0739
 2789poe     o211858   2.931   6.532   0.872  0.4822  0.0895 -0.5616
 2789poe    c2311859   3.031   6.448   0.926  0.1077  0.4140  0.6706
 2789poe    c2311860   3.145   6.509   1.010  0.8126 -0.1097  0.1054
 2789poe     o211861   3.215   6.605   0.934  0.3667  0.0672 -0.0861
 2789poe    c2311862   3.315   6.659   1.018 -0.0494  0.3706  0.2226
 2789poe    c2311863   3.423   6.715   0.923  0.0879  0.0137  0.1650
 2789poe     o211864   3.375   6.804   0.825 -0.0005  0.5300  0.6726
 2789poe    c2311865   3.440   6.771   0.705 -0.2554 -0.0112  0.6811
 2789poe    c2311866   3.389   6.852   0.584  0.2111 -0.8604 -0.1051
 2789poe     o211867   3.250   6.837   0.566 -0.0039  0.7269  0.0368
 2789poe    c3111868   3.215   6.900   0.446 -1.1002 -0.8253 -0.4953
 2790poe    c3111869   1.236   3.696   5.591 -0.2778  0.2677  0.0919
 2790poe     o211870   1.365   3.637   5.595 -0.2205  0.4146  0.4305
 2790poe    c2311871   1.376   3.536   5.692 -0.0618 -0.1837 -0.2070
 2790poe    c2311872   1.514   3.467   5.693 -0.2976 -0.6550  0.7012
 2790poe     o211873   1.612   3.561   5.729 -0.3029 -0.4368  0.1598
 2790poe    c2311874   1.743   3.515   5.704 -0.4155 -0.4397 -0.4398
 2790poe    c2311875   1.843   3.574   5.806 -0.0538 -0.3633 -0.8362
 2790poe     o211876   1.873   3.712   5.811  0.4819 -0.5129  0.4668
 2790poe    c2311877   1.963   3.742   5.707 -0.5036  0.5572 -0.1090
 2790poe    c2311878   2.111   3.742   5.751 -0.5844  0.5775  0.1632
 2790poe     o211879   2.165   3.870   5.776  0.9215 -0.0243  0.0517
 2790poe    c3111880   2.210   3.888   5.909  0.4505  0.1075  0.1946
 2791poe    c3111881   5.692   4.813   1.665 -0.5606 -0.0718  0.3384
 2791poe     o211882   5.766   4.931   1.641 -0.2160 -0.2323  0.6045
 2791poe    c2311883   5.844   4.967   1.753  0.1068 -0.2392  0.3826
 2791poe    c2311884   5.772   5.079   1.830  0.1221  0.0279  0.0110
 2791poe     o211885   5.752   5.197   1.755  0.1095  0.2310  0.3296
 2791poe    c2311886   5.758   5.310   1.839 -0.8712  0.3516  0.2480
 2791poe    c2311887   5.776   5.434   1.750 -0.1286  0.0148 -0.0876
 2791poe     o211888   5.905   5.441   1.693 -0.1762 -0.7270 -0.2930
 2791poe    c2311889   5.931   5.565   1.631  0.3967 -0.4584  0.4709
 2791poe    c2311890   6.083   5.590   1.634  0.3287 -0.0197  0.3257
 2791poe     o211891   6.154   5.468   1.623 -0.3013 -0.3395 -0.3208
 2791poe    c3111892   6.294   5.485   1.621 -0.3640  0.2616  0.0833
 2792poe    c3111893   6.533   3.996   4.450 -0.1012  0.3243 -0.1954
 2792poe     o211894   6.469   4.120   4.425 -0.4099  0.2813  0.3460
 2792poe    c2311895   6.536   4.217   4.502  0.9824 -0.6362  0.3359
 2792poe    c2311896   6.465   4.350   4.470  0.5073 -0.9734 -0.0294
 2792poe     o211897   6.424   4.337   4.336  0.0180  0.1158  0.0066
 2792poe    c2311898   6.350   4.455   4.314  0.1583  0.1915 -0.0537
 2792poe    c2311899   6.270   4.441   4.183  0.3334 -0.7276 -0.0639
 2792poe     o211900   6.227   4.307   4.170  0.3961 -0.7462 -0.0833
 2792poe    c2311901   6.124   4.306   4.074  0.4502  0.2990 -0.1688
 2792poe    c2311902   6.133   4.223   3.944  0.2496  0.6989 -0.4397
 2792poe     o211903   6.199   4.099   3.962 -0.0154  0.5693 -0.3507
 2792poe    c3111904   6.191   4.022   3.844  0.2118 -0.0181  0.0142
 2793poe    c3111905   2.955   3.047   6.960 -0.0585 -0.1939 -0.0906
 2793poe     o211906   2.861   3.012   7.060 -0.3901  0.1785 -0.2682
 2793poe    c2311907   2.856   2.875   7.093  0.0033  0.2381  0.0425
 2793poe    c2311908   2.741   2.839   7.189  0.3685 -0.5177  0.2032
 2793poe     o211909   2.742   2.950   7.276  0.2809 -0.4499  0.1174
 2793poe    c2311910   2.680   2.932   7.401  0.1742  0.2842  0.1740
 2793poe    c2311911   2.688   3.054   7.495 -0.5651  0.5168 -0.0605
 2793poe     o211912   2.640   3.159   7.414 -0.2526 -0.1062 -1.0763
 2793poe    c2311913   2.662   3.280   7.483  0.2759 -0.4633 -0.6148
 2793poe    c2311914   2.633   3.409   7.404  0.4049  0.3181  0.5894
 2793poe     o211915   2.720   3.447   7.299  0.4188 -0.2860  0.3817
 2793poe    c3111916   2.689   3.576   7.253  0.3156 -0.2187  0.6353
 2794poe    c3111917   1.143   2.094   0.784 -0.6414  0.1547 -0.1539
 2794poe     o211918   1.101   2.001   0.881  0.0570 -0.2716 -0.2535
 2794poe    c2311919   0.963   2.020   0.903 -0.0095 -0.5145 -0.4616
 2794poe    c2311920   0.908   1.945   1.026  0.0043 -0.1642 -0.2427
 2794poe     o211921   0.927   1.982   1.161  0.0268 -0.4975 -0.1538
 2794poe    c2311922   0.851   1.890   1.236 -0.2779  0.0798  0.2518
 2794poe    c2311923   0.858   1.915   1.388  0.5097 -0.0880  0.2465
 2794poe     o211924   0.968   1.851   1.448  0.1625 -0.9874 -0.0723
 2794poe    c2311925   0.958   1.874   1.586  0.1769 -0.1383 -0.2120
 2794poe    c2311926   1.064   1.794   1.664  0.0999 -0.1173 -0.0835
 2794poe     o211927   1.202   1.807   1.634  0.1043  0.0491  0.0111
 2794poe    c3111928   1.280   1.786   1.749 -0.0324  0.3226  0.1575
 2795poe    c3111929   2.478   0.072   2.739  0.0525 -0.4240 -0.7113
 2795poe     o211930   2.382  -0.029   2.758 -0.1240 -0.1411 -0.0683
 2795poe    c2311931   2.360  -0.041   2.896  0.0990 -0.2052 -0.0388
 2795poe    c2311932   2.209  -0.039   2.926  0.0010 -0.1645 -0.5373
 2795poe     o211933   2.143  -0.154   2.879 -0.2949 -0.2860  0.1682
 2795poe    c2311934   2.099  -0.136   2.746 -0.3867 -0.3977  0.1832
 2795poe    c2311935   2.110  -0.268   2.668 -0.4309 -0.0655 -0.3907
 2795poe     o211936   2.034  -0.374   2.722 -0.0513 -0.4817 -0.6673
 2795poe    c2311937   1.897  -0.376   2.689 -0.2490 -0.0055  0.1105
 2795poe    c2311938   1.830  -0.471   2.791  0.4619 -0.4830  0.1416
 2795poe     o211939   1.805  -0.425   2.922  0.0026 -0.5179  0.0685
 2795poe    c3111940   1.739  -0.521   3.001  0.0358 -0.5356  0.0743
 2796poe    c3111941   1.917   3.852   4.213  0.2727  0.2489  0.2108
 2796poe     o211942   1.968   3.966   4.279  0.3296  0.1231  0.3855
 2796poe    c2311943   1.877   3.990   4.384 -0.4528  0.4687 -0.3518
 2796poe    c2311944   1.929   4.100   4.478 -0.2755 -0.2856  0.4502
 2796poe     o211945   1.945   4.227   4.418 -0.2655 -0.2458  0.5355
 2796poe    c2311946   2.039   4.313   4.478  0.2831  0.0057 -0.6483
 2796poe    c2311947   2.018   4.459   4.434  0.2498  0.1231 -0.2495
 2796poe     o211948   2.046   4.460   4.296  0.5864  0.0007 -0.1834
 2796poe    c2311949   2.079   4.590   4.252 -0.0476  0.0775 -0.4482
 2796poe    c2311950   2.088   4.560   4.101 -0.2840 -0.3300 -0.3811
 2796poe     o211951   1.977   4.483   4.061 -0.5705 -0.1497  0.0555
 2796poe    c3111952   1.975   4.477   3.920  0.3583 -0.2706  0.0441
 2797poe    c3111953   5.866   4.199   3.307  0.2386 -0.8292  0.8203
 2797poe     o211954   5.832   4.146   3.182 -0.2383  0.2920  0.4654
 2797poe    c2311955   5.932   4.178   3.088 -0.6030  0.4257  0.1183
 2797poe    c2311956   5.905   4.125   2.946  0.2202  0.1993  0.0436
 2797poe     o211957   5.938   3.988   2.951 -0.0034  0.1542  0.2496
 2797poe    c2311958   5.951   3.953   2.815  0.6009  0.0880  0.3245
 2797poe    c2311959   5.950   3.801   2.795  0.0019  0.1117  0.1605
 2797poe     o211960   5.821   3.757   2.831  0.1953 -0.0961  0.6053
 2797poe    c2311961   5.817   3.624   2.877  0.1504 -0.1281  0.5088
 2797poe    c2311962   5.673   3.613   2.930 -0.2016 -0.0630 -0.4210
 2797poe     o211963   5.640   3.711   3.025  0.0650 -0.2761 -0.1061
 2797poe    c3111964   5.502   3.699   3.046  0.1350 -0.5166  0.2107
 2798poe    c3111965   6.928   1.103   0.069 -0.3785 -0.1362  0.2505
 2798poe     o211966   6.799   1.150   0.099  0.0176  0.7068  0.6540
 2798poe    c2311967   6.755   1.242   0.001  0.5765  0.0578 -0.2151
 2798poe    c2311968   6.647   1.345   0.037  0.0291 -0.5743 -0.0353
 2798poe     o211969   6.516   1.294   0.047 -0.1047 -0.2866 -0.3221
 2798poe    c2311970   6.409   1.384   0.068  0.4952  0.3446  0.0579
 2798poe    c2311971   6.409   1.444   0.210  0.1810  0.4408  0.0186
 2798poe     o211972   6.401   1.342   0.308  0.1731  0.0402 -0.3937
 2798poe    c2311973   6.465   1.397   0.421 -0.5335 -0.2251  0.1393
 2798poe    c2311974   6.474   1.295   0.537 -0.3131  0.3841  0.6605
 2798poe     o211975   6.350   1.238   0.573 -0.3693 -0.0522 -0.1852
 2798poe    c3111976   6.387   1.142   0.670 -0.3730  0.4945  0.3665
 2799poe    c3111977   5.468   1.809   2.747 -0.8293  0.0589  0.7950
 2799poe     o211978   5.397   1.740   2.646  0.7436 -0.7577  0.2164
 2799poe    c2311979   5.446   1.806   2.531 -0.2297  0.4701  0.4850
 2799poe    c2311980   5.363   1.754   2.411  0.2176 -0.3652  0.5320
 2799poe     o211981   5.369   1.616   2.383  0.6864 -0.2127 -0.1254
 2799poe    c2311982   5.260   1.570   2.305  0.2688 -0.2079  0.4517
 2799poe    c2311983   5.211   1.429   2.343 -0.1316 -0.0842  0.3937
 2799poe     o211984   5.311   1.331   2.327 -0.3247 -0.1573 -0.3801
 2799poe    c2311985   5.254   1.208   2.364  0.1609 -0.1885  0.2754
 2799poe    c2311986   5.368   1.106   2.346 -0.0971 -0.3394 -0.5308
 2799poe     o211987   5.488   1.178   2.341 -0.2544 -0.0839 -0.6592
 2799poe    c3111988   5.595   1.091   2.371 -0.2227 -0.1738 -1.0254
 2800poe    c3111989   3.435   2.098   0.341  0.6027  0.5305 -0.2618
 2800poe     o211990   3.336   2.160   0.419  0.3508 -0.0257 -0.1379
 2800poe    c2311991   3.276   2.265   0.347  0.2889 -0.1680 -0.2937
 2800poe    c2311992   3.145   2.302   0.418  0.1693 -0.0845 -0.5560
 2800poe     o211993   3.033   2.219   0.395 -0.0982 -0.0745  0.6617
 2800poe    c2311994   2.922   2.275   0.462 -0.0580  0.3242  0.3986
 2800poe    c2311995   2.858   2.194   0.576 -0.2012  0.1784  0.2140
 2800poe     o211996   2.794   2.075   0.537 -0.1522  0.4909 -0.8400
 2800poe    c2311997   2.702   2.043   0.638 -0.4044  0.4867 -1.0680
 2800poe    c2311998   2.637   1.903   0.645  0.3162  0.1981  0.1607
 2800poe     o211999   2.537   1.895   0.547  0.3569 -0.4476  0.1639
 2800poe    c3112000   2.488   1.763   0.540 -0.4169 -0.1223 -0.8691
 2801poe    c3112001   6.172   0.850   1.526  0.1714 -0.3748 -0.0133
 2801poe     o212002   6.211   0.783   1.645 -0.1596 -0.4098  0.0758
 2801poe    c2312003   6.345   0.804   1.682 -0.0957  0.4418 -0.6071
 2801poe    c2312004   6.358   0.843   1.830  0.4608 -0.6380 -0.3648
 2801poe     o212005   6.319   0.737   1.915  0.3972 -0.0191  0.3924
 2801poe    c2312006   6.346   0.776   2.047 -0.8444 -0.1937  0.7133
 2801poe    c2312007   6.277   0.678   2.144 -0.3984 -0.8158  0.4133
 2801poe     o212008   6.165   0.620   2.080 -0.4125 -0.4267  0.0840
 2801poe    c2312009   6.082   0.548   2.168 -0.2365 -0.3508  0.3136
 2801poe    c2312010   6.055   0.414   2.097 -0.0763 -0.1743 -0.0871
 2801poe     o212011   6.024   0.468   1.971 -0.5110  0.2712  0.2059
 2801poe    c3112012   5.994   0.357   1.889  0.0087  0.4780 -0.2696
 2802poe    c3112013   0.173   3.169   6.143 -0.2747  0.2610  0.3406
 2802poe     o212014   0.117   3.080   6.238  0.0289  0.2599  0.5187
 2802poe    c2312015   0.228   3.017   6.299 -0.0053 -0.1164  0.1955
 2802poe    c2312016   0.184   2.920   6.411 -0.1866  0.5019  0.6639
 2802poe     o212017   0.096   2.822   6.361  0.1961  0.4061  0.1680
 2802poe    c2312018   0.098   2.712   6.449  0.3356  0.2795  0.0080
 2802poe    c2312019   0.011   2.606   6.379 -0.3249  0.3542  0.7047
 2802poe     o212020  -0.122   2.640   6.346 -0.0034  0.8894 -0.0667
 2802poe    c2312021  -0.203   2.629   6.461 -0.0697 -0.7437 -0.2488
 2802poe    c2312022  -0.341   2.678   6.412  0.1106 -0.2473 -0.2557
 2802poe     o212023  -0.314   2.781   6.319  0.0204 -0.2001 -0.2287
 2802poe    c3112024  -0.435   2.844   6.284 -0.0536 -0.2390 -0.0463
 2803poe    c3112025   3.850   5.807   6.009  0.2475  0.1104  0.2429
 2803poe     o212026   3.711   5.806   6.030  0.2136 -0.0680  0.0192
 2803poe    c2312027   3.683   5.748   6.156  0.5402 -0.7332 -0.2103
 2803poe    c2312028   3.538   5.718   6.197  0.4699 -0.3226 -0.1518
 2803poe     o212029   3.461   5.835   6.176  0.2232 -0.3225  0.7093
 2803poe    c2312030   3.336   5.831   6.241 -0.1220  0.5615  0.1128
 2803poe    c2312031   3.221   5.921   6.192  0.0760  0.5782 -0.3314
 2803poe     o212032   3.252   6.058   6.204  0.8069  0.4273 -0.4586
 2803poe    c2312033   3.140   6.112   6.138  0.2921  0.1261  0.1621
 2803poe    c2312034   3.158   6.258   6.092  0.4345  0.0910  0.1054
 2803poe     o212035   3.157   6.346   6.203 -0.1349 -0.4079  0.5053
 2803poe    c3112036   3.166   6.477   6.151 -0.0239 -0.6354 -0.0578
 2804poe    c3112037   4.226   5.238   1.221 -0.3297 -0.0145 -0.6513
 2804poe     o212038   4.352   5.200   1.168  0.0291  0.4208 -0.1229
 2804poe    c2312039   4.435   5.161   1.275  0.2959  0.3619 -0.3504
 2804poe    c2312040   4.580   5.194   1.236  0.3951  0.1708 -0.1431
 2804poe     o212041   4.597   5.132   1.111  0.4171 -0.5827  0.2270
 2804poe    c2312042   4.731   5.120   1.069  0.3716 -0.0548 -0.0725
 2804poe    c2312043   4.710   5.099   0.918 -0.0565  0.0373 -0.0269
 2804poe     o212044   4.612   5.002   0.890 -0.0777  0.0750 -0.0804
 2804poe    c2312045   4.641   4.932   0.771 -0.1316 -0.1572  0.0407
 2804poe    c2312046   4.508   4.887   0.709 -0.1939 -0.2013  0.2044
 2804poe     o212047   4.433   4.997   0.662  0.1646 -0.1284 -0.2106
 2804poe    c3112048   4.335   4.956   0.570 -0.2639  0.0736  0.1468
 2805poe    c3112049   3.525   2.510   2.232 -0.2924 -0.6535 -0.4187
 2805poe     o212050   3.602   2.462   2.124  0.5396 -0.0240 -0.1211
 2805poe    c2312051   3.576   2.541   2.010  0.2399  0.3170  0.1768
 2805poe    c2312052   3.637   2.488   1.879 -0.0811  0.6260 -0.0999
 2805poe     o212053   3.561   2.383   1.822  0.2100  0.3125  0.0823
 2805poe    c2312054   3.612   2.305   1.716  0.1192 -0.1200  0.3577
 2805poe    c2312055   3.761   2.268   1.733  0.1527 -0.6664 -1.0305
 2805poe     o212056   3.783   2.204   1.857 -0.0239  0.0985 -0.5979
 2805poe    c2312057   3.910   2.145   1.867 -0.0819  0.0742 -0.0253
 2805poe    c2312058   3.952   2.124   2.014  0.2423 -0.1634 -0.1495
 2805poe     o212059   3.882   2.034   2.096 -0.1348  0.1970 -0.0712
 2805poe    c3112060   3.921   1.909   2.043 -0.4124  0.5319 -1.0955
 2806poe    c3112061   4.679   6.320   2.168  0.2706  0.1359 -0.4714
 2806poe     o212062   4.644   6.442   2.229  0.3884  0.1061 -0.3438
 2806poe    c2312063   4.505   6.454   2.207  0.4294  0.2087 -0.5497
 2806poe    c2312064   4.454   6.571   2.292  0.3988 -0.0519 -0.2091
 2806poe     o212065   4.521   6.689   2.252  0.4734  0.1819  0.5882
 2806poe    c2312066   4.458   6.800   2.312 -0.5113 -0.1149  0.1255
 2806poe    c2312067   4.531   6.933   2.290  0.0185 -0.3340  0.5415
 2806poe     o212068   4.670   6.916   2.308  0.0813  0.0492  0.4307
 2806poe    c2312069   4.758   7.025   2.294 -0.1100  0.0930 -0.5265
 2806poe    c2312070   4.747   7.137   2.399  0.0480  0.0110 -0.4207
 2806poe     o212071   4.793   7.100   2.526 -0.5823  0.1302 -0.1526
 2806poe    c3112072   4.765   7.203   2.618  0.0218  0.5935 -0.4878
 2807poe    c3112073   2.350   0.610   3.478 -0.4349  0.0979  0.1906
 2807poe     o212074   2.301   0.712   3.394 -0.3931 -0.0505 -0.0162
 2807poe    c2312075   2.262   0.828   3.465 -0.0390  0.1260 -0.1112
 2807poe    c2312076   2.206   0.945   3.383  0.1133  0.1485 -0.1846
 2807poe     o212077   2.292   0.986   3.279  0.7532  0.2389  0.3812
 2807poe    c2312078   2.218   1.065   3.189  0.3357 -0.3110  0.2397
 2807poe    c2312079   2.302   1.083   3.062  0.1897  0.2759  0.2232
 2807poe     o212080   2.336   0.960   3.002  0.2260  0.2542  0.2877
 2807poe    c2312081   2.334   0.954   2.861  0.2477 -0.0296  0.2982
 2807poe    c2312082   2.349   0.807   2.818  0.0494 -0.0121  0.1689
 2807poe     o212083   2.457   0.754   2.892  0.0252 -0.0435  0.1818
 2807poe    c3112084   2.521   0.645   2.830 -0.8453 -0.5332  0.1342
 2808poe    c3112085   1.784   4.440   1.894 -0.2289 -0.8036  0.2817
 2808poe     o212086   1.741   4.482   1.767  0.2240 -0.7634  0.1418
 2808poe    c2312087   1.782   4.613   1.733 -0.6443 -0.4992  0.0972
 2808poe    c2312088   1.718   4.650   1.598  0.0017  0.0086 -0.0761
 2808poe     o212089   1.746   4.783   1.563  0.1378  0.1528  0.5606
 2808poe    c2312090   1.633   4.826   1.489  0.1301 -0.2856  0.3140
 2808poe    c2312091   1.659   4.976   1.463  0.2106 -0.3789 -0.1501
 2808poe     o212092   1.748   5.007   1.358  0.0335 -0.3769 -0.3007
 2808poe    c2312093   1.668   5.028   1.244 -0.0830 -0.2870 -0.2026
 2808poe    c2312094   1.759   5.092   1.138 -0.1718  0.6913  0.2953
 2808poe     o212095   1.872   5.031   1.080 -0.3915  0.3399  0.2338
 2808poe    c3112096   1.840   4.940   0.977 -0.5399 -0.4924  1.0041
 2809poe    c3112097   1.704   2.160   2.100  0.3998  0.0068 -0.6093
 2809poe     o212098   1.706   2.250   2.209 -0.9683 -0.3002 -0.3108
 2809poe    c2312099   1.707   2.167   2.323  0.1797  0.3113  0.1433
 2809poe    c2312100   1.798   2.219   2.435  0.4289 -0.0973  0.1349
 2809poe     o212101   1.775   2.352   2.478 -0.1575 -0.1202 -0.0988
 2809poe    c2312102   1.836   2.385   2.600  0.0541  0.0803 -0.2575
 2809poe    c2312103   1.754   2.497   2.666 -0.3380 -0.4269  0.1258
 2809poe     o212104   1.614   2.489   2.679 -0.4177  0.0878 -0.3933
 2809poe    c2312105   1.569   2.368   2.735  0.3809  0.3203  0.7827
 2809poe    c2312106   1.417   2.345   2.736  0.4311 -0.0220  0.5229
 2809poe     o212107   1.346   2.437   2.816 -0.0235  0.1562 -0.0767
 2809poe    c3112108   1.209   2.404   2.820 -0.0156  0.0672 -0.4747
 2810poe    c3112109   1.872   1.215   6.436  0.4695  0.1538  0.0142
 2810poe     o212110   1.906   1.117   6.340  0.6413  0.2520 -0.0264
 2810poe    c2312111   1.839   1.130   6.217 -0.0529 -0.0321  0.3188
 2810poe    c2312112   1.842   0.987   6.159 -0.6638 -0.0595  0.3435
 2810poe     o212113   1.965   0.930   6.200 -0.1220  0.4215 -0.5636
 2810poe    c2312114   1.998   0.813   6.130 -0.4892  0.0346 -0.0991
 2810poe    c2312115   2.136   0.781   6.191 -0.5714  0.3200  0.2421
 2810poe     o212116   2.210   0.899   6.206  0.0265 -0.0673  0.3852
 2810poe    c2312117   2.327   0.881   6.282 -0.0476 -0.5678  0.3840
 2810poe    c2312118   2.449   0.967   6.243 -0.6965 -0.1800 -0.8221
 2810poe     o212119   2.440   1.104   6.275 -0.0960 -0.3655  0.1770
 2810poe    c3112120   2.531   1.178   6.197 -0.2923 -0.7683 -0.4434
 2811poe    c3112121   5.356   2.888   5.798  0.1502 -0.2862 -0.1223
 2811poe     o212122   5.316   2.787   5.888 -0.1960 -0.3156 -0.3085
 2811poe    c2312123   5.268   2.842   6.008 -0.4533  0.3836 -0.7280
 2811poe    c2312124   5.124   2.789   6.022 -0.0892 -0.4533 -0.0983
 2811poe     o212125   5.134   2.648   6.015  0.1297 -0.4795  0.6817
 2811poe    c2312126   5.008   2.585   6.021 -0.2275  0.2227  0.6572
 2811poe    c2312127   5.025   2.433   6.038 -0.2808  0.1316 -0.0603
 2811poe     o212128   5.100   2.385   5.928 -0.1148 -0.1459  0.1747
 2811poe    c2312129   5.147   2.253   5.942 -0.2937 -0.1685  0.5763
 2811poe    c2312130   5.283   2.228   6.011  0.0073  0.6532  0.2911
 2811poe     o212131   5.393   2.277   5.938 -0.2543 -0.1330 -0.6572
 2811poe    c3112132   5.514   2.220   5.982 -0.5536 -0.3583 -0.1090
 2812poe    c3112133   7.138   2.056   1.605 -0.6107  0.2548  0.3747
 2812poe     o212134   7.266   2.113   1.593 -0.6697  0.2902 -0.0903
 2812poe    c2312135   7.328   2.088   1.469 -0.1898 -0.0213  0.2057
 2812poe    c2312136   7.476   2.127   1.473 -0.2884  0.4081 -0.1989
 2812poe     o212137   7.489   2.233   1.565  0.4596 -0.1309  0.3288
 2812poe    c2312138   7.611   2.302   1.551  0.3940 -0.0572  0.1267
 2812poe    c2312139   7.632   2.410   1.659 -0.0035  0.3455 -0.1937
 2812poe     o212140   7.624   2.334   1.777  0.1730  0.2995 -0.2106
 2812poe    c2312141   7.677   2.386   1.897  0.7017 -0.4098 -0.1276
 2812poe    c2312142   7.619   2.298   2.010  0.3927  0.1142  0.1253
 2812poe     o212143   7.486   2.340   2.032  0.2579 -0.4531  0.4157
 2812poe    c3112144   7.448   2.324   2.166 -0.8597  0.0301  0.1654
 2813poe    c3112145   1.287   2.981   5.290 -0.0440  0.2965 -0.1851
 2813poe     o212146   1.261   2.954   5.154  0.5844  0.0604 -0.2626
 2813poe    c2312147   1.186   2.836   5.135  0.1231  0.2974  0.0676
 2813poe    c2312148   1.137   2.823   4.990  0.2072 -0.2928  0.0896
 2813poe     o212149   1.081   2.949   4.962 -0.0771 -0.3670  0.3239
 2813poe    c2312150   1.038   2.959   4.828  0.4149 -0.1255  0.1808
 2813poe    c2312151   0.972   3.093   4.791  0.5784 -0.2032 -0.4038
 2813poe     o212152   1.062   3.186   4.847 -0.2311  0.1440  0.3388
 2813poe    c2312153   1.022   3.305   4.782 -0.4591  0.2582  0.6859
 2813poe    c2312154   1.122   3.422   4.801 -0.2250  0.1596  0.0658
 2813poe     o212155   1.115   3.452   4.938  0.0596  0.3232  0.0447
 2813poe    c3112156   1.232   3.520   4.977  0.1322 -0.0371  0.4655
 2814poe    c3112157   5.518   5.777   1.117 -0.2846  1.1069  0.1622
 2814poe     o212158   5.399   5.788   1.192 -0.2992 -0.0312  0.3327
 2814poe    c2312159   5.371   5.682   1.280 -0.2513 -0.2324  0.1051
 2814poe    c2312160   5.231   5.707   1.339 -0.4910 -0.2325 -0.4534
 2814poe     o212161   5.225   5.846   1.363  0.2560 -0.2701 -0.0125
 2814poe    c2312162   5.102   5.880   1.423  0.4992  0.1419  0.2514
 2814poe    c2312163   5.118   6.026   1.471  0.1853  0.2943 -0.1011
 2814poe     o212164   5.199   6.100   1.381  0.4081  0.3201  0.1192
 2814poe    c2312165   5.227   6.224   1.443  1.0301  0.0016  0.4888
 2814poe    c2312166   5.285   6.332   1.351  0.4783 -0.5135 -0.4861
 2814poe     o212167   5.419   6.311   1.312  0.7767 -0.0688  0.2930
 2814poe    c3112168   5.477   6.432   1.267  0.2969  0.5269  1.2413
 2815poe    c3112169   4.842   2.388   5.671 -0.5634  0.1058  0.1051
 2815poe     o212170   4.751   2.282   5.685 -0.7073  0.2392  0.1753
 2815poe    c2312171   4.693   2.304   5.812 -0.3409  0.5019  0.2960
 2815poe    c2312172   4.615   2.182   5.862 -0.7083  0.7020  0.2141
 2815poe     o212173   4.493   2.171   5.792 -0.6733  0.3556  0.2055
 2815poe    c2312174   4.422   2.056   5.832  0.7906 -0.5315  0.3217
 2815poe    c2312175   4.287   2.018   5.769  0.8592 -0.0984 -0.0902
 2815poe     o212176   4.193   2.117   5.808  0.4223 -0.3368 -0.5280
 2815poe    c2312177   4.065   2.061   5.789  0.4537 -0.6977  0.2924
 2815poe    c2312178   3.956   2.144   5.861  0.3276  0.0117 -0.6987
 2815poe     o212179   3.833   2.095   5.812 -0.0599 -0.1538  0.4087
 2815poe    c3112180   3.728   2.156   5.883 -0.2112 -0.3377  0.3406
 2816poe    c3112181   4.351   2.234   0.051 -0.0884 -0.4172  0.0582
 2816poe     o212182   4.372   2.355   0.119  0.1348 -0.4719  0.0882
 2816poe    c2312183   4.346   2.463   0.032 -0.2225 -0.5734  0.0680
 2816poe    c2312184   4.317   2.592   0.111 -0.1678 -0.2959 -0.3602
 2816poe     o212185   4.431   2.653   0.168 -0.5672 -0.0308  0.1668
 2816poe    c2312186   4.407   2.786   0.206 -0.0227  0.4481 -1.1153
 2816poe    c2312187   4.540   2.853   0.246  0.0248 -0.1305 -0.2874
 2816poe     o212188   4.507   2.969   0.318  0.4886  0.0185 -0.3133
 2816poe    c2312189   4.616   3.056   0.343  0.3067  0.1375  0.0785
 2816poe    c2312190   4.739   3.002   0.417  0.5501  0.1770 -0.2947
 2816poe     o212191   4.716   2.971   0.553 -0.3364  0.2544 -0.4235
 2816poe    c3112192   4.841   2.924   0.599 -0.5549 -0.1852 -0.2715
 2817poe    c3112193   0.407   6.171   2.526 -0.1139  0.7486 -0.8458
 2817poe     o212194   0.304   6.088   2.477 -0.0899  0.1066  0.1689
 2817poe    c2312195   0.183   6.160   2.469  0.1443  0.4387 -0.5011
 2817poe    c2312196   0.055   6.074   2.460  0.0709  0.3901  0.7989
 2817poe     o212197   0.028   5.981   2.562 -0.6753 -0.2546  0.0327
 2817poe    c2312198  -0.032   6.054   2.667  0.1758  0.2449  0.1873
 2817poe    c2312199  -0.085   5.992   2.797 -0.2034 -0.0209 -0.0910
 2817poe     o212200   0.027   5.933   2.860  0.2594  0.0050 -0.8797
 2817poe    c2312201  -0.012   5.854   2.970  0.1556  0.1983 -0.7781
 2817poe    c2312202   0.079   5.734   3.002 -0.1440  0.0319 -0.5487
 2817poe     o212203   0.033   5.631   2.917 -0.3874  0.0008 -0.3832
 2817poe    c3112204   0.130   5.529   2.922 -0.2627  0.1538  0.4817
 2818poe    c3112205   5.186   0.287   3.679 -0.2835  0.6739 -0.1819
 2818poe     o212206   5.303   0.263   3.604 -0.2942 -0.4469  0.1355
 2818poe    c2312207   5.296   0.133   3.551 -0.2901 -0.2429 -0.3683
 2818poe    c2312208   5.436   0.078   3.517 -0.3771 -0.5834 -0.1778
 2818poe     o212209   5.508   0.047   3.634  0.2187  0.5870 -0.2173
 2818poe    c2312210   5.644   0.014   3.613  0.2321  0.1805  0.4679
 2818poe    c2312211   5.705  -0.077   3.722  0.6212 -0.2199 -0.0835
 2818poe     o212212   5.739  -0.004   3.837  0.0670  0.2559 -0.2164
 2818poe    c2312213   5.838  -0.079   3.905  0.1521  0.4441 -0.1312
 2818poe    c2312214   5.936   0.008   3.986  0.4273 -0.0504  0.0663
 2818poe     o212215   5.874   0.040   4.108 -0.2602  0.5398 -0.4288
 2818poe    c3112216   5.966   0.123   4.175 -0.3945  0.1823  0.2088
 2819poe    c3112217   5.547   5.690   4.117  0.1568  0.1237  0.6195
 2819poe     o212218   5.472   5.624   4.018  0.3788  0.3493  0.2981
 2819poe    c2312219   5.560   5.608   3.909 -0.3043 -0.0630 -0.2059
 2819poe    c2312220   5.486   5.557   3.784 -0.3672  0.5045 -0.4054
 2819poe     o212221   5.385   5.635   3.724 -0.2004  0.3655 -0.8731
 2819poe    c2312222   5.317   5.556   3.630 -0.1945 -0.3231 -0.3111
 2819poe    c2312223   5.196   5.633   3.573 -0.0839 -0.0201 -0.1394
 2819poe     o212224   5.084   5.653   3.656 -0.1566  0.1637 -0.2802
 2819poe    c2312225   4.977   5.693   3.573  0.1232  0.7008 -0.3859
 2819poe    c2312226   4.859   5.768   3.637  0.0868  0.0830  0.2939
 2819poe     o212227   4.904   5.873   3.720  0.2430  0.1077  0.1781
 2819poe    c3112228   4.803   5.919   3.807  0.0147  0.6057 -0.3387
 2820poe    c3112229   6.103   5.565   3.449 -0.6085 -0.2666 -0.1692
 2820poe     o212230   6.225   5.495   3.459 -0.1443  0.5365 -0.1205
 2820poe    c2312231   6.203   5.358   3.484 -0.5492  0.6000 -0.1226
 2820poe    c2312232   6.328   5.273   3.459 -0.8830 -0.2047  0.8889
 2820poe     o212233   6.444   5.334   3.512 -0.1126 -0.3429 -0.5662
 2820poe    c2312234   6.545   5.237   3.530 -0.0517 -0.0639  0.7361
 2820poe    c2312235   6.691   5.283   3.549 -0.0738  0.1925  0.3027
 2820poe     o212236   6.717   5.317   3.683 -0.1399  0.7469  0.1785
 2820poe    c2312237   6.848   5.274   3.712 -0.3501  0.0038  0.0661
 2820poe    c2312238   6.918   5.295   3.848  0.3274 -0.4859 -0.1993
 2820poe     o212239   6.839   5.239   3.951 -0.0831  0.2701 -0.0938
 2820poe    c3112240   6.899   5.251   4.078 -0.6504  0.1104  0.1923
 2821poe    c3112241   6.882   4.863   1.021  0.6377 -0.4003 -0.6995
 2821poe     o212242   6.988   4.949   1.056  0.1095 -0.0595  0.0629
 2821poe    c2312243   7.044   4.929   1.184  0.3665 -0.4317 -0.1068
 2821poe    c2312244   7.115   5.056   1.237  0.1048 -0.4915  0.3916
 2821poe     o212245   7.243   5.075   1.183 -0.1224  0.4858  0.1877
 2821poe    c2312246   7.287   5.201   1.229  0.3155  0.4599 -0.1436
 2821poe    c2312247   7.300   5.316   1.127  0.6022  0.9944  0.4830
 2821poe     o212248   7.357   5.259   1.011 -0.5091  0.2498  0.2849
 2821poe    c2312249   7.361   5.346   0.900 -0.2378 -0.5801 -0.3710
 2821poe    c2312250   7.424   5.265   0.785  0.2203 -0.5280 -0.1583
 2821poe     o212251   7.384   5.130   0.790  0.2294 -0.5294 -0.1256
 2821poe    c3112252   7.437   5.051   0.686  0.4798 -0.8930  0.2731
 2822poe    c3112253   6.645   1.289   6.140  0.3244 -0.5517  0.1081
 2822poe     o212254   6.600   1.213   6.030 -0.4823 -0.0659  0.0940
 2822poe    c2312255   6.672   1.244   5.913 -0.2880 -0.2194  0.1723
 2822poe    c2312256   6.626   1.129   5.822 -0.2529  0.1370 -0.2984
 2822poe     o212257   6.708   1.016   5.841  0.1432  0.5607  0.5555
 2822poe    c2312258   6.703   0.924   5.734 -0.1327  0.3674  0.7360
 2822poe    c2312259   6.736   0.780   5.776 -0.0842  0.1635  0.0072
 2822poe     o212260   6.668   0.715   5.881 -0.2179  0.6487  0.2257
 2822poe    c2312261   6.741   0.595   5.899 -0.9287  0.1259 -0.3291
 2822poe    c2312262   6.708   0.509   6.022  0.4870 -0.1953 -0.1631
 2822poe     o212263   6.568   0.492   6.022  0.5160 -0.4476  0.1110
 2822poe    c3112264   6.517   0.448   6.145  0.0756  0.4871  0.2680
 2823poe    c3112265   2.104   7.008   0.607 -0.4174  0.0722 -0.0542
 2823poe     o212266   2.073   7.123   0.682  0.1584 -0.4334  0.9877
 2823poe    c2312267   2.187   7.164   0.754  0.7147 -0.7415  0.2941
 2823poe    c2312268   2.148   7.253   0.873 -0.0977 -0.3789 -0.2325
 2823poe     o212269   2.061   7.352   0.824 -0.3202 -0.5833 -0.2558
 2823poe    c2312270   2.009   7.418   0.937  0.2141 -0.7385  0.0839
 2823poe    c2312271   1.856   7.428   0.924  0.2766  0.1823  0.0253
 2823poe     o212272   1.814   7.486   0.802 -0.0036 -0.5813 -0.2467
 2823poe    c2312273   1.674   7.497   0.786 -0.0098 -0.2449  0.0375
 2823poe    c2312274   1.647   7.559   0.648 -0.2415 -0.3165  0.0515
 2823poe     o212275   1.746   7.521   0.556 -0.6985 -0.2447 -0.4761
 2823poe    c3112276   1.749   7.592   0.434 -0.7224  0.0100 -0.3277
 2824poe    c3112277   7.110   5.533   4.625  0.0477 -0.2060  0.2427
 2824poe     o212278   7.025   5.616   4.702  0.0898  0.0998 -0.0424
 2824poe    c2312279   6.971   5.548   4.813  0.0072  0.3062  0.0436
 2824poe    c2312280   6.896   5.655   4.895 -0.1862 -0.0568  0.3434
 2824poe     o212281   6.971   5.774   4.895 -0.1499 -0.0792  0.0938
 2824poe    c2312282   6.975   5.839   5.020 -0.3481  0.3608 -0.1266
 2824poe    c2312283   7.017   5.762   5.146  0.3359  0.3271 -0.3702
 2824poe     o212284   6.931   5.663   5.197  0.6185  0.0812 -0.3687
 2824poe    c2312285   6.965   5.637   5.331 -0.2470  0.6307 -0.0354
 2824poe    c2312286   6.898   5.507   5.381  0.4939  0.3800  0.3113
 2824poe     o212287   6.963   5.382   5.366 -0.3415 -0.0422  0.1875
 2824poe    c3112288   6.866   5.281   5.379 -0.6553  0.3913  1.3201
 2825poe    c3112289   0.598   3.691   2.082 -0.2642 -0.2936  0.3114
 2825poe     o212290   0.627   3.557   2.112  0.0606 -0.3691 -0.3122
 2825poe    c2312291   0.764   3.526   2.104  0.0768 -0.3337 -0.1671
 2825poe    c2312292   0.788   3.378   2.068  0.5977 -0.2028 -0.3643
 2825poe     o212293   0.735   3.280   2.155  0.1794 -0.0117 -0.4006
 2825poe    c2312294   0.732   3.150   2.101  0.0766 -0.0241 -0.3633
 2825poe    c2312295   0.641   3.047   2.172 -0.2660  0.5941  0.1060
 2825poe     o212296   0.509   3.076   2.131 -0.2253  0.3529 -0.1975
 2825poe    c2312297   0.412   3.028   2.221  0.1911  0.0654  0.1008
 2825poe    c2312298   0.272   3.048   2.161  0.0872  0.2726  0.4082
 2825poe     o212299   0.245   3.182   2.125 -0.4276  0.0061 -0.2221
 2825poe    c3112300   0.135   3.185   2.038  0.0194  0.0243 -0.7945
 2826poe    c3112301   4.148   4.009   7.139 -0.0527  0.6041 -0.0581
 2826poe     o212302   4.144   3.905   7.044 -0.2253  0.3916  0.1809
 2826poe    c2312303   4.052   3.943   6.944 -0.2841 -0.2439 -0.0049
 2826poe    c2312304   4.057   3.844   6.825  0.6362  0.5582 -0.6506
 2826poe     o212305   4.185   3.857   6.768  1.0069  0.7168  0.1923
 2826poe    c2312306   4.200   3.769   6.658  0.1860  0.1287  0.5395
 2826poe    c2312307   4.349   3.785   6.623  0.0435 -0.2739 -0.2656
 2826poe     o212308   4.429   3.790   6.739 -0.3100  0.2272 -0.0420
 2826poe    c2312309   4.559   3.769   6.689 -0.1846  0.7024  0.0844
 2826poe    c2312310   4.627   3.657   6.769 -0.9408  0.3028  0.1718
 2826poe     o212311   4.621   3.671   6.909  0.6294 -0.2927  0.3169
 2826poe    c3112312   4.688   3.560   6.963  0.1282 -0.6857  0.1315
 2827poe    c3112313   2.146   2.434   2.915  0.2691 -0.3661 -0.1965
 2827poe     o212314   2.246   2.488   2.999  0.0242  0.0671 -0.1816
 2827poe    c2312315   2.375   2.483   2.942  0.2890 -0.2075  0.4397
 2827poe    c2312316   2.452   2.366   3.006  0.0256 -0.5821  0.0796
 2827poe     o212317   2.428   2.392   3.143 -0.3291 -0.1942 -0.0565
 2827poe    c2312318   2.367   2.290   3.218 -0.5062 -0.0906 -0.0578
 2827poe    c2312319   2.302   2.341   3.348 -0.4656 -0.1117 -0.0291
 2827poe     o212320   2.415   2.375   3.426 -0.2703 -0.7651 -0.0211
 2827poe    c2312321   2.380   2.425   3.553 -0.0982 -0.0154 -0.2658
 2827poe    c2312322   2.410   2.574   3.579 -0.4638 -0.0237  0.2191
 2827poe     o212323   2.425   2.585   3.719 -0.2378  0.0563  0.1904
 2827poe    c3112324   2.470   2.716   3.740  0.2749  0.0315 -0.7172
 2828poe    c3112325   1.280   0.564   4.846  0.2620  0.2799 -0.1883
 2828poe     o212326   1.323   0.639   4.734 -0.2251  0.4410 -0.2704
 2828poe    c2312327   1.451   0.604   4.687 -0.0263  0.0591  0.5346
 2828poe    c2312328   1.462   0.664   4.545  0.5017 -0.2250  0.4528
 2828poe     o212329   1.403   0.791   4.557  0.4061 -0.2201 -0.0653
 2828poe    c2312330   1.427   0.880   4.450  0.1343  0.0516  0.0971
 2828poe    c2312331   1.377   1.024   4.473 -0.0437  0.0442 -0.2451
 2828poe     o212332   1.239   1.024   4.503  0.0544 -0.0784  0.2050
 2828poe    c2312333   1.176   1.144   4.541 -0.5575 -0.3395  0.0258
 2828poe    c2312334   1.029   1.134   4.496 -0.4532 -0.0547 -0.3895
 2828poe     o212335   0.973   1.027   4.569 -0.4791  0.2471  0.0385
 2828poe    c3112336   0.835   1.008   4.546 -0.5837  0.4247  0.5004
 2829poe    c3112337   6.636   6.426   5.983  0.4523  0.1889 -0.2429
 2829poe     o212338   6.649   6.314   6.067  0.0091 -0.3054 -0.8229
 2829poe    c2312339   6.521   6.253   6.066 -0.2527  0.2207 -0.2152
 2829poe    c2312340   6.489   6.141   6.165 -0.7225 -0.1323 -0.7623
 2829poe     o212341   6.562   6.023   6.139  0.0877  0.1876  0.0044
 2829poe    c2312342   6.554   5.938   6.251  0.2298  0.1827  0.0101
 2829poe    c2312343   6.607   5.799   6.210 -0.2104  0.0459 -0.0969
 2829poe     o212344   6.734   5.820   6.153 -0.0306  0.3656  0.4156
 2829poe    c2312345   6.834   5.799   6.250  0.1171  0.2901  0.2482
 2829poe    c2312346   6.968   5.747   6.195  0.2174  0.0254  0.7318
 2829poe     o212347   7.032   5.863   6.145  0.2542 -0.1047  0.4773
 2829poe    c3112348   7.167   5.826   6.125  0.0802 -0.6121  0.2157
 2830poe    c3112349   5.315   4.419   4.759 -0.3895  0.1556  0.1745
 2830poe     o212350   5.288   4.526   4.847  0.0019  0.5362 -0.1700
 2830poe    c2312351   5.396   4.617   4.851  0.2121  0.2568  0.6350
 2830poe    c2312352   5.343   4.762   4.852  0.0748  0.2157 -0.1902
 2830poe     o212353   5.260   4.779   4.964  0.3017 -0.1618  0.0374
 2830poe    c2312354   5.249   4.918   4.987  0.1433 -0.2731  0.6703
 2830poe    c2312355   5.120   4.957   5.060  0.0402 -0.0354  0.3645
 2830poe     o212356   5.137   4.929   5.197  0.5386  0.3344  0.3783
 2830poe    c2312357   5.033   4.994   5.266 -0.2500 -0.2093 -0.2788
 2830poe    c2312358   4.982   4.923   5.393 -0.3632  0.2925 -0.0377
 2830poe     o212359   5.078   4.905   5.495 -0.0486  1.0718 -0.1931
 2830poe    c3112360   5.025   4.841   5.609  0.5636 -0.0681 -0.5330
 2831poe    c3112361   7.148   5.965   3.927  0.4011  0.1299 -0.1638
 2831poe     o212362   7.051   6.037   3.854 -0.0379 -0.0686  0.2261
 2831poe    c2312363   7.005   5.965   3.742 -0.1757 -0.2885  0.4211
 2831poe    c2312364   6.950   6.065   3.638  0.1332  0.0385  0.5707
 2831poe     o212365   6.830   6.132   3.670 -0.0145  0.0755 -0.0429
 2831poe    c2312366   6.810   6.247   3.591  0.4473  0.2519  0.0945
 2831poe    c2312367   6.740   6.215   3.458 -0.4328  0.4419  0.5027
 2831poe     o212368   6.630   6.129   3.474 -0.3720  0.2526 -0.0456
 2831poe    c2312369   6.565   6.109   3.351 -0.4166  0.5666 -0.0739
 2831poe    c2312370   6.423   6.050   3.360 -0.0654 -0.2758 -0.0086
 2831poe     o212371   6.340   6.151   3.414  0.4233  0.3383 -0.3964
 2831poe    c3112372   6.213   6.158   3.355  0.4654  0.5057 -0.4673
 2832poe    c3112373   3.522   7.222   2.596  0.3275 -0.4556  0.1528
 2832poe     o212374   3.552   7.084   2.596 -0.5975 -0.6617  0.3369
 2832poe    c2312375   3.541   7.035   2.465  0.1995 -0.0775  0.0461
 2832poe    c2312376   3.594   6.892   2.438 -0.1021 -0.1214 -0.3181
 2832poe     o212377   3.517   6.800   2.511 -0.2986 -0.1512 -0.5606
 2832poe    c2312378   3.537   6.665   2.475 -0.9695 -0.0659 -1.2655
 2832poe    c2312379   3.433   6.587   2.558 -0.0422  0.2809  0.2487
 2832poe     o212380   3.466   6.594   2.695 -0.4590  0.3281  0.3477
 2832poe    c2312381   3.390   6.506   2.775 -0.5561  0.0080 -0.0940
 2832poe    c2312382   3.357   6.572   2.910  0.9998 -0.0848  0.3547
 2832poe     o212383   3.443   6.679   2.940 -0.3875  1.1172  0.1506
 2832poe    c3112384   3.470   6.688   3.078  0.3451  0.4138  0.0594
 2833poe    c3112385   4.579   6.622   2.739  0.2505  0.1125  0.6062
 2833poe     o212386   4.534   6.725   2.824 -0.2284 -0.4189  1.0074
 2833poe    c2312387   4.476   6.823   2.742  0.4049 -0.5175  0.4285
 2833poe    c2312388   4.434   6.959   2.802 -0.1617 -0.3930 -0.2363
 2833poe     o212389   4.550   7.015   2.860 -0.6442 -0.1905  0.5477
 2833poe    c2312390   4.534   7.053   2.995  0.8386  0.4749  0.5544
 2833poe    c2312391   4.673   7.092   3.048  1.1826  0.1933 -0.1247
 2833poe     o212392   4.768   6.988   3.057  0.1611 -0.6729  0.9018
 2833poe    c2312393   4.896   7.046   3.053 -0.1156 -0.0987 -0.1283
 2833poe    c2312394   5.005   6.951   3.001 -0.5065 -0.6451  0.0443
 2833poe     o212395   4.992   6.920   2.864  0.6814 -0.0570 -0.2133
 2833poe    c3112396   5.083   6.998   2.790 -0.3129  1.2818 -0.0661
 2834poe    c3112397   4.484   5.821   2.156 -0.1245  0.7351 -0.3339
 2834poe     o212398   4.396   5.930   2.139 -0.4044  0.5892  0.1591
 2834poe    c2312399   4.357   5.962   2.271  0.3353  0.3233  0.4523
 2834poe    c2312400   4.263   6.084   2.270 -0.7384 -0.4831  0.2069
 2834poe     o212401   4.193   6.066   2.149  0.5253  0.2158 -0.6564
 2834poe    c2312402   4.081   6.151   2.138  0.0789 -0.2928 -0.0923
 2834poe    c2312403   4.021   6.101   2.005  0.1406 -0.4982 -0.0445
 2834poe     o212404   4.108   6.112   1.895  0.5546 -0.0063  0.3268
 2834poe    c2312405   4.039   6.088   1.774  0.3952  0.3490  0.3460
 2834poe    c2312406   3.974   6.214   1.714 -0.0186  0.1167  0.2993
 2834poe     o212407   4.061   6.323   1.693  0.1380  0.0357  0.5193
 2834poe    c3112408   3.972   6.429   1.670  0.0374 -0.0017  0.7321
 2835poe    c3112409   5.369   3.975   4.344 -1.1353  0.0050 -0.4932
 2835poe     o212410   5.387   3.838   4.373 -0.3237  0.2069 -0.0321
 2835poe    c2312411   5.515   3.825   4.431 -0.0886  0.1058 -0.5717
 2835poe    c2312412   5.564   3.682   4.406  0.3112  0.0914  0.2678
 2835poe     o212413   5.543   3.582   4.503  0.0173 -0.0708  0.0382
 2835poe    c2312414   5.526   3.455   4.444  0.5166  0.2016 -0.7119
 2835poe    c2312415   5.498   3.359   4.562  0.1967  0.8943 -0.2172
 2835poe     o212416   5.607   3.348   4.652 -0.2642 -0.4922  0.1927
 2835poe    c2312417   5.611   3.223   4.717 -0.0765 -0.3983  0.3614
 2835poe    c2312418   5.753   3.219   4.775  0.1733 -0.0388 -0.2220
 2835poe     o212419   5.787   3.321   4.867 -0.1644 -0.0278 -0.1090
 2835poe    c3112420   5.926   3.312   4.889 -0.0998 -0.1996 -0.5741
 2836poe    c3112421   3.292   5.106   0.609  0.3020 -0.0348  0.3757
 2836poe     o212422   3.425   5.067   0.584  0.3157 -0.1002  0.5473
 2836poe    c2312423   3.522   5.112   0.676  0.4942  0.2917  0.1701
 2836poe    c2312424   3.656   5.047   0.637  0.0768 -0.1976 -0.4729
 2836poe     o212425   3.639   4.907   0.645 -0.2287 -0.1160  0.3770
 2836poe    c2312426   3.758   4.834   0.627 -0.4980 -0.3748 -0.3999
 2836poe    c2312427   3.738   4.684   0.657  0.1168 -0.3705  0.0631
 2836poe     o212428   3.645   4.631   0.565 -0.0717 -0.6265  0.3992
 2836poe    c2312429   3.624   4.493   0.588  0.0693 -0.6024  0.6830
 2836poe    c2312430   3.501   4.476   0.497  0.1296  0.3260  0.4102
 2836poe     o212431   3.406   4.574   0.534 -0.0981  0.2662 -0.0139
 2836poe    c3112432   3.279   4.535   0.487  0.1836 -0.1317 -0.4596
 2837poe    c3112433   5.091   5.511   0.396  0.4498 -0.1177 -0.1476
 2837poe     o212434   5.133   5.609   0.304  0.2389 -0.0038 -0.1215
 2837poe    c2312435   5.184   5.542   0.191  0.7062 -0.2638  0.2408
 2837poe    c2312436   5.221   5.644   0.083 -0.1711 -0.1035  0.0815
 2837poe     o212437   5.107   5.726   0.077 -0.0815  0.0270  0.1761
 2837poe    c2312438   5.111   5.825  -0.024 -0.5454 -0.3237 -0.1939
 2837poe    c2312439   5.010   5.930   0.027  0.1710  0.3623 -0.1747
 2837poe     o212440   5.008   5.943   0.167  0.8851 -0.1745 -0.1091
 2837poe    c2312441   4.932   6.058   0.196  0.1682 -0.6995  0.1148
 2837poe    c2312442   4.938   6.105   0.343  0.0839 -0.3642  0.0132
 2837poe     o212443   4.885   6.229   0.382  0.6991 -0.0572 -0.1041
 2837poe    c3112444   4.898   6.272   0.516 -0.0096  0.4524 -0.1931
 2838poe    c3112445   1.051   4.939   4.836  0.2731 -0.1773 -0.1660
 2838poe     o212446   1.025   4.810   4.787 -0.5075 -0.1183  0.0800
 2838poe    c2312447   1.150   4.759   4.744 -0.4760 -0.0829  0.1298
 2838poe    c2312448   1.224   4.665   4.841 -0.1912 -0.5630 -0.5461
 2838poe     o212449   1.277   4.704   4.965  0.3278 -0.6600 -0.7367
 2838poe    c2312450   1.186   4.675   5.069  1.1163 -0.2704  0.0780
 2838poe    c2312451   1.232   4.736   5.203  0.0285 -0.4345  0.5347
 2838poe     o212452   1.181   4.867   5.192  0.4963 -0.2204  0.9024
 2838poe    c2312453   1.238   4.942   5.297 -0.3421  0.3618  0.9569
 2838poe    c2312454   1.237   5.093   5.269  0.3266  0.2151  0.0911
 2838poe     o212455   1.311   5.124   5.153 -0.1427 -0.0622 -0.2878
 2838poe    c3112456   1.255   5.232   5.082  0.2635 -0.1299 -0.7167
 2839poe    c3112457   1.975   0.177   3.762  0.1689 -0.0259  0.0976
 2839poe     o212458   2.094   0.192   3.836  0.4766  0.7211 -0.5415
 2839poe    c2312459   2.172   0.304   3.801  0.4277  0.7862 -0.4423
 2839poe    c2312460   2.290   0.323   3.898  0.0367  0.0580  0.1831
 2839poe     o212461   2.371   0.208   3.912 -0.2048 -0.0691  0.5318
 2839poe    c2312462   2.491   0.226   3.984 -0.3523  0.2657  0.6968
 2839poe    c2312463   2.582   0.110   3.939 -0.3669  0.2249  0.7715
 2839poe     o212464   2.546  -0.016   3.991  0.2681 -0.3040 -0.0459
 2839poe    c2312465   2.667  -0.083   4.020  0.6195  0.2352 -0.2579
 2839poe    c2312466   2.634  -0.221   4.080 -0.1085  0.3884 -0.3003
 2839poe     o212467   2.538  -0.294   4.006 -0.1953  0.0117  0.1809
 2839poe    c3112468   2.499  -0.407   4.081 -0.5404  0.1047  0.1432
 2840poe    c3112469   0.657   6.974   6.121  0.1721 -0.1948 -0.2793
 2840poe     o212470   0.719   6.874   6.198  0.6082  0.1732 -0.1469
 2840poe    c2312471   0.708   6.898   6.336 -0.7584 -0.3245 -0.1559
 2840poe    c2312472   0.754   6.768   6.404  0.1008  0.0410 -0.0339
 2840poe     o212473   0.874   6.722   6.345  0.2059  0.4167 -0.1179
 2840poe    c2312474   0.939   6.603   6.384  0.6095  0.6569 -0.0545
 2840poe    c2312475   1.062   6.556   6.305  0.2307 -0.3784 -0.0562
 2840poe     o212476   1.016   6.518   6.177  0.3293  0.5847 -0.3890
 2840poe    c2312477   1.117   6.494   6.082 -0.0374  0.5979 -0.7857
 2840poe    c2312478   1.061   6.429   5.955 -0.2422 -0.3539 -0.2178
 2840poe     o212479   1.003   6.526   5.870  0.0382 -0.1527 -0.1806
 2840poe    c3112480   0.956   6.470   5.750 -0.4625 -0.0072 -0.0556
 2841poe    c3112481   4.954   1.837   5.788 -0.1212  0.1004  0.0813
 2841poe     o212482   4.966   1.879   5.654 -0.6948  0.4913  0.1465
 2841poe    c2312483   4.931   2.015   5.641  0.2886  0.6850 -0.5862
 2841poe    c2312484   5.001   2.057   5.511 -0.0517  0.2577 -0.9125
 2841poe     o212485   4.965   1.955   5.421 -0.0406 -0.7082  0.1672
 2841poe    c2312486   5.061   1.951   5.317 -0.0106  0.3136  0.1445
 2841poe    c2312487   5.014   1.844   5.217  0.4490  0.2238  0.0227
 2841poe     o212488   4.961   1.737   5.293  0.2165 -0.0200 -0.4719
 2841poe    c2312489   4.891   1.639   5.220 -0.0321 -0.0525 -0.1927
 2841poe    c2312490   4.837   1.521   5.303 -0.0235 -0.2227 -0.4294
 2841poe     o212491   4.944   1.450   5.363 -0.1925 -0.3853 -0.3219
 2841poe    c3112492   4.884   1.344   5.435 -0.5229  0.1748  0.2402
 2842poe    c3112493   1.730   1.731   4.807 -0.0757 -0.2761 -0.2900
 2842poe     o212494   1.691   1.646   4.913  0.1428 -0.4470 -0.3450
 2842poe    c2312495   1.809   1.605   4.977  0.3482 -0.1733 -0.5447
 2842poe    c2312496   1.775   1.494   5.078 -1.0147  0.4531 -0.2997
 2842poe     o212497   1.759   1.531   5.213 -0.2093 -0.3239  0.0143
 2842poe    c2312498   1.640   1.600   5.243  0.3568  0.7628 -0.1910
 2842poe    c2312499   1.649   1.657   5.386  0.9240  0.3981 -0.0780
 2842poe     o212500   1.678   1.556   5.480  0.2906  0.2165 -0.0753
 2842poe    c2312501   1.650   1.595   5.612  0.8780 -0.1099  0.1484
 2842poe    c2312502   1.667   1.470   5.701 -0.0111  0.5566  1.2888
 2842poe     o212503   1.569   1.371   5.683  0.3222  0.3654  0.4613
 2842poe    c3112504   1.608   1.275   5.779 -0.3604 -0.0826  0.3049
 2843poe    c3112505   2.893   1.431   5.731  0.0964  0.1797  0.3690
 2843poe     o212506   2.877   1.300   5.780  0.2268  0.0418  0.0489
 2843poe    c2312507   2.960   1.272   5.890 -0.0053  0.3456  0.3034
 2843poe    c2312508   3.094   1.206   5.851 -0.2161 -0.2192  0.5292
 2843poe     o212509   3.077   1.083   5.785 -0.0823  0.0841 -0.0818
 2843poe    c2312510   3.181   0.989   5.802 -0.1575 -0.0350 -0.2713
 2843poe    c2312511   3.156   0.875   5.702 -1.3223 -0.2066  0.2016
 2843poe     o212512   3.162   0.926   5.571  0.2200 -0.4646  0.1571
 2843poe    c2312513   3.127   0.835   5.469 -0.2940 -0.0015 -0.0851
 2843poe    c2312514   3.197   0.879   5.340  0.3220 -0.0189  0.2386
 2843poe     o212515   3.181   1.019   5.343 -0.2362 -0.0799  0.2774
 2843poe    c3112516   3.214   1.057   5.212  0.1693  0.6533  0.5841
 2844poe    c3112517   5.024   4.402   0.151  0.4813  0.6193 -0.0398
 2844poe     o212518   5.144   4.394   0.223  0.1255  0.3415  0.5262
 2844poe    c2312519   5.121   4.422   0.359  0.0368  0.2510  0.5305
 2844poe    c2312520   5.245   4.460   0.443  0.3146  0.1898  0.1523
 2844poe     o212521   5.339   4.356   0.458  0.1791 -0.0046 -0.3333
 2844poe    c2312522   5.305   4.265   0.561  0.1370  0.6081  0.2034
 2844poe    c2312523   5.412   4.159   0.593 -0.1381  0.2505 -0.0406
 2844poe     o212524   5.394   4.107   0.723 -0.6504 -0.2185 -0.2948
 2844poe    c2312525   5.458   3.982   0.710 -0.4268 -0.1569  0.1896
 2844poe    c2312526   5.448   3.903   0.841 -0.1482 -0.3605  0.0890
 2844poe     o212527   5.328   3.930   0.910 -0.1414  0.5204 -0.2311
 2844poe    c3112528   5.216   3.860   0.860  0.1371 -0.1037  0.0075
 2845poe    c3112529   2.000   5.682   0.045 -0.3364 -0.6822  0.2444
 2845poe     o212530   1.862   5.661   0.064 -0.4717  0.4045  0.5383
 2845poe    c2312531   1.792   5.729  -0.038 -0.0816 -0.3564 -0.2496
 2845poe    c2312532   1.638   5.735  -0.033 -0.0551  0.1610  0.0604
 2845poe     o212533   1.562   5.616  -0.032  0.2080 -0.0085  0.1907
 2845poe    c2312534   1.422   5.636  -0.032  0.1970 -0.0757 -0.2131
 2845poe    c2312535   1.326   5.518  -0.007  0.0572  0.0885  0.0295
 2845poe     o212536   1.325   5.456   0.119  0.6035  0.1814  0.0818
 2845poe    c2312537   1.235   5.348   0.109  0.6260  0.1375  0.3521
 2845poe    c2312538   1.179   5.290   0.241  0.0449  1.2468  0.6136
 2845poe     o212539   1.271   5.204   0.305 -0.4716  0.0751 -0.1819
 2845poe    c3112540   1.236   5.170   0.437  0.6373  0.5107  0.2397
 2846poe    c3112541   0.294   5.376   1.580  0.1829 -0.4574  0.3304
 2846poe     o212542   0.362   5.473   1.657  0.1103 -0.2488  0.1346
 2846poe    c2312543   0.461   5.423   1.744  0.1556 -0.2191  0.1003
 2846poe    c2312544   0.518   5.544   1.822 -0.6281  0.0411  0.2884
 2846poe     o212545   0.551   5.639   1.723 -1.0135  0.0573  0.1740
 2846poe    c2312546   0.616   5.752   1.776  0.0647 -0.4205 -0.0909
 2846poe    c2312547   0.702   5.823   1.670 -0.0152 -0.2840 -0.0644
 2846poe     o212548   0.622   5.876   1.567  0.2103  0.3205  0.0601
 2846poe    c2312549   0.710   5.946   1.483 -0.2838  1.2676  0.3116
 2846poe    c2312550   0.662   5.922   1.338 -0.0527  0.0284  0.4241
 2846poe     o212551   0.680   5.793   1.285  0.0482  0.2597 -0.1147
 2846poe    c3112552   0.679   5.798   1.144 -0.1712  0.3236 -0.1112
 2847poe    c3112553   0.886   0.520   1.627 -0.1937  0.2241  0.2395
 2847poe     o212554   0.778   0.455   1.563  0.2886  0.0722 -0.4216
 2847poe    c2312555   0.764   0.322   1.606 -0.0284  0.1127 -0.3984
 2847poe    c2312556   0.674   0.238   1.513 -0.1053 -0.4666  0.1966
 2847poe     o212557   0.728   0.227   1.383 -0.9002  0.5189 -0.2272
 2847poe    c2312558   0.703   0.096   1.337  0.8906  0.1336 -0.1854
 2847poe    c2312559   0.656   0.084   1.191  0.3557  0.7716 -0.0717
 2847poe     o212560   0.749   0.138   1.099  0.2136  0.0136 -0.6743
 2847poe    c2312561   0.879   0.085   1.109  0.1014 -0.0771  0.5745
 2847poe    c2312562   0.969   0.110   0.986 -1.1971  0.3646 -0.3186
 2847poe     o212563   1.029   0.234   0.957 -0.1159 -0.2334 -0.7322
 2847poe    c3112564   1.114   0.217   0.846  0.6656 -0.0546 -0.1715
 2848poe    c3112565   6.398   4.016   1.127 -0.2801 -0.0514  0.0419
 2848poe     o212566   6.484   3.952   1.035 -0.2384 -0.4874  0.3780
 2848poe    c2312567   6.507   4.041   0.928 -0.0028 -0.2618  0.6155
 2848poe    c2312568   6.635   4.004   0.852 -0.3801  0.2831 -0.2976
 2848poe     o212569   6.643   3.871   0.803 -0.1023  0.2822 -0.2520
 2848poe    c2312570   6.730   3.858   0.693 -0.4715  0.8420 -0.6208
 2848poe    c2312571   6.682   3.731   0.621  0.6942  0.0153  0.0139
 2848poe     o212572   6.634   3.631   0.709  0.1942 -0.1554 -0.4453
 2848poe    c2312573   6.543   3.555   0.633 -0.0732  0.1533 -0.4368
 2848poe    c2312574   6.505   3.426   0.707  0.1923  0.3833  0.1070
 2848poe     o212575   6.623   3.349   0.702  0.1559  0.3470 -0.1950
 2848poe    c3112576   6.591   3.215   0.733 -0.2029  0.6814  0.9318
 2849poe    c3112577   1.129   5.906   5.380  0.1970  0.1303  0.4351
 2849poe     o212578   1.250   5.940   5.316  0.2980 -0.6171  0.2171
 2849poe    c2312579   1.350   5.993   5.399  0.1074  0.3587 -0.1587
 2849poe    c2312580   1.480   6.022   5.321  0.0495  0.4837 -0.2083
 2849poe     o212581   1.444   6.061   5.190 -0.2878  0.3131 -0.1681
 2849poe    c2312582   1.545   6.146   5.142  0.2100 -0.2836 -0.1835
 2849poe    c2312583   1.548   6.164   4.989 -0.2638  0.0566 -0.1550
 2849poe     o212584   1.427   6.214   4.935 -0.5830  0.4562  0.9158
 2849poe    c2312585   1.440   6.207   4.795 -0.6562 -0.0679  0.9341
 2849poe    c2312586   1.304   6.193   4.726 -0.0096  0.0519 -0.4004
 2849poe     o212587   1.214   6.301   4.736  0.4029  0.3218  0.4317
 2849poe    c3112588   1.082   6.279   4.690  0.6770 -0.0825 -0.1613
 2850poe    c3112589   7.113   1.198   5.421  0.0688  0.3556  0.1814
 2850poe     o212590   7.002   1.163   5.341  0.1520  0.3242  0.0797
 2850poe    c2312591   7.046   1.060   5.255 -0.5737 -0.2410  0.3760
 2850poe    c2312592   6.945   0.945   5.238 -0.5135 -0.2951  0.3885
 2850poe     o212593   6.834   1.003   5.174  0.3538 -0.1843 -1.0848
 2850poe    c2312594   6.734   0.907   5.146  0.3248 -0.3346 -0.4929
 2850poe    c2312595   6.598   0.960   5.096  0.5320  0.3222 -0.3780
 2850poe     o212596   6.570   1.082   5.160  0.2875  0.0419  0.0532
 2850poe    c2312597   6.460   1.151   5.106  0.3172 -0.3771 -0.5565
 2850poe    c2312598   6.482   1.300   5.141  0.1206 -0.5385  0.2746
 2850poe     o212599   6.523   1.305   5.276  0.0173 -0.7763  0.3161
 2850poe    c3112600   6.523   1.445   5.290  0.5574 -0.7523  0.1098
 2851poe    c3112601   2.540   4.776   5.209  0.1741  0.1812  0.6027
 2851poe     o212602   2.520   4.903   5.153  0.7480 -0.0031 -0.0459
 2851poe    c2312603   2.499   4.893   5.014 -0.1786 -0.0506  0.0900
 2851poe    c2312604   2.406   4.997   4.949 -0.4645 -0.5235 -0.2649
 2851poe     o212605   2.280   4.997   5.013 -0.0386 -0.5028  0.5895
 2851poe    c2312606   2.195   5.071   4.929  0.2230 -0.7085  0.1370
 2851poe    c2312607   2.063   5.084   5.006 -0.3950  0.0961 -1.0145
 2851poe     o212608   2.088   5.113   5.142 -0.6474 -0.5938 -0.8142
 2851poe    c2312609   1.981   5.138   5.231  0.3742 -0.0599  0.2871
 2851poe    c2312610   2.025   5.157   5.378 -0.7859 -0.8492  0.7474
 2851poe     o212611   2.075   5.039   5.437  1.3636 -0.2896  0.1242
 2851poe    c3112612   2.094   5.057   5.576  0.6328  0.4673  0.1359
 2852poe    c3112613   2.290   4.245   2.764 -0.0268  0.5847 -0.4292
 2852poe     o212614   2.299   4.298   2.634 -0.0897  0.7179 -0.3796
 2852poe    c2312615   2.412   4.243   2.571  0.0585  0.5859 -0.0052
 2852poe    c2312616   2.429   4.294   2.426  0.4233 -0.0542 -0.1906
 2852poe     o212617   2.418   4.434   2.425  0.4011 -0.0437  0.6076
 2852poe    c2312618   2.439   4.488   2.296  0.0129 -0.1274  0.5114
 2852poe    c2312619   2.406   4.638   2.293  0.0899 -0.1237 -0.3917
 2852poe     o212620   2.491   4.722   2.367 -0.4026 -0.5344  0.6514
 2852poe    c2312621   2.449   4.856   2.352  0.1865 -0.3822  0.3127
 2852poe    c2312622   2.538   4.951   2.434  0.0325 -0.1881  0.2554
 2852poe     o212623   2.564   4.890   2.558 -0.6359 -0.3857  0.3011
 2852poe    c3112624   2.655   4.959   2.641 -0.2208 -0.1057 -0.3765
 2853poe    c3112625   4.767   3.175   7.217  0.0717  0.1427  0.3913
 2853poe     o212626   4.745   3.174   7.077  0.0205  0.2516  0.3988
 2853poe    c2312627   4.855   3.115   7.012 -0.1061  0.0743  0.3459
 2853poe    c2312628   4.977   3.204   6.981 -0.2339  0.0305 -0.2982
 2853poe     o212629   5.063   3.129   6.898  0.0399  0.0387 -0.0222
 2853poe    c2312630   5.093   3.201   6.780  0.0017 -0.2845 -0.2305
 2853poe    c2312631   4.987   3.194   6.669 -0.0692  0.6636 -0.2291
 2853poe     o212632   4.994   3.087   6.577 -0.4268  0.3178  0.1380
 2853poe    c2312633   4.923   3.096   6.456 -0.0098 -0.4959 -0.1715
 2853poe    c2312634   4.991   3.037   6.330  0.4095 -0.5285  0.0666
 2853poe     o212635   5.101   3.118   6.295 -0.3087  0.5584  0.2629
 2853poe    c3112636   5.112   3.139   6.156  0.9726 -0.3159  0.2219
 2854poe    c3112637   3.860   0.886   4.260 -0.3209  0.1552  0.3876
 2854poe     o212638   3.978   0.942   4.312 -0.1779 -0.3599  0.6235
 2854poe    c2312639   4.080   0.972   4.219 -0.4011  0.0677  0.5143
 2854poe    c2312640   4.130   0.861   4.125 -0.3743  0.2923  0.2639
 2854poe     o212641   4.194   0.924   4.016 -0.9358  0.2540 -0.0986
 2854poe    c2312642   4.246   0.822   3.933  0.4105  0.5495  0.3485
 2854poe    c2312643   4.369   0.847   3.843  0.3458 -0.2068  0.0460
 2854poe     o212644   4.355   0.935   3.735  0.8801 -0.2644 -0.0746
 2854poe    c2312645   4.479   0.989   3.696  0.7968 -0.1305 -0.1582
 2854poe    c2312646   4.464   1.068   3.565 -0.0025 -0.0948 -0.0515
 2854poe     o212647   4.371   1.171   3.542 -0.0681 -0.0387  0.4510
 2854poe    c3112648   4.383   1.284   3.625  0.0466  0.4235 -0.1844
 2855poe    c3112649   3.284   3.509   0.044  0.2880  0.4392  0.1097
 2855poe     o212650   3.423   3.485   0.045  0.3534  0.8203  0.3245
 2855poe    c2312651   3.491   3.593  -0.015 -0.2005  0.7442 -0.4482
 2855poe    c2312652   3.631   3.536  -0.043 -0.4034  0.0723 -0.1359
 2855poe     o212653   3.693   3.514   0.082 -0.1778  0.3419 -0.1990
 2855poe    c2312654   3.826   3.561   0.095 -0.3045  0.6581 -0.0356
 2855poe    c2312655   3.900   3.522   0.225  0.5681  0.1700 -0.6652
 2855poe     o212656   3.836   3.576   0.339  0.2285 -0.4372 -0.5635
 2855poe    c2312657   3.904   3.530   0.453 -0.2909  0.0019 -0.0715
 2855poe    c2312658   3.866   3.592   0.589 -0.0051  0.1907 -0.0765
 2855poe     o212659   3.738   3.539   0.614 -0.2847  0.6684 -0.4602
 2855poe    c3112660   3.687   3.591   0.734  0.0293  0.8970 -0.4261
 2856poe    c3112661   4.454   6.446   6.540  0.3847 -0.7690  0.6050
 2856poe     o212662   4.528   6.565   6.543 -0.1058 -0.4382 -0.1396
 2856poe    c2312663   4.646   6.534   6.472  0.3074 -0.5326  0.5845
 2856poe    c2312664   4.742   6.643   6.523 -0.3145  0.1782  0.2569
 2856poe     o212665   4.720   6.775   6.481 -0.0718  0.0178 -0.3829
 2856poe    c2312666   4.752   6.804   6.347  0.3552 -0.0444 -0.2949
 2856poe    c2312667   4.763   6.957   6.339  0.2042 -0.0702 -1.1684
 2856poe     o212668   4.637   7.021   6.336  0.2912  0.2275  0.5440
 2856poe    c2312669   4.656   7.157   6.305 -0.2479  0.1204 -0.2975
 2856poe    c2312670   4.525   7.233   6.279 -0.3083 -0.0590 -0.5218
 2856poe     o212671   4.438   7.193   6.383  0.3517  0.6158  0.3098
 2856poe    c3112672   4.306   7.243   6.369 -0.0497 -0.4936  0.0333
 2857poe    c3112673   4.964   6.586   5.635  0.1206  0.4067  0.4163
 2857poe     o212674   5.078   6.581   5.551  0.4451 -0.3316  0.8910
 2857poe    c2312675   5.068   6.682   5.453  0.6685 -0.5906  0.6013
 2857poe    c2312676   5.179   6.673   5.347  0.2163  0.5158  0.0159
 2857poe     o212677   5.119   6.693   5.221  0.3243  0.0729 -0.1100
 2857poe    c2312678   5.219   6.691   5.122  0.1242  0.0976 -0.3135
 2857poe    c2312679   5.179   6.650   4.979  0.4548 -0.7826 -0.1626
 2857poe     o212680   5.107   6.530   4.960 -0.1053 -0.4479 -0.1911
 2857poe    c2312681   5.033   6.511   4.842 -0.6400 -0.0605  0.0776
 2857poe    c2312682   4.902   6.590   4.827 -0.5753 -0.0359 -0.3934
 2857poe     o212683   4.814   6.530   4.920  0.0301  0.5715  0.5891
 2857poe    c3112684   4.687   6.591   4.919 -0.0210  0.4684 -0.1825
 2858poe    c3112685   4.594   2.586   2.320 -0.0395 -0.3771 -0.4729
 2858poe     o212686   4.627   2.543   2.189  0.4446  0.2811 -0.5717
 2858poe    c2312687   4.750   2.475   2.181  0.2575 -0.1553  0.2102
 2858poe    c2312688   4.710   2.328   2.154 -0.6811  0.1708 -0.2073
 2858poe     o212689   4.651   2.316   2.027  0.2246 -0.3835 -0.5787
 2858poe    c2312690   4.531   2.243   2.033  0.1573 -0.2161  0.1340
 2858poe    c2312691   4.427   2.260   1.921  0.0737  0.0530  0.2496
 2858poe     o212692   4.364   2.385   1.937 -0.0331  0.0456 -0.1008
 2858poe    c2312693   4.258   2.424   1.852  0.0563  0.6488  0.0625
 2858poe    c2312694   4.311   2.482   1.720  0.1433  0.1677 -0.1152
 2858poe     o212695   4.352   2.616   1.728 -0.0947  0.2335  0.0054
 2858poe    c3112696   4.304   2.671   1.607  0.3883  0.5333 -0.0545
 2859poe    c3112697   2.856   7.056   0.416 -0.6263  0.1853 -0.3412
 2859poe     o212698   2.823   6.986   0.534  0.7147  0.4290  0.2053
 2859poe    c2312699   2.832   7.088   0.630  0.0923  0.5384  0.1525
 2859poe    c2312700   2.738   7.071   0.751  0.1546 -0.3379  0.0809
 2859poe     o212701   2.802   7.000   0.854  0.2869 -0.5024 -0.1133
 2859poe    c2312702   2.742   7.024   0.980  0.1603 -0.3191 -0.2084
 2859poe    c2312703   2.761   6.916   1.088  0.4543 -0.6227 -0.5577
 2859poe     o212704   2.890   6.891   1.139  0.5153  0.6285 -0.0544
 2859poe    c2312705   2.898   6.800   1.246 -0.1784  0.4260 -0.1684
 2859poe    c2312706   3.021   6.826   1.336 -0.1285 -0.0838 -0.0865
 2859poe     o212707   3.138   6.850   1.261  0.0857  0.6813  0.4865
 2859poe    c3112708   3.249   6.888   1.340  0.4668  0.1227  0.2240
 2860poe    c3112709   2.907   2.953   4.100 -0.1524 -0.6605  0.7035
 2860poe     o212710   2.778   2.899   4.079 -0.5318  0.5953 -0.3691
 2860poe    c2312711   2.692   2.929   4.186 -0.2015  0.1740  0.0219
 2860poe    c2312712   2.545   2.898   4.153  0.0827 -0.4779 -0.6337
 2860poe     o212713   2.487   3.011   4.092  0.5815 -0.0928 -0.4061
 2860poe    c2312714   2.408   2.973   3.981 -0.2831  0.0423  0.1539
 2860poe    c2312715   2.379   3.092   3.888 -0.1528 -0.0361  0.0135
 2860poe     o212716   2.289   3.176   3.956 -0.2640 -0.2604  0.1432
 2860poe    c2312717   2.291   3.314   3.928  0.4774 -0.1280  0.8082
 2860poe    c2312718   2.235   3.407   4.037  0.2333  0.2763  0.3414
 2860poe     o212719   2.324   3.420   4.145  0.1212 -0.5009  0.5298
 2860poe    c3112720   2.317   3.546   4.208 -0.4352  0.2188 -0.9330
 2861poe    c3112721   5.803   1.810   5.011  0.4453 -0.0070 -0.5300
 2861poe     o212722   5.914   1.751   5.075  0.0686  0.0573  0.1912
 2861poe    c2312723   5.874   1.655   5.169 -0.3632  0.1197  0.0748
 2861poe    c2312724   5.842   1.692   5.315  0.3386  0.0027  0.2644
 2861poe     o212725   5.944   1.741   5.398  0.0489  0.6857  0.2194
 2861poe    c2312726   6.019   1.641   5.463  0.2519  0.5897 -0.1593
 2861poe    c2312727   6.145   1.704   5.527  0.1672  0.6647 -0.0670
 2861poe     o212728   6.253   1.739   5.444  0.5228  0.1649  0.1781
 2861poe    c2312729   6.353   1.815   5.509  0.1638  0.2330  0.6616
 2861poe    c2312730   6.458   1.877   5.414  0.1674 -0.4409  0.2167
 2861poe     o212731   6.413   2.002   5.366  0.2646 -0.5250 -0.0926
 2861poe    c3112732   6.491   2.042   5.256 -0.3447  0.1583 -0.2813
 2862poe    c3112733   1.621   0.082   2.283 -0.0702  0.6981  0.1713
 2862poe     o212734   1.755   0.037   2.287 -0.3097 -0.0007  0.4064
 2862poe    c2312735   1.774  -0.096   2.243  0.5917  0.2206  0.1107
 2862poe    c2312736   1.918  -0.101   2.189  0.3757  0.1095 -0.4586
 2862poe     o212737   2.022  -0.058   2.274 -0.0783 -0.6324  0.4756
 2862poe    c2312738   2.149  -0.095   2.225  0.1107  0.5445  0.0580
 2862poe    c2312739   2.256  -0.011   2.298  0.2389  0.1432  0.3347
 2862poe     o212740   2.238   0.128   2.281 -0.3133  0.0439  0.0650
 2862poe    c2312741   2.324   0.206   2.361 -0.2566  0.6520 -0.5886
 2862poe    c2312742   2.461   0.240   2.299 -0.0504  0.1783 -0.3929
 2862poe     o212743   2.562   0.142   2.293 -0.1601 -0.0067  0.6308
 2862poe    c3112744   2.652   0.162   2.400  0.7400 -0.1703 -0.0793
 2863poe    c3112745   0.752   2.038   4.904  0.1292 -0.5992 -0.3659
 2863poe     o212746   0.854   2.103   4.832  0.2666 -0.6655 -0.2338
 2863poe    c2312747   0.817   2.166   4.711  0.2769 -0.1422  0.0331
 2863poe    c2312748   0.926   2.256   4.650 -0.4110  0.3930 -0.4246
 2863poe     o212749   1.047   2.186   4.669 -0.6135  0.2318  0.3341
 2863poe    c2312750   1.162   2.247   4.614 -0.4524 -0.9727 -0.7097
 2863poe    c2312751   1.284   2.171   4.671 -0.4384 -0.1778  0.3570
 2863poe     o212752   1.262   2.163   4.810 -0.1007 -0.0631  0.4181
 2863poe    c2312753   1.381   2.149   4.883  0.4100  0.6012 -0.2669
 2863poe    c2312754   1.448   2.011   4.891 -0.1832  0.3192 -0.1332
 2863poe     o212755   1.365   1.914   4.952  0.1193  0.2193  0.1215
 2863poe    c3112756   1.411   1.783   4.933  0.1547  0.1572  0.6154
 2864poe    c3112757   2.509   3.620   5.833  0.3836 -1.0375  0.3542
 2864poe     o212758   2.630   3.625   5.906  0.1607 -0.1974  0.6815
 2864poe    c2312759   2.678   3.752   5.868  0.0966 -0.1381  0.7991
 2864poe    c2312760   2.830   3.754   5.895  0.1706  0.2253  0.3701
 2864poe     o212761   2.851   3.714   6.029 -0.3938  0.0288  0.4035
 2864poe    c2312762   2.931   3.811   6.093  0.6227 -0.3699 -0.2386
 2864poe    c2312763   2.910   3.796   6.245  0.1483 -0.3031 -0.2972
 2864poe     o212764   2.931   3.659   6.271  0.1784 -0.1910  0.2787
 2864poe    c2312765   2.957   3.631   6.406 -0.3819 -0.0363  0.4214
 2864poe    c2312766   3.107   3.598   6.420 -0.1609  0.3712 -0.8918
 2864poe     o212767   3.144   3.497   6.328  0.0513 -0.2253 -0.1684
 2864poe    c3112768   3.219   3.400   6.395  0.2543  0.2028  0.2263
 2865poe    c3112769   1.632   5.276   1.714 -0.5390 -0.8165 -0.4812
 2865poe     o212770   1.690   5.345   1.605  0.0866 -0.6905 -0.0706
 2865poe    c2312771   1.586   5.402   1.530  0.3683  0.2573  0.2385
 2865poe    c2312772   1.632   5.495   1.416 -0.2123  0.4066  0.1206
 2865poe     o212773   1.709   5.604   1.462  0.0164  0.2331  0.1507
 2865poe    c2312774   1.628   5.713   1.501  0.0463  0.2418  0.1883
 2865poe    c2312775   1.718   5.819   1.568  0.8643 -0.4852  0.2716
 2865poe     o212776   1.800   5.877   1.470  0.1538 -0.0907 -0.1012
 2865poe    c2312777   1.773   6.014   1.450 -0.5538 -0.2548 -0.3037
 2865poe    c2312778   1.876   6.074   1.352 -0.7090  0.4536 -0.0387
 2865poe     o212779   1.884   5.996   1.235  0.1622 -0.0522  0.3508
 2865poe    c3112780   1.779   6.004   1.141  0.0019  0.5689  0.5768
 2866poe    c3112781   0.285   1.985   2.217  1.1880 -0.0140 -0.2172
 2866poe     o212782   0.378   1.882   2.239  1.2228  0.1252  0.3119
 2866poe    c2312783   0.491   1.895   2.156  0.6003  0.5779 -0.4856
 2866poe    c2312784   0.578   1.768   2.167 -0.3998 -0.1122 -0.3892
 2866poe     o212785   0.504   1.650   2.145  0.1843 -0.5761  0.0879
 2866poe    c2312786   0.517   1.604   2.013 -0.0742  0.3538 -0.2748
 2866poe    c2312787   0.455   1.463   2.004  0.4658  0.0786  0.2329
 2866poe     o212788   0.498   1.365   2.096 -0.2194 -0.2480  0.2138
 2866poe    c2312789   0.617   1.297   2.066 -0.3995 -0.2515 -0.4903
 2866poe    c2312790   0.660   1.184   2.161 -0.5108 -0.3231 -0.5249
 2866poe     o212791   0.567   1.083   2.193 -0.8879  0.2979  0.3941
 2866poe    c3112792   0.513   1.008   2.086  0.1000  0.3959 -0.1819
 2867poe    c3112793   5.564   7.283   2.042 -0.0680  0.3020  0.4946
 2867poe     o212794   5.577   7.396   2.125 -0.2787 -0.0105  0.9561
 2867poe    c2312795   5.465   7.480   2.108  0.0199  0.2555  0.2896
 2867poe    c2312796   5.473   7.628   2.151  0.0727  0.3604 -0.0812
 2867poe     o212797   5.505   7.653   2.285  0.4935  0.2777 -0.1629
 2867poe    c2312798   5.474   7.788   2.313  0.6630  0.1901  0.4811
 2867poe    c2312799   5.491   7.825   2.461  0.0968  0.0631  0.5786
 2867poe     o212800   5.409   7.747   2.546 -0.3732  0.1143  0.1736
 2867poe    c2312801   5.386   7.811   2.669 -0.4484 -1.0572  0.7899
 2867poe    c2312802   5.296   7.936   2.676  0.0777 -0.5873 -0.4956
 2867poe     o212803   5.346   8.051   2.611 -0.4194 -0.3287 -0.4233
 2867poe    c3112804   5.246   8.140   2.565 -0.2125  0.0886 -0.0749
 2868poe    c3112805   6.631   5.032   3.871 -0.0029 -0.3182  0.7838
 2868poe     o212806   6.701   4.919   3.919  0.0995 -0.5887  0.0013
 2868poe    c2312807   6.822   4.936   3.849  0.1481  0.0063  0.2291
 2868poe    c2312808   6.933   4.867   3.930  0.0746  0.2892  0.5768
 2868poe     o212809   6.863   4.744   3.934 -0.0780  0.3234 -0.5006
 2868poe    c2312810   6.945   4.654   4.005 -0.2464  0.5614  0.0030
 2868poe    c2312811   6.859   4.528   4.025 -0.1035  0.4395 -0.1370
 2868poe     o212812   6.724   4.565   4.048 -0.2026 -0.4821  0.8639
 2868poe    c2312813   6.637   4.457   4.072 -0.3061 -0.5087  0.3808
 2868poe    c2312814   6.591   4.366   3.957  0.1571  0.0364 -0.2410
 2868poe     o212815   6.498   4.433   3.875 -0.3067 -0.0105  0.2367
 2868poe    c3112816   6.462   4.353   3.764  0.1180 -0.4436  0.4102
 2869poe    c3112817   0.422   2.414   4.182 -0.0113  0.5789  0.3330
 2869poe     o212818   0.528   2.497   4.221  0.4871  0.1981 -0.1930
 2869poe    c2312819   0.590   2.446   4.337 -0.0049 -0.2730 -0.1390
 2869poe    c2312820   0.729   2.509   4.355  0.0489 -0.4071 -0.0768
 2869poe     o212821   0.713   2.649   4.368  0.2020 -0.4499  0.5573
 2869poe    c2312822   0.823   2.737   4.358  0.1377 -0.4181  0.1473
 2869poe    c2312823   0.776   2.883   4.338  0.7628 -0.2318  0.0101
 2869poe     o212824   0.712   2.931   4.454  0.1724 -0.2069 -0.3233
 2869poe    c2312825   0.656   3.060   4.439 -0.1346 -0.1814  0.9024
 2869poe    c2312826   0.627   3.139   4.568  0.0651  0.3514  0.6244
 2869poe     o212827   0.506   3.104   4.632  0.2797 -0.5569  0.5568
 2869poe    c3112828   0.465   3.193   4.734 -0.0237  0.0155 -0.0517
 2870poe    c3112829   5.440   7.231   4.058 -0.1467  0.3175 -0.4547
 2870poe     o212830   5.445   7.147   4.171 -0.4014 -0.3598 -0.9411
 2870poe    c2312831   5.518   7.032   4.134  0.3357 -0.0955 -0.3325
 2870poe    c2312832   5.533   6.934   4.252 -0.2237  0.1514 -0.0568
 2870poe     o212833   5.642   6.852   4.218 -0.5732 -0.1720 -0.4090
 2870poe    c2312834   5.645   6.732   4.292  0.6012  0.1161  0.0425
 2870poe    c2312835   5.757   6.627   4.290  0.0995 -0.4203 -0.5257
 2870poe     o212836   5.877   6.670   4.351 -0.2612 -0.0593 -0.0603
 2870poe    c2312837   5.955   6.568   4.410 -0.1350  0.2897  0.3829
 2870poe    c2312838   6.048   6.476   4.328 -0.1496  0.0048  0.6848
 2870poe     o212839   5.987   6.361   4.273  0.2190  0.0777  0.1156
 2870poe    c3112840   6.044   6.319   4.151 -0.2273  0.2039 -0.1378
 2871poe    c3112841   1.855   5.770   3.182  0.1588 -0.0405  0.4448
 2871poe     o212842   1.840   5.733   3.047  0.0675  0.2699  0.3691
 2871poe    c2312843   1.766   5.614   3.033  0.1778  0.2212  0.1992
 2871poe    c2312844   1.711   5.596   2.890  0.1970 -0.6976  0.3032
 2871poe     o212845   1.624   5.697   2.845  0.3820 -0.2603  0.9193
 2871poe    c2312846   1.566   5.648   2.726  0.0385  0.7787  0.6480
 2871poe    c2312847   1.445   5.719   2.664 -0.3171  0.2060  0.6871
 2871poe     o212848   1.464   5.858   2.675  0.2973  0.1069  0.8784
 2871poe    c2312849   1.356   5.940   2.636  0.3505 -0.2757 -0.0915
 2871poe    c2312850   1.380   6.076   2.703 -0.2489 -0.4641  0.5258
 2871poe     o212851   1.430   6.069   2.834  0.7251 -0.2831  0.1806
 2871poe    c3112852   1.416   6.189   2.908  0.1650  0.0276 -0.4217
 2872poe    c3112853   2.264   2.309   0.809 -0.3783  0.5516 -0.6539
 2872poe     o212854   2.137   2.252   0.787 -0.2136 -0.3809  0.6947
 2872poe    c2312855   2.113   2.229   0.650  0.0310  0.5281  0.4970
 2872poe    c2312856   1.963   2.229   0.617  0.0448 -0.3655  0.4166
 2872poe     o212857   1.946   2.191   0.482 -0.0407  0.0972  0.2956
 2872poe    c2312858   1.808   2.174   0.458  0.1328 -0.3207 -0.4385
 2872poe    c2312859   1.775   2.116   0.319  0.0312 -0.9869 -0.1421
 2872poe     o212860   1.815   2.198   0.211  0.0956 -0.8301 -0.0008
 2872poe    c2312861   1.757   2.154   0.090 -0.2555 -0.2922 -0.0297
 2872poe    c2312862   1.776   2.262  -0.017  0.0751  0.1225  0.4433
 2872poe     o212863   1.907   2.306  -0.046  0.1667 -0.0605  0.5812
 2872poe    c3112864   1.895   2.406  -0.144  0.3251 -0.2286  0.3891
 2873poe    c3112865   0.754   0.833   0.885  0.0759 -0.0497  0.0641
 2873poe     o212866   0.834   0.805   0.997  0.2850 -0.2662 -0.1371
 2873poe    c2312867   0.949   0.888   0.994  0.0993  0.0244  0.4775
 2873poe    c2312868   1.016   0.891   1.132  0.7268  0.1636  0.1738
 2873poe     o212869   1.101   0.787   1.174  0.0312 -0.2558  0.5805
 2873poe    c2312870   1.229   0.806   1.117 -0.2202  0.0436  0.1055
 2873poe    c2312871   1.323   0.691   1.159 -0.2987 -0.0583  0.0038
 2873poe     o212872   1.289   0.563   1.113 -0.4415 -0.0163 -0.0070
 2873poe    c2312873   1.387   0.466   1.142 -0.5679 -0.3218 -0.5808
 2873poe    c2312874   1.352   0.371   1.258  0.3158 -0.2893 -0.2762
 2873poe     o212875   1.332   0.424   1.387  0.3293 -0.0749 -0.3615
 2873poe    c3112876   1.277   0.333   1.479  0.0799  0.4339 -0.0032
 2874poe    c3112877   1.642   6.958   3.310 -0.4876  0.6724  0.3868
 2874poe     o212878   1.542   7.047   3.354 -0.8633  0.3885  0.1181
 2874poe    c2312879   1.570   7.174   3.299 -0.1252  0.2296  0.1097
 2874poe    c2312880   1.466   7.286   3.314  0.0848  0.4199  0.1411
 2874poe     o212881   1.467   7.354   3.438  0.5393  0.6423  0.0174
 2874poe    c2312882   1.396   7.475   3.426 -0.1181  0.2527 -0.0928
 2874poe    c2312883   1.365   7.550   3.557  0.0345  0.2313 -0.0440
 2874poe     o212884   1.280   7.499   3.657 -0.1723  0.0896 -0.2912
 2874poe    c2312885   1.274   7.580   3.772  0.2136 -0.3854  0.0689
 2874poe    c2312886   1.223   7.512   3.900 -0.2175  0.4996  0.3710
 2874poe     o212887   1.327   7.444   3.966 -0.3354  0.1932  0.2393
 2874poe    c3112888   1.287   7.398   4.093 -0.1455 -0.5864  0.0249
 2875poe    c3112889   1.870   1.956   1.244  0.7347  0.2448 -0.0899
 2875poe     o212890   1.948   1.838   1.241  0.0371 -0.2603  0.9697
 2875poe    c2312891   2.070   1.857   1.172 -0.3213 -0.2663  0.3255
 2875poe    c2312892   2.059   1.805   1.028 -0.5385 -0.2324  0.3283
 2875poe     o212893   2.016   1.670   1.026  0.1025 -0.4363 -0.1209
 2875poe    c2312894   1.983   1.627   0.896 -0.5186 -0.0605 -0.0912
 2875poe    c2312895   2.001   1.474   0.894  0.2795  0.0303 -0.1722
 2875poe     o212896   1.924   1.416   0.997  0.0259  0.4604 -0.1175
 2875poe    c2312897   1.965   1.281   1.007 -0.6744  0.2147 -0.5428
 2875poe    c2312898   1.929   1.221   1.144 -0.3045  0.2074 -0.4492
 2875poe     o212899   1.953   1.316   1.245 -1.0388 -0.0297 -0.0421
 2875poe    c3112900   1.924   1.265   1.373 -0.0608 -0.4850  0.0072
 2876poe    c3112901   2.965   0.398   6.590 -0.2590 -0.4716  0.4596
 2876poe     o212902   3.006   0.286   6.515 -0.5534 -0.4113  0.2043
 2876poe    c2312903   2.969   0.299   6.379  0.2643  0.2905  0.0341
 2876poe    c2312904   3.094   0.355   6.309  0.2241  0.4940  0.1244
 2876poe     o212905   3.184   0.249   6.335 -0.0765  0.2800  0.3024
 2876poe    c2312906   3.300   0.256   6.256 -0.4537 -0.3599 -0.3249
 2876poe    c2312907   3.364   0.117   6.247  0.6098  0.1333 -0.6203
 2876poe     o212908   3.365   0.057   6.375  0.1548  0.2064 -0.5822
 2876poe    c2312909   3.490  -0.003   6.400  0.0246  0.3503  0.4573
 2876poe    c2312910   3.502  -0.069   6.538  0.0435 -0.0767  0.2515
 2876poe     o212911   3.494   0.028   6.640  0.0401  0.1692  0.0191
 2876poe    c3112912   3.505  -0.033   6.767 -0.2856  0.4437  0.1803
 2877poe    c3112913   5.005   1.864   3.175  0.2416 -0.3165 -0.5573
 2877poe     o212914   4.945   1.768   3.259  0.2445 -0.0767 -0.2826
 2877poe    c2312915   4.997   1.776   3.390  0.5537 -1.0194 -0.3399
 2877poe    c2312916   4.914   1.710   3.502  0.0920 -0.0194 -0.0760
 2877poe     o212917   4.931   1.570   3.491  0.0305 -0.0125 -0.2537
 2877poe    c2312918   4.833   1.511   3.573  0.3089 -0.3616 -0.1723
 2877poe    c2312919   4.883   1.369   3.607 -0.1561 -0.3345  0.6653
 2877poe     o212920   4.897   1.286   3.494  0.2619  0.6918 -0.0481
 2877poe    c2312921   4.864   1.157   3.538  0.6304  0.6721  0.1683
 2877poe    c2312922   4.905   1.041   3.445 -0.6409  0.2605  0.0996
 2877poe     o212923   4.879   1.064   3.308 -0.4254  0.2547  0.0570
 2877poe    c3112924   4.879   0.945   3.232 -0.2801  0.1197  0.2650
 2878poe    c3112925   1.743   6.327   0.406  0.3265 -0.3430 -0.0752
 2878poe     o212926   1.751   6.408   0.521 -0.1485  0.0190 -0.2936
 2878poe    c2312927   1.870   6.481   0.544  0.4761 -1.0814  0.0234
 2878poe    c2312928   1.896   6.531   0.687 -0.3508 -0.1490 -0.1426
 2878poe     o212929   1.923   6.431   0.782 -0.2372  0.4538  0.4731
 2878poe    c2312930   1.805   6.385   0.844 -0.0227 -0.4992  0.1865
 2878poe    c2312931   1.811   6.325   0.986  0.1949  0.0519  0.4100
 2878poe     o212932   1.852   6.420   1.082 -0.1515  0.0646  0.5451
 2878poe    c2312933   1.830   6.368   1.212 -0.3603  0.3414  0.6216
 2878poe    c2312934   1.863   6.485   1.306  0.4409  0.5421  0.1010
 2878poe     o212935   1.761   6.581   1.293 -0.0223  0.0770  0.2772
 2878poe    c3112936   1.791   6.693   1.373  0.3890  0.0217  0.2029
 2879poe    c3112937   4.949   6.770   3.404  0.0938  0.2763  0.2532
 2879poe     o212938   4.939   6.910   3.386 -0.1500  0.1367 -0.7744
 2879poe    c2312939   5.000   6.994   3.482 -0.0538 -0.4233 -0.3363
 2879poe    c2312940   5.018   7.142   3.443  0.3626 -0.1730  0.7881
 2879poe     o212941   4.895   7.209   3.461  0.1744 -0.3221  0.0793
 2879poe    c2312942   4.901   7.332   3.391 -0.5773 -0.1986  0.2228
 2879poe    c2312943   4.757   7.383   3.368 -0.4758 -0.1057 -0.2069
 2879poe     o212944   4.702   7.372   3.497  0.1379 -0.4860  0.0295
 2879poe    c2312945   4.577   7.437   3.511  0.0968 -0.5804  0.1028
 2879poe    c2312946   4.450   7.380   3.444 -0.1662  0.2546 -0.1184
 2879poe     o212947   4.457   7.242   3.475 -0.0075  0.3569  0.3152
 2879poe    c3112948   4.346   7.167   3.432  0.2498 -0.0778  0.4083
 2880poe    c3112949   3.854   5.798   0.185 -0.0669  0.5981  0.3979
 2880poe     o212950   3.812   5.924   0.230  0.5564  0.7311  0.6194
 2880poe    c2312951   3.689   5.970   0.178  0.4401 -0.4456 -0.1854
 2880poe    c2312952   3.573   5.947   0.278 -0.2861  0.0722 -0.8990
 2880poe     o212953   3.529   5.816   0.302  0.4424 -0.0507 -0.1822
 2880poe    c2312954   3.478   5.790   0.431  0.6433  0.3772 -0.0139
 2880poe    c2312955   3.417   5.648   0.432  0.0354  0.6362 -0.1372
 2880poe     o212956   3.299   5.651   0.354  0.5084 -0.2072 -0.9027
 2880poe    c2312957   3.222   5.533   0.366  0.2066  0.0485 -0.2273
 2880poe    c2312958   3.075   5.553   0.325  0.2507  0.1867 -0.3174
 2880poe     o212959   3.092   5.614   0.199 -0.0330  0.4131 -0.2478
 2880poe    c3112960   2.968   5.614   0.133  0.0393 -0.0401 -0.3900
 2881poe    c3112961   6.592   7.267   3.478  0.1160  0.2676  0.2124
 2881poe     o212962   6.635   7.401   3.485  0.0871  0.2894 -0.0272
 2881poe    c2312963   6.769   7.407   3.529  0.0179  0.3560  0.1798
 2881poe    c2312964   6.831   7.548   3.530 -0.2985  0.4912  0.4916
 2881poe     o212965   6.796   7.606   3.407  0.4272  0.4721  0.2734
 2881poe    c2312966   6.902   7.694   3.375  0.3985  0.3205 -0.2525
 2881poe    c2312967   6.838   7.819   3.312 -0.1371  0.1847  0.0080
 2881poe     o212968   6.790   7.785   3.184  0.1363 -0.2534  0.0204
 2881poe    c2312969   6.774   7.904   3.111 -0.1770 -0.6163 -0.5081
 2881poe    c2312970   6.715   7.879   2.971  0.6373 -0.2936 -0.9181
 2881poe     o212971   6.578   7.845   2.982  0.5225  0.2840 -0.5032
 2881poe    c3112972   6.539   7.756   2.879  0.4037 -0.6667  0.3464
 2882poe    c3112973   4.155   3.021   0.557 -0.4907  0.8624  0.1659
 2882poe     o212974   4.114   3.046   0.424 -0.4551  0.1334  0.0112
 2882poe    c2312975   4.192   3.143   0.358  0.1046 -0.1014  0.3183
 2882poe    c2312976   4.197   3.120   0.206  0.2100 -0.7023  0.4128
 2882poe     o212977   4.081   3.174   0.147  0.6840  0.2805  0.3632
 2882poe    c2312978   4.095   3.176   0.007 -0.3215  0.5113  0.2553
 2882poe    c2312979   3.966   3.212  -0.068 -0.3284  0.3521  0.1908
 2882poe     o212980   3.866   3.113  -0.052  0.0892 -0.1336 -0.2028
 2882poe    c2312981   3.768   3.141  -0.149  0.3497 -0.4712 -0.5709
 2882poe    c2312982   3.638   3.057  -0.150 -0.2797  0.4803 -0.1503
 2882poe     o212983   3.549   3.097  -0.048 -0.2198  0.5961 -0.1421
 2882poe    c3112984   3.420   3.090  -0.105  0.0679  0.4469 -0.7849
 2883poe    c3112985   5.522   6.861   2.490  0.0640 -0.3320 -0.6231
 2883poe     o212986   5.428   6.762   2.524 -0.4578  0.4811  0.3605
 2883poe    c2312987   5.472   6.690   2.637 -0.1167  0.2585  0.0867
 2883poe    c2312988   5.355   6.648   2.728 -0.2361  0.2793 -0.0563
 2883poe     o212989   5.267   6.553   2.672 -0.2520  0.2298  0.0527
 2883poe    c2312990   5.165   6.616   2.597 -0.0750  0.2446 -0.1746
 2883poe    c2312991   5.071   6.508   2.542 -0.1022  0.3023 -0.2421
 2883poe     o212992   5.002   6.441   2.645  0.1692  0.1306 -0.1716
 2883poe    c2312993   4.888   6.369   2.605  0.4367 -0.3491 -0.0759
 2883poe    c2312994   4.836   6.298   2.731  0.4370  0.0509  0.1514
 2883poe     o212995   4.839   6.379   2.846  0.1320  0.1899  0.0640
 2883poe    c3112996   4.764   6.319   2.950 -0.0196  0.2246 -0.0254
 2884poe    c3112997   2.913   6.752   7.064 -0.0539  0.1571 -0.5441
 2884poe     o212998   2.822   6.789   7.166  0.2666 -0.0538 -0.1764
 2884poe    c2312999   2.828   6.927   7.193  0.3700 -0.1337  0.2083
 2884poe    c2313000   2.714   6.969   7.287  0.4291  0.6738 -0.0698
 2884poe     o213001   2.602   7.010   7.213  0.1563 -0.1697 -0.1314
 2884poe    c2313002   2.500   7.047   7.303  0.4905 -0.1054  0.2227
 2884poe    c2313003   2.372   7.107   7.243  0.5695  0.1142  0.2730
 2884poe     o213004   2.387   7.243   7.209  0.5681 -0.0661 -0.4816
 2884poe    c2313005   2.255   7.289   7.188  0.5370  0.1313  0.1235
 2884poe    c2313006   2.243   7.377   7.063  0.5457 -0.1211 -0.0561
 2884poe     o213007   2.270   7.313   6.941 -0.8437  0.2750 -0.5915
 2884poe    c3113008   2.315   7.399   6.838 -0.2818  0.2217 -0.3897
 2885poe    c3113009   5.647   0.982   1.998  0.0092 -0.3766 -0.8760
 2885poe     o213010   5.720   1.099   1.968 -0.4083  0.1477  0.1364
 2885poe    c2313011   5.857   1.072   1.985 -0.3090 -0.1763 -1.0881
 2885poe    c2313012   5.953   1.189   1.954 -0.0715 -0.1908 -0.4230
 2885poe     o213013   5.928   1.228   1.821  0.4918  0.3272 -0.3823
 2885poe    c2313014   5.990   1.348   1.781  0.3495  0.5154 -0.0428
 2885poe    c2313015   5.979   1.381   1.631  0.6498  0.9495  0.0288
 2885poe     o213016   5.856   1.440   1.597  0.0297 -0.0595  0.4849
 2885poe    c2313017   5.861   1.493   1.467 -0.6113 -0.3096  0.3529
 2885poe    c2313018   5.819   1.639   1.443  0.0086 -0.1778  0.0409
 2885poe     o213019   5.928   1.715   1.489 -0.1051 -0.1540  0.2759
 2885poe    c3113020   5.985   1.813   1.404 -0.4739 -0.0480  0.1500
 2886poe    c3113021   2.852   6.792   6.049  0.1385 -0.4109 -0.1680
 2886poe     o213022   2.819   6.714   6.162  0.3365 -0.1102  0.0988
 2886poe    c2313023   2.938   6.679   6.228  0.4589 -0.6487 -0.4026
 2886poe    c2313024   2.894   6.608   6.358  0.3732 -0.4232 -0.3085
 2886poe     o213025   2.801   6.681   6.435  0.3270 -0.3881 -0.3970
 2886poe    c2313026   2.748   6.590   6.528  0.1162  0.0911 -0.0457
 2886poe    c2313027   2.652   6.670   6.619 -0.3784 -0.3690 -0.1535
 2886poe     o213028   2.561   6.754   6.553 -0.1919 -0.2309 -0.2364
 2886poe    c2313029   2.429   6.712   6.578 -0.1721 -0.4295 -0.4648
 2886poe    c2313030   2.345   6.833   6.533  0.0232 -0.2963 -0.4691
 2886poe     o213031   2.360   6.851   6.394 -0.0250 -0.2239 -0.4652
 2886poe    c3113032   2.262   6.941   6.348  0.2588  0.1187 -0.3967
 2887poe    c3113033   3.723   0.889   5.701 -0.2769 -0.5996 -0.0678
 2887poe     o213034   3.813   0.949   5.611 -0.1499 -0.5390  0.0982
 2887poe    c2313035   3.763   1.026   5.504  0.2990 -0.5350 -0.1122
 2887poe    c2313036   3.653   0.976   5.409 -0.2094  0.0832  0.1418
 2887poe     o213037   3.653   1.040   5.283  0.0905 -0.2713 -0.0400
 2887poe    c2313038   3.649   1.181   5.271 -0.1905 -0.3052 -0.3463
 2887poe    c2313039   3.701   1.231   5.135 -0.6510  0.4313 -0.2587
 2887poe     o213040   3.814   1.155   5.099 -0.5380  0.6638 -0.3915
 2887poe    c2313041   3.867   1.199   4.975  0.2685  0.4862 -0.1146
 2887poe    c2313042   3.958   1.083   4.931 -0.0220  0.1641  0.1277
 2887poe     o213043   3.890   0.960   4.944 -0.0481  0.1254 -0.3485
 2887poe    c3113044   3.965   0.845   4.914 -0.5246 -0.0661 -0.8129
 2888poe    c3113045   1.081   0.053   0.506 -0.4016 -0.5056  0.3014
 2888poe     o213046   0.966   0.076   0.584 -0.3539  0.3782  0.1293
 2888poe    c2313047   0.879  -0.035   0.592  0.4158 -0.2601 -0.3129
 2888poe    c2313048   0.779  -0.018   0.707  0.4895  0.3264 -0.3350
 2888poe     o213049   0.672   0.069   0.677  0.1224 -0.0193 -0.0442
 2888poe    c2313050   0.614   0.125   0.793 -0.1560  0.3250 -0.3472
 2888poe    c2313051   0.521   0.244   0.761 -0.5505  0.2546  0.5166
 2888poe     o213052   0.602   0.356   0.729  0.4088 -0.3693  0.7063
 2888poe    c2313053   0.524   0.447   0.654  0.3848 -0.2658  0.8552
 2888poe    c2313054   0.615   0.564   0.612  0.1169 -0.2523  0.3015
 2888poe     o213055   0.708   0.520   0.517 -0.4901 -0.1352 -0.3566
 2888poe    c3113056   0.783   0.631   0.472 -0.1142  0.0775  0.7508
 2889poe    c3113057   4.589   2.732   5.694  0.5401  0.2470 -0.4828
 2889poe     o213058   4.453   2.731   5.730  0.6455  0.4833 -0.0767
 2889poe    c2313059   4.440   2.789   5.858 -0.5860  0.2145 -0.0682
 2889poe    c2313060   4.297   2.848   5.859 -0.8272 -0.3683  0.6833
 2889poe     o213061   4.278   2.963   5.780 -0.1745 -1.0476 -0.4973
 2889poe    c2313062   4.141   2.993   5.764 -0.1397 -0.2828  0.5665
 2889poe    c2313063   4.115   3.121   5.682 -0.0952 -0.3717  0.4136
 2889poe     o213064   4.146   3.122   5.545 -0.2802  0.1436  0.3718
 2889poe    c2313065   4.057   3.042   5.471  0.0501 -0.3933  0.5491
 2889poe    c2313066   4.069   3.036   5.317 -0.3881 -0.1637  0.5063
 2889poe     o213067   4.203   3.014   5.279 -0.5782 -0.2770 -0.0986
 2889poe    c3113068   4.223   3.045   5.143  0.1749  1.0065  0.2913
 2890poe    c3113069   6.937   4.015   0.456 -0.3514  0.0263 -0.0917
 2890poe     o213070   6.949   4.156   0.461 -0.2969  0.0238 -0.1491
 2890poe    c2313071   6.971   4.208   0.332 -0.7192  0.3937 -0.0745
 2890poe    c2313072   6.920   4.353   0.335 -0.4440  0.4908 -0.0136
 2890poe     o213073   6.989   4.464   0.386 -0.0972  0.2690  0.0075
 2890poe    c2313074   7.101   4.497   0.308  0.1823 -0.3184  0.1610
 2890poe    c2313075   7.153   4.636   0.350 -0.3538 -0.0069 -0.1986
 2890poe     o213076   7.220   4.624   0.473  0.5469  0.6897 -0.6073
 2890poe    c2313077   7.242   4.748   0.536 -0.2795  0.3924  0.3192
 2890poe    c2313078   7.292   4.745   0.681  0.0917  0.5232  0.1961
 2890poe     o213079   7.211   4.676   0.773 -0.0091 -0.1056 -0.3564
 2890poe    c3113080   7.238   4.731   0.900 -0.2960 -0.3446 -0.1892
 2891poe    c3113081   4.607   4.144   4.169  0.1040  0.7148 -0.2328
 2891poe     o213082   4.743   4.109   4.180 -0.0620 -0.0064 -0.3964
 2891poe    c2313083   4.811   4.232   4.163 -0.0341  0.0935  0.4073
 2891poe    c2313084   4.962   4.224   4.194  0.0918 -0.0019 -0.2218
 2891poe     o213085   5.034   4.146   4.102  0.1555 -0.2439  0.0330
 2891poe    c2313086   5.161   4.195   4.068 -0.0050 -0.1460 -0.4357
 2891poe    c2313087   5.183   4.280   3.941  0.3890  0.4266  0.0041
 2891poe     o213088   5.131   4.411   3.944 -0.3221  0.1342  0.6641
 2891poe    c2313089   5.112   4.449   3.810 -0.4517 -0.3773  0.5333
 2891poe    c2313090   5.067   4.597   3.807 -0.5160 -0.4019  0.2175
 2891poe     o213091   5.169   4.677   3.864  0.0169 -0.9867  0.1079
 2891poe    c3113092   5.133   4.813   3.864  0.0435 -0.9793 -0.1344
 2892poe    c3113093   6.457   5.958   2.370 -0.0947  0.0718 -0.0636
 2892poe     o213094   6.344   6.028   2.323 -0.1348  0.0712  0.0300
 2892poe    c2313095   6.227   5.952   2.340  0.0014 -0.1706 -0.1208
 2892poe    c2313096   6.196   5.848   2.230  0.5227  0.0262 -0.4536
 2892poe     o213097   6.277   5.733   2.240  0.5958  0.0915 -0.2980
 2892poe    c2313098   6.265   5.667   2.117  0.4860  0.0745 -0.2779
 2892poe    c2313099   6.349   5.540   2.093 -0.0425 -0.4203  0.4606
 2892poe     o213100   6.317   5.441   2.188 -0.4121 -0.4291  0.3271
 2892poe    c2313101   6.392   5.322   2.174  0.5890  0.2266  0.0547
 2892poe    c2313102   6.365   5.241   2.301 -0.6484  0.1050 -0.2690
 2892poe     o213103   6.403   5.301   2.423 -0.7182 -0.4318  0.0248
 2892poe    c3113104   6.540   5.287   2.453 -0.6295  0.1200 -0.1111
 2893poe    c3113105   5.900   2.690   3.092  0.0535 -0.3638  0.3572
 2893poe     o213106   5.894   2.669   2.952  0.1387 -1.0386  0.4479
 2893poe    c2313107   6.022   2.702   2.903 -0.3412  0.0879 -0.1051
 2893poe    c2313108   5.991   2.678   2.754  0.1144  0.1742 -0.2166
 2893poe     o213109   5.873   2.747   2.719 -0.0888 -0.1203 -0.1178
 2893poe    c2313110   5.836   2.759   2.584 -0.6317 -0.1214  0.0284
 2893poe    c2313111   5.713   2.849   2.564 -0.2308  0.2639 -0.7693
 2893poe     o213112   5.603   2.770   2.606  0.1102  0.3238  0.2657
 2893poe    c2313113   5.489   2.850   2.585  0.0021  0.1616  0.2350
 2893poe    c2313114   5.371   2.796   2.667 -0.5539  0.8753 -0.0761
 2893poe     o213115   5.406   2.787   2.804  0.2303  0.3811 -0.3010
 2893poe    c3113116   5.313   2.713   2.880  0.9458 -0.0253  0.1811
 2894poe    c3113117   4.190   3.857   5.060 -0.3355 -0.2376  0.0116
 2894poe     o213118   4.223   3.881   4.925  0.5389  0.2386  0.3020
 2894poe    c2313119   4.330   3.803   4.878 -0.0777 -0.4665  0.0448
 2894poe    c2313120   4.319   3.834   4.728 -0.3385  0.1550  0.1880
 2894poe     o213121   4.269   3.962   4.700 -0.1433  0.3512  0.7235
 2894poe    c2313122   4.275   3.982   4.560 -0.2314 -0.2477  0.6319
 2894poe    c2313123   4.257   4.130   4.521  0.1039 -0.4403 -0.2712
 2894poe     o213124   4.125   4.166   4.556  0.4904  0.5082  0.2413
 2894poe    c2313125   4.089   4.284   4.488  0.0964 -0.1004 -0.6112
 2894poe    c2313126   3.949   4.327   4.536  0.1216 -0.1833 -0.4617
 2894poe     o213127   3.965   4.376   4.667  0.0422 -0.9579 -0.1535
 2894poe    c3113128   3.852   4.437   4.726  0.2849 -0.1895 -0.4601
 2895poe    c3113129   0.070   6.347   5.373  0.4404 -0.2151  0.3950
 2895poe     o213130   0.182   6.342   5.460  0.0820 -0.2214  0.8604
 2895poe    c2313131   0.265   6.231   5.433 -0.1024 -0.2727  0.4886
 2895poe    c2313132   0.358   6.193   5.550  0.3028 -0.7470  0.0176
 2895poe     o213133   0.366   6.299   5.643  0.3375 -0.7322 -0.0023
 2895poe    c2313134   0.475   6.292   5.732  0.1937  0.0102  0.2461
 2895poe    c2313135   0.469   6.414   5.825 -0.1613  0.1252  0.0751
 2895poe     o213136   0.474   6.522   5.735 -0.1882  0.2090  0.1729
 2895poe    c2313137   0.493   6.637   5.814 -0.0146 -0.1589  0.6666
 2895poe    c2313138   0.516   6.760   5.725 -0.4650 -0.6345 -0.1241
 2895poe     o213139   0.397   6.793   5.658 -0.3521 -0.2107 -0.1209
 2895poe    c3113140   0.400   6.919   5.594  0.3270 -0.1017  0.1211
 2896poe    c3113141   1.455   3.757   6.818  0.4016 -0.4048 -1.1526
 2896poe     o213142   1.436   3.896   6.831 -0.2394 -0.5092 -0.9549
 2896poe    c2313143   1.542   3.973   6.882 -0.2310 -0.7329 -0.6302
 2896poe    c2313144   1.655   4.013   6.786 -0.1592  0.4527 -0.0737
 2896poe     o213145   1.732   3.905   6.737 -0.5103  0.4487 -0.6199
 2896poe    c2313146   1.844   3.958   6.670  0.2509  0.4435  0.6170
 2896poe    c2313147   1.931   3.839   6.626  0.2161  0.5649  0.2153
 2896poe     o213148   1.975   3.758   6.733  0.3010 -0.0582 -0.2836
 2896poe    c2313149   2.001   3.622   6.705 -0.1323 -0.1552 -0.2322
 2896poe    c2313150   2.115   3.569   6.794 -0.3178 -0.1236  0.0221
 2896poe     o213151   2.096   3.614   6.927 -0.6730 -0.5817  0.1293
 2896poe    c3113152   2.195   3.547   7.002 -0.0596  0.0596 -0.0983
 2897poe    c3113153   5.212   0.397   5.011  0.1193 -0.3714  0.6876
 2897poe     o213154   5.329   0.386   5.089  0.5897  0.1803  0.0780
 2897poe    c2313155   5.445   0.379   5.011  0.3644 -0.1336 -0.2318
 2897poe    c2313156   5.547   0.269   5.046  0.1681 -0.1495  0.2894
 2897poe     o213157   5.525   0.137   5.003 -0.2178 -0.1210  0.3998
 2897poe    c2313158   5.630   0.048   5.033  0.0272 -0.2971 -0.9027
 2897poe    c2313159   5.620  -0.014   5.174 -0.2018 -0.5093 -1.0112
 2897poe     o213160   5.710  -0.113   5.218 -0.1727 -0.0698 -0.0507
 2897poe    c2313161   5.839  -0.077   5.261 -0.1769  0.2334 -0.2896
 2897poe    c2313162   5.933  -0.197   5.279 -0.3466  0.1452  0.0185
 2897poe     o213163   5.957  -0.242   5.147 -0.1492  0.1255  0.0607
 2897poe    c3113164   6.022  -0.367   5.147  0.5923  0.5046 -0.4231
 2898poe    c3113165   3.942   2.798   3.048 -0.1990 -0.2771 -0.1529
 2898poe     o213166   4.020   2.683   3.025  0.3182  0.1039 -0.3099
 2898poe    c2313167   4.002   2.638   2.893 -0.0342 -0.0355 -0.2145
 2898poe    c2313168   4.094   2.691   2.781  0.1212  0.2884  0.0656
 2898poe     o213169   4.220   2.629   2.769 -0.1307 -0.2376  0.1083
 2898poe    c2313170   4.317   2.675   2.860  0.1615 -0.7325  0.0537
 2898poe    c2313171   4.445   2.592   2.843  0.3823 -0.3748 -0.0605
 2898poe     o213172   4.422   2.453   2.858 -0.2091 -0.2476  0.2286
 2898poe    c2313173   4.541   2.391   2.814  0.1677  0.4293  0.2738
 2898poe    c2313174   4.531   2.251   2.878 -0.5979  0.2701 -0.1827
 2898poe     o213175   4.441   2.257   2.986  0.2090  0.8099  0.4712
 2898poe    c3113176   4.426   2.136   3.056 -0.3963  0.6279  0.0379
 2899poe    c3113177   5.982   0.392   7.107  0.6623  0.2186  0.5143
 2899poe     o213178   6.034   0.283   7.180  0.3485  0.0694  0.5191
 2899poe    c2313179   5.937   0.228   7.267 -0.5559 -0.0134 -0.5242
 2899poe    c2313180   5.972   0.092   7.329 -0.1387  0.2730 -0.1223
 2899poe     o213181   6.039   0.003   7.242 -0.1656  0.2630 -0.1327
 2899poe    c2313182   6.063  -0.126   7.294  0.2641  0.3469 -0.1201
 2899poe    c2313183   6.210  -0.168   7.273  0.1800 -0.2729  0.4646
 2899poe     o213184   6.243  -0.156   7.136 -0.0762 -0.4476  0.3869
 2899poe    c2313185   6.355  -0.237   7.108  0.2670  0.0457  0.3338
 2899poe    c2313186   6.494  -0.199   7.163  0.4472 -0.2684  0.1007
 2899poe     o213187   6.507  -0.200   7.304  0.5341  0.5294  0.0987
 2899poe    c3113188   6.580  -0.309   7.354  0.7405  0.0482 -1.1959
 2900poe    c3113189   2.299   1.766   5.564 -0.6338  0.1557  0.3686
 2900poe     o213190   2.312   1.832   5.440 -0.7562  0.0045  0.2749
 2900poe    c2313191   2.405   1.765   5.359 -0.5661  0.6771 -0.0723
 2900poe    c2313192   2.400   1.800   5.209 -0.3284  0.6238 -0.0943
 2900poe     o213193   2.281   1.754   5.149 -0.0263 -0.2813 -0.0128
 2900poe    c2313194   2.226   1.858   5.071  0.0484  0.0167  0.3249
 2900poe    c2313195   2.165   1.984   5.133  0.5471  0.5489 -0.2499
 2900poe     o213196   2.033   1.956   5.174  0.7330  0.3124  0.1960
 2900poe    c2313197   1.945   2.067   5.175  0.0924 -0.1884  0.2829
 2900poe    c2313198   1.796   2.032   5.166  0.1926 -0.3848 -0.8125
 2900poe     o213199   1.728   1.979   5.278 -0.1890  0.5126 -0.6089
 2900poe    c3113200   1.593   2.016   5.296 -0.3254 -0.1365 -0.2365
 2901poe    c3113201   0.690   2.684   1.231  0.0006 -0.5695  0.1649
 2901poe     o213202   0.784   2.745   1.317 -0.2277  0.1013 -0.0522
 2901poe    c2313203   0.897   2.756   1.233 -0.1200  0.0774  0.0890
 2901poe    c2313204   1.016   2.795   1.322  0.2256  0.3226 -0.4701
 2901poe     o213205   1.035   2.704   1.428  0.0236  0.3359 -0.4208
 2901poe    c2313206   1.144   2.739   1.511 -0.5684  0.5795  0.2644
 2901poe    c2313207   1.164   2.660   1.641  0.0797  0.0764 -0.1347
 2901poe     o213208   1.039   2.620   1.692  0.0912  0.3419  0.1044
 2901poe    c2313209   1.042   2.575   1.826 -0.0021  0.6767  0.2210
 2901poe    c2313210   0.904   2.520   1.866  0.1431 -0.1941 -0.4418
 2901poe     o213211   0.868   2.457   1.745  0.2119 -0.0493 -0.5387
 2901poe    c3113212   0.767   2.359   1.762  0.2359 -0.0662 -0.4937
 2902poe    c3113213   5.158   4.676   4.178 -0.0806 -0.2928 -0.2559
 2902poe     o213214   5.061   4.739   4.258  0.3433  0.6635 -0.4855
 2902poe    c2313215   5.143   4.808   4.350  0.2903 -0.0860  0.1294
 2902poe    c2313216   5.050   4.862   4.459  0.4107  0.6700 -0.1346
 2902poe     o213217   4.961   4.935   4.378 -0.0236 -0.0531 -0.3228
 2902poe    c2313218   4.870   5.012   4.454 -0.1809 -0.3486 -0.2129
 2902poe    c2313219   4.740   5.040   4.375  0.3709  0.3761 -0.8684
 2902poe     o213220   4.675   4.919   4.346 -0.0372  0.3451  0.1417
 2902poe    c2313221   4.541   4.942   4.308  0.0770  0.1275 -0.4032
 2902poe    c2313222   4.464   4.810   4.326  0.1636  0.0288 -0.7473
 2902poe     o213223   4.518   4.703   4.252  0.4648 -0.5908  0.3524
 2902poe    c3113224   4.422   4.601   4.236 -0.0493  0.0173 -0.5055
 2903poe    c3113225   0.564   6.518   2.404 -0.3021 -0.3387  0.0161
 2903poe     o213226   0.469   6.490   2.505 -0.4718  0.2459  0.0180
 2903poe    c2313227   0.505   6.561   2.621 -0.4019  0.4696 -0.1391
 2903poe    c2313228   0.379   6.560   2.709 -0.0906 -0.3735  0.3112
 2903poe     o213229   0.269   6.601   2.632  0.0699  0.0293  0.2956
 2903poe    c2313230   0.143   6.602   2.695  0.0157  0.1830  0.1869
 2903poe    c2313231   0.022   6.635   2.606  0.1895 -0.1834 -0.1832
 2903poe     o213232  -0.006   6.514   2.538 -0.0865 -0.3278  0.1840
 2903poe    c2313233  -0.126   6.514   2.465 -0.0268 -0.0702  0.0844
 2903poe    c2313234  -0.125   6.598   2.336 -0.2722  0.0360  0.1513
 2903poe     o213235  -0.040   6.577   2.225 -0.4537 -0.4893  0.1109
 2903poe    c3113236  -0.068   6.452   2.165 -0.0592 -0.0886 -0.9397
 2904poe    c3113237   6.633   4.375   1.917  0.1000 -0.0688  0.7232
 2904poe     o213238   6.602   4.250   1.975 -0.5524 -0.1404  0.2316
 2904poe    c2313239   6.480   4.195   1.931 -0.4926  0.0169 -0.1349
 2904poe    c2313240   6.473   4.043   1.955 -0.6705  0.0187 -0.1800
 2904poe     o213241   6.559   3.952   1.891 -0.1784  0.3066  0.0665
 2904poe    c2313242   6.688   3.959   1.947 -0.0191 -0.2376 -0.2197
 2904poe    c2313243   6.803   3.871   1.895  0.7694  0.6265  0.0308
 2904poe     o213244   6.829   3.891   1.758 -0.0018  0.3549 -0.1619
 2904poe    c2313245   6.959   3.854   1.718 -0.0037  0.3226 -0.1383
 2904poe    c2313246   6.977   3.885   1.569 -0.2582 -0.0269 -0.2414
 2904poe     o213247   6.955   4.022   1.543 -0.0829 -0.0090 -0.2963
 2904poe    c3113248   6.984   4.076   1.416 -0.2559  0.2701 -0.2200
 2905poe    c3113249   5.671   2.604   5.249 -0.3599  0.2583 -0.1234
 2905poe     o213250   5.721   2.691   5.348  0.1070 -0.0271 -0.1070
 2905poe    c2313251   5.617   2.757   5.417  0.0709  0.2666 -0.4381
 2905poe    c2313252   5.662   2.855   5.526  0.4303  0.1332 -0.4626
 2905poe     o213253   5.749   2.801   5.623  0.0547  0.0570 -0.1640
 2905poe    c2313254   5.782   2.904   5.713 -0.1729 -0.1209  0.1265
 2905poe    c2313255   5.914   2.889   5.790  0.0865 -0.1642 -0.3206
 2905poe     o213256   5.919   2.782   5.882  0.3004  0.4132  0.3515
 2905poe    c2313257   5.821   2.781   5.984  0.2736  0.7839  0.3319
 2905poe    c2313258   5.820   2.643   6.053 -0.2721  0.4047 -0.4250
 2905poe     o213259   5.812   2.537   5.961  0.0118 -0.0134  0.0316
 2905poe    c3113260   5.882   2.421   6.001 -0.0936 -0.4214 -0.9394
 2906poe    c3113261   4.375   3.458   5.145  0.4184 -0.4731 -0.3874
 2906poe     o213262   4.236   3.470   5.164  0.5318 -0.3615  0.4215
 2906poe    c2313263   4.223   3.534   5.289 -0.2683 -0.2077  0.2636
 2906poe    c2313264   4.071   3.520   5.309 -0.3373  0.0441 -0.0817
 2906poe     o213265   3.996   3.625   5.252 -0.3259 -0.3867 -0.9153
 2906poe    c2313266   3.864   3.616   5.301  0.2246  0.2590  0.7858
 2906poe    c2313267   3.789   3.723   5.219  0.4823 -0.3676 -0.2894
 2906poe     o213268   3.787   3.670   5.088 -0.1986 -0.2051 -0.3457
 2906poe    c2313269   3.708   3.735   4.991  0.4994  0.5086 -0.4437
 2906poe    c2313270   3.706   3.670   4.852  1.0823 -0.8148  0.1481
 2906poe     o213271   3.812   3.713   4.770  0.8081 -0.7916 -0.1964
 2906poe    c3113272   3.798   3.676   4.634  0.1911  0.6300 -0.5416
 2907poe    c3113273   3.581   6.972   5.469  1.1045  0.0731 -0.5642
 2907poe     o213274   3.559   6.889   5.357 -0.1586  0.0315 -0.3003
 2907poe    c2313275   3.587   6.757   5.397  0.7159  0.3427  0.1572
 2907poe    c2313276   3.561   6.652   5.287  0.1608  0.2864  0.3356
 2907poe     o213277   3.654   6.677   5.183  0.3604 -0.4991  0.3146
 2907poe    c2313278   3.669   6.560   5.106 -0.1842 -0.5438  0.2727
 2907poe    c2313279   3.820   6.532   5.106 -0.1643 -0.4393  0.1179
 2907poe     o213280   3.897   6.644   5.069  0.4051 -0.7763  0.2640
 2907poe    c2313281   3.930   6.645   4.932 -0.0516  0.1494  0.1507
 2907poe    c2313282   4.045   6.746   4.918  0.4112 -0.3066  0.6411
 2907poe     o213283   4.023   6.860   4.998  0.2448 -0.5068  0.8837
 2907poe    c3113284   4.135   6.946   4.992 -0.4702  0.3839 -0.3115
 2908poe    c3113285   3.383   0.555   4.227 -0.2985 -0.2103  0.3924
 2908poe     o213286   3.268   0.636   4.219 -0.1118  0.0695  0.4769
 2908poe    c2313287   3.302   0.763   4.168  0.5642 -0.2662  0.0780
 2908poe    c2313288   3.179   0.853   4.191  0.3547 -0.6432  0.4505
 2908poe     o213289   3.064   0.783   4.150 -0.1341  0.3384  0.1153
 2908poe    c2313290   2.952   0.858   4.193 -0.2016  0.1847  0.2101
 2908poe    c2313291   2.820   0.787   4.157  0.0375  0.2339 -0.8012
 2908poe     o213292   2.705   0.847   4.211  0.3983  0.2009  0.0265
 2908poe    c2313293   2.608   0.746   4.226  0.2058  0.3814  0.0104
 2908poe    c2313294   2.472   0.786   4.287  0.1965  0.1568  0.1368
 2908poe     o213295   2.479   0.814   4.425  0.1021  0.4068  0.0903
 2908poe    c3113296   2.364   0.885   4.466  0.1628  0.2754  0.4856
 2909poe    c3113297   3.577   6.436   6.126  0.5080 -0.3676  0.3504
 2909poe     o213298   3.563   6.467   6.263  0.6761 -0.1446  0.3175
 2909poe    c2313299   3.491   6.587   6.278  0.4171 -0.2312 -0.2100
 2909poe    c2313300   3.460   6.615   6.426  0.0403 -0.3183 -0.2705
 2909poe     o213301   3.359   6.527   6.469  0.0529 -0.3490 -0.3030
 2909poe    c2313302   3.325   6.568   6.600  0.0410 -0.0241 -0.4057
 2909poe    c2313303   3.263   6.457   6.687 -0.4781  0.2199 -0.4576
 2909poe     o213304   3.351   6.348   6.670 -0.5287  0.0830  0.1498
 2909poe    c2313305   3.304   6.238   6.746 -0.7291 -0.1743 -0.3403
 2909poe    c2313306   3.394   6.116   6.719  0.1768  0.3690  0.1620
 2909poe     o213307   3.435   6.118   6.584 -0.3523 -0.3477 -0.0168
 2909poe    c3113308   3.488   5.991   6.555  0.3046 -0.1017  0.0831
 2910poe    c3113309   0.894   5.685   2.001 -0.3874  0.0880 -0.0757
 2910poe     o213310   0.920   5.554   1.958 -0.0814  0.2100 -0.2712
 2910poe    c2313311   1.029   5.542   1.869  0.1267 -0.5499  0.0753
 2910poe    c2313312   1.169   5.547   1.933 -0.0315  0.2329  0.3681
 2910poe     o213313   1.211   5.434   2.007 -0.0312 -0.0642 -0.0857
 2910poe    c2313314   1.325   5.459   2.087  0.2534 -0.1187 -0.4726
 2910poe    c2313315   1.418   5.336   2.086  0.3717 -0.0282 -0.5035
 2910poe     o213316   1.365   5.219   2.145  0.3999 -0.0133 -0.4474
 2910poe    c2313317   1.322   5.123   2.050  0.0325 -0.6171  0.3204
 2910poe    c2313318   1.319   4.975   2.093 -0.2611 -0.8987 -0.6566
 2910poe     o213319   1.197   4.935   2.150 -0.3253  0.1433 -0.0188
 2910poe    c3113320   1.109   4.890   2.048  0.6666  0.1802 -0.9083
 2911poe    c3113321   5.451   7.075   1.282  0.0806 -0.1246 -0.0139
 2911poe     o213322   5.535   7.025   1.180  0.0023  0.0609 -0.1671
 2911poe    c2313323   5.568   6.890   1.202 -0.0037  0.1390  0.3307
 2911poe    c2313324   5.715   6.854   1.175 -0.0548  0.1850 -0.0185
 2911poe     o213325   5.756   6.864   1.041  0.2500 -0.0140  0.0586
 2911poe    c2313326   5.897   6.863   1.030  0.2585 -0.2549  0.1901
 2911poe    c2313327   5.932   6.928   0.895  0.4039 -0.4432  0.1370
 2911poe     o213328   5.861   6.860   0.795 -0.1057  0.1337  0.1001
 2911poe    c2313329   5.925   6.741   0.754 -0.0920  0.0465  0.3750
 2911poe    c2313330   5.841   6.621   0.708  0.1407 -0.0687  0.2496
 2911poe     o213331   5.792   6.557   0.823  0.0232 -0.7872 -0.1889
 2911poe    c3113332   5.651   6.566   0.831  0.0467 -0.1441 -0.4140
 2912poe    c3113333   5.068   5.769   6.233  0.0054 -0.1567  0.0876
 2912poe     o213334   4.930   5.788   6.252 -0.1786 -0.7814 -0.5708
 2912poe    c2313335   4.900   5.787   6.389  0.4847 -0.6562 -0.4244
 2912poe    c2313336   4.747   5.768   6.388  0.4190 -0.1375 -0.5426
 2912poe     o213337   4.681   5.876   6.327  0.0614 -0.0238  0.0360
 2912poe    c2313338   4.549   5.892   6.372  0.0716 -0.1376  0.1060
 2912poe    c2313339   4.461   5.957   6.263  0.5301  0.0706 -0.1433
 2912poe     o213340   4.502   6.081   6.211 -0.2522  0.2172 -0.4208
 2912poe    c2313341   4.434   6.131   6.098 -0.4206  0.3442 -0.2635
 2912poe    c2313342   4.482   6.271   6.054 -0.4993  0.6306  0.5414
 2912poe     o213343   4.608   6.245   5.997 -0.7867 -0.3381  0.3288
 2912poe    c3113344   4.682   6.364   5.980  0.0197 -0.8351  0.2874
 2913poe    c3113345   0.909   3.672   5.186  0.5528 -0.1721 -0.0341
 2913poe     o213346   0.934   3.774   5.093 -0.5040  0.1069 -0.0232
 2913poe    c2313347   1.039   3.852   5.145 -0.1854 -0.4084  0.1050
 2913poe    c2313348   1.100   3.948   5.042 -0.1686 -0.6982 -0.1558
 2913poe     o213349   1.194   3.881   4.959 -0.3374 -0.4945 -0.5140
 2913poe    c2313350   1.260   3.970   4.873  0.1963  0.1926  0.5798
 2913poe    c2313351   1.305   3.908   4.739 -0.7683 -0.3498  0.5071
 2913poe     o213352   1.410   3.819   4.771 -0.8481 -0.4813  0.4083
 2913poe    c2313353   1.456   3.732   4.671  0.4907  0.5665  0.0886
 2913poe    c2313354   1.583   3.650   4.697  0.0506 -0.1766 -0.0947
 2913poe     o213355   1.690   3.725   4.750 -0.1828 -0.5909  0.9837
 2913poe    c3113356   1.813   3.657   4.734  0.2454  0.2517  0.6303
 2914poe    c3113357   0.447   6.888   3.238 -0.1515  0.2870  0.0377
 2914poe     o213358   0.428   6.855   3.373  0.0239 -0.2461 -0.0655
 2914poe    c2313359   0.483   6.731   3.414  0.2018 -0.0853  0.1862
 2914poe    c2313360   0.411   6.675   3.537 -0.4647  0.8785  0.2507
 2914poe     o213361   0.427   6.736   3.663 -0.2424  0.3475  0.4858
 2914poe    c2313362   0.345   6.649   3.737 -0.0719 -0.6848 -0.5125
 2914poe    c2313363   0.303   6.731   3.861  0.5764 -0.5096 -0.4043
 2914poe     o213364   0.225   6.655   3.950  0.1751 -0.1688 -0.4638
 2914poe    c2313365   0.153   6.728   4.047 -0.2642 -0.5794 -0.4764
 2914poe    c2313366   0.086   6.865   4.028  0.6744 -0.0036  0.2684
 2914poe     o213367   0.152   6.990   4.028  0.3821  0.1516 -0.0346
 2914poe    c3113368   0.070   7.095   3.981  0.3081  0.2689  0.3458
 2915poe    c3113369   2.661   5.413   0.368 -0.4525 -0.2016  0.0932
 2915poe     o213370   2.531   5.430   0.421 -0.5134  0.2623 -0.1968
 2915poe    c2313371   2.448   5.321   0.390  0.3090 -0.2242 -0.7426
 2915poe    c2313372   2.295   5.341   0.400  0.3500 -0.0364 -0.4822
 2915poe     o213373   2.234   5.403   0.289  0.1869 -0.0106 -0.3775
 2915poe    c2313374   2.096   5.387   0.269 -0.0293  0.4010  0.6954
 2915poe    c2313375   2.066   5.282   0.160  0.0363  0.3985  0.6797
 2915poe     o213376   2.095   5.322   0.028  0.2594 -0.3770  0.4916
 2915poe    c2313377   2.201   5.239  -0.012  0.2430  0.0516 -0.4824
 2915poe    c2313378   2.222   5.259  -0.163  0.5437 -0.4890 -0.5179
 2915poe     o213379   2.138   5.181  -0.245 -0.6652  0.1515  0.0763
 2915poe    c3113380   2.155   5.215  -0.381  0.2654 -0.0477  0.1312
 2916poe    c3113381   4.362   6.267   0.163  0.1023  0.1483  0.2745
 2916poe     o213382   4.377   6.198   0.286 -0.2840 -0.3821  0.0319
 2916poe    c2313383   4.478   6.265   0.359  0.1856  0.0689 -0.9963
 2916poe    c2313384   4.558   6.161   0.439 -0.1275 -0.0144 -0.7902
 2916poe     o213385   4.460   6.063   0.468  0.1445 -0.2379 -0.6092
 2916poe    c2313386   4.499   5.984   0.577  0.4260 -0.1833 -0.6696
 2916poe    c2313387   4.444   5.840   0.565 -0.1409 -0.0454  0.1738
 2916poe     o213388   4.321   5.846   0.496 -0.0484  0.2763  0.0309
 2916poe    c2313389   4.241   5.740   0.546  0.1843 -0.0681 -0.3264
 2916poe    c2313390   4.092   5.774   0.531  0.2392 -0.0160 -0.7786
 2916poe     o213391   4.060   5.903   0.577  0.1539 -0.1908 -0.3408
 2916poe    c3113392   3.921   5.921   0.559  0.1223 -0.5232 -0.4391
 2917poe    c3113393   1.434   4.256   0.628 -0.3278  0.6864  0.0362
 2917poe     o213394   1.299   4.274   0.663 -0.5025  0.0227 -0.2924
 2917poe    c2313395   1.257   4.184   0.764  0.1314  0.0647  0.0147
 2917poe    c2313396   1.116   4.224   0.813  0.0067 -0.3824  0.0276
 2917poe     o213397   1.014   4.213   0.716  0.0221  0.1142 -0.0517
 2917poe    c2313398   0.895   4.246   0.784 -0.0208 -0.3068  0.0854
 2917poe    c2313399   0.775   4.250   0.688 -0.0785 -0.1989  0.1619
 2917poe     o213400   0.791   4.358   0.599  0.2634  0.0068  0.4695
 2917poe    c2313401   0.674   4.383   0.524  0.2596 -0.5675  0.2743
 2917poe    c2313402   0.658   4.294   0.400 -0.0901  0.0669 -0.1399
 2917poe     o213403   0.593   4.180   0.451 -0.8249  0.3200 -0.4789
 2917poe    c3113404   0.600   4.067   0.366 -0.3133  0.2714 -0.3783
 2918poe    c3113405   0.114   2.414   4.839  0.5296 -0.3509  0.2549
 2918poe     o213406   0.000   2.351   4.894  0.1350 -0.1047 -0.2665
 2918poe    c2313407  -0.026   2.407   5.021 -0.1143  0.4184 -0.5451
 2918poe    c2313408  -0.167   2.377   5.075 -0.0307  0.2439 -0.4231
 2918poe     o213409  -0.220   2.295   4.974  0.1330 -0.3131 -0.0586
 2918poe    c2313410  -0.335   2.229   5.023  0.1458 -0.1076  0.2471
 2918poe    c2313411  -0.401   2.171   4.896  0.0967  0.1424  0.1571
 2918poe     o213412  -0.311   2.074   4.849 -0.1994 -0.3777  0.6614
 2918poe    c2313413  -0.367   2.002   4.742  0.3119  0.6255 -0.2966
 2918poe    c2313414  -0.311   2.026   4.600  0.6583 -0.5184 -0.3646
 2918poe     o213415  -0.338   2.150   4.540 -1.0883 -0.7293 -0.0772
 2918poe    c3113416  -0.329   2.141   4.400  0.2775 -0.1064 -0.0450
 2919poe    c3113417   2.449   0.025   5.926 -0.2686  0.1020 -0.1142
 2919poe     o213418   2.588   0.029   5.953 -0.4705  0.1054  0.9751
 2919poe    c2313419   2.617   0.158   6.001 -0.0219  0.5106 -0.3408
 2919poe    c2313420   2.768   0.175   6.031 -0.1656  0.3914  0.4958
 2919poe     o213421   2.850   0.201   5.919 -0.3103 -0.4031  0.1948
 2919poe    c2313422   2.983   0.192   5.967 -0.1228  0.2388 -0.1918
 2919poe    c2313423   3.073   0.214   5.844  0.1316 -0.4688 -0.1354
 2919poe     o213424   3.007   0.155   5.734  0.1001 -0.0708 -0.3317
 2919poe    c2313425   3.078   0.151   5.612  0.2862 -0.0333 -0.2260
 2919poe    c2313426   2.994   0.199   5.492  0.1468 -0.0463 -0.1343
 2919poe     o213427   2.873   0.130   5.475 -0.1342  0.5107 -0.4016
 2919poe    c3113428   2.800   0.151   5.356 -0.1455 -0.0663 -0.4988
 2920poe    c3113429   3.606   1.866   0.839 -0.3146  0.1567  0.1157
 2920poe     o213430   3.465   1.863   0.837 -0.3091 -0.2562  0.2197
 2920poe    c2313431   3.410   1.844   0.708  0.1005 -0.4276  0.0699
 2920poe    c2313432   3.267   1.789   0.701  0.0092 -0.2262  0.3332
 2920poe     o213433   3.184   1.894   0.744 -0.0832  0.0188 -0.4349
 2920poe    c2313434   3.065   1.860   0.812  0.2378 -0.0618  0.0892
 2920poe    c2313435   3.042   1.953   0.932 -0.2838  0.2782 -0.2751
 2920poe     o213436   3.023   2.086   0.887  0.7723  0.3964 -0.3800
 2920poe    c2313437   2.946   2.171   0.968  0.6006 -0.0947 -0.0226
 2920poe    c2313438   3.012   2.229   1.094 -0.2401  0.4640  0.1699
 2920poe     o213439   3.100   2.338   1.075 -0.0855  0.2679 -0.2315
 2920poe    c3113440   3.144   2.379   1.203 -0.3400  0.1302 -0.0990
 2921poe    c3113441   1.254   4.279   3.514 -1.0950 -0.1917  0.4663
 2921poe     o213442   1.250   4.249   3.652 -0.2995  0.3703  0.6207
 2921poe    c2313443   1.272   4.109   3.652 -0.5293  0.3329  0.0863
 2921poe    c2313444   1.306   4.069   3.796 -0.3915 -0.3237 -0.1254
 2921poe     o213445   1.209   4.095   3.895 -0.8955 -0.5185 -0.5682
 2921poe    c2313446   1.141   3.980   3.939 -0.2373 -0.7341 -0.1051
 2921poe    c2313447   1.019   4.026   4.021  0.1286  0.2828 -0.1251
 2921poe     o213448   0.957   4.143   3.972 -0.1903  0.2787  0.2664
 2921poe    c2313449   0.832   4.152   4.037 -0.2520 -0.3900  0.2461
 2921poe    c2313450   0.738   4.259   3.977  0.7179 -0.0799 -0.7511
 2921poe     o213451   0.789   4.383   4.019 -0.0120  0.2336 -0.7864
 2921poe    c3113452   0.695   4.489   4.021 -0.3189 -0.0498  0.1638
 2922poe    c3113453   1.297   6.607   4.480  0.3298 -0.2261 -0.0564
 2922poe     o213454   1.360   6.648   4.599 -0.5423  0.0587  0.3159
 2922poe    c2313455   1.394   6.784   4.592  0.4765 -0.2148 -0.1793
 2922poe    c2313456   1.483   6.822   4.712 -0.3298 -0.2517  0.4338
 2922poe     o213457   1.404   6.811   4.828 -0.4908 -0.6259  0.2891
 2922poe    c2313458   1.499   6.800   4.931  0.0337  0.0756 -0.1107
 2922poe    c2313459   1.422   6.809   5.065  0.1302 -0.0779 -0.0445
 2922poe     o213460   1.331   6.702   5.074 -0.3092  0.3036  0.0301
 2922poe    c2313461   1.272   6.688   5.201 -0.4493 -0.1755 -0.0854
 2922poe    c2313462   1.207   6.548   5.200  0.4532 -0.6037 -0.1885
 2922poe     o213463   1.113   6.559   5.095 -0.5820  0.2223  0.7905
 2922poe    c3113464   1.006   6.468   5.106 -0.1864 -0.4600 -0.7093
 2923poe    c3113465   2.803   5.647   1.209  0.4518  0.3235 -0.2588
 2923poe     o213466   2.767   5.691   1.338 -0.1554 -0.1175 -0.2747
 2923poe    c2313467   2.802   5.827   1.336  0.1726 -0.2049 -0.6243
 2923poe    c2313468   2.835   5.874   1.479  0.0862 -0.3343 -0.5614
 2923poe     o213469   2.923   5.791   1.552  0.2681  0.6293  0.3355
 2923poe    c2313470   2.916   5.827   1.688  0.5858 -0.5093  0.6610
 2923poe    c2313471   2.953   5.704   1.774  0.1319 -0.8429  0.3831
 2923poe     o213472   3.089   5.670   1.774  0.3570  0.0223  0.4606
 2923poe    c2313473   3.126   5.536   1.801  0.7211  0.1762  0.7314
 2923poe    c2313474   3.276   5.507   1.817  0.7259  0.0430  0.4607
 2923poe     o213475   3.362   5.544   1.711  0.0031  0.0720 -0.1189
 2923poe    c3113476   3.493   5.495   1.731 -0.2558 -0.5625  0.0519
 2924poe    c3113477   5.556   2.545   4.411  0.5843  0.2633  0.0705
 2924poe     o213478   5.535   2.514   4.275  0.0791  0.1809  0.1679
 2924poe    c2313479   5.490   2.632   4.213  0.0701 -0.0625 -0.2919
 2924poe    c2313480   5.484   2.619   4.059 -0.1253 -0.2348 -0.2713
 2924poe     o213481   5.372   2.549   4.011 -0.2317 -0.1900 -0.0939
 2924poe    c2313482   5.357   2.586   3.875 -0.0505 -0.1826 -0.1123
 2924poe    c2313483   5.255   2.497   3.802 -0.2495  0.1616 -0.2568
 2924poe     o213484   5.131   2.510   3.868  0.1581 -0.0738  0.5687
 2924poe    c2313485   5.052   2.393   3.872 -0.2057  0.1650  0.4001
 2924poe    c2313486   4.956   2.352   3.759 -0.2151 -0.6699  0.7034
 2924poe     o213487   4.838   2.429   3.749  0.3684  0.1203 -0.2519
 2924poe    c3113488   4.801   2.463   3.617 -0.3342  0.1064 -0.0583
 2925poe    c3113489   0.748   3.104   1.578  0.3991 -0.0689  0.0957
 2925poe     o213490   0.756   3.123   1.438 -0.1468  0.7539  0.1694
 2925poe    c2313491   0.625   3.141   1.389 -0.1085  0.5745  0.0011
 2925poe    c2313492   0.613   3.118   1.237  0.1999 -0.2547  0.0976
 2925poe     o213493   0.666   3.229   1.168 -0.3457 -0.2747 -0.3561
 2925poe    c2313494   0.793   3.194   1.118 -0.2314 -0.1390 -0.1605
 2925poe    c2313495   0.875   3.293   1.033 -0.5072  0.9229  0.7884
 2925poe     o213496   0.834   3.334   0.905  0.2097  0.4445  0.4029
 2925poe    c2313497   0.899   3.446   0.851 -0.2273  0.4258 -0.1758
 2925poe    c2313498   0.825   3.523   0.739  0.3322  1.1902 -0.0305
 2925poe     o213499   0.736   3.622   0.784 -0.5448  0.3218  0.1900
 2925poe    c3113500   0.693   3.706   0.679  0.1612 -0.0280 -0.3915
 2926poe    c3113501   6.103   5.467   4.861  0.1205 -0.4444  0.3426
 2926poe     o213502   5.978   5.531   4.852  0.2806 -0.1684  0.0518
 2926poe    c2313503   5.905   5.513   4.972 -0.0194  0.5558 -0.0204
 2926poe    c2313504   5.753   5.531   4.955 -0.1164 -0.1066  0.1126
 2926poe     o213505   5.733   5.671   4.964  0.0647 -0.0356 -0.5243
 2926poe    c2313506   5.613   5.717   4.905 -0.0377  0.0883 -0.2226
 2926poe    c2313507   5.618   5.870   4.898  0.6155  0.1090  0.5497
 2926poe     o213508   5.725   5.929   4.827  0.7724  0.1487  0.8143
 2926poe    c2313509   5.689   6.059   4.788  0.1164 -0.2000  0.2188
 2926poe    c2313510   5.806   6.119   4.708 -0.0475  0.1298  0.2244
 2926poe     o213511   5.822   6.054   4.584 -0.1605  0.5728 -0.0267
 2926poe    c3113512   5.837   6.148   4.480 -0.8742  0.5574 -0.1511
 2927poe    c3113513   0.337   6.721   6.974 -0.6919  0.1928  0.4085
 2927poe     o213514   0.248   6.621   6.928 -0.0697 -0.1563 -0.0514
 2927poe    c2313515   0.288   6.497   6.981  0.4700 -0.0764 -0.2659
 2927poe    c2313516   0.185   6.403   6.916  0.0610  0.1388  0.0648
 2927poe     o213517   0.160   6.440   6.782 -0.5940 -0.5539 -0.0070
 2927poe    c2313518   0.062   6.352   6.729 -1.0133 -0.6227  0.8522
 2927poe    c2313519  -0.009   6.402   6.602 -0.3512  0.0514  0.7352
 2927poe     o213520  -0.087   6.518   6.616  0.0758  0.4088  0.1834
 2927poe    c2313521  -0.222   6.494   6.645  0.1840 -0.4944 -0.0359
 2927poe    c2313522  -0.314   6.507   6.521 -0.4828  0.3360  0.5350
 2927poe     o213523  -0.305   6.637   6.468 -0.1856  0.0476 -0.1262
 2927poe    c3113524  -0.295   6.622   6.328 -0.6491  0.4228 -0.2053
 2928poe    c3113525   2.518   6.707   0.161  0.4160  0.4642 -0.4809
 2928poe     o213526   2.455   6.636   0.057  0.0466  0.0751  0.0080
 2928poe    c2313527   2.322   6.600   0.087 -0.0755  0.3355 -0.2171
 2928poe    c2313528   2.243   6.567  -0.041  0.0842 -0.8239 -0.0314
 2928poe     o213529   2.330   6.519  -0.141  0.0149 -0.7227 -0.1402
 2928poe    c2313530   2.240   6.475  -0.240 -0.0293  0.0044 -0.4363
 2928poe    c2313531   2.323   6.386  -0.334  0.1219  0.2704 -0.5537
 2928poe     o213532   2.408   6.478  -0.398 -0.2678  1.0060 -0.0204
 2928poe    c2313533   2.493   6.422  -0.496 -0.3523  0.3374  0.2858
 2928poe    c2313534   2.588   6.310  -0.452 -0.5195  0.1148  0.0845
 2928poe     o213535   2.522   6.185  -0.447  0.0911 -0.2276 -0.2125
 2928poe    c3113536   2.603   6.084  -0.393  0.2167 -0.2004 -0.3477
 2929poe    c3113537   1.372   0.336   6.122  0.0361  0.6576 -0.2798
 2929poe     o213538   1.464   0.239   6.077 -0.1676  0.1617  0.3542
 2929poe    c2313539   1.409   0.109   6.078 -0.4260  0.2698  0.2000
 2929poe    c2313540   1.522   0.019   6.023 -0.2415  0.6558 -0.0591
 2929poe     o213541   1.645   0.058   6.079 -0.1758  0.5942 -0.1594
 2929poe    c2313542   1.757  -0.014   6.033 -0.1309  0.4664  0.1488
 2929poe    c2313543   1.878   0.063   6.090 -0.0332  0.2813  0.1927
 2929poe     o213544   1.857   0.202   6.084 -0.1321  0.2588 -0.0299
 2929poe    c2313545   1.985   0.248   6.121  0.0612 -0.4600  0.2104
 2929poe    c2313546   1.990   0.402   6.131 -0.5555 -0.4224 -0.0004
 2929poe     o213547   1.912   0.444   6.240 -0.3451 -0.3834  0.1372
 2929poe    c3113548   1.952   0.437   6.375 -0.1111  0.3964  0.1167
 2930poe    c3113549   3.777   2.508   6.024 -0.5498 -0.3195 -0.2095
 2930poe     o213550   3.758   2.647   6.011  0.1672 -0.1792  0.2205
 2930poe    c2313551   3.634   2.671   5.949  0.3734  0.2567 -0.0284
 2930poe    c2313552   3.548   2.777   6.021 -0.0283 -0.3722  0.4236
 2930poe     o213553   3.606   2.905   6.010 -0.1245 -0.3895 -0.3353
 2930poe    c2313554   3.545   3.008   6.084  0.4950 -0.2599  0.0008
 2930poe    c2313555   3.611   3.147   6.084 -0.0052 -0.0185  0.1118
 2930poe     o213556   3.741   3.144   6.140  0.1367  0.1286 -0.2096
 2930poe    c2313557   3.787   3.275   6.162  0.1675  0.0795  0.0130
 2930poe    c2313558   3.914   3.317   6.085  0.4476  0.3526  0.6160
 2930poe     o213559   4.026   3.231   6.088  0.0594 -0.2085 -0.6027
 2930poe    c3113560   4.141   3.284   6.027  0.0621 -0.2821 -0.6618
 2931poe    c3113561   5.474   2.363   6.892  0.2305  0.1954 -0.1189
 2931poe     o213562   5.474   2.222   6.895 -0.3613  0.1716 -0.9045
 2931poe    c2313563   5.340   2.182   6.909 -0.1631 -0.2327 -0.1127
 2931poe    c2313564   5.339   2.032   6.873 -0.2957 -0.2745  0.0620
 2931poe     o213565   5.455   1.970   6.925 -0.3614 -0.1673  0.3404
 2931poe    c2313566   5.450   1.833   6.888  0.1674 -0.0918 -0.0142
 2931poe    c2313567   5.529   1.755   6.995  0.4193 -0.4069 -0.4283
 2931poe     o213568   5.651   1.825   7.004 -0.0669  0.4324 -0.2790
 2931poe    c2313569   5.725   1.776   7.113 -0.4612  0.1866 -0.1192
 2931poe    c2313570   5.865   1.839   7.106 -0.1124 -0.4506  0.8195
 2931poe     o213571   5.887   1.970   7.155 -0.3403  0.0625 -0.4076
 2931poe    c3113572   6.011   2.023   7.114  0.0081 -0.2918  0.1724
 2932poe    c3113573   0.962   3.749   2.712 -0.4837 -0.2171  0.4348
 2932poe     o213574   1.001   3.878   2.754  0.2000 -0.1267 -0.4462
 2932poe    c2313575   1.127   3.869   2.818  0.0716  0.1979 -0.1436
 2932poe    c2313576   1.175   4.009   2.858  0.7482 -0.2328  0.5594
 2932poe     o213577   1.096   4.075   2.954 -0.0183 -0.5269  0.1394
 2932poe    c2313578   1.119   4.023   3.083 -0.7507 -0.7488  0.1808
 2932poe    c2313579   1.037   4.067   3.206  0.2206  0.4013  0.4283
 2932poe     o213580   0.898   4.049   3.218  0.2474  0.0516  0.2425
 2932poe    c2313581   0.837   4.108   3.331  0.0908 -0.6917  0.5512
 2932poe    c2313582   0.687   4.130   3.308  0.2499  0.2160  0.3483
 2932poe     o213583   0.664   4.255   3.247  0.0874  0.1157  0.2028
 2932poe    c3113584   0.533   4.305   3.265  0.0028  0.0847 -0.3081
 2933poe    c3113585   6.079   6.150   6.775 -0.0218  0.2791 -0.1302
 2933poe     o213586   5.965   6.228   6.804 -0.0828  0.0619  0.2225
 2933poe    c2313587   5.939   6.308   6.690 -0.2741 -0.0845  0.1621
 2933poe    c2313588   5.791   6.349   6.689 -0.3179 -0.2452  0.0354
 2933poe     o213589   5.766   6.391   6.822 -0.2502 -0.2865  0.0606
 2933poe    c2313590   5.630   6.425   6.832 -0.1921  0.1075 -0.4166
 2933poe    c2313591   5.592   6.495   6.964 -0.0735 -0.3695 -0.1258
 2933poe     o213592   5.622   6.412   7.073  0.0825 -0.2857 -0.1044
 2933poe    c2313593   5.562   6.463   7.190 -0.0694 -0.1436 -0.2438
 2933poe    c2313594   5.418   6.427   7.231  0.0220  0.1437  0.3530
 2933poe     o213595   5.331   6.490   7.140  0.3204  0.2539  0.1396
 2933poe    c3113596   5.198   6.450   7.166  0.2196  0.3205 -0.2783
 2934poe    c3113597   0.253   3.373   6.886  0.5891  0.4557  0.0609
 2934poe     o213598   0.254   3.365   6.745 -0.2360 -0.2292  0.0817
 2934poe    c2313599   0.139   3.304   6.692 -0.1737 -0.1866 -0.1017
 2934poe    c2313600   0.156   3.296   6.539  0.2250  0.0429 -0.0693
 2934poe     o213601   0.156   3.436   6.519  0.4782  0.0447 -0.0588
 2934poe    c2313602   0.161   3.451   6.379  0.3585  0.7085  0.0037
 2934poe    c2313603   0.161   3.597   6.330  0.2629  0.6014 -0.3232
 2934poe     o213604   0.271   3.676   6.368  0.1231  0.1495  1.1028
 2934poe    c2313605   0.247   3.795   6.296 -0.5223 -0.5764  0.0901
 2934poe    c2313606   0.349   3.900   6.342 -0.2134 -0.7763 -0.1384
 2934poe     o213607   0.296   3.971   6.452  0.0536 -0.6167 -0.1111
 2934poe    c3113608   0.364   3.946   6.573  0.3212 -0.3500 -0.2056
 2935poe    c3113609   5.149   0.150   5.272  0.5946  0.7068 -0.4841
 2935poe     o213610   5.217   0.194   5.388 -0.0643  0.2664  0.0770
 2935poe    c2313611   5.351   0.153   5.407 -0.0393  0.3636  0.1113
 2935poe    c2313612   5.395   0.218   5.540 -0.1987  0.1424  0.2722
 2935poe     o213613   5.329   0.148   5.643  0.3260  0.3078  0.7268
 2935poe    c2313614   5.345   0.217   5.765  0.7759  0.2268  0.7159
 2935poe    c2313615   5.267   0.175   5.891 -0.5047 -0.4774 -0.2823
 2935poe     o213616   5.272   0.035   5.905 -0.0709 -0.4225  0.1212
 2935poe    c2313617   5.184  -0.031   5.993  0.4635 -0.3483  0.7191
 2935poe    c2313618   5.160  -0.183   5.981  0.7297 -0.3433  0.0710
 2935poe     o213619   5.109  -0.214   5.854 -0.1279 -0.1611  0.3652
 2935poe    c3113620   5.131  -0.351   5.826 -0.5977 -0.1936  0.1406
 2936poe    c3113621   0.132   4.419   3.845 -0.3558  0.6411  0.4166
 2936poe     o213622   0.057   4.394   3.728 -0.2926  0.7440  0.3546
 2936poe    c2313623   0.149   4.417   3.623 -0.5377 -0.4106 -0.1318
 2936poe    c2313624   0.090   4.385   3.485 -0.1509 -0.1019 -0.3713
 2936poe     o213625   0.063   4.247   3.494 -0.4108 -0.0360 -0.1067
 2936poe    c2313626   0.011   4.211   3.368 -0.0466 -0.2772 -0.1890
 2936poe    c2313627  -0.002   4.061   3.339 -0.0987 -0.2289 -0.4236
 2936poe     o213628  -0.114   4.007   3.406  0.2973 -0.3575  0.1409
 2936poe    c2313629  -0.172   3.893   3.347 -0.7581  0.0489  0.3794
 2936poe    c2313630  -0.096   3.765   3.387 -0.8064 -0.0488  0.1612
 2936poe     o213631  -0.124   3.694   3.505 -0.0205 -0.2101  0.2590
 2936poe    c3113632  -0.230   3.602   3.498 -0.6205  0.4172  0.8569
 2937poe    c3113633   6.140   0.381   4.759 -0.5012  0.4999 -0.6223
 2937poe     o213634   6.259   0.309   4.782 -0.6574  0.4944  0.2064
 2937poe    c2313635   6.329   0.311   4.660 -0.0697  0.8707  0.5424
 2937poe    c2313636   6.445   0.210   4.675 -0.5399  0.2637  0.1516
 2937poe     o213637   6.395   0.082   4.708  0.0978 -0.1240 -0.3655
 2937poe    c2313638   6.495  -0.015   4.691  0.2441 -0.0210 -0.1021
 2937poe    c2313639   6.432  -0.151   4.728  0.1530  0.0474 -0.0039
 2937poe     o213640   6.442  -0.167   4.867 -0.1726  0.0581  0.0222
 2937poe    c2313641   6.441  -0.306   4.891  0.9213  0.0626  0.1731
 2937poe    c2313642   6.477  -0.340   5.037  0.5494  0.0793  0.2711
 2937poe     o213643   6.405  -0.257   5.126  0.1242 -0.1452  0.1389
 2937poe    c3113644   6.421  -0.300   5.259 -0.3831  0.0678  0.2696
 2938poe    c3113645   4.544   0.370   7.154  0.4757 -0.6152  0.1077
 2938poe     o213646   4.602   0.474   7.079  0.4706 -0.4835  0.2844
 2938poe    c2313647   4.527   0.592   7.065  1.0976 -0.1658 -0.4453
 2938poe    c2313648   4.457   0.601   6.928  0.1485 -0.4797  0.0154
 2938poe     o213649   4.562   0.651   6.848 -0.0759 -0.2936 -0.1637
 2938poe    c2313650   4.533   0.683   6.714 -0.2788 -0.2177 -0.1032
 2938poe    c2313651   4.654   0.650   6.625 -0.4712  0.3826 -0.5949
 2938poe     o213652   4.762   0.736   6.655 -0.2590 -0.0822 -0.0183
 2938poe    c2313653   4.879   0.709   6.581 -0.1657 -0.5402  0.2881
 2938poe    c2313654   4.971   0.833   6.578 -0.2696 -0.4733 -0.1344
 2938poe     o213655   5.022   0.876   6.702 -0.1575  0.1521 -0.3932
 2938poe    c3113656   5.161   0.853   6.715 -0.1520  0.6218  0.4483
 2939poe    c3113657   5.556   3.317   1.036 -0.3463 -0.3340 -0.5431
 2939poe     o213658   5.463   3.407   1.093  0.4699  0.0363  0.2268
 2939poe    c2313659   5.405   3.487   0.993  0.0582  0.0277  0.4553
 2939poe    c2313660   5.256   3.521   1.014 -0.1531 -0.5790 -0.0234
 2939poe     o213661   5.245   3.607   1.125  0.4680 -0.2527 -0.2070
 2939poe    c2313662   5.117   3.658   1.154  0.4992 -0.3330  0.0749
 2939poe    c2313663   5.010   3.569   1.218  0.2085  0.2202  0.3722
 2939poe     o213664   4.980   3.448   1.152  0.2969  0.1250  0.5048
 2939poe    c2313665   4.932   3.345   1.236  0.1640 -0.4472 -0.2557
 2939poe    c2313666   4.864   3.233   1.156  0.0159 -0.3161 -0.3139
 2939poe     o213667   4.964   3.167   1.082  0.2568 -0.0922 -0.1854
 2939poe    c3113668   4.925   3.106   0.962 -0.5825  0.1380 -0.0311
 2940poe    c3113669   4.854   5.781   4.233 -0.0833  0.0627  0.1964
 2940poe     o213670   4.988   5.823   4.240  0.0660 -0.4336  0.4076
 2940poe    c2313671   5.062   5.738   4.324  0.0999 -0.1908  0.6236
 2940poe    c2313672   5.178   5.819   4.386 -0.0293  0.5894 -0.1285
 2940poe     o213673   5.292   5.837   4.306  0.2432  0.0254  0.1269
 2940poe    c2313674   5.399   5.879   4.388 -0.3124  0.8252  0.4470
 2940poe    c2313675   5.506   5.968   4.323 -0.3531  0.5234 -0.0403
 2940poe     o213676   5.458   6.100   4.308 -0.8898  0.2607 -0.6564
 2940poe    c2313677   5.534   6.176   4.218  0.5072  0.0410  0.2982
 2940poe    c2313678   5.481   6.320   4.204  0.2406 -0.1458 -0.7100
 2940poe     o213679   5.380   6.326   4.106 -0.4436 -0.6942 -0.0497
 2940poe    c3113680   5.305   6.444   4.117 -0.5434 -0.8169  0.6003
 2941poe    c3113681   3.164   5.566   2.694  0.2672  0.3326 -0.3645
 2941poe     o213682   3.117   5.654   2.794  0.1708  0.3704 -0.4432
 2941poe    c2313683   2.976   5.651   2.802  0.2058 -0.6707 -0.0071
 2941poe    c2313684   2.934   5.605   2.943  0.4645 -0.3949  0.1627
 2941poe     o213685   2.982   5.677   3.053 -0.3526 -0.0702  0.3182
 2941poe    c2313686   2.893   5.667   3.162 -0.7825 -0.4987 -0.0716
 2941poe    c2313687   2.939   5.554   3.256 -0.2840 -0.0767  0.1986
 2941poe     o213688   3.064   5.576   3.317  0.0860  0.1825 -0.6376
 2941poe    c2313689   3.120   5.454   3.357 -0.0832  0.5290  0.7081
 2941poe    c2313690   3.271   5.466   3.386  0.1109  0.1730 -0.1268
 2941poe     o213691   3.349   5.493   3.272  0.4831  0.8430  0.2784
 2941poe    c3113692   3.477   5.434   3.269  0.2609  0.3783 -0.7248
 2942poe    c3113693   7.037   3.023   3.061 -0.3144 -0.2914  0.2095
 2942poe     o213694   7.126   3.093   3.146  0.3882 -0.1181 -0.6556
 2942poe    c2313695   7.147   3.227   3.109  0.2806  0.0934  0.0444
 2942poe    c2313696   7.228   3.316   3.206  0.4985 -0.2662  0.1930
 2942poe     o213697   7.357   3.276   3.245  0.7652  0.4841  0.0820
 2942poe    c2313698   7.399   3.317   3.373 -0.2484  0.3177  0.4702
 2942poe    c2313699   7.365   3.214   3.483  0.3042 -0.2894  0.0741
 2942poe     o213700   7.415   3.086   3.449  0.3755 -0.1905 -0.1945
 2942poe    c2313701   7.356   2.994   3.538 -0.8586  0.7788  0.0226
 2942poe    c2313702   7.284   2.888   3.453 -0.1949  0.3926 -0.0694
 2942poe     o213703   7.377   2.795   3.403 -0.5132  0.0974 -0.1187
 2942poe    c3113704   7.379   2.675   3.477  0.1388  0.3493  0.2836
 2943poe    c3113705   2.760   1.599   0.987 -0.9485  0.3576  0.0291
 2943poe     o213706   2.789   1.562   1.120  0.1056  0.3581 -0.1917
 2943poe    c2313707   2.817   1.424   1.118 -0.4072  0.2525 -0.0697
 2943poe    c2313708   2.861   1.400   1.264 -0.4111 -0.2678 -0.1521
 2943poe     o213709   2.977   1.466   1.308 -0.4788  0.2112 -0.6701
 2943poe    c2313710   2.992   1.434   1.445 -0.0382  0.3168 -0.6924
 2943poe    c2313711   3.110   1.498   1.522 -0.3527 -0.1652  0.2045
 2943poe     o213712   3.107   1.634   1.488 -0.2189 -0.2739 -0.2536
 2943poe    c2313713   3.215   1.693   1.557 -0.1221  0.0677 -0.6931
 2943poe    c2313714   3.196   1.846   1.553 -0.3235  0.0457 -0.5245
 2943poe     o213715   3.235   1.904   1.431  0.8590 -0.2859 -0.3101
 2943poe    c3113716   3.280   2.036   1.455 -0.2400  0.0582 -0.0836
 2944poe    c3113717   1.548   2.431   3.184 -0.2876  0.0795 -0.2659
 2944poe     o213718   1.434   2.512   3.169 -0.7298 -0.4363  0.2571
 2944poe    c2313719   1.342   2.500   3.276 -0.6814 -0.7849  0.2598
 2944poe    c2313720   1.244   2.616   3.249  0.0704 -0.2533 -0.2433
 2944poe     o213721   1.319   2.732   3.224 -0.4862  0.1360 -0.1199
 2944poe    c2313722   1.247   2.853   3.210  0.0047  0.4299 -0.1431
 2944poe    c2313723   1.354   2.959   3.180 -0.3503  0.8837  0.1884
 2944poe     o213724   1.450   2.898   3.097  0.0504 -0.0467  1.3140
 2944poe    c2313725   1.570   2.973   3.099 -0.0120  0.1160 -0.2844
 2944poe    c2313726   1.682   2.878   3.052 -0.2332 -0.2237 -0.1316
 2944poe     o213727   1.666   2.748   3.104 -0.6449 -0.2249 -0.2648
 2944poe    c3113728   1.791   2.687   3.080 -0.1442  0.7135 -0.0873
 2945poe    c3113729   6.701   6.760   2.577  0.2012 -0.0746  0.1049
 2945poe     o213730   6.616   6.789   2.469 -0.1239 -0.4149  0.2689
 2945poe    c2313731   6.692   6.839   2.361 -0.3230 -0.0984  0.2734
 2945poe    c2313732   6.603   6.907   2.255  0.1920 -0.3937 -0.3566
 2945poe     o213733   6.535   6.806   2.184 -0.4446 -0.1083 -0.1565
 2945poe    c2313734   6.474   6.819   2.058  0.0030 -0.1824 -0.3829
 2945poe    c2313735   6.385   6.945   2.051 -0.0994 -0.2815 -0.9018
 2945poe     o213736   6.266   6.924   2.123  0.2531  0.1515 -0.1819
 2945poe    c2313737   6.171   7.028   2.130  0.0613 -0.0957  1.3693
 2945poe    c2313738   6.024   7.006   2.170 -0.2600 -0.2903  0.1334
 2945poe     o213739   6.025   6.970   2.307 -0.1141  0.3832  0.3118
 2945poe    c3113740   5.913   6.913   2.371 -0.4244  0.6076 -0.0191
 2946poe    c3113741   4.464   7.299   7.309 -0.1401 -0.1137  0.1771
 2946poe     o213742   4.404   7.285   7.435 -0.1162 -0.1165  0.1884
 2946poe    c2313743   4.403   7.412   7.497  0.1741  0.0390 -0.1286
 2946poe    c2313744   4.334   7.415   7.634 -0.3611 -0.2518 -0.3877
 2946poe     o213745   4.383   7.323   7.729  0.3630  0.3878 -0.1252
 2946poe    c2313746   4.290   7.299   7.832  0.4586 -0.4230 -0.2179
 2946poe    c2313747   4.318   7.175   7.920  0.1343  0.0501  0.5665
 2946poe     o213748   4.311   7.059   7.840 -0.6222  0.0849  0.5726
 2946poe    c2313749   4.318   6.949   7.928 -0.1975 -0.0503  0.3704
 2946poe    c2313750   4.258   6.829   7.852 -0.2245 -0.0021  0.3161
 2946poe     o213751   4.274   6.844   7.712 -0.1616 -0.1524  0.3069
 2946poe    c3113752   4.321   6.719   7.668 -0.5307 -0.1547 -0.0918
 2947poe    c3113753   6.121   5.597   3.985  0.1977  0.3202  0.1661
 2947poe     o213754   6.048   5.527   4.083  0.3348  0.1492  0.1454
 2947poe    c2313755   6.022   5.611   4.193 -0.1220  0.0701  0.0986
 2947poe    c2313756   6.113   5.561   4.307 -0.3474 -0.3521  0.0937
 2947poe     o213757   6.074   5.425   4.315 -0.2729 -0.3932 -0.2085
 2947poe    c2313758   6.162   5.361   4.405  0.0698  0.0692 -0.2106
 2947poe    c2313759   6.098   5.239   4.473 -0.1252 -0.1342 -0.7546
 2947poe     o213760   6.052   5.148   4.375  0.6139 -0.6860 -0.5953
 2947poe    c2313761   6.020   5.025   4.436  0.4928 -0.3586  0.0101
 2947poe    c2313762   5.949   4.927   4.341 -0.2370 -0.0557  0.2384
 2947poe     o213763   6.024   4.863   4.240 -0.2981  0.5777 -0.2167
 2947poe    c3113764   5.921   4.792   4.175 -0.0692 -0.1151  0.1637
 2948poe    c3113765   5.362   5.278   3.215  0.1763  0.2242  0.2452
 2948poe     o213766   5.462   5.289   3.116 -0.1832  0.0698 -0.1390
 2948poe    c2313767   5.588   5.296   3.178 -0.5369 -0.3512  0.6515
 2948poe    c2313768   5.701   5.289   3.074 -0.1062  0.3216  1.0633
 2948poe     o213769   5.695   5.408   2.997  0.0685 -0.0537  0.4590
 2948poe    c2313770   5.777   5.387   2.884 -0.0795 -0.3561  0.4069
 2948poe    c2313771   5.739   5.495   2.781 -0.0934 -0.5131  0.2461
 2948poe     o213772   5.601   5.509   2.755  0.2154  0.0472 -1.1738
 2948poe    c2313773   5.570   5.634   2.696 -0.1680  0.6359  0.2254
 2948poe    c2313774   5.456   5.611   2.595  0.0133  0.4570  0.0611
 2948poe     o213775   5.332   5.587   2.659  0.1793 -0.6807 -0.0237
 2948poe    c3113776   5.227   5.609   2.568  0.2588 -0.4368 -0.0569
 2949poe    c3113777   1.908   0.608   0.759  0.2146  0.9248 -0.7850
 2949poe     o213778   2.039   0.563   0.733  0.1508  0.3535 -0.1258
 2949poe    c2313779   2.124   0.666   0.690  0.1529  0.1274 -0.6700
 2949poe    c2313780   2.213   0.609   0.578  0.3478  0.1798 -0.5436
 2949poe     o213781   2.106   0.569   0.495  0.2272 -0.5809 -0.0358
 2949poe    c2313782   2.140   0.568   0.358 -0.0055  0.1205 -0.1030
 2949poe    c2313783   2.035   0.508   0.263  0.1618 -0.0641 -0.1714
 2949poe     o213784   1.931   0.603   0.268 -0.0912 -0.3440 -0.0944
 2949poe    c2313785   1.827   0.569   0.179 -0.2653  0.2066 -0.1060
 2949poe    c2313786   1.731   0.687   0.157 -0.6441  0.0148  0.4866
 2949poe     o213787   1.647   0.729   0.262 -0.3419  0.6051  0.4961
 2949poe    c3113788   1.710   0.761   0.384  0.0667 -0.1404  0.4827
 2950poe    c3113789   6.016   2.833   0.903 -0.4795  0.0502  0.7433
 2950poe     o213790   6.041   2.712   0.970 -0.3146 -0.2568  0.1336
 2950poe    c2313791   6.169   2.653   0.957 -0.0544  0.4432 -0.5295
 2950poe    c2313792   6.172   2.576   0.824  0.2047 -0.6910  0.1216
 2950poe     o213793   6.056   2.502   0.793 -0.4509  0.3379  0.0775
 2950poe    c2313794   6.092   2.388   0.717  0.0480 -0.0140  0.8241
 2950poe    c2313795   6.005   2.261   0.715 -0.2222  0.1767  0.1992
 2950poe     o213796   5.874   2.285   0.669 -0.1701  0.4459  0.1894
 2950poe    c2313797   5.773   2.255   0.763 -0.3063  0.3266  0.0063
 2950poe    c2313798   5.642   2.328   0.727 -0.3535 -0.2818 -1.0897
 2950poe     o213799   5.672   2.466   0.720  0.5605 -0.4138  0.0367
 2950poe    c3113800   5.598   2.557   0.797 -0.0290 -0.1466 -0.8286
 2951poe    c3113801   6.296   4.508   2.976  0.1547  0.4406 -0.1647
 2951poe     o213802   6.223   4.610   3.040  0.0059  0.0447  0.3081
 2951poe    c2313803   6.088   4.579   3.067 -0.0037 -0.0967  0.1038
 2951poe    c2313804   6.032   4.715   3.113  0.3415  0.1085 -0.0740
 2951poe     o213805   6.072   4.821   3.030  0.2874  0.1299 -0.0719
 2951poe    c2313806   5.983   4.926   3.064 -0.1567 -0.2583 -0.0253
 2951poe    c2313807   6.013   5.042   2.967 -0.3860 -0.5281 -0.4234
 2951poe     o213808   6.153   5.061   2.957 -0.3413 -0.2985  0.5875
 2951poe    c2313809   6.182   5.182   2.892  0.1683 -0.8472 -0.2282
 2951poe    c2313810   6.228   5.292   2.991 -0.1720 -0.5241 -0.4257
 2951poe     o213811   6.366   5.278   3.018 -0.2273 -0.0081  0.1364
 2951poe    c3113812   6.394   5.379   3.112 -0.3708  0.2588 -0.1046
 2952poe    c3113813   7.142   5.094   2.966  0.0946  0.4855 -0.6887
 2952poe     o213814   7.166   5.124   2.831  0.0038  0.0377 -0.8057
 2952poe    c2313815   7.306   5.139   2.829  0.0127  0.0778  0.0825
 2952poe    c2313816   7.362   5.190   2.695 -0.0300  0.1957  0.1098
 2952poe     o213817   7.308   5.316   2.660 -0.5060  0.0171  0.1963
 2952poe    c2313818   7.353   5.351   2.531  0.1205 -0.6131  0.2334
 2952poe    c2313819   7.265   5.442   2.443 -0.2832 -0.3368  0.9187
 2952poe     o213820   7.131   5.418   2.481 -0.1613 -1.1751  0.8269
 2952poe    c2313821   7.049   5.480   2.385  0.6521 -1.0277  0.2136
 2952poe    c2313822   6.897   5.499   2.405  0.7663  0.0650  0.1438
 2952poe     o213823   6.849   5.588   2.502  0.0544 -0.2358  0.0718
 2952poe    c3113824   6.764   5.692   2.458  0.0383 -0.0985  0.4225
 2953poe    c3113825   5.397   7.282   4.772 -0.3587  0.5206  0.9985
 2953poe     o213826   5.258   7.258   4.770 -0.3176  0.3178 -0.5594
 2953poe    c2313827   5.198   7.336   4.870 -0.4717 -0.0200 -0.3860
 2953poe    c2313828   5.045   7.351   4.872 -0.5279 -0.6049  0.1394
 2953poe     o213829   4.991   7.409   4.755  0.3699 -0.4876 -0.2265
 2953poe    c2313830   4.865   7.462   4.788 -0.0559 -1.0593 -0.8905
 2953poe    c2313831   4.820   7.533   4.659  0.2569  0.1764 -0.3390
 2953poe     o213832   4.853   7.451   4.549  0.2678  0.2672 -0.4037
 2953poe    c2313833   4.885   7.508   4.424  0.5673  0.4259 -0.2536
 2953poe    c2313834   5.031   7.553   4.401  0.5012  0.4075 -0.7074
 2953poe     o213835   5.115   7.450   4.356 -0.1092 -0.4589  0.0971
 2953poe    c3113836   5.219   7.431   4.450 -0.0290 -0.7596 -0.0495
 2954poe    c3113837   5.557   0.924   2.755  0.5933 -0.3698 -0.1792
 2954poe     o213838   5.678   0.974   2.808  0.3225  0.3025 -0.1827
 2954poe    c2313839   5.755   0.881   2.881  0.0224  0.0041 -0.2414
 2954poe    c2313840   5.799   0.921   3.023  0.3053 -1.1170 -0.0100
 2954poe     o213841   5.693   0.905   3.115  0.0554 -0.0665 -0.1035
 2954poe    c2313842   5.723   0.882   3.251  0.0614  0.4550 -0.0175
 2954poe    c2313843   5.600   0.910   3.339 -0.1250  0.2234 -0.2067
 2954poe     o213844   5.494   0.817   3.327  0.0954 -0.0820  0.1623
 2954poe    c2313845   5.381   0.858   3.400  0.1621 -0.0443  0.2434
 2954poe    c2313846   5.253   0.776   3.374  0.1431 -0.1879  0.7715
 2954poe     o213847   5.263   0.636   3.356  0.3839 -0.1454  0.5724
 2954poe    c3113848   5.140   0.569   3.369  0.4469 -0.2748  0.5045
 2955poe    c3113849   4.029   3.600   3.840 -0.1046 -0.6707 -0.1873
 2955poe     o213850   3.938   3.660   3.750  0.0772  0.0078  0.0795
 2955poe    c2313851   3.822   3.580   3.750 -0.0128  0.1367 -0.1406
 2955poe    c2313852   3.693   3.645   3.698 -0.0351  0.1727 -0.0409
 2955poe     o213853   3.644   3.733   3.796  0.2368  0.5453 -0.2374
 2955poe    c2313854   3.546   3.805   3.725 -0.4783 -0.0685  0.1105
 2955poe    c2313855   3.519   3.939   3.797  0.1687  0.0622  0.1142
 2955poe     o213856   3.639   4.013   3.791  0.7068 -0.8172 -0.1542
 2955poe    c2313857   3.609   4.147   3.820  0.0341 -1.0281  0.1414
 2955poe    c2313858   3.678   4.199   3.947 -0.6618  0.0544  0.0925
 2955poe     o213859   3.818   4.199   3.931 -0.6375 -0.2541  0.2998
 2955poe    c3113860   3.881   4.221   4.056  0.0427 -0.2197 -0.0424
 2956poe    c3113861   6.932   4.874   7.245 -0.0698  0.5295  0.5505
 2956poe     o213862   6.841   4.952   7.170  0.5430  0.3401 -0.4052
 2956poe    c2313863   6.857   4.934   7.031  0.4198  0.2031 -0.4019
 2956poe    c2313864   6.749   5.017   6.959 -0.1359 -0.2529 -0.1030
 2956poe     o213865   6.621   4.961   6.973 -0.3482  0.1954 -0.2337
 2956poe    c2313866   6.519   5.053   6.942 -0.2937  0.3096 -0.0714
 2956poe    c2313867   6.393   4.964   6.943  0.2878 -0.5186  0.3459
 2956poe     o213868   6.389   4.900   7.069 -0.0890 -1.2515 -0.0313
 2956poe    c2313869   6.267   4.918   7.137 -0.0290 -0.2588 -0.1608
 2956poe    c2313870   6.219   5.055   7.189  0.2128 -0.0384 -0.5115
 2956poe     o213871   6.294   5.120   7.289  0.0161 -0.7537  0.1140
 2956poe    c3113872   6.260   5.256   7.302  0.1304 -0.6798 -0.3398
 2957poe    c3113873   4.868   6.946   4.988  0.3946  0.0936 -0.0471
 2957poe     o213874   4.793   7.065   4.994  0.1100 -0.0947  0.1815
 2957poe    c2313875   4.656   7.035   4.978 -0.0061 -0.1203  1.1616
 2957poe    c2313876   4.587   7.169   4.943 -0.4367 -0.5715  0.2375
 2957poe     o213877   4.570   7.244   5.061 -0.8919 -0.1314 -0.1055
 2957poe    c2313878   4.525   7.371   5.022 -0.1348  0.0731 -0.3194
 2957poe    c2313879   4.443   7.440   5.132  0.3105  0.1178 -0.0117
 2957poe     o213880   4.319   7.392   5.178  0.2338  0.0820 -0.2527
 2957poe    c2313881   4.315   7.265   5.240 -0.1688  0.1477 -0.1346
 2957poe    c2313882   4.177   7.228   5.296 -0.0167 -0.3585 -0.0907
 2957poe     o213883   4.078   7.223   5.196 -0.3115  0.0667  0.1750
 2957poe    c3113884   3.950   7.184   5.239 -0.4175  0.3510  0.1153
 2958poe    c3113885   4.655   0.686   0.550 -0.2436 -0.8303  0.3041
 2958poe     o213886   4.789   0.651   0.522 -0.2168 -0.2890 -0.2673
 2958poe    c2313887   4.848   0.604   0.641 -0.0262 -0.1762 -0.3186
 2958poe    c2313888   5.001   0.617   0.658 -0.0236 -0.3271 -0.2319
 2958poe     o213889   5.077   0.542   0.565 -0.3024 -0.3696 -0.4260
 2958poe    c2313890   5.209   0.555   0.612 -0.4263  0.1543 -0.2163
 2958poe    c2313891   5.294   0.503   0.495 -0.5755 -0.6537  0.0314
 2958poe     o213892   5.291   0.590   0.384  0.2216 -0.3767  0.2170
 2958poe    c2313893   5.405   0.671   0.368 -0.5997  0.7664  0.0140
 2958poe    c2313894   5.411   0.750   0.236  0.2027  0.1096 -0.3485
 2958poe     o213895   5.299   0.833   0.220 -0.0718 -0.1303  0.3132
 2958poe    c3113896   5.320   0.955   0.287  0.1243  0.1039 -0.1769
 2959poe    c3113897   3.812   5.473   5.695 -0.1812 -0.1290  0.0036
 2959poe     o213898   3.672   5.479   5.705 -0.2006 -0.8706  0.2145
 2959poe    c2313899   3.646   5.441   5.838 -0.2470 -0.5532  0.2958
 2959poe    c2313900   3.495   5.456   5.864 -0.0794 -0.1656  1.1102
 2959poe     o213901   3.456   5.589   5.837  0.1230 -0.3099  0.0258
 2959poe    c2313902   3.316   5.594   5.818  0.0911 -0.4271  0.2164
 2959poe    c2313903   3.259   5.729   5.770 -0.4077 -0.5922  0.3372
 2959poe     o213904   3.264   5.754   5.631  0.4318 -0.4169  0.3941
 2959poe    c2313905   3.209   5.879   5.598  0.6952 -0.1810  0.8452
 2959poe    c2313906   3.242   5.899   5.449 -0.2879  0.7996  0.7419
 2959poe     o213907   3.364   5.962   5.414 -0.0359  0.0504  0.2310
 2959poe    c3113908   3.397   5.926   5.282  0.4877 -0.0210  0.3789
 2960poe    c3113909   1.431   2.721   5.769  0.4623 -0.2861 -0.1492
 2960poe     o213910   1.416   2.628   5.873  0.0606 -0.1157 -0.0514
 2960poe    c2313911   1.479   2.504   5.847 -0.1958 -0.2094 -0.2214
 2960poe    c2313912   1.448   2.394   5.951  0.1972 -0.1174 -0.0059
 2960poe     o213913   1.312   2.367   5.974  0.2409 -0.3803 -0.0558
 2960poe    c2313914   1.304   2.275   6.080 -0.6785 -0.1811  0.0582
 2960poe    c2313915   1.156   2.263   6.123 -0.5055 -0.0244  0.7062
 2960poe     o213916   1.095   2.387   6.152 -0.1922  0.2461  0.2229
 2960poe    c2313917   0.959   2.379   6.189 -0.1762 -0.1110  0.2107
 2960poe    c2313918   0.872   2.435   6.075 -0.1821  0.6164  0.5619
 2960poe     o213919   0.896   2.569   6.040  0.2048  0.3013 -0.4237
 2960poe    c3113920   0.805   2.608   5.940 -0.0121  0.2237 -0.2587
 2961poe    c3113921   3.215   0.475   4.524 -0.2597  0.3791 -0.1509
 2961poe     o213922   3.132   0.589   4.518 -0.4623  0.2448  0.0950
 2961poe    c2313923   3.197   0.678   4.607 -0.1687  0.2196 -0.0906
 2961poe    c2313924   3.118   0.809   4.623 -0.3553  0.0702  0.2377
 2961poe     o213925   2.991   0.795   4.681 -0.3239  0.1554  0.3284
 2961poe    c2313926   2.996   0.775   4.821  0.0546  0.1639  0.3149
 2961poe    c2313927   2.867   0.716   4.880 -0.0831  0.1153 -0.0269
 2961poe     o213928   2.773   0.804   4.823 -0.3462 -0.5363 -0.6173
 2961poe    c2313929   2.639   0.763   4.828 -0.3621 -0.4222  0.0554
 2961poe    c2313930   2.562   0.896   4.834 -0.4470 -0.4562 -0.2636
 2961poe     o213931   2.606   0.983   4.732  0.0597 -0.5355 -0.1138
 2961poe    c3113932   2.572   1.117   4.758  0.7178 -0.2775 -0.5475
 2962poe    c3113933   0.838   1.685   5.013  0.4545 -0.0048  0.4050
 2962poe     o213934   0.813   1.569   4.937 -0.1750 -0.1093  0.7656
 2962poe    c2313935   0.872   1.577   4.810 -0.5951 -0.3319  0.5580
 2962poe    c2313936   0.809   1.459   4.733  0.1275 -0.4272  0.1084
 2962poe     o213937   0.669   1.472   4.743  0.1877  0.1840  0.1969
 2962poe    c2313938   0.609   1.357   4.688  0.1354  0.0594  0.5092
 2962poe    c2313939   0.463   1.356   4.738 -0.1406  0.3536 -0.2807
 2962poe     o213940   0.448   1.390   4.874 -0.1795  0.4444 -0.3073
 2962poe    c2313941   0.315   1.358   4.907 -0.0592  0.0070 -0.2292
 2962poe    c2313942   0.297   1.365   5.060  0.3020 -0.4709 -0.1629
 2962poe     o213943   0.390   1.280   5.123  0.4757 -0.1255  0.0506
 2962poe    c3113944   0.362   1.255   5.259 -0.4489 -0.0587 -0.1162
 2963poe    c3113945   0.270   1.240   0.563 -0.3259  0.2092  0.1815
 2963poe     o213946   0.208   1.139   0.488 -0.1807  0.4567 -0.2734
 2963poe    c2313947   0.071   1.171   0.484 -0.3419 -0.2611 -0.7111
 2963poe    c2313948  -0.019   1.056   0.434 -0.3840 -0.6187  0.1609
 2963poe     o213949  -0.017   1.016   0.298 -0.0936  0.7463 -0.2546
 2963poe    c2313950  -0.090   0.899   0.269  0.6583  0.2213 -0.0541
 2963poe    c2313951  -0.060   0.847   0.128  0.2250 -0.4240  0.0868
 2963poe     o213952   0.078   0.830   0.102  0.2123 -0.4730  0.0503
 2963poe    c2313953   0.104   0.762  -0.019 -0.4722 -0.8043  0.0849
 2963poe    c2313954   0.255   0.768  -0.045 -0.6046  0.5029 -0.4755
 2963poe     o213955   0.304   0.884   0.019 -0.0240  0.2376 -0.4337
 2963poe    c3113956   0.445   0.887   0.013  0.0150  0.3232  0.4373
 2964poe    c3113957   0.943   6.885   0.758  0.2285 -0.8915  0.5638
 2964poe     o213958   0.931   6.771   0.677 -0.3403 -0.1187 -0.4582
 2964poe    c2313959   0.955   6.833   0.553 -0.8936  0.3597 -0.3282
 2964poe    c2313960   0.940   6.745   0.428  0.5223  0.2998 -0.4729
 2964poe     o213961   1.025   6.640   0.470  0.1929  0.2915  0.1786
 2964poe    c2313962   1.114   6.608   0.366  0.1295  0.2308  0.1425
 2964poe    c2313963   1.192   6.481   0.405  0.1529  0.1730 -0.0872
 2964poe     o213964   1.258   6.490   0.530 -0.0070 -0.4019  0.0424
 2964poe    c2313965   1.377   6.415   0.532 -0.0119 -0.3946  0.6127
 2964poe    c2313966   1.453   6.421   0.666  0.7029  0.1653  0.1919
 2964poe     o213967   1.352   6.413   0.765  0.0731  0.4958 -0.4115
 2964poe    c3113968   1.410   6.413   0.894  0.0114 -0.1258 -0.3794
 2965poe    c3113969   2.365   1.487   2.720  0.8385  0.2340 -0.2617
 2965poe     o213970   2.384   1.607   2.791  0.5421  0.2454 -0.2000
 2965poe    c2313971   2.339   1.715   2.713 -0.0562 -0.2151 -0.4951
 2965poe    c2313972   2.342   1.837   2.807  0.0269 -0.4949 -0.1344
 2965poe     o213973   2.473   1.856   2.855  0.1112 -0.7569 -0.2610
 2965poe    c2313974   2.486   1.968   2.940 -0.2597 -0.6262 -0.3752
 2965poe    c2313975   2.622   1.957   3.011 -0.5759  0.0417  0.3325
 2965poe     o213976   2.717   1.929   2.912 -0.4236  1.0598  0.1750
 2965poe    c2313977   2.849   1.970   2.941  0.1897 -0.3890 -0.4272
 2965poe    c2313978   2.949   1.936   2.829  0.0923 -0.3033 -0.5408
 2965poe     o213979   2.957   1.796   2.822 -0.3590 -0.3947  0.5676
 2965poe    c3113980   3.066   1.753   2.744 -0.0994  0.2889  0.5462
 2966poe    c3113981   1.175   6.539   2.764 -0.1547  0.1041  0.0209
 2966poe     o213982   1.126   6.570   2.893  0.2681 -0.1859  0.2552
 2966poe    c2313983   1.035   6.676   2.879  0.4728 -0.0269  0.1174
 2966poe    c2313984   1.070   6.788   2.979 -0.0973 -0.0461  0.3393
 2966poe     o213985   1.130   6.738   3.096  0.4043 -0.1197  0.0516
 2966poe    c2313986   1.164   6.845   3.182  0.3194  0.2374 -0.3578
 2966poe    c2313987   1.243   6.785   3.300 -0.2283  0.4962  0.1399
 2966poe     o213988   1.294   6.658   3.267 -0.0714  0.5772  0.0686
 2966poe    c2313989   1.383   6.612   3.366  0.7300  0.2134 -0.8140
 2966poe    c2313990   1.461   6.481   3.343 -0.1833 -0.4739 -0.0634
 2966poe     o213991   1.534   6.484   3.222  0.2814  0.4973  0.2322
 2966poe    c3113992   1.582   6.351   3.219 -0.0625  0.3629  0.5660
 2967poe    c3113993   5.082   3.766   2.892 -0.0096 -0.3716 -0.1171
 2967poe     o213994   5.014   3.779   2.769  0.4042  0.1209 -0.2956
 2967poe    c2313995   5.050   3.906   2.719  0.3613  0.0447 -0.5185
 2967poe    c2313996   4.983   3.918   2.580 -0.3730 -0.1758 -0.1867
 2967poe     o213997   5.027   4.009   2.483 -0.1915 -0.3729 -0.2914
 2967poe    c2313998   4.959   3.981   2.363 -0.5644  0.0702 -0.1906
 2967poe    c2313999   4.859   4.093   2.331 -0.7567  0.1276  0.6111
 2967poe     o214000   4.924   4.215   2.357  0.1166 -0.1806 -0.0856
 2967poe    c2314001   4.838   4.324   2.386  0.2909 -0.0456 -0.0736
 2967poe    c2314002   4.919   4.455   2.378 -0.2056  0.3125  0.6892
 2967poe     o214003   5.046   4.433   2.436  0.2816  0.4842 -0.2985
 2967poe    c3114004   5.124   4.550   2.448  0.6086  0.1491  0.9130
 2968poe    c3114005   2.179   2.745   0.620 -0.1506 -1.1644  0.2371
 2968poe     o214006   2.064   2.762   0.540 -0.0792 -0.5089  0.2679
 2968poe    c2314007   1.982   2.648   0.539 -0.3426 -0.3214  0.4751
 2968poe    c2314008   1.831   2.677   0.529 -0.3982 -0.6058  0.4581
 2968poe     o214009   1.803   2.748   0.410 -0.1685 -0.7330  0.3290
 2968poe    c2314010   1.667   2.782   0.406 -0.0467 -0.2534  0.1784
 2968poe    c2314011   1.653   2.913   0.326  0.3464 -0.3419 -0.0356
 2968poe     o214012   1.729   2.889   0.210 -0.2318 -0.4398 -0.3938
 2968poe    c2314013   1.707   2.971   0.097  0.3025  0.1383 -0.0819
 2968poe    c2314014   1.784   2.911  -0.022 -0.1193 -0.2021 -0.1835
 2968poe     o214015   1.909   2.864   0.023  0.0422 -0.1637 -0.5851
 2968poe    c3114016   1.988   2.811  -0.081  0.8430 -0.1190 -0.0044
 2969poe    c3114017   0.372   7.223   4.744 -0.3090  0.2518 -0.1317
 2969poe     o214018   0.391   7.259   4.609 -0.7397  0.3518 -0.1668
 2969poe    c2314019   0.267   7.247   4.542 -0.6852 -0.5920 -0.1064
 2969poe    c2314020   0.275   7.275   4.391 -0.7558  0.4446  0.0728
 2969poe     o214021   0.299   7.410   4.360 -0.0240  0.3703  0.2879
 2969poe    c2314022   0.357   7.416   4.232 -0.4544 -0.1225  0.0687
 2969poe    c2314023   0.354   7.556   4.168  0.7255 -0.1960 -0.1676
 2969poe     o214024   0.428   7.641   4.253  0.1557  0.0692  0.0716
 2969poe    c2314025   0.446   7.765   4.190  0.4174 -0.0698 -0.1284
 2969poe    c2314026   0.581   7.812   4.246  0.3971 -0.4402  0.2337
 2969poe     o214027   0.587   7.797   4.386 -0.5699 -0.4984  0.2738
 2969poe    c3114028   0.708   7.850   4.436 -0.1215 -0.2925 -1.0008
 2970poe    c3114029   4.596   1.721   0.466 -0.4210  0.1458  0.4884
 2970poe     o214030   4.510   1.829   0.497  0.0670  0.7377 -0.1779
 2970poe    c2314031   4.404   1.827   0.404 -0.0450 -0.0482 -0.0426
 2970poe    c2314032   4.370   1.935   0.300  0.5646  0.1451 -0.0464
 2970poe     o214033   4.288   2.038   0.353  0.2457 -0.1184 -0.0228
 2970poe    c2314034   4.157   1.987   0.348  0.2502 -0.0911 -0.4797
 2970poe    c2314035   4.045   2.091   0.335  0.3222  0.0247 -0.1804
 2970poe     o214036   4.027   2.189   0.435  0.1836  0.2009 -0.3766
 2970poe    c2314037   3.963   2.123   0.543 -0.0288  0.1673 -0.5232
 2970poe    c2314038   3.937   2.222   0.658  0.2768  0.2623 -0.5352
 2970poe     o214039   4.052   2.248   0.733 -0.0253  0.1444 -0.0282
 2970poe    c3114040   4.015   2.316   0.851 -0.3787 -0.5375  0.2554
 2971poe    c3114041   6.160   3.500   3.092 -0.5743 -0.3813  0.2384
 2971poe     o214042   6.299   3.497   3.114 -0.5473  0.2748  0.1739
 2971poe    c2314043   6.321   3.496   3.254 -0.5778 -0.0880  0.1772
 2971poe    c2314044   6.454   3.424   3.285 -0.2925  0.4356  0.1752
 2971poe     o214045   6.542   3.471   3.186  0.1824  0.3235  0.5424
 2971poe    c2314046   6.675   3.431   3.212 -0.1769 -0.5643  1.0758
 2971poe    c2314047   6.707   3.291   3.157  0.1176 -0.1791  0.2411
 2971poe     o214048   6.613   3.271   3.054  0.3957 -0.0916 -0.0318
 2971poe    c2314049   6.667   3.196   2.948  0.1906 -0.3702  0.0594
 2971poe    c2314050   6.562   3.109   2.878  0.0260  0.0261 -0.1881
 2971poe     o214051   6.455   3.190   2.833 -0.2676 -0.1683  0.1566
 2971poe    c3114052   6.396   3.110   2.733 -0.1483 -0.5930  0.4196
 2972poe    c3114053   4.406   2.097   0.951  0.4084 -0.8852  0.1151
 2972poe     o214054   4.448   1.999   1.043  0.1414 -0.7940  0.3387
 2972poe    c2314055   4.369   1.975   1.157 -0.3162 -0.0210  0.1916
 2972poe    c2314056   4.400   1.828   1.191  0.2016 -0.0338 -0.3141
 2972poe     o214057   4.538   1.803   1.195  0.2351  0.2634  0.5318
 2972poe    c2314058   4.569   1.675   1.246  0.9531  0.2346  0.0438
 2972poe    c2314059   4.718   1.652   1.215  0.7158 -0.5044 -0.5807
 2972poe     o214060   4.734   1.677   1.077 -0.0373  0.0104 -0.5822
 2972poe    c2314061   4.859   1.626   1.036  0.3652  0.3384  0.1967
 2972poe    c2314062   4.984   1.707   1.075  0.0057  0.3587  1.3192
 2972poe     o214063   4.979   1.837   1.022 -0.0920 -0.1584  0.0310
 2972poe    c3114064   5.108   1.892   1.036 -0.0620 -0.2904  0.2840
 2973poe    c3114065   4.688   6.418   4.580 -0.3197 -0.3842 -0.2467
 2973poe     o214066   4.672   6.419   4.440 -0.4650 -0.1067 -0.2296
 2973poe    c2314067   4.535   6.414   4.405 -0.4659  0.6050 -0.3409
 2973poe    c2314068   4.509   6.402   4.254 -0.5890 -0.6248 -0.2267
 2973poe     o214069   4.608   6.311   4.210  0.1792  0.1859 -0.1966
 2973poe    c2314070   4.621   6.291   4.072  0.1942 -0.2267 -0.1349
 2973poe    c2314071   4.744   6.202   4.046  0.3512 -0.0251 -0.0809
 2973poe     o214072   4.835   6.247   4.144 -0.2068 -0.0968  0.4792
 2973poe    c2314073   4.950   6.169   4.168  0.0048  0.0719  0.0241
 2973poe    c2314074   5.041   6.247   4.265 -0.3857  0.7073 -0.1155
 2973poe     o214075   4.966   6.287   4.378 -0.0948 -0.0383  0.3432
 2973poe    c3114076   5.048   6.358   4.468  0.7889 -0.0620 -0.4262
 2974poe    c3114077   6.782   4.710   5.048 -0.2280  0.2864  0.1409
 2974poe     o214078   6.857   4.825   5.019 -0.0661  0.0530 -0.3799
 2974poe    c2314079   6.968   4.827   5.106 -0.4445  0.4480  0.1001
 2974poe    c2314080   7.036   4.964   5.125 -0.3597  0.4038  0.1187
 2974poe     o214081   7.060   4.997   4.990  0.3685  0.2196  0.2016
 2974poe    c2314082   7.114   5.127   4.985  0.0311  0.3465 -0.2082
 2974poe    c2314083   7.156   5.152   4.838  0.1979  0.3366 -0.1628
 2974poe     o214084   7.053   5.113   4.751 -0.2723 -0.1238  0.5839
 2974poe    c2314085   7.075   5.152   4.617 -0.0755 -0.2486  0.5799
 2974poe    c2314086   6.984   5.078   4.517  0.3225  0.3165 -0.2068
 2974poe     o214087   6.845   5.079   4.536  0.3292  0.3557 -0.1607
 2974poe    c3114088   6.777   5.045   4.418  0.5428  0.1013 -0.2103
 2975poe    c3114089   2.443   1.902   3.690 -0.1042 -0.4010  0.0652
 2975poe     o214090   2.379   1.826   3.590 -0.2716  0.0647 -0.1831
 2975poe    c2314091   2.244   1.803   3.625 -0.1333  0.0659  0.3657
 2975poe    c2314092   2.179   1.685   3.551 -0.0073 -0.0918  0.5077
 2975poe     o214093   2.232   1.690   3.420  0.0876  0.3111  0.5620
 2975poe    c2314094   2.192   1.581   3.341  0.2895  0.4527  0.2620
 2975poe    c2314095   2.308   1.569   3.241  0.2942  0.3430  0.2796
 2975poe     o214096   2.429   1.560   3.313  0.0982 -0.1950  0.5438
 2975poe    c2314097   2.538   1.529   3.229  0.2013  0.2849  0.4994
 2975poe    c2314098   2.648   1.436   3.283 -0.2171 -0.3767  0.2156
 2975poe     o214099   2.685   1.469   3.415  0.1121 -0.3643  0.1211
 2975poe    c3114100   2.813   1.426   3.454  0.2798  0.1970  0.2071
 2976poe    c3114101   2.886   6.652   5.082 -0.0192  0.2162  0.0307
 2976poe     o214102   2.832   6.525   5.112  0.1412  0.1045 -0.1516
 2976poe    c2314103   2.848   6.490   5.248  0.2588 -0.1651 -0.2341
 2976poe    c2314104   2.783   6.352   5.264  0.3660 -0.1660  0.2185
 2976poe     o214105   2.664   6.348   5.188  0.0859 -0.3737  0.6616
 2976poe    c2314106   2.590   6.232   5.218 -0.5222 -0.2349 -0.2542
 2976poe    c2314107   2.505   6.209   5.092 -0.7740  0.4422 -0.2115
 2976poe     o214108   2.583   6.220   4.975 -0.0959 -0.6322  0.1198
 2976poe    c2314109   2.522   6.146   4.871 -0.5983  0.0175 -0.0620
 2976poe    c2314110   2.489   6.221   4.741 -0.4235  0.3576  0.0878
 2976poe     o214111   2.601   6.263   4.665 -0.1414 -0.4699  0.0331
 2976poe    c3114112   2.558   6.285   4.533  0.7751 -0.9945 -0.3633
 2977poe    c3114113   0.974   7.043   5.043  0.2637  0.5147 -0.0971
 2977poe     o214114   0.890   7.156   5.034 -0.0289  0.3053 -0.0156
 2977poe    c2314115   0.814   7.144   4.916 -0.3472 -0.1047  0.2301
 2977poe    c2314116   0.734   7.272   4.887 -0.2786 -0.0591  0.2428
 2977poe     o214117   0.818   7.382   4.858  0.1460 -0.2685  0.6712
 2977poe    c2314118   0.731   7.493   4.863  0.0539 -0.3174  0.2237
 2977poe    c2314119   0.800   7.626   4.827 -0.1379 -0.4038 -0.4732
 2977poe     o214120   0.859   7.602   4.701  0.1272 -0.1645 -0.3932
 2977poe    c2314121   0.953   7.705   4.679 -0.2331  0.2641  0.0318
 2977poe    c2314122   1.036   7.653   4.560 -0.0700 -0.3812  0.4231
 2977poe     o214123   1.138   7.564   4.600  0.1682 -0.4034 -0.2174
 2977poe    c3114124   1.238   7.549   4.502  0.0658  0.2348 -0.4274
 2978poe    c3114125   3.070   2.716   2.292  0.0368 -0.7536 -0.1539
 2978poe     o214126   3.210   2.728   2.280  0.0048  0.0164  0.1595
 2978poe    c2314127   3.257   2.857   2.311 -0.5800  0.2175  0.2094
 2978poe    c2314128   3.410   2.866   2.321 -0.5325 -0.4146  0.0734
 2978poe     o214129   3.479   2.873   2.199 -0.0121  0.0221  0.3861
 2978poe    c2314130   3.617   2.888   2.221  0.1230  0.3081 -0.5849
 2978poe    c2314131   3.668   3.017   2.154  0.2995  0.4306 -0.2161
 2978poe     o214132   3.627   3.140   2.210 -0.0081  0.1585  0.1588
 2978poe    c2314133   3.730   3.204   2.282  0.1691 -0.2005  0.2269
 2978poe    c2314134   3.695   3.348   2.322 -0.0639 -0.1480 -0.1501
 2978poe     o214135   3.714   3.427   2.208 -0.1801 -0.2906 -0.2686
 2978poe    c3114136   3.649   3.550   2.232  0.4867  0.1392 -0.6152
 2979poe    c3114137   3.878   2.648   5.670 -0.2455  0.2378 -0.0016
 2979poe     o214138   3.971   2.601   5.765  0.2032  0.1893 -0.4582
 2979poe    c2314139   4.052   2.491   5.733 -0.3958 -0.5601  0.5239
 2979poe    c2314140   4.167   2.480   5.836 -0.0926 -0.9881  0.1453
 2979poe     o214141   4.133   2.457   5.971 -0.1795 -0.6290  0.1875
 2979poe    c2314142   4.244   2.464   6.057 -0.0629 -0.0518 -0.0062
 2979poe    c2314143   4.206   2.394   6.189  0.0423  0.1230  0.1172
 2979poe     o214144   4.126   2.485   6.261 -0.1993  0.1214 -0.1498
 2979poe    c2314145   4.134   2.464   6.400 -0.2500  0.4372 -0.0990
 2979poe    c2314146   3.993   2.469   6.462 -0.2389 -0.4611  0.0112
 2979poe     o214147   3.939   2.599   6.467  0.0970 -0.3433  0.6916
 2979poe    c3114148   3.798   2.596   6.471  0.0235  0.3456 -0.6605
 2980poe    c3114149   3.502   1.100   3.035 -0.2798 -0.1033 -0.0986
 2980poe     o214150   3.467   1.225   3.091  0.5066  0.3816 -0.6617
 2980poe    c2314151   3.343   1.254   3.031  0.1223 -0.1326 -0.1218
 2980poe    c2314152   3.260   1.342   3.127  0.3095 -0.4680  0.3534
 2980poe     o214153   3.332   1.462   3.142  0.2289 -0.1740 -1.3635
 2980poe    c2314154   3.259   1.582   3.138  0.2764 -0.1212 -0.7417
 2980poe    c2314155   3.366   1.689   3.162 -0.0826  0.1748 -0.4364
 2980poe     o214156   3.473   1.680   3.070  0.2004 -0.2841 -0.0654
 2980poe    c2314157   3.558   1.789   3.095 -0.7351  0.6684 -0.9216
 2980poe    c2314158   3.663   1.767   2.984  0.2576 -0.1239  0.1503
 2980poe     o214159   3.716   1.636   2.974 -0.3678 -0.3565 -0.2182
 2980poe    c3114160   3.854   1.649   2.947 -0.5894  0.8060 -0.8619
 2981poe    c3114161   2.211   3.886   2.299 -0.2965 -0.0157  0.6831
 2981poe     o214162   2.350   3.881   2.318 -0.1373  0.3923 -0.3045
 2981poe    c2314163   2.386   3.890   2.454 -0.0986  0.2614 -0.3051
 2981poe    c2314164   2.528   3.841   2.486 -0.1064  0.1762 -0.4019
 2981poe     o214165   2.602   3.885   2.374  0.2861 -0.1406 -0.2712
 2981poe    c2314166   2.739   3.885   2.408  0.1504 -0.2519  0.2811
 2981poe    c2314167   2.826   3.975   2.319 -0.4042  0.0435  0.0350
 2981poe     o214168   2.806   3.938   2.184 -0.6558  0.4783 -0.0508
 2981poe    c2314169   2.874   4.030   2.102 -0.3418  0.5830  0.3267
 2981poe    c2314170   2.819   4.047   1.960 -0.0061 -0.2352  0.0923
 2981poe     o214171   2.702   4.125   1.955  0.2135  0.0779 -0.2898
 2981poe    c3114172   2.674   4.208   1.844 -0.1939  0.4588  0.0926
 2982poe    c3114173   0.095   0.732   4.610  0.2085 -0.0952 -0.5934
 2982poe     o214174   0.058   0.598   4.588  0.0525 -0.1929  0.2171
 2982poe    c2314175   0.067   0.555   4.454  0.0180 -0.0330  0.1639
 2982poe    c2314176   0.041   0.404   4.436 -0.4471  0.0927 -0.2380
 2982poe     o214177  -0.097   0.379   4.417 -0.3894 -0.0943 -0.4064
 2982poe    c2314178  -0.134   0.247   4.451 -0.5932  0.1500  0.3366
 2982poe    c2314179  -0.261   0.205   4.376 -0.1641 -0.4382 -0.0740
 2982poe     o214180  -0.366   0.278   4.435  0.4302 -0.2023  0.7010
 2982poe    c2314181  -0.498   0.238   4.404  0.4069 -0.3543  0.9902
 2982poe    c2314182  -0.532   0.091   4.432  0.0818 -0.4975 -0.1282
 2982poe     o214183  -0.505   0.048   4.563 -0.3514  0.1715  0.1829
 2982poe    c3114184  -0.514  -0.093   4.559 -0.0542  0.1538  0.1381
 2983poe    c3114185   0.138   2.775   0.709  0.2117  0.0717  0.1302
 2983poe     o214186   0.016   2.781   0.779  0.2621 -0.6072  0.2763
 2983poe    c2314187   0.040   2.703   0.894  0.0235 -0.1508  0.6359
 2983poe    c2314188  -0.054   2.719   1.015 -0.3936  0.2254  0.2665
 2983poe     o214189  -0.180   2.670   0.978  0.0698 -1.3241  0.6756
 2983poe    c2314190  -0.275   2.739   1.057  0.2400 -0.2270 -0.0666
 2983poe    c2314191  -0.421   2.715   1.017  0.0357  0.8093  0.0183
 2983poe     o214192  -0.450   2.731   0.880  0.0884 -0.3182 -0.1362
 2983poe    c2314193  -0.586   2.712   0.846 -0.0572  0.3651  0.0488
 2983poe    c2314194  -0.617   2.741   0.699  0.2492 -0.4772 -0.1878
 2983poe     o214195  -0.570   2.868   0.661 -0.2937 -0.3060 -0.2983
 2983poe    c3114196  -0.593   2.901   0.525  0.4863 -0.1376 -0.3929
 2984poe    c3114197   5.200   6.723   6.603 -0.3675 -0.3633 -0.4502
 2984poe     o214198   5.267   6.633   6.517  0.0387 -0.1978 -0.3072
 2984poe    c2314199   5.207   6.506   6.514  0.2119 -0.2796 -0.2511
 2984poe    c2314200   5.316   6.402   6.481 -0.3412 -0.7978 -0.4584
 2984poe     o214201   5.381   6.428   6.359  0.4811 -0.1125  0.1175
 2984poe    c2314202   5.437   6.315   6.297  0.4725 -0.3460  0.5321
 2984poe    c2314203   5.527   6.359   6.179  0.4029 -0.6882  0.3500
 2984poe     o214204   5.606   6.465   6.227 -0.0449 -0.1262 -0.1395
 2984poe    c2314205   5.709   6.480   6.132 -0.0153 -0.2143 -0.1208
 2984poe    c2314206   5.806   6.579   6.199  0.0276 -0.4416  0.1546
 2984poe     o214207   5.726   6.694   6.211  0.3806 -0.1637 -0.1388
 2984poe    c3114208   5.805   6.805   6.249  0.1066 -0.1796  0.5009
 2985poe    c3114209   6.319   2.055   1.705 -0.3711 -0.9237 -0.5715
 2985poe     o214210   6.219   2.146   1.667 -0.0561 -0.0787  0.5628
 2985poe    c2314211   6.103   2.081   1.621  0.1800 -0.0855 -0.0288
 2985poe    c2314212   6.013   2.200   1.581 -0.2257 -0.4070 -0.0842
 2985poe     o214213   5.985   2.271   1.699 -0.2831 -0.3332 -0.1431
 2985poe    c2314214   5.913   2.391   1.680  0.3634  0.1007  0.1070
 2985poe    c2314215   5.920   2.473   1.810  0.0381 -0.0821  0.2412
 2985poe     o214216   6.035   2.553   1.820  0.0005 -0.0020  0.0259
 2985poe    c2314217   6.034   2.625   1.941 -0.0050 -0.0548  0.0568
 2985poe    c2314218   6.145   2.729   1.968  0.1596 -0.1797 -0.1323
 2985poe     o214219   6.145   2.835   1.876 -0.1451 -0.2445 -0.2089
 2985poe    c3114220   6.237   2.934   1.917  0.1217 -0.3805 -0.4836
 2986poe    c3114221   3.689   6.941   1.235 -0.2619 -0.3488  0.6061
 2986poe     o214222   3.767   7.051   1.277 -0.0501 -0.2443 -0.0506
 2986poe    c2314223   3.851   7.082   1.168 -0.3025  0.5621 -0.0210
 2986poe    c2314224   3.955   7.186   1.211 -0.0188  0.2577  0.0318
 2986poe     o214225   3.888   7.301   1.259 -0.1951  0.3307 -0.3797
 2986poe    c2314226   3.991   7.382   1.311 -0.0910 -0.3388  0.4902
 2986poe    c2314227   3.932   7.498   1.394  0.2607 -0.0096  0.2835
 2986poe     o214228   3.874   7.436   1.506 -0.5123  0.0786 -0.0619
 2986poe    c2314229   3.794   7.532   1.572 -0.0659  0.1911  0.3193
 2986poe    c2314230   3.683   7.487   1.668 -0.0433 -0.1259  0.1973
 2986poe     o214231   3.568   7.453   1.594  0.5092 -0.6111 -0.4521
 2986poe    c3114232   3.467   7.405   1.680  0.3082  0.4324 -0.0898
 2987poe    c3114233   1.992   5.770   2.524  0.2997 -0.0712 -0.0952
 2987poe     o214234   2.108   5.702   2.482  0.5011  0.0208  0.3076
 2987poe    c2314235   2.109   5.639   2.356 -0.4514  0.3068  0.1435
 2987poe    c2314236   2.054   5.706   2.229 -0.0743 -0.2891 -0.3413
 2987poe     o214237   2.144   5.804   2.183 -0.5440  0.2918 -0.0361
 2987poe    c2314238   2.117   5.872   2.062 -0.1096  0.8519  0.1765
 2987poe    c2314239   2.215   5.975   2.003  0.2333  0.0356 -0.6965
 2987poe     o214240   2.329   5.912   1.948  0.2478 -0.2437 -0.3501
 2987poe    c2314241   2.413   5.996   1.872  0.6617 -0.2263  0.1188
 2987poe    c2314242   2.508   6.072   1.966  0.4347  0.1585  0.0374
 2987poe     o214243   2.620   5.999   2.010  0.6053 -0.0090 -0.6610
 2987poe    c3114244   2.664   6.040   2.138  0.2119 -0.4650 -0.3740
 2988poe    c3114245   1.466   4.784   5.689 -0.2268 -0.0658  0.3082
 2988poe     o214246   1.334   4.814   5.726 -0.2464 -0.0960  0.2628
 2988poe    c2314247   1.326   4.938   5.793 -0.0884  0.1775 -0.2205
 2988poe    c2314248   1.186   5.000   5.802 -0.1385  0.0153  0.1499
 2988poe     o214249   1.124   5.010   5.675 -0.7013 -0.5938  0.3679
 2988poe    c2314250   0.993   5.062   5.683 -0.6236 -0.3858  0.2905
 2988poe    c2314251   0.927   5.038   5.546  0.2957  0.4224 -0.3053
 2988poe     o214252   0.917   4.900   5.517  0.5374  0.4374 -0.4644
 2988poe    c2314253   0.842   4.867   5.403 -0.5646  0.2013  0.3151
 2988poe    c2314254   0.829   4.715   5.386 -0.6360  0.2687 -0.2760
 2988poe     o214255   0.956   4.657   5.363 -0.8960 -0.0595 -0.9129
 2988poe    c3114256   0.942   4.518   5.352  0.0393 -0.2771  0.4483
 2989poe    c3114257   2.218   6.960   1.584  0.0728 -0.1255  0.3880
 2989poe     o214258   2.123   6.928   1.683 -0.5207  0.1711 -0.0751
 2989poe    c2314259   2.055   6.805   1.668 -0.0104 -0.1984  0.5662
 2989poe    c2314260   1.967   6.784   1.792  0.0275  0.7242  0.7543
 2989poe     o214261   1.848   6.861   1.791 -0.1391  0.4626 -0.3694
 2989poe    c2314262   1.804   6.885   1.922  0.0666 -0.3251 -0.1479
 2989poe    c2314263   1.686   6.985   1.929 -0.2271 -0.6848  0.1378
 2989poe     o214264   1.712   7.116   1.884 -0.2995 -0.6752  0.1243
 2989poe    c2314265   1.597   7.197   1.901  0.1131  0.0086 -0.2833
 2989poe    c2314266   1.584   7.337   1.840 -0.0068  0.0775 -0.1005
 2989poe     o214267   1.692   7.409   1.896 -0.0789 -0.2085  0.4027
 2989poe    c3114268   1.688   7.550   1.887  0.0499 -0.1910  0.6129
 2990poe    c3114269   4.481   6.221   5.235  0.6171 -0.1653 -0.7319
 2990poe     o214270   4.600   6.171   5.292  0.1144 -0.4531  0.0827
 2990poe    c2314271   4.580   6.116   5.420 -0.4109 -0.2386  0.0956
 2990poe    c2314272   4.707   6.103   5.506 -0.2575  0.0768 -0.0827
 2990poe     o214273   4.800   6.001   5.476 -0.1441  0.1935 -0.1312
 2990poe    c2314274   4.891   5.993   5.582 -0.4942  0.0093  0.1578
 2990poe    c2314275   5.002   5.887   5.574 -0.7864 -0.2407 -0.6502
 2990poe     o214276   5.104   5.913   5.480  0.0388  0.0329  0.3006
 2990poe    c2314277   5.199   5.808   5.478  0.1473  0.1375 -0.1188
 2990poe    c2314278   5.309   5.834   5.582  0.1496  0.0169 -0.0916
 2990poe     o214279   5.396   5.935   5.535 -0.6238  0.6916 -0.0928
 2990poe    c3114280   5.499   5.981   5.618  0.0890  0.2219 -0.6978
 2991poe    c3114281   2.087   3.686   3.244 -0.1967  0.0650  0.1836
 2991poe     o214282   1.962   3.751   3.247 -0.0360  0.3890 -0.0662
 2991poe    c2314283   1.935   3.794   3.379 -0.1746 -0.7006  0.2722
 2991poe    c2314284   1.797   3.857   3.403  0.0763 -0.0815  0.0992
 2991poe     o214285   1.770   3.985   3.349  0.1586 -0.2266 -0.2817
 2991poe    c2314286   1.639   4.028   3.378  0.1881  0.0175 -0.5079
 2991poe    c2314287   1.670   4.178   3.393 -0.1961  0.0408  0.0681
 2991poe     o214288   1.689   4.230   3.263  0.0496  0.0952  0.1273
 2991poe    c2314289   1.804   4.312   3.262  0.3293 -0.2921 -0.0470
 2991poe    c2314290   1.835   4.346   3.115 -0.0938  0.2506 -0.0160
 2991poe     o214291   1.894   4.236   3.049 -0.1345  0.1074  0.1825
 2991poe    c3114292   1.978   4.281   2.945  0.6240 -0.3672  0.5855
 2992poe    c3114293   3.156   5.401   0.813  0.8981  0.0658 -0.1070
 2992poe     o214294   3.220   5.345   0.926 -0.1286 -0.6236  0.1498
 2992poe    c2314295   3.359   5.328   0.910 -0.1680 -0.9616  0.1670
 2992poe    c2314296   3.419   5.283   1.044  0.6262  0.2157  0.2227
 2992poe     o214297   3.390   5.368   1.153 -0.5377 -0.0232  0.1173
 2992poe    c2314298   3.457   5.308   1.262  0.0393  0.8219  0.2411
 2992poe    c2314299   3.408   5.372   1.393 -0.4400  0.1633  0.3905
 2992poe     o214300   3.274   5.339   1.420 -0.7286  0.7307 -0.3336
 2992poe    c2314301   3.270   5.247   1.526  0.0244 -0.1839 -1.0767
 2992poe    c2314302   3.131   5.188   1.555  0.0890  0.0306 -0.3120
 2992poe     o214303   3.071   5.141   1.437  0.2729 -0.0187 -0.3849
 2992poe    c3114304   2.947   5.077   1.453  0.2156  0.1811 -0.0297
 2993poe    c3114305   2.838   7.178   4.414  0.1311  0.1800  0.3470
 2993poe     o214306   2.706   7.147   4.454  0.0055  0.0608 -0.1569
 2993poe    c2314307   2.682   7.139   4.592  0.2565  0.2781 -0.0991
 2993poe    c2314308   2.664   6.996   4.647  0.4094  0.2994  0.0050
 2993poe     o214309   2.552   6.928   4.597  0.6731 -0.4058  0.3666
 2993poe    c2314310   2.538   6.799   4.653 -0.2477 -0.4535  0.0507
 2993poe    c2314311   2.457   6.703   4.565 -0.7480 -0.2275  0.2654
 2993poe     o214312   2.358   6.790   4.515  0.0375  0.4070 -0.1865
 2993poe    c2314313   2.253   6.727   4.446  0.0235 -0.1505  0.3357
 2993poe    c2314314   2.140   6.824   4.406 -0.1990 -0.4818  0.1556
 2993poe     o214315   2.211   6.931   4.347  0.0553 -0.5395  0.3561
 2993poe    c3114316   2.119   7.022   4.291  0.5861 -0.0992  0.1944
 2994poe    c3114317   2.797   4.002   6.605  0.4826 -0.1536  0.2048
 2994poe     o214318   2.923   4.041   6.557  0.2589 -0.1562 -0.3962
 2994poe    c2314319   3.023   4.033   6.656  0.2170 -0.2551 -0.3617
 2994poe    c2314320   3.150   4.117   6.634  0.1979 -0.2917 -0.6105
 2994poe     o214321   3.103   4.248   6.613 -0.1211 -0.3148 -0.0621
 2994poe    c2314322   3.203   4.334   6.564  0.0950 -0.5175  0.0198
 2994poe    c2314323   3.137   4.473   6.554  0.0008 -0.5343  0.4278
 2994poe     o214324   3.024   4.463   6.470 -0.2861  0.4314  0.6863
 2994poe    c2314325   2.996   4.597   6.435  0.0351  0.3592  0.1222
 2994poe    c2314326   2.871   4.595   6.345  0.5156 -0.5118 -0.5411
 2994poe     o214327   2.745   4.567   6.403  0.5224 -0.3912 -0.4685
 2994poe    c3114328   2.638   4.601   6.319  0.2664  0.0150  0.0173
 2995poe    c3114329   0.239   1.743   6.462  0.2565 -0.4785 -0.0361
 2995poe     o214330   0.135   1.648   6.458 -0.5482  0.3915 -0.3374
 2995poe    c2314331   0.083   1.624   6.587 -0.3378  0.4190 -0.2477
 2995poe    c2314332  -0.013   1.504   6.578  0.1896 -0.0401  0.1421
 2995poe     o214333  -0.139   1.552   6.535  0.1114 -0.3963 -0.0298
 2995poe    c2314334  -0.247   1.503   6.612  0.2679 -0.1533  0.3508
 2995poe    c2314335  -0.385   1.560   6.574  0.2353 -0.2789  0.2769
 2995poe     o214336  -0.407   1.697   6.602  0.3071 -0.0679 -0.6558
 2995poe    c2314337  -0.466   1.764   6.493  0.0515  0.4127 -0.2287
 2995poe    c2314338  -0.619   1.742   6.495  0.1921 -0.5718  0.4301
 2995poe     o214339  -0.676   1.800   6.610  0.0850  0.0959  0.0452
 2995poe    c3114340  -0.797   1.746   6.659  0.1547 -0.1676 -0.0686
 2996poe    c3114341   5.424   4.732   2.555 -0.0690  0.2488 -0.6120
 2996poe     o214342   5.542   4.681   2.496 -0.0542 -0.1260 -0.2676
 2996poe    c2314343   5.617   4.772   2.419 -0.5968  0.0770 -0.5615
 2996poe    c2314344   5.695   4.686   2.318  0.4489  0.0257  0.2698
 2996poe     o214345   5.737   4.569   2.385 -0.1153 -0.2066  0.2233
 2996poe    c2314346   5.789   4.481   2.289 -0.4098 -0.4595  0.2937
 2996poe    c2314347   5.833   4.351   2.360  0.4696  0.1242  0.8380
 2996poe     o214348   5.725   4.300   2.435  0.0874 -0.0721  0.1586
 2996poe    c2314349   5.734   4.164   2.472  0.3614 -0.0347  0.2273
 2996poe    c2314350   5.609   4.129   2.555  0.0931 -0.0189 -0.1668
 2996poe     o214351   5.621   4.173   2.688  0.1744 -0.0369 -0.1682
 2996poe    c3114352   5.569   4.078   2.778 -0.9899  0.8418  0.1140
 2997poe    c3114353   2.840   1.271   6.613 -0.2755 -0.1161 -0.0871
 2997poe     o214354   2.781   1.180   6.702 -0.6302  0.1826 -0.0123
 2997poe    c2314355   2.719   1.243   6.812 -0.3353  0.0371  0.2405
 2997poe    c2314356   2.585   1.172   6.840 -0.5433  0.0223 -0.7655
 2997poe     o214357   2.595   1.032   6.836 -0.0161  0.0138  0.4900
 2997poe    c2314358   2.469   0.971   6.847  0.0536 -0.2236  0.0137
 2997poe    c2314359   2.467   0.817   6.836  0.4247 -0.2697  0.5776
 2997poe     o214360   2.497   0.783   6.703  0.3940  0.0104  0.4974
 2997poe    c2314361   2.476   0.648   6.669  0.9409  0.0435  0.0155
 2997poe    c2314362   2.488   0.626   6.517  0.3879 -0.0915 -0.0124
 2997poe     o214363   2.611   0.661   6.457  0.5615 -0.0080  0.3858
 2997poe    c3114364   2.633   0.583   6.341 -0.4919  0.4264 -0.1218
 2998poe    c3114365   3.717   1.201   0.070  0.6340  0.3537 -0.1204
 2998poe     o214366   3.750   1.169   0.204  0.2247  0.4871  0.0170
 2998poe    c2314367   3.724   1.282   0.283  0.1363  0.3316  0.2097
 2998poe    c2314368   3.789   1.268   0.422  0.3097 -0.1578  0.0792
 2998poe     o214369   3.730   1.182   0.517 -0.2636 -0.2830 -0.3892
 2998poe    c2314370   3.658   1.252   0.616  0.2582 -0.2820 -0.0097
 2998poe    c2314371   3.649   1.188   0.756 -0.3673  0.1259  0.1432
 2998poe     o214372   3.782   1.151   0.788 -0.3695 -0.0989 -0.1017
 2998poe    c2314373   3.784   1.086   0.913 -1.0211 -0.6075 -0.3542
 2998poe    c2314374   3.926   1.040   0.949 -0.8514  0.0577 -0.1620
 2998poe     o214375   3.954   0.924   0.873 -0.5210 -0.0524  0.1241
 2998poe    c3114376   4.078   0.862   0.899 -0.2805  0.3526 -0.0440
 2999poe    c3114377   0.524   1.712   0.665 -0.2101  0.3004  0.0468
 2999poe     o214378   0.597   1.621   0.744 -0.6158  0.1351  0.2337
 2999poe    c2314379   0.651   1.521   0.661  0.4625  0.1708  0.8792
 2999poe    c2314380   0.606   1.378   0.699  0.5779 -0.0577  0.1653
 2999poe     o214381   0.650   1.347   0.829 -0.7630 -0.9341  0.4287
 2999poe    c2314382   0.779   1.289   0.823 -0.0253  0.6434  0.3676
 2999poe    c2314383   0.810   1.225   0.959  0.3752 -0.4044 -0.2073
 2999poe     o214384   0.842   1.310   1.067 -1.1845 -0.1473  0.0861
 2999poe    c2314385   0.891   1.241   1.180  0.1154 -0.0148 -0.3725
 2999poe    c2314386   0.918   1.337   1.297 -0.0673 -0.5347  0.0959
 2999poe     o214387   1.038   1.405   1.270 -0.3042  0.2438  0.9535
 2999poe    c3114388   1.076   1.486   1.379  0.5952  0.7901  0.2400
 3000poe    c3114389   3.300   7.125   0.887 -0.6411 -0.2688 -0.2796
 3000poe     o214390   3.222   7.193   0.983 -0.1749  0.2510 -0.2638
 3000poe    c2314391   3.101   7.128   1.016 -0.2363  0.4270 -0.1373
 3000poe    c2314392   3.087   7.143   1.168 -0.1943 -0.4636 -0.0385
 3000poe     o214393   3.109   7.277   1.205 -0.0554 -0.4583 -0.1425
 3000poe    c2314394   3.118   7.297   1.345 -0.4777  0.4881 -0.2452
 3000poe    c2314395   3.141   7.449   1.361 -0.0088  0.4077 -0.1381
 3000poe     o214396   3.256   7.479   1.286  0.2674 -0.6793 -0.1619
 3000poe    c2314397   3.323   7.600   1.311 -0.0591 -0.4874 -0.2163
 3000poe    c2314398   3.441   7.633   1.216  0.0316  0.3012  0.1574
 3000poe     o214399   3.388   7.642   1.086  0.6088  0.3055 -0.0778
 3000poe    c3114400   3.491   7.639   0.989  0.6786 -0.4010  0.0136
 3001poe    c3114401   1.242   0.119   6.527 -0.4536  0.2166  0.0450
 3001poe     o214402   1.241   0.153   6.664  0.1039 -0.6362  0.2689
 3001poe    c2314403   1.120   0.122   6.729 -0.3119 -0.2146 -0.2970
 3001poe    c2314404   1.103   0.209   6.854 -0.0236 -0.7997  0.1533
 3001poe     o214405   1.182   0.153   6.958 -0.1192 -0.6902  0.2848
 3001poe    c2314406   1.166   0.234   7.072  0.8947  0.7460 -0.5572
 3001poe    c2314407   1.288   0.218   7.166  0.2930  0.3709  0.1693
 3001poe     o214408   1.404   0.274   7.109  0.6831 -0.7266 -0.1425
 3001poe    c2314409   1.511   0.302   7.197  0.3697 -0.0006  0.0190
 3001poe    c2314410   1.614   0.191   7.228 -0.0774 -0.3116  0.4153
 3001poe     o214411   1.662   0.122   7.115  0.1340 -0.2264  0.4535
 3001poe    c3114412   1.792   0.067   7.122  0.3994  0.3559  0.1758
 3002poe    c3114413   4.165   0.342   3.988 -0.4778 -0.1505  0.8530
 3002poe     o214414   4.118   0.213   4.021 -0.4044 -0.3939  0.0286
 3002poe    c2314415   4.200   0.128   4.097  0.1163  0.5037  0.4737
 3002poe    c2314416   4.334   0.087   4.033 -0.1838  0.3290 -0.0400
 3002poe     o214417   4.322  -0.004   3.926  0.7367  0.2512 -0.0856
 3002poe    c2314418   4.439  -0.073   3.887  0.1184 -0.6755 -0.3417
 3002poe    c2314419   4.495  -0.184   3.978  0.0595  0.1770  0.7499
 3002poe     o214420   4.409  -0.294   3.954  0.0037  0.4501 -0.3687
 3002poe    c2314421   4.385  -0.375   4.067  0.0853  0.5548 -0.2751
 3002poe    c2314422   4.332  -0.513   4.025 -0.1927  0.5581  0.0587
 3002poe     o214423   4.419  -0.581   3.937 -0.6322  0.3891 -0.2508
 3002poe    c3114424   4.366  -0.688   3.863 -0.5328  0.3983 -0.3367
 3003poe    c3114425   0.499   7.088   1.383  0.2858  0.3952 -0.4896
 3003poe     o214426   0.520   7.084   1.243  0.2501 -0.0884 -0.4843
 3003poe    c2314427   0.587   6.962   1.219  0.4247 -0.1628  0.3265
 3003poe    c2314428   0.622   6.949   1.069 -0.0789  0.7531  0.1192
 3003poe     o214429   0.514   6.933   0.980 -0.1961 -0.2236  0.4172
 3003poe    c2314430   0.562   6.934   0.847  0.2768 -0.4665  0.5864
 3003poe    c2314431   0.441   6.938   0.752  0.3983 -0.1903  0.4442
 3003poe     o214432   0.372   7.056   0.788  0.0188 -0.3661  0.2985
 3003poe    c2314433   0.294   7.086   0.674  0.0737 -0.0593  0.3409
 3003poe    c2314434   0.230   7.223   0.701 -0.5052 -0.2892  0.1307
 3003poe     o214435   0.169   7.207   0.827 -0.1056 -0.0963  0.3493
 3003poe    c3114436   0.105   7.324   0.874 -0.0972  0.2378 -0.4484
 3004poe    c3114437   6.970   4.211   1.791 -0.5008 -0.1768  0.0214
 3004poe     o214438   7.041   4.325   1.834 -0.6098 -0.1107  0.0280
 3004poe    c2314439   7.126   4.375   1.734  0.1677 -0.3177  0.5685
 3004poe    c2314440   7.130   4.529   1.732  0.4590 -0.3291  0.0629
 3004poe     o214441   7.009   4.590   1.691  0.8065  0.5120  0.2840
 3004poe    c2314442   6.981   4.590   1.553 -0.0763 -0.2368  0.4565
 3004poe    c2314443   6.847   4.658   1.517  0.0032 -0.1115  0.3996
 3004poe     o214444   6.847   4.798   1.540  0.3225 -0.1489  0.6324
 3004poe    c2314445   6.721   4.849   1.503  0.4395  0.1180  0.6007
 3004poe    c2314446   6.740   5.001   1.501  0.5417  0.1013  0.2887
 3004poe     o214447   6.808   5.036   1.619  0.3814  0.0371  0.3997
 3004poe    c3114448   6.833   5.175   1.619  0.3045  0.0500 -0.2224
 3005poe    c3114449   1.814   4.002   0.869 -0.5842 -0.0654  0.1299
 3005poe     o214450   1.880   3.883   0.905  0.5350  0.3635 -0.4296
 3005poe    c2314451   1.939   3.812   0.798  0.0296  0.0444 -0.5062
 3005poe    c2314452   2.042   3.716   0.860  0.0148  0.4233  0.1118
 3005poe     o214453   1.987   3.669   0.981  0.2724  0.4682  0.2476
 3005poe    c2314454   2.093   3.603   1.047 -0.0157 -0.4014 -0.1497
 3005poe    c2314455   2.053   3.588   1.195 -0.3559  0.1901 -0.1768
 3005poe     o214456   2.003   3.708   1.251 -0.3424  0.0440  0.1533
 3005poe    c2314457   2.017   3.708   1.391  0.5109  0.2629  0.0753
 3005poe    c2314458   1.996   3.855   1.435 -0.0020  0.1795  0.1144
 3005poe     o214459   1.857   3.875   1.423  0.0215  0.6233  0.5770
 3005poe    c3114460   1.816   3.992   1.490 -0.5114  0.7413  0.0593
 3006poe    c3114461   4.374   1.504   6.517  0.3876  0.0028  0.4070
 3006poe     o214462   4.269   1.419   6.558  0.2986  0.0110  0.1972
 3006poe    c2314463   4.291   1.394   6.695  0.5455  0.0866  0.1715
 3006poe    c2314464   4.182   1.306   6.758  0.3448  0.2960  0.1182
 3006poe     o214465   4.059   1.376   6.762  0.3526  0.3004  0.2639
 3006poe    c2314466   3.964   1.303   6.837  0.4986  0.2057  0.3604
 3006poe    c2314467   3.832   1.382   6.849  0.3126 -0.1567  0.7100
 3006poe     o214468   3.744   1.388   6.739  0.8157  0.3844  0.3253
 3006poe    c2314469   3.679   1.513   6.729 -0.4173 -0.2859 -0.2484
 3006poe    c2314470   3.645   1.546   6.582 -0.1552 -0.0688 -0.2600
 3006poe     o214471   3.513   1.593   6.574 -0.2147 -0.0941  0.4816
 3006poe    c3114472   3.474   1.619   6.441  0.2167 -0.0997  0.3534
 3007poe    c3114473   6.248   3.791   0.795 -0.7798 -0.2146 -0.2239
 3007poe     o214474   6.224   3.858   0.673 -0.2401  0.1657 -0.1270
 3007poe    c2314475   6.088   3.886   0.645 -0.4439 -0.0776  0.5864
 3007poe    c2314476   6.058   3.953   0.510  0.3936 -0.2635  0.2997
 3007poe     o214477   6.100   3.876   0.399 -0.1171  0.5783 -0.4929
 3007poe    c2314478   6.048   3.930   0.280 -0.2639  0.2028 -0.5984
 3007poe    c2314479   6.061   3.832   0.161  0.0572  0.0015 -0.4000
 3007poe     o214480   6.183   3.765   0.181 -0.2886 -0.5003  0.0559
 3007poe    c2314481   6.267   3.812   0.078 -0.0835 -0.0004  0.4529
 3007poe    c2314482   6.411   3.758   0.088 -0.1688 -0.2621  0.2706
 3007poe     o214483   6.478   3.813   0.200 -0.5030  0.4883  0.1100
 3007poe    c3114484   6.618   3.807   0.183 -0.5383  0.2152 -0.1057
 3008poe    c3114485   2.976   5.064   6.745 -0.1737 -0.3593  0.2552
 3008poe     o214486   3.013   5.079   6.881 -0.2508  0.3798  0.2001
 3008poe    c2314487   2.894   5.111   6.949 -0.6921 -0.4024 -0.1761
 3008poe    c2314488   2.935   5.135   7.096 -0.4213  0.2403 -0.3531
 3008poe     o214489   3.044   5.225   7.099 -0.2881  0.0558  0.5172
 3008poe    c2314490   3.084   5.264   7.229 -0.1271 -0.0746  0.5070
 3008poe    c2314491   3.202   5.362   7.221  0.3151 -0.6061  0.4405
 3008poe     o214492   3.306   5.318   7.137  0.0694  0.4932 -0.4595
 3008poe    c2314493   3.427   5.321   7.210  0.1554 -0.3855 -0.5616
 3008poe    c2314494   3.550   5.272   7.131  0.8921  0.0873  0.2804
 3008poe     o214495   3.549   5.133   7.104  0.3147  0.0908  0.2746
 3008poe    c3114496   3.668   5.091   7.041  0.1877  0.2043 -0.0410
 3009poe    c3114497   2.265   1.129   2.291  0.2157  0.2810  0.0206
 3009poe     o214498   2.346   1.067   2.194  0.3640 -0.2500  0.4775
 3009poe    c2314499   2.299   0.941   2.153  0.7544 -0.3467  0.3210
 3009poe    c2314500   2.377   0.907   2.025  0.3242 -0.1607  0.0075
 3009poe     o214501   2.327   0.977   1.913  0.4620 -0.6027 -0.3312
 3009poe    c2314502   2.420   1.074   1.871 -0.1570  0.1702  0.0664
 3009poe    c2314503   2.397   1.137   1.732 -0.4852  0.1374  0.1035
 3009poe     o214504   2.280   1.215   1.729 -0.2802  0.4511  0.2498
 3009poe    c2314505   2.289   1.277   1.603 -0.6544 -0.1965 -0.1023
 3009poe    c2314506   2.240   1.423   1.620 -0.3744 -0.1246  0.0836
 3009poe     o214507   2.105   1.417   1.660 -0.3625 -0.1467  0.1200
 3009poe    c3114508   2.042   1.542   1.676 -0.6699 -0.2621 -0.1933
 3010poe    c3114509   4.564   4.551   6.285  0.6183  0.0413 -0.1489
 3010poe     o214510   4.485   4.660   6.241  0.0888  0.0840  0.8751
 3010poe    c2314511   4.564   4.762   6.184 -0.1493 -0.1635  0.0944
 3010poe    c2314512   4.621   4.861   6.287  0.0996  0.1753 -0.3652
 3010poe     o214513   4.523   4.936   6.355 -0.0926  0.0404 -0.4933
 3010poe    c2314514   4.479   4.874   6.474  0.7663 -0.1657 -0.2784
 3010poe    c2314515   4.552   4.916   6.602  0.0786 -0.1754  0.1222
 3010poe     o214516   4.534   5.052   6.637 -0.0758 -0.1549 -0.0383
 3010poe    c2314517   4.586   5.070   6.767  0.3709 -0.7488 -0.1315
 3010poe    c2314518   4.499   5.172   6.842  0.2123 -0.0559 -1.2422
 3010poe     o214519   4.370   5.126   6.873  0.4410  0.0965 -0.0278
 3010poe    c3114520   4.304   5.225   6.948 -0.0371 -0.2916  0.0690
 3011poe    c3114521   7.117   7.072   5.951  0.1941  0.0574 -0.1725
 3011poe     o214522   7.042   7.104   6.066  0.6529 -0.4842  0.2858
 3011poe    c2314523   7.033   7.244   6.084  0.2070 -0.4652 -0.0778
 3011poe    c2314524   6.994   7.276   6.229 -0.0432  0.0482 -0.2564
 3011poe     o214525   6.863   7.241   6.267  0.1097 -0.1924  0.0537
 3011poe    c2314526   6.846   7.262   6.405 -0.1450  0.3635 -0.0602
 3011poe    c2314527   6.729   7.180   6.462  0.1186 -0.1384 -0.2390
 3011poe     o214528   6.751   7.047   6.419 -0.0054 -0.1020 -0.4139
 3011poe    c2314529   6.663   6.959   6.484 -0.2437  0.0533 -0.5240
 3011poe    c2314530   6.690   6.810   6.456  0.4916  0.1526 -0.3458
 3011poe     o214531   6.624   6.743   6.351  0.1891 -0.2251  0.0798
 3011poe    c3114532   6.575   6.613   6.376 -0.2775 -0.1377 -0.3696
 3012poe    c3114533   2.309   3.310   5.937 -0.6160  0.0552  0.0366
 3012poe     o214534   2.433   3.244   5.954 -0.6670 -0.1969 -0.5662
 3012poe    c2314535   2.530   3.265   5.854  0.3957  0.6094  0.6076
 3012poe    c2314536   2.654   3.174   5.871 -0.2196 -0.4051 -0.1919
 3012poe     o214537   2.730   3.221   5.980 -0.2021 -0.2929 -0.2508
 3012poe    c2314538   2.777   3.115   6.061  0.0174  0.0747  0.1031
 3012poe    c2314539   2.842   3.169   6.190 -0.4787  0.2396  0.2848
 3012poe     o214540   2.723   3.219   6.248 -0.5900  0.2153  0.0775
 3012poe    c2314541   2.738   3.258   6.382 -0.1720  0.2138  0.0334
 3012poe    c2314542   2.608   3.329   6.424 -0.2194  0.3060 -0.2721
 3012poe     o214543   2.482   3.290   6.375 -0.0858 -0.6014  0.0986
 3012poe    c3114544   2.385   3.387   6.407 -0.1469 -0.4203 -0.6226
 3013poe    c3114545   2.882   3.925   4.046 -0.1950  0.7254  0.0965
 3013poe     o214546   2.758   3.899   3.984  0.1471 -0.2559 -0.2106
 3013poe    c2314547   2.716   3.766   3.967 -0.7320  0.0200 -0.2289
 3013poe    c2314548   2.662   3.697   4.094  0.3928 -0.5143 -0.0312
 3013poe     o214549   2.619   3.567   4.059 -0.0895 -0.2655 -0.3668
 3013poe    c2314550   2.713   3.470   4.100  0.1957  0.4472  0.7123
 3013poe    c2314551   2.646   3.333   4.078  0.0096  0.6133  0.2186
 3013poe     o214552   2.572   3.269   4.179  0.0240  0.5231  0.1725
 3013poe    c2314553   2.635   3.249   4.303 -0.0865 -0.2934  0.1009
 3013poe    c2314554   2.567   3.336   4.410  0.0169 -0.7845  0.5691
 3013poe     o214555   2.432   3.301   4.389  0.0594 -0.8929  0.4718
 3013poe    c3114556   2.358   3.368   4.489  0.3221 -0.0466  0.1040
 3014poe    c3114557   5.805   5.454   6.456 -0.2173 -0.3608 -0.2005
 3014poe     o214558   5.721   5.435   6.568  0.0358 -0.0255  0.0502
 3014poe    c2314559   5.611   5.354   6.532  0.1410 -0.0500 -0.2175
 3014poe    c2314560   5.502   5.371   6.640  0.6965  0.4841  0.2644
 3014poe     o214561   5.566   5.340   6.762  0.1185 -0.0876  0.4260
 3014poe    c2314562   5.484   5.366   6.873 -0.0059  0.4302  0.2160
 3014poe    c2314563   5.567   5.325   6.996 -0.3306  0.2705  0.3831
 3014poe     o214564   5.684   5.401   6.982 -0.0599 -0.1819  0.1617
 3014poe    c2314565   5.732   5.423   7.113  0.2860  0.1373 -0.0132
 3014poe    c2314566   5.862   5.501   7.138 -0.0046  0.6150  0.0130
 3014poe     o214567   5.954   5.447   7.046  0.1574 -0.0909  0.5875
 3014poe    c3114568   6.088   5.480   7.072  0.2261 -0.0251  0.1568
 3015poe    c3114569   3.998   5.784   7.030 -0.3267  0.3034 -0.0643
 3015poe     o214570   4.065   5.907   7.016 -0.5362  0.4008 -0.2316
 3015poe    c2314571   4.204   5.883   7.012 -0.4532  0.8171  0.0176
 3015poe    c2314572   4.269   6.013   7.064  0.3801  0.2921  0.3110
 3015poe     o214573   4.195   6.124   7.018  0.1734  0.2821  0.6172
 3015poe    c2314574   4.255   6.237   7.077  0.9523  0.3147 -0.2050
 3015poe    c2314575   4.179   6.351   7.007 -0.0907 -0.3579 -0.1927
 3015poe     o214576   4.039   6.347   7.019 -0.1330 -0.2252 -0.6191
 3015poe    c2314577   3.984   6.465   6.965  0.0390  0.3405  0.4232
 3015poe    c2314578   3.832   6.455   6.943  0.1533  0.4322 -0.4311
 3015poe     o214579   3.792   6.353   6.854 -0.0028 -0.1307  0.2697
 3015poe    c3114580   3.658   6.364   6.813  0.1667 -0.0321 -0.2712
 3016poe    c3114581   0.568   0.035   6.280 -0.4267  0.0243 -0.2652
 3016poe     o214582   0.656   0.144   6.293 -0.2130 -0.1254 -0.4538
 3016poe    c2314583   0.663   0.183   6.428  0.2681  0.0047 -0.5133
 3016poe    c2314584   0.794   0.261   6.447  0.2687 -0.0932 -0.0971
 3016poe     o214585   0.828   0.347   6.341 -0.3443  0.0869 -0.1539
 3016poe    c2314586   0.952   0.409   6.370 -0.2704 -0.1463  0.0358
 3016poe    c2314587   0.972   0.495   6.243 -0.0980  0.1904  0.2890
 3016poe     o214588   0.933   0.423   6.128  0.0916 -0.0714  0.3867
 3016poe    c2314589   1.026   0.431   6.022 -0.5783 -0.0476 -0.2028
 3016poe    c2314590   0.985   0.375   5.885 -0.1291 -0.0155 -0.3518
 3016poe     o214591   1.006   0.236   5.899 -0.9376 -0.1517 -0.4358
 3016poe    c3114592   1.114   0.182   5.827 -0.1535 -0.2997  0.8379
 3017poe    c3114593   0.590   6.013   2.079  0.0170  0.3210 -0.4173
 3017poe     o214594   0.545   6.145   2.058 -0.0532  0.3291 -0.2123
 3017poe    c2314595   0.406   6.141   2.036 -0.0725  0.0066 -0.0417
 3017poe    c2314596   0.368   6.101   1.892 -0.0233  0.2420 -0.1200
 3017poe     o214597   0.424   6.187   1.795  0.3274 -0.3026 -0.4018
 3017poe    c2314598   0.403   6.140   1.664  0.0828 -0.3539 -0.3445
 3017poe    c2314599   0.461   6.233   1.556  0.0395 -0.2309 -0.2615
 3017poe     o214600   0.596   6.250   1.592 -0.0497  0.2103 -0.1276
 3017poe    c2314601   0.648   6.360   1.521 -0.2626  0.0599 -0.5213
 3017poe    c2314602   0.761   6.328   1.422 -0.0359 -0.1640 -0.1916
 3017poe     o214603   0.866   6.266   1.492  0.0432  0.0212 -0.1452
 3017poe    c3114604   0.979   6.258   1.408  0.0793 -0.1971 -0.0794
 3018poe    c3114605   5.739   4.218   0.903  0.1840  0.4446 -0.0987
 3018poe     o214606   5.847   4.271   0.977  0.0890  0.1773  0.2345
 3018poe    c2314607   5.957   4.183   0.979 -0.1059 -0.0795 -0.2144
 3018poe    c2314608   6.060   4.256   1.068  0.0255 -0.4708 -0.0461
 3018poe     o214609   5.986   4.290   1.183 -0.1603 -0.3510 -0.1986
 3018poe    c2314610   6.090   4.314   1.276 -0.0961 -0.9478 -0.1101
 3018poe    c2314611   6.048   4.405   1.393 -0.4356 -0.2782 -0.7428
 3018poe     o214612   5.989   4.518   1.333  0.0923  0.1711 -0.4221
 3018poe    c2314613   5.945   4.597   1.442  0.2409  0.5288 -0.6213
 3018poe    c2314614   5.887   4.725   1.379  0.9242  0.5547 -1.2124
 3018poe     o214615   5.763   4.690   1.323  0.3950 -0.1783  0.3767
 3018poe    c3114616   5.693   4.791   1.255 -0.3350 -0.9361 -0.0195
 3019poe    c3114617   5.750   3.034   2.225 -0.0657 -0.2518  0.5508
 3019poe     o214618   5.840   3.131   2.275  0.0867 -0.2767  0.3253
 3019poe    c2314619   5.963   3.069   2.305  0.1444 -0.0250  0.6099
 3019poe    c2314620   6.067   3.179   2.333  0.1862  0.0914  0.0200
 3019poe     o214621   6.011   3.266   2.429 -0.1095 -0.2407  0.1473
 3019poe    c2314622   6.112   3.352   2.476 -0.2544 -0.2447  0.4654
 3019poe    c2314623   6.052   3.475   2.547 -0.6934 -0.2072  0.0318
 3019poe     o214624   5.965   3.535   2.453  0.0636  0.3920 -0.2977
 3019poe    c2314625   5.991   3.671   2.425 -0.0285  0.5813  0.5125
 3019poe    c2314626   5.948   3.716   2.284 -0.6923  0.1599  0.5782
 3019poe     o214627   5.812   3.695   2.252 -0.1996 -0.6732 -1.0543
 3019poe    c3114628   5.738   3.815   2.246  0.0288 -0.4836 -0.1350
 3020poe    c3114629   3.550   6.121   2.765 -0.0764  0.0541  0.0970
 3020poe     o214630   3.637   6.013   2.742 -0.4235 -0.2681  0.2693
 3020poe    c2314631   3.748   6.016   2.829 -0.3463 -0.1529  0.1679
 3020poe    c2314632   3.848   5.912   2.776  0.0250  0.1847  0.1963
 3020poe     o214633   3.769   5.800   2.741  0.2421  0.0968 -0.0108
 3020poe    c2314634   3.867   5.718   2.681  0.2953 -0.2384  0.5266
 3020poe    c2314635   3.796   5.588   2.638 -0.8482  0.4138  0.3916
 3020poe     o214636   3.684   5.629   2.564 -0.6873  0.0821 -0.0386
 3020poe    c2314637   3.617   5.513   2.520 -0.1741 -0.4099  0.4623
 3020poe    c2314638   3.466   5.537   2.503  0.0486  0.4833 -0.3693
 3020poe     o214639   3.425   5.653   2.434 -0.8606  0.5031  0.1910
 3020poe    c3114640   3.458   5.646   2.297 -0.6456  0.2577  0.2552
 3021poe    c3114641   4.532   1.716   5.264 -0.3286 -0.2789 -0.1608
 3021poe     o214642   4.606   1.836   5.276 -0.2450 -0.3400 -0.0658
 3021poe    c2314643   4.572   1.928   5.175  0.2693 -0.1774 -0.0943
 3021poe    c2314644   4.609   2.074   5.203 -0.2313 -0.0641 -0.0135
 3021poe     o214645   4.530   2.143   5.297 -0.0248  0.2068 -0.0373
 3021poe    c2314646   4.588   2.264   5.341 -0.3683  0.4739 -0.3155
 3021poe    c2314647   4.502   2.319   5.457  0.0637  0.0577  0.2072
 3021poe     o214648   4.388   2.385   5.406 -0.3363 -0.2485  0.6949
 3021poe    c2314649   4.343   2.489   5.489 -1.2106 -0.0886  0.0350
 3021poe    c2314650   4.275   2.603   5.410 -0.0333  0.3336 -0.3917
 3021poe     o214651   4.356   2.690   5.334 -0.1857  0.5654 -0.2885
 3021poe    c3114652   4.396   2.632   5.212  0.3978  0.0464  0.1450
 3022poe    c3114653   3.912   0.635   6.843  0.0838 -0.4454 -0.5521
 3022poe     o214654   3.899   0.519   6.764 -0.4126 -0.4530 -0.4662
 3022poe    c2314655   3.996   0.431   6.816  0.1885  0.3595 -0.1715
 3022poe    c2314656   3.939   0.293   6.776  0.4277  0.3168 -0.3649
 3022poe     o214657   3.914   0.313   6.639 -0.2998 -0.0487 -0.2900
 3022poe    c2314658   3.841   0.208   6.579 -0.3682 -0.1661 -0.0002
 3022poe    c2314659   3.812   0.225   6.429  0.1115 -0.2726 -0.1050
 3022poe     o214660   3.755   0.351   6.404  0.6667 -0.0379 -0.2151
 3022poe    c2314661   3.681   0.362   6.284  0.3364  0.1565  0.0013
 3022poe    c2314662   3.624   0.504   6.275  0.4576  0.1965 -0.1419
 3022poe     o214663   3.732   0.595   6.268  0.6364 -0.0164 -0.1654
 3022poe    c3114664   3.680   0.725   6.249  0.0034 -0.2330  0.0648
 3023poe    c3114665   5.285   2.395   2.398 -0.1235 -0.4311 -0.0563
 3023poe     o214666   5.239   2.435   2.525 -0.6806  0.2557 -0.4668
 3023poe    c2314667   5.119   2.366   2.555 -0.1012 -0.5023  0.1766
 3023poe    c2314668   5.069   2.415   2.692 -0.4470 -0.4941  0.0497
 3023poe     o214669   5.132   2.389   2.816 -0.3264  0.3482  0.1732
 3023poe    c2314670   5.068   2.462   2.918 -0.0312  0.5136  0.2411
 3023poe    c2314671   5.096   2.396   3.054 -0.4944  0.0164  0.1030
 3023poe     o214672   5.226   2.407   3.108 -0.3508 -0.0680 -0.2279
 3023poe    c2314673   5.267   2.288   3.171 -0.3186 -0.0326 -0.1814
 3023poe    c2314674   5.383   2.304   3.271  0.0063  0.1601 -0.5829
 3023poe     o214675   5.489   2.360   3.197  0.2034 -0.2452 -0.6108
 3023poe    c3114676   5.580   2.425   3.284 -0.6019 -0.0347  0.0913
 3024poe    c3114677   5.293   3.492   5.817  0.0855 -0.5546 -0.2403
 3024poe     o214678   5.209   3.483   5.704  0.2658  0.0418 -0.4252
 3024poe    c2314679   5.102   3.400   5.741  0.1453  0.3651 -0.0491
 3024poe    c2314680   5.106   3.272   5.656  0.9057  0.3967 -0.0666
 3024poe     o214681   5.076   3.299   5.521  0.4070 -0.1075 -0.0626
 3024poe    c2314682   5.079   3.176   5.452 -0.4313 -0.1106 -0.1016
 3024poe    c2314683   5.045   3.186   5.302 -0.3710  0.0593 -0.1049
 3024poe     o214684   4.908   3.217   5.298 -0.4250 -0.0693  0.5331
 3024poe    c2314685   4.863   3.233   5.165  0.0931  0.5111  0.4241
 3024poe    c2314686   4.714   3.202   5.144  0.1294  0.4110  0.3111
 3024poe     o214687   4.692   3.066   5.116 -0.5734  0.6428 -0.3167
 3024poe    c3114688   4.554   3.057   5.092 -0.6065  0.4262 -0.0461
 3025poe    c3114689   1.637   7.061   0.006 -0.4819 -1.0284  0.8486
 3025poe     o214690   1.570   7.182   0.034  0.0894 -0.4309 -0.3120
 3025poe    c2314691   1.600   7.218   0.167  0.1611 -1.2661 -0.0967
 3025poe    c2314692   1.485   7.272   0.254  0.6889  0.2866 -0.3391
 3025poe     o214693   1.423   7.390   0.208 -0.1793 -0.0578 -0.0758
 3025poe    c2314694   1.390   7.456   0.329  0.5170  0.3315 -0.0913
 3025poe    c2314695   1.285   7.566   0.307  0.4571  0.3552  0.3199
 3025poe     o214696   1.302   7.673   0.218  0.1900  0.1244 -0.0128
 3025poe    c2314697   1.249   7.792   0.272  0.0138 -0.0845  0.2726
 3025poe    c2314698   1.312   7.922   0.218  0.2311 -0.2679  0.0857
 3025poe     o214699   1.244   7.933   0.095 -0.0660  0.0371  0.2771
 3025poe    c3114700   1.240   8.072   0.071  0.6459  0.1050  0.5382
 3026poe    c3114701   2.944   0.358   7.001 -0.3706 -0.0558  0.0202
 3026poe     o214702   2.948   0.409   7.133 -0.1888  0.2179 -0.0903
 3026poe    c2314703   3.071   0.387   7.199 -0.6780 -0.7054  0.5326
 3026poe    c2314704   3.088   0.464   7.331 -0.5872  0.0753  0.0696
 3026poe     o214705   3.082   0.604   7.315 -0.2527  0.0801 -0.0251
 3026poe    c2314706   3.032   0.666   7.431 -0.7039 -0.0818 -0.1295
 3026poe    c2314707   3.147   0.728   7.512 -0.8734  0.6432 -0.4376
 3026poe     o214708   3.245   0.798   7.439 -0.0672  0.0467  0.0564
 3026poe    c2314709   3.381   0.770   7.465 -0.3294 -0.4837  0.8750
 3026poe    c2314710   3.443   0.635   7.425  0.9295  0.5339 -0.6918
 3026poe     o214711   3.447   0.624   7.284 -0.1223  0.2495 -0.7096
 3026poe    c3114712   3.522   0.508   7.255  0.3475  0.3476  0.0804
 3027poe    c3114713   1.634   4.878   5.301  0.0770 -0.0569 -0.0675
 3027poe     o214714   1.657   4.861   5.163 -0.3018  0.1938 -0.1639
 3027poe    c2314715   1.616   4.731   5.127  0.0618  0.0995 -0.2502
 3027poe    c2314716   1.692   4.678   5.004 -0.2468  0.1109 -0.4484
 3027poe     o214717   1.666   4.745   4.883 -0.2992  0.2261 -0.3737
 3027poe    c2314718   1.777   4.738   4.797 -0.0352 -0.4675  0.0087
 3027poe    c2314719   1.733   4.813   4.669 -0.2273 -0.4270  0.0996
 3027poe     o214720   1.670   4.929   4.719  0.4436 -0.0444  0.0605
 3027poe    c2314721   1.652   5.022   4.615 -0.0368  0.2470  0.4013
 3027poe    c2314722   1.640   5.164   4.673 -0.1459  0.3191  0.2020
 3027poe     o214723   1.535   5.134   4.763 -0.3265 -0.1757 -0.1741
 3027poe    c3114724   1.488   5.250   4.827 -0.1868 -0.2065 -0.0137
 3028poe    c3114725   5.203   2.378   1.891  0.0066  0.0123 -0.5182
 3028poe     o214726   5.093   2.291   1.884 -0.0454  0.0525 -0.2187
 3028poe    c2314727   5.099   2.200   1.992 -0.4927  0.0782 -0.1691
 3028poe    c2314728   5.058   2.060   1.943  0.0188 -0.6085  1.3095
 3028poe     o214729   4.946   2.091   1.862  0.5635 -0.5723  0.5646
 3028poe    c2314730   4.880   1.973   1.821 -0.5371  0.2056  0.0840
 3028poe    c2314731   4.754   2.008   1.739 -0.3815  0.0377 -0.2285
 3028poe     o214732   4.795   2.078   1.624  0.3657 -0.5333 -0.3121
 3028poe    c2314733   4.686   2.109   1.541  0.0509  0.6067  0.5054
 3028poe    c2314734   4.741   2.152   1.404 -0.2423  0.1461  0.2397
 3028poe     o214735   4.820   2.266   1.428  0.0789 -0.0573  0.1581
 3028poe    c3114736   4.906   2.292   1.320  0.1239 -0.3279  0.1283
 3029poe    c3114737   3.617   6.693   7.186  1.1920 -0.0216  0.1695
 3029poe     o214738   3.634   6.715   7.048  0.5079 -0.3171  0.0330
 3029poe    c2314739   3.560   6.826   7.001  0.8939 -0.5111 -1.0560
 3029poe    c2314740   3.654   6.912   6.914  0.5024  0.8695 -0.1470
 3029poe     o214741   3.770   6.962   6.974  0.2733  0.5878  0.5360
 3029poe    c2314742   3.819   7.065   6.891 -0.4718  0.6443  0.1579
 3029poe    c2314743   3.958   7.100   6.950 -0.1042 -0.2525 -0.1541
 3029poe     o214744   3.949   7.164   7.074 -0.1949 -0.2639 -0.1548
 3029poe    c2314745   4.064   7.134   7.151 -0.3623 -0.4645  0.0175
 3029poe    c2314746   4.059   7.023   7.257 -0.1217 -0.1495  0.3572
 3029poe     o214747   4.049   6.902   7.186 -0.0462 -0.1727  0.3856
 3029poe    c3114748   4.080   6.793   7.270  0.1614  0.0083  0.5428
 3030poe    c3114749   5.581   7.088   1.662  0.2535 -1.2191  0.2620
 3030poe     o214750   5.694   7.168   1.689 -0.6570  0.3876 -0.5031
 3030poe    c2314751   5.802   7.089   1.735 -0.5245  0.4567 -0.6931
 3030poe    c2314752   5.871   6.987   1.643 -0.1156 -0.1605  0.2898
 3030poe     o214753   5.955   7.041   1.544  0.1709 -0.4207  0.3860
 3030poe    c2314754   5.961   6.949   1.438 -0.3306  0.4921 -0.4606
 3030poe    c2314755   6.072   6.999   1.343 -0.2059 -0.5947 -0.9084
 3030poe     o214756   6.062   7.127   1.284 -0.1151 -0.4055 -0.5193
 3030poe    c2314757   6.161   7.121   1.184  0.2702 -0.3237 -0.1426
 3030poe    c2314758   6.173   7.243   1.091  0.4350 -0.8497 -0.8147
 3030poe     o214759   6.057   7.268   1.014 -0.1601  0.2900  0.4218
 3030poe    c3114760   6.085   7.350   0.904 -0.0065  0.0845  0.3058
 3031poe    c3114761   3.656   0.814   3.301 -0.2820 -0.7778  0.6358
 3031poe     o214762   3.788   0.782   3.264 -0.2709 -0.0252  0.0091
 3031poe    c2314763   3.775   0.647   3.224 -0.1594 -0.0606  0.0922
 3031poe    c2314764   3.787   0.526   3.318 -0.4784  0.0450  0.2701
 3031poe     o214765   3.924   0.524   3.352 -0.2516  0.4479 -0.5776
 3031poe    c2314766   3.993   0.413   3.300  0.0702  0.2065  0.3478
 3031poe    c2314767   4.146   0.412   3.320  0.0375 -0.0210  0.5987
 3031poe     o214768   4.201   0.512   3.238  0.1226  0.1433  0.8540
 3031poe    c2314769   4.336   0.525   3.278  0.3367 -0.5098  0.3609
 3031poe    c2314770   4.434   0.612   3.196  0.2988 -0.5305  0.2941
 3031poe     o214771   4.439   0.595   3.056 -0.1191 -0.4644  0.2683
 3031poe    c3114772   4.568   0.572   3.004 -0.1450  0.5599 -0.2689
 3032poe    c3114773   2.587   2.010   5.697 -0.4231  0.4913  0.4118
 3032poe     o214774   2.516   2.059   5.585  0.1422 -0.2399 -0.2798
 3032poe    c2314775   2.600   2.124   5.493 -0.2310  0.1265 -0.3658
 3032poe    c2314776   2.552   2.224   5.386 -0.6746  0.2197 -0.0776
 3032poe     o214777   2.512   2.346   5.443 -0.8960  0.3811 -0.5718
 3032poe    c2314778   2.567   2.443   5.356  0.9388  0.0533  0.1840
 3032poe    c2314779   2.554   2.590   5.398  0.0904 -0.0494  0.3080
 3032poe     o214780   2.420   2.632   5.388  0.3240  0.5135 -0.6080
 3032poe    c2314781   2.388   2.670   5.256  0.3864  0.0185 -0.7685
 3032poe    c2314782   2.236   2.687   5.243  0.3499 -0.3162 -0.7934
 3032poe     o214783   2.165   2.568   5.270 -1.0426  0.6620  0.0246
 3032poe    c3114784   2.032   2.589   5.310 -1.1640 -0.2435  0.1191
 3033poe    c3114785   3.701   5.176   4.448  0.2397 -0.4259  0.3900
 3033poe     o214786   3.754   5.261   4.547 -0.1676  0.0848  0.1705
 3033poe    c2314787   3.832   5.194   4.643 -0.2618  0.1760  0.3106
 3033poe    c2314788   3.893   5.293   4.744  0.4835 -0.4409  0.4714
 3033poe     o214789   3.986   5.376   4.679 -0.0629 -0.1722  0.0261
 3033poe    c2314790   4.029   5.497   4.738  0.4651 -0.2051 -0.2868
 3033poe    c2314791   4.165   5.545   4.684  0.1305  1.1036 -0.0074
 3033poe     o214792   4.174   5.580   4.547 -0.5535 -0.5584 -0.5063
 3033poe    c2314793   4.311   5.592   4.515 -0.4838 -0.2832 -0.1191
 3033poe    c2314794   4.327   5.628   4.366 -0.3251 -0.0739 -0.0517
 3033poe     o214795   4.268   5.538   4.274  0.0841 -0.0560 -0.3313
 3033poe    c3114796   4.341   5.418   4.261  0.6007  0.2216 -0.0298
 3034poe    c3114797   0.873   5.561   0.824  0.2386  0.2093  0.1789
 3034poe     o214798   0.888   5.466   0.721 -0.7779 -0.0570  0.2619
 3034poe    c2314799   0.914   5.532   0.599 -0.3460 -0.6883  0.0090
 3034poe    c2314800   0.980   5.444   0.491  0.3396  0.1344 -0.2505
 3034poe     o214801   0.923   5.330   0.431 -0.3480  0.2728  0.1286
 3034poe    c2314802   0.881   5.222   0.512  0.3328 -0.4787 -0.4983
 3034poe    c2314803   0.795   5.118   0.437 -0.0468 -0.6000  0.0992
 3034poe     o214804   0.847   5.066   0.317  0.2795 -0.0163 -0.0159
 3034poe    c2314805   0.754   5.040   0.214  0.4074 -0.0283 -0.1298
 3034poe    c2314806   0.827   5.033   0.079  0.5175 -0.5777 -0.0440
 3034poe     o214807   0.886   5.154   0.038 -0.0995 -0.1256  0.3891
 3034poe    c3114808   0.942   5.149  -0.091  0.0787  0.8573  0.4240
 3035poe    c3114809   2.388   0.162   5.311  0.1169  0.2441  0.0122
 3035poe     o214810   2.249   0.140   5.304  0.1296  0.3051 -0.5032
 3035poe    c2314811   2.218   0.025   5.380 -0.1036  0.4440 -0.3863
 3035poe    c2314812   2.159   0.071   5.514  0.3227  0.5465 -0.2299
 3035poe     o214813   2.242   0.134   5.609  0.6016 -0.3605  0.1442
 3035poe    c2314814   2.167   0.177   5.720 -0.1313 -0.5028 -0.2898
 3035poe    c2314815   2.077   0.301   5.704 -0.5180 -0.7254  0.1338
 3035poe     o214816   1.957   0.288   5.631 -0.6760 -0.1500  0.2867
 3035poe    c2314817   1.869   0.398   5.642 -1.0137 -0.3814 -0.0939
 3035poe    c2314818   1.727   0.359   5.595 -1.0210 -0.4199 -0.0400
 3035poe     o214819   1.674   0.269   5.690 -0.0482 -0.3455  0.5961
 3035poe    c3114820   1.603   0.171   5.617  0.4809 -0.3142  0.0301
 3036poe    c3114821   6.817   2.967   2.520  0.5126 -0.2721 -0.1890
 3036poe     o214822   6.815   2.864   2.424 -0.3781 -0.4452  0.0122
 3036poe    c2314823   6.860   2.745   2.485  0.6192 -0.0032  0.1518
 3036poe    c2314824   6.820   2.636   2.384 -0.2092  0.0090  0.4576
 3036poe     o214825   6.898   2.633   2.266 -0.5091 -1.0385  0.2706
 3036poe    c2314826   7.005   2.542   2.280 -0.0485 -0.4933  0.3453
 3036poe    c2314827   7.074   2.492   2.152  0.1452  0.2465  0.1552
 3036poe     o214828   7.120   2.601   2.074 -0.1107  0.7545  0.7071
 3036poe    c2314829   7.185   2.550   1.960 -0.3956 -0.1284  0.9250
 3036poe    c2314830   7.220   2.676   1.878 -0.4497 -0.2197  0.7613
 3036poe     o214831   7.099   2.729   1.831 -0.1497 -0.0105  0.2249
 3036poe    c3114832   7.119   2.820   1.725  0.1933  0.3039  0.5581
 3037poe    c3114833   3.767   4.728   7.034 -0.4620 -0.1009  0.0469
 3037poe     o214834   3.698   4.641   7.122 -0.3313  0.0067  0.2555
 3037poe    c2314835   3.780   4.604   7.230  0.1544  0.4591  0.0498
 3037poe    c2314836   3.698   4.502   7.311  0.0275  0.3219 -0.2493
 3037poe     o214837   3.581   4.547   7.375 -0.0964 -0.3469  0.0018
 3037poe    c2314838   3.495   4.440   7.408 -0.8465  0.2092 -0.1285
 3037poe    c2314839   3.346   4.475   7.387 -0.8081  0.1305 -0.5465
 3037poe     o214840   3.324   4.596   7.456 -0.0204  0.1536 -0.3216
 3037poe    c2314841   3.196   4.652   7.434 -0.1583 -0.0724 -0.0927
 3037poe    c2314842   3.185   4.794   7.492 -0.2553 -0.1346  0.0418
 3037poe     o214843   3.288   4.868   7.431 -0.0621 -0.0245  0.4901
 3037poe    c3114844   3.318   4.988   7.499 -0.0876  0.2404  0.0399
 3038poe    c3114845   7.262   6.250   3.701 -0.9392  0.3139 -0.3675
 3038poe     o214846   7.294   6.312   3.824  0.2191 -0.3867 -0.3012
 3038poe    c2314847   7.429   6.329   3.863  0.1379  0.1475 -0.2435
 3038poe    c2314848   7.430   6.341   4.017  0.3932  0.1092 -0.2428
 3038poe     o214849   7.312   6.398   4.068  0.1052 -0.6370 -0.0631
 3038poe    c2314850   7.305   6.402   4.209  0.0841  0.0834 -0.0831
 3038poe    c2314851   7.184   6.494   4.234 -0.1357 -0.3227  0.3539
 3038poe     o214852   7.068   6.465   4.159  0.2128 -0.2554 -0.2121
 3038poe    c2314853   6.966   6.548   4.208  0.3874 -0.0764 -0.1517
 3038poe    c2314854   6.970   6.690   4.147  0.3374 -0.0447 -0.0818
 3038poe     o214855   6.955   6.695   4.007  0.0958 -0.4224 -0.0715
 3038poe    c3114856   6.942   6.824   3.953 -0.7768 -0.5559 -0.1878
 3039poe    c3114857   6.053   2.200   4.507 -0.7931 -0.8434  0.0875
 3039poe     o214858   6.036   2.190   4.368 -0.5108 -0.7002  0.0414
 3039poe    c2314859   6.140   2.109   4.317  0.1113  0.4601 -0.5526
 3039poe    c2314860   6.073   2.009   4.221  0.5077 -0.2147 -0.1328
 3039poe     o214861   6.038   2.066   4.097 -0.4654 -0.0323  0.2174
 3039poe    c2314862   6.004   1.972   3.998 -0.4013  0.2978 -0.1215
 3039poe    c2314863   5.994   2.041   3.861 -0.0899  0.0950 -0.2483
 3039poe     o214864   5.860   2.079   3.841 -0.1638  0.0589  0.1755
 3039poe    c2314865   5.831   2.113   3.707  0.5388  0.4157  0.1080
 3039poe    c2314866   5.697   2.186   3.684  0.4091  0.1748  0.0900
 3039poe     o214867   5.695   2.312   3.749 -0.2751  0.2537 -0.0831
 3039poe    c3114868   5.564   2.362   3.734 -0.2998  0.1544 -0.2057
 3040poe    c3114869   5.323   3.804   3.971  0.0881  0.3393 -0.3834
 3040poe     o214870   5.460   3.768   3.971 -0.0569 -0.2251 -0.0788
 3040poe    c2314871   5.556   3.871   3.980 -0.1356 -0.2365  0.9676
 3040poe    c2314872   5.700   3.817   3.985 -0.0376 -0.0885  0.0039
 3040poe     o214873   5.745   3.753   3.868  0.0456  0.5705 -0.3246
 3040poe    c2314874   5.818   3.839   3.784  0.3841  0.4349 -0.1695
 3040poe    c2314875   5.861   3.764   3.656 -0.5992 -0.2575 -0.1035
 3040poe     o214876   5.935   3.654   3.701  0.7932  0.6149 -0.2003
 3040poe    c2314877   5.994   3.579   3.596 -0.1423 -0.3014 -0.0860
 3040poe    c2314878   6.110   3.512   3.671  0.0487  0.0070 -0.1074
 3040poe     o214879   6.072   3.451   3.792  0.4570  0.4149  0.2376
 3040poe    c3114880   6.183   3.391   3.854 -0.0779 -0.4611  0.3713
 3041poe    c3114881   5.699   0.415   6.034  0.6614 -0.0941 -0.1145
 3041poe     o214882   5.804   0.337   6.087  0.2815 -0.6589 -0.1760
 3041poe    c2314883   5.757   0.242   6.180 -0.2128  0.6896  1.0030
 3041poe    c2314884   5.873   0.164   6.245 -0.3149 -0.3705 -0.0400
 3041poe     o214885   5.947   0.076   6.164  0.2782 -0.2893  0.4040
 3041poe    c2314886   6.035  -0.006   6.236  0.7447 -0.3409 -0.2132
 3041poe    c2314887   6.141  -0.086   6.156  0.4177 -0.5010 -0.4887
 3041poe     o214888   6.264  -0.021   6.132  0.0988  0.1293 -0.4587
 3041poe    c2314889   6.346   0.001   6.244 -0.2036  0.5131 -0.3118
 3041poe    c2314890   6.474   0.070   6.195  0.0087  0.2003 -0.2014
 3041poe     o214891   6.547   0.009   6.091  0.3176 -0.3122  0.3086
 3041poe    c3114892   6.648   0.102   6.054 -0.4279  0.5172  0.3278
 3042poe    c3114893   3.789   5.352   3.572  0.0863 -0.2587 -0.1631
 3042poe     o214894   3.922   5.355   3.620 -0.0391  0.3264  0.1581
 3042poe    c2314895   3.914   5.360   3.761  0.2572  0.5786  0.1669
 3042poe    c2314896   4.052   5.347   3.829 -0.1229 -0.4074  0.7709
 3042poe     o214897   4.130   5.451   3.775 -0.0707 -0.7936  0.0905
 3042poe    c2314898   4.254   5.450   3.842 -0.2492  0.2409  0.4578
 3042poe    c2314899   4.331   5.578   3.805 -0.0576 -0.0073 -0.0118
 3042poe     o214900   4.347   5.592   3.666  0.3020  0.4431  0.0728
 3042poe    c2314901   4.431   5.699   3.630  0.5592  0.1557 -0.1897
 3042poe    c2314902   4.449   5.703   3.477 -0.1709  0.0416 -0.2824
 3042poe     o214903   4.326   5.683   3.411 -0.1254 -0.4957 -0.2048
 3042poe    c3114904   4.359   5.662   3.275 -0.1162 -0.5665 -0.1914
 3043poe    c3114905   5.470   1.219   6.863 -0.3059  0.2951  0.3601
 3043poe     o214906   5.403   1.209   6.739  0.4242  0.6049 -0.0670
 3043poe    c2314907   5.432   1.082   6.684  0.1630  0.5618 -0.1070
 3043poe    c2314908   5.404   1.104   6.534  0.0296  0.0517 -0.1583
 3043poe     o214909   5.300   1.198   6.529  0.1671  0.2296  0.2613
 3043poe    c2314910   5.225   1.192   6.410  0.3530  0.1520  0.1488
 3043poe    c2314911   5.088   1.261   6.424  0.4921  0.4164  0.2084
 3043poe     o214912   5.102   1.386   6.488  0.1953  0.1767  0.7430
 3043poe    c2314913   4.974   1.444   6.486 -0.0026 -0.2767 -0.0594
 3043poe    c2314914   4.954   1.567   6.576 -0.3523 -0.3609 -0.0202
 3043poe     o214915   4.959   1.525   6.711 -0.3295 -0.3353 -0.0133
 3043poe    c3114916   4.931   1.628   6.803 -0.0898  0.1955 -0.5312
 3044poe    c3114917   0.847   4.985   6.789  0.4337  0.0318  0.0539
 3044poe     o214918   0.828   4.965   6.651  0.5115  0.3381 -0.0032
 3044poe    c2314919   0.854   4.828   6.629 -0.0091  0.1881  0.2992
 3044poe    c2314920   0.858   4.802   6.477 -0.1537  0.4632  0.2477
 3044poe     o214921   0.928   4.915   6.429  0.1607 -0.0715 -0.5683
 3044poe    c2314922   1.017   4.865   6.333  0.4075 -0.2765 -0.2356
 3044poe    c2314923   1.074   4.993   6.270 -0.4008  0.3254  0.2507
 3044poe     o214924   1.157   5.063   6.360  0.9706 -0.3956 -0.4189
 3044poe    c2314925   1.249   5.158   6.311  0.9162 -0.0711  0.0999
 3044poe    c2314926   1.341   5.205   6.426  0.4399 -0.0729  0.4863
 3044poe     o214927   1.276   5.279   6.526  0.0562  0.1577  0.0725
 3044poe    c3114928   1.375   5.321   6.617  0.2057  0.0905 -0.0613
 3045poe    c3114929   0.191   3.058   1.003 -0.4444 -0.2363 -0.7201
 3045poe     o214930   0.136   3.079   0.874 -0.2532  0.2561 -0.7240
 3045poe    c2314931   0.235   3.137   0.793  0.7403  0.5632  0.6642
 3045poe    c2314932   0.189   3.161   0.648 -0.5204  0.0442  0.9733
 3045poe     o214933   0.122   3.285   0.642 -0.7963 -0.1223  0.5273
 3045poe    c2314934   0.052   3.301   0.521  0.5460  0.7088 -0.1699
 3045poe    c2314935  -0.007   3.440   0.493 -0.1848  0.4944  0.2638
 3045poe     o214936  -0.100   3.488   0.586 -0.6112  0.2228 -0.0212
 3045poe    c2314937  -0.140   3.622   0.561  0.1682  0.4638  0.0010
 3045poe    c2314938  -0.168   3.696   0.693  0.4729 -0.2281  0.4650
 3045poe     o214939  -0.288   3.664   0.760 -0.0956  0.6320 -0.1268
 3045poe    c3114940  -0.307   3.717   0.889 -0.4160  0.4784 -0.1095
 3046poe    c3114941   6.508   5.919   4.653  0.1863  0.2115  0.5272
 3046poe     o214942   6.424   6.030   4.677 -0.2569 -0.0758  0.3083
 3046poe    c2314943   6.483   6.123   4.764  0.0824  0.1051 -0.1107
 3046poe    c2314944   6.436   6.269   4.769  0.7334  0.2979  0.5965
 3046poe     o214945   6.307   6.296   4.820  0.0378 -0.2548 -0.8203
 3046poe    c2314946   6.290   6.287   4.960 -0.3797 -0.3956 -0.8774
 3046poe    c2314947   6.170   6.364   5.018  0.4146  0.0159  0.2488
 3046poe     o214948   6.056   6.299   4.968  0.1778  0.1119  0.6542
 3046poe    c2314949   5.939   6.370   4.999  0.2372  0.4890  0.0314
 3046poe    c2314950   5.922   6.513   4.945 -0.4999  0.2787 -0.3064
 3046poe     o214951   5.931   6.514   4.804 -0.4320 -0.5650 -0.3104
 3046poe    c3114952   5.873   6.629   4.748 -0.0509 -0.5122 -0.6020
 3047poe    c3114953   2.037   2.520   4.709 -0.4254 -0.1602  0.4637
 3047poe     o214954   1.966   2.614   4.787 -0.5278  0.2092 -0.0708
 3047poe    c2314955   1.835   2.565   4.806 -0.1986 -0.5136  0.3658
 3047poe    c2314956   1.744   2.654   4.893  0.2136  0.1398  0.1376
 3047poe     o214957   1.705   2.776   4.833  0.4682  0.2665  0.2319
 3047poe    c2314958   1.614   2.855   4.906 -0.1361 -0.1574 -0.0512
 3047poe    c2314959   1.629   2.995   4.844 -0.0365  0.1162  0.5828
 3047poe     o214960   1.752   3.033   4.787 -0.1354  0.4017  0.5547
 3047poe    c2314961   1.740   3.158   4.723  0.0800  0.0864 -0.1128
 3047poe    c2314962   1.883   3.209   4.696  0.3226 -0.2731  0.4853
 3047poe     o214963   1.950   3.241   4.816 -0.2236 -0.0131  0.7267
 3047poe    c3114964   2.079   3.248   4.760 -0.3654  0.4975  0.4617
 3048poe    c3114965   2.145   3.003   6.415 -0.1025  0.0874 -0.4926
 3048poe     o214966   2.271   2.949   6.384  0.0003  0.0782 -0.0700
 3048poe    c2314967   2.353   2.973   6.497 -0.6558 -0.4856  0.5292
 3048poe    c2314968   2.477   2.882   6.490 -0.3419 -0.0256  0.0003
 3048poe     o214969   2.527   2.896   6.359  0.0074  0.3346  0.1697
 3048poe    c2314970   2.594   2.778   6.319  0.8935  0.9463 -0.1787
 3048poe    c2314971   2.613   2.756   6.168 -0.3845  0.6138 -0.3050
 3048poe     o214972   2.501   2.716   6.092 -0.4542  0.6625 -0.2274
 3048poe    c2314973   2.546   2.707   5.959  0.1624 -0.6986  0.0513
 3048poe    c2314974   2.462   2.615   5.869  0.2752 -0.5684 -0.1877
 3048poe     o214975   2.463   2.478   5.901 -0.1519 -0.5266  0.0014
 3048poe    c3114976   2.559   2.412   5.821 -0.5232  0.1772 -1.0480
 3049poe    c3114977   1.792   0.270   5.240  0.3324  0.3268 -0.3473
 3049poe     o214978   1.729   0.396   5.255  0.0617  0.0966  0.4968
 3049poe    c2314979   1.790   0.501   5.183  0.5085 -0.4143  0.1248
 3049poe    c2314980   1.695   0.581   5.092  0.7742 -0.0398  0.1770
 3049poe     o214981   1.584   0.629   5.165  0.3939 -0.4230 -0.1400
 3049poe    c2314982   1.537   0.737   5.087 -0.1396 -0.4642  0.1259
 3049poe    c2314983   1.402   0.780   5.149  0.0157  0.0072  0.1422
 3049poe     o214984   1.298   0.684   5.156  0.0255 -0.0683 -0.6248
 3049poe    c2314985   1.184   0.751   5.204  0.1480 -0.2481 -0.0767
 3049poe    c2314986   1.080   0.668   5.280 -0.0318 -0.4338 -0.5235
 3049poe     o214987   1.110   0.604   5.402 -0.1091  0.4872 -0.0144
 3049poe    c3114988   0.989   0.562   5.462  0.1220 -0.0916  0.0587
 3050poe    c3114989   6.226   1.306   3.086 -0.3199  0.7956 -0.1683
 3050poe     o214990   6.172   1.391   3.184 -0.0585  0.6214  0.1313
 3050poe    c2314991   6.039   1.346   3.196  0.2426 -0.1616  0.6084
 3050poe    c2314992   5.964   1.427   3.304  0.0634  0.5051 -0.0062
 3050poe     o214993   6.028   1.409   3.429  0.0765 -0.1480 -0.1020
 3050poe    c2314994   5.934   1.440   3.530  0.3029  0.4950 -0.0829
 3050poe    c2314995   6.010   1.478   3.658  0.2137 -0.5098  0.2769
 3050poe     o214996   6.044   1.615   3.655 -0.1734 -0.4130  0.2793
 3050poe    c2314997   6.038   1.672   3.784 -0.0986 -0.3080  0.2366
 3050poe    c2314998   6.156   1.635   3.877  0.0864  0.4024  0.2918
 3050poe     o214999   6.276   1.696   3.837  0.3256 -0.7330 -0.7959
 3050poe    c3115000   6.389   1.660   3.913  0.0414 -0.0061 -0.0181
 3051poe    c3115001   1.122   2.477   0.624  1.0984  0.3047 -0.0727
 3051poe     o215002   1.059   2.463   0.498 -0.2782 -0.2195  0.6482
 3051poe    c2315003   1.042   2.325   0.476  0.9005 -0.2579 -0.1428
 3051poe    c2315004   1.036   2.305   0.323 -0.2548 -0.4874 -0.0782
 3051poe     o215005   0.929   2.383   0.274 -0.3179 -0.5183  0.0085
 3051poe    c2315006   0.887   2.366   0.140 -0.4293 -0.4333  0.0331
 3051poe    c2315007   0.809   2.485   0.081  0.2251 -0.0020  0.0226
 3051poe     o215008   0.700   2.521   0.164  0.0776  0.3662 -0.3257
 3051poe    c2315009   0.627   2.636   0.127  0.4930  0.5032 -0.7304
 3051poe    c2315010   0.529   2.682   0.236  0.5756 -0.1355 -0.3797
 3051poe     o215011   0.590   2.742   0.348  0.7634  0.5683 -0.8510
 3051poe    c3115012   0.491   2.802   0.429  0.9890 -0.1440 -0.0341
 3052poe    c3115013   1.808   3.858   1.844 -0.4529 -0.6224 -0.0407
 3052poe     o215014   1.725   3.908   1.946 -0.1955  0.0306 -0.1446
 3052poe    c2315015   1.752   3.830   2.061 -0.0718 -0.3305 -0.4183
 3052poe    c2315016   1.617   3.794   2.125 -0.0428  0.0173 -0.1633
 3052poe     o215017   1.537   3.900   2.077 -0.3087 -0.0959  0.0231
 3052poe    c2315018   1.403   3.897   2.119 -0.0523  0.4766  0.9185
 3052poe    c2315019   1.318   4.003   2.045 -0.0690  0.5675  1.0678
 3052poe     o215020   1.373   4.132   2.037  0.0029  0.4575 -0.6026
 3052poe    c2315021   1.313   4.205   2.142  0.2146  0.2852 -0.3609
 3052poe    c2315022   1.362   4.350   2.126  0.0179  0.3798 -0.1240
 3052poe     o215023   1.501   4.369   2.139  0.1223 -0.6171  0.3472
 3052poe    c3115024   1.533   4.506   2.130  0.3631 -0.6876  0.1178
 3053poe    c3115025   1.644   7.117   5.600 -0.0375 -0.3409  0.4972
 3053poe     o215026   1.533   7.033   5.624  0.1439 -0.8198 -0.2845
 3053poe    c2315027   1.448   7.004   5.516 -0.7045 -0.2113  0.2095
 3053poe    c2315028   1.320   6.961   5.590 -0.4371  0.3347  0.9977
 3053poe     o215029   1.354   6.857   5.678  0.1608 -0.3913 -0.0656
 3053poe    c2315030   1.245   6.791   5.738 -0.0051 -0.1153 -0.0610
 3053poe    c2315031   1.318   6.697   5.836  0.4053  0.2041 -0.0581
 3053poe     o215032   1.413   6.781   5.898  0.5610 -0.1459  0.1769
 3053poe    c2315033   1.458   6.723   6.019 -0.1052 -0.2229  0.3910
 3053poe    c2315034   1.597   6.760   6.074  0.0201  0.0557 -0.0990
 3053poe     o215035   1.620   6.898   6.091 -0.6373  0.0897  0.5671
 3053poe    c3115036   1.695   6.916   6.208  0.1015  0.3336  0.0602
 3054poe    c3115037   1.703   6.863   5.358 -0.6027  0.0649 -0.2276
 3054poe     o215038   1.691   6.793   5.236 -0.2939 -0.3822 -0.0060
 3054poe    c2315039   1.760   6.670   5.238 -0.3765 -0.4277  0.1298
 3054poe    c2315040   1.691   6.572   5.141  0.4848 -0.8326 -0.0861
 3054poe     o215041   1.724   6.603   5.008 -0.5165  0.6003 -0.0297
 3054poe    c2315042   1.670   6.508   4.919  0.0987  0.2152 -0.0025
 3054poe    c2315043   1.752   6.487   4.791  0.6004 -0.4927  0.4272
 3054poe     o215044   1.712   6.372   4.720 -0.0258 -0.1423  0.2037
 3054poe    c2315045   1.759   6.384   4.587 -0.8588 -0.4533 -0.1271
 3054poe    c2315046   1.712   6.276   4.488 -0.2413 -1.0570  0.2287
 3054poe     o215047   1.572   6.260   4.475 -0.3220 -0.2109 -0.0310
 3054poe    c3115048   1.546   6.139   4.408  0.2454 -0.1503 -0.3679
 3055poe    c3115049   0.514   5.742   6.574 -0.0669  0.4985 -0.0893
 3055poe     o215050   0.503   5.653   6.465 -0.4312  0.1261  0.2481
 3055poe    c2315051   0.566   5.700   6.347 -0.3985  0.3272  0.3445
 3055poe    c2315052   0.540   5.609   6.226  0.5291 -0.1545  0.5032
 3055poe     o215053   0.549   5.470   6.246 -0.2002 -0.2629  0.1031
 3055poe    c2315054   0.496   5.410   6.129 -1.0322 -0.0712  0.3795
 3055poe    c2315055   0.400   5.292   6.157 -0.2159 -0.7465  0.3713
 3055poe     o215056   0.468   5.174   6.194 -0.0846 -0.8575 -0.2247
 3055poe    c2315057   0.393   5.055   6.185 -1.1254 -0.1998 -0.4380
 3055poe    c2315058   0.450   4.952   6.285 -0.4639  0.2620 -0.3312
 3055poe     o215059   0.430   4.989   6.419 -0.0444  0.0748 -0.2158
 3055poe    c3115060   0.479   4.907   6.523  0.0521  0.2014 -0.1606
 3056poe    c3115061   2.740   3.535   3.152  0.0110 -0.3067 -0.5183
 3056poe     o215062   2.727   3.612   3.270 -0.6000  0.2029 -0.9113
 3056poe    c2315063   2.593   3.615   3.313 -0.2474  1.0102  0.1590
 3056poe    c2315064   2.593   3.618   3.467  0.2060  0.1843  0.1769
 3056poe     o215065   2.647   3.736   3.521  0.1904  0.1676  0.2300
 3056poe    c2315066   2.746   3.703   3.615  0.0458 -0.0662  0.2981
 3056poe    c2315067   2.892   3.735   3.577  0.1057 -0.1322  0.4664
 3056poe     o215068   2.913   3.874   3.579  0.2397 -0.1387 -0.1491
 3056poe    c2315069   3.049   3.910   3.590  0.3250 -0.3413 -0.5309
 3056poe    c2315070   3.068   4.056   3.634 -0.0210 -0.3930 -0.2018
 3056poe     o215071   2.986   4.150   3.568 -0.0693  0.2114  0.6946
 3056poe    c3115072   2.997   4.266   3.647 -0.4652  0.6338  0.1329
 3057poe    c3115073   1.965   2.603   2.183 -0.1433  0.3399 -0.4268
 3057poe     o215074   1.828   2.570   2.177 -0.0380 -0.2202  0.2035
 3057poe    c2315075   1.798   2.514   2.052 -0.3399 -0.8374  0.5480
 3057poe    c2315076   1.657   2.539   1.995 -0.0685  0.3787  0.3817
 3057poe     o215077   1.550   2.487   2.070  0.0249 -0.3115  0.0527
 3057poe    c2315078   1.430   2.531   2.011 -0.1385 -0.0153  0.5923
 3057poe    c2315079   1.320   2.470   2.100 -0.6965 -0.4721 -0.3894
 3057poe     o215080   1.285   2.558   2.205 -0.2305 -0.0970 -0.5451
 3057poe    c2315081   1.175   2.509   2.278 -0.0410 -0.1873 -0.3170
 3057poe    c2315082   1.092   2.632   2.323  0.3176  0.1049 -0.4494
 3057poe     o215083   1.148   2.692   2.438 -0.5094  0.3042 -0.1475
 3057poe    c3115084   1.083   2.651   2.556 -0.3044 -0.4242 -0.2826
 3058poe    c3115085   5.581   4.449   6.918  0.1426  0.2659 -0.3960
 3058poe     o215086   5.677   4.351   6.884 -0.4580 -0.4484 -0.0695
 3058poe    c2315087   5.607   4.233   6.912 -0.6185 -0.2854  0.2143
 3058poe    c2315088   5.692   4.109   6.880 -0.0425  0.2662 -0.4028
 3058poe     o215089   5.680   4.071   6.744 -0.1693  0.0755 -0.3383
 3058poe    c2315090   5.782   3.982   6.705 -0.1037 -0.1923  0.4185
 3058poe    c2315091   5.758   3.944   6.558  0.3703  0.0808  0.2682
 3058poe     o215092   5.774   4.050   6.466  0.0546  0.3922  0.5684
 3058poe    c2315093   5.825   4.015   6.339 -0.4432  0.2182  0.4134
 3058poe    c2315094   5.774   4.124   6.243  0.6935  0.0289 -0.4271
 3058poe     o215095   5.759   4.082   6.110  0.6333  0.0899 -0.4401
 3058poe    c3115096   5.691   4.188   6.046  0.1071 -0.0930 -0.1925
 3059poe    c3115097   0.386   2.186   3.685 -0.5575 -0.0240  0.9261
 3059poe     o215098   0.465   2.293   3.733 -0.3051 -0.0972  0.6760
 3059poe    c2315099   0.509   2.383   3.633 -0.0740 -0.3860  0.5175
 3059poe    c2315100   0.580   2.509   3.684 -0.0237 -0.0622 -0.3406
 3059poe     o215101   0.511   2.615   3.746  0.2314 -0.3485  0.4435
 3059poe    c2315102   0.391   2.660   3.687  0.1347 -0.5568  0.4793
 3059poe    c2315103   0.329   2.779   3.763 -0.1570 -0.1105 -0.4433
 3059poe     o215104   0.394   2.901   3.738 -0.3407  0.0821  0.0184
 3059poe    c2315105   0.334   3.015   3.798 -0.0878  0.0201  0.3927
 3059poe    c2315106   0.402   3.060   3.928 -0.3014 -0.2102  0.5841
 3059poe     o215107   0.531   3.116   3.936 -0.1706 -0.3834 -0.2435
 3059poe    c3115108   0.540   3.244   3.877 -0.0039  0.1177  0.8326
 3060poe    c3115109   5.659   3.385   5.551  0.4292  0.1156  0.4309
 3060poe     o215110   5.658   3.517   5.503  0.3278  0.0239  0.1759
 3060poe    c2315111   5.749   3.525   5.396  0.2860  0.0461  0.1422
 3060poe    c2315112   5.731   3.670   5.346 -0.4149  0.0694  0.4441
 3060poe     o215113   5.782   3.767   5.435 -0.1890  0.4582 -0.1035
 3060poe    c2315114   5.795   3.894   5.374 -0.5658  0.4417 -0.2243
 3060poe    c2315115   5.916   3.959   5.445 -0.4123  0.2247 -0.2850
 3060poe     o215116   5.880   3.987   5.578  0.7081 -0.0883  0.0947
 3060poe    c2315117   5.990   4.056   5.632  0.3612  0.6471 -0.1187
 3060poe    c2315118   5.990   4.081   5.784  0.3654  0.0555 -0.0163
 3060poe     o215119   5.997   3.960   5.856  0.6566 -0.1925 -0.4610
 3060poe    c3115120   6.049   3.977   5.986  0.2618 -0.2604 -0.2961
 3061poe    c3115121   7.009   3.431   4.221  0.4435 -0.3143 -0.5076
 3061poe     o215122   7.027   3.556   4.284 -0.2096 -0.3399 -0.2620
 3061poe    c2315123   6.934   3.647   4.230  0.2833  0.2001 -0.2177
 3061poe    c2315124   6.994   3.786   4.258  0.7265 -0.0722  0.1923
 3061poe     o215125   7.020   3.804   4.395 -0.0615  0.1303  0.3206
 3061poe    c2315126   7.088   3.924   4.424 -0.0078  0.0299  0.6198
 3061poe    c2315127   7.176   3.906   4.549  0.3188  0.4308  0.4505
 3061poe     o215128   7.269   3.800   4.560  0.1683  0.2724  0.2013
 3061poe    c2315129   7.347   3.801   4.677 -0.4464 -0.9856  0.6398
 3061poe    c2315130   7.461   3.710   4.627  0.2621  0.4289 -0.3872
 3061poe     o215131   7.404   3.590   4.581 -0.2750  0.6261 -0.2415
 3061poe    c3115132   7.503   3.497   4.544 -0.2738  0.1527  0.8926
 3062poe    c3115133   2.662   2.382   7.206  0.3272  0.1069 -0.4705
 3062poe     o215134   2.774   2.307   7.248 -0.5355 -0.4955  0.8458
 3062poe    c2315135   2.876   2.404   7.263 -0.4780 -0.4877  0.4139
 3062poe    c2315136   2.980   2.368   7.370  0.0983 -0.0901 -0.0119
 3062poe     o215137   3.027   2.239   7.339  0.0858  0.1169 -0.9249
 3062poe    c2315138   3.155   2.248   7.282  0.1043  0.1476 -0.8784
 3062poe    c2315139   3.206   2.109   7.239  0.4005  0.0730 -0.2905
 3062poe     o215140   3.231   2.036   7.358  0.0620  0.1357 -0.1802
 3062poe    c2315141   3.266   1.911   7.304  0.2042  0.2368 -0.3243
 3062poe    c2315142   3.332   1.812   7.402 -0.3729  0.1184 -0.0515
 3062poe     o215143   3.246   1.783   7.510 -0.2756  0.5750  0.1517
 3062poe    c3115144   3.275   1.666   7.583 -0.3553  0.3791 -0.1309
 3063poe    c3115145   3.336   3.573   2.503 -0.0739  0.6869  0.4173
 3063poe     o215146   3.207   3.546   2.452  0.2977  0.3128 -0.3396
 3063poe    c2315147   3.227   3.476   2.331  0.4742  0.8445 -0.6200
 3063poe    c2315148   3.093   3.460   2.257 -0.2000  0.4791  0.6533
 3063poe     o215149   3.032   3.575   2.202  0.1946  0.1406 -0.5110
 3063poe    c2315150   2.891   3.562   2.200  0.2121 -0.0832 -0.3267
 3063poe    c2315151   2.829   3.605   2.066  0.2635 -0.1944 -0.3867
 3063poe     o215152   2.819   3.488   1.989 -0.2674 -0.4704  0.0934
 3063poe    c2315153   2.768   3.524   1.863  0.2754  0.3745  0.1106
 3063poe    c2315154   2.756   3.397   1.778 -0.2366  0.2232  0.4060
 3063poe     o215155   2.648   3.312   1.809 -0.5973  0.7512  0.6036
 3063poe    c3115156   2.534   3.341   1.731  0.1127  0.2408 -0.6408
 3064poe    c3115157   2.783   4.203   0.320 -0.4104 -0.3559  0.0846
 3064poe     o215158   2.766   4.186   0.182 -0.0038 -0.3856  0.0361
 3064poe    c2315159   2.672   4.088   0.142 -0.5338  0.2946 -0.3995
 3064poe    c2315160   2.646   4.055  -0.006 -0.0314  0.0288 -0.4305
 3064poe     o215161   2.743   3.977  -0.072  0.1356  0.0330 -0.1916
 3064poe    c2315162   2.751   3.979  -0.213 -0.1142 -0.3693 -0.2148
 3064poe    c2315163   2.868   3.898  -0.271 -0.3915 -0.2169 -1.0051
 3064poe     o215164   2.984   3.939  -0.201 -0.3532 -0.1927 -1.0830
 3064poe    c2315165   3.104   3.911  -0.270  0.4812  0.0031  0.2435
 3064poe    c2315166   3.216   3.971  -0.184  1.2911 -1.5770  0.3369
 3064poe     o215167   3.182   3.960  -0.047  0.2894 -0.0387  0.2340
 3064poe    c3115168   3.296   3.993   0.029 -0.0556  0.3495  0.5863
 3065poe    c3115169   3.817   3.325   5.097  0.2989 -0.3156  0.4474
 3065poe     o215170   3.921   3.297   5.006 -0.1259  0.0409 -0.1541
 3065poe    c2315171   3.980   3.418   4.966  0.1913 -0.0514  0.0277
 3065poe    c2315172   4.090   3.376   4.868  0.2042 -0.2011  0.1058
 3065poe     o215173   4.060   3.274   4.776 -0.4318 -0.3190  0.4435
 3065poe    c2315174   4.178   3.232   4.711 -0.6003 -0.0265 -0.0567
 3065poe    c2315175   4.157   3.087   4.664 -0.0931 -0.0384 -0.2462
 3065poe     o215176   4.156   2.992   4.768  0.3910  0.2241  0.0012
 3065poe    c2315177   4.116   2.871   4.708 -0.0669  0.2871  0.1729
 3065poe    c2315178   4.107   2.751   4.805 -0.6948  0.2147  0.0243
 3065poe     o215179   4.030   2.788   4.917 -0.4536 -0.3534  0.3796
 3065poe    c3115180   3.977   2.678   4.988  0.5745 -0.8202  0.4434
 3066poe    c3115181   1.172   2.027   5.806 -0.3422 -0.4018  0.0053
 3066poe     o215182   1.114   2.035   5.678 -0.4348 -0.2922  0.0546
 3066poe    c2315183   1.019   2.139   5.671  0.0113  0.1045 -0.1439
 3066poe    c2315184   0.960   2.144   5.529  0.2517 -0.5064 -0.2646
 3066poe     o215185   1.065   2.139   5.435  0.0763  0.4639 -0.5123
 3066poe    c2315186   1.013   2.115   5.306 -0.0671  0.3333 -0.4307
 3066poe    c2315187   1.131   2.047   5.233  0.0345 -0.4860  0.4830
 3066poe     o215188   1.209   1.957   5.309 -0.0859 -0.4984  0.5916
 3066poe    c2315189   1.173   1.822   5.290  0.4510 -0.5863  0.2116
 3066poe    c2315190   1.257   1.739   5.389 -0.4646 -0.8787  0.7439
 3066poe     o215191   1.247   1.798   5.517 -0.7700  0.3581  0.1641
 3066poe    c3115192   1.331   1.729   5.606  0.0667  0.3956 -0.5839
 3067poe    c3115193   3.418   1.782   6.817 -0.2904  0.3825 -0.2209
 3067poe     o215194   3.465   1.914   6.807  0.5732  0.1046  0.0079
 3067poe    c2315195   3.385   2.010   6.873 -0.0002 -0.4171  0.0783
 3067poe    c2315196   3.461   2.143   6.879 -0.2651 -0.2649  0.0696
 3067poe     o215197   3.591   2.133   6.933 -0.2190  0.1694  0.0436
 3067poe    c2315198   3.659   2.257   6.935 -0.4171  0.2770  0.1467
 3067poe    c2315199   3.747   2.266   6.809 -0.3749 -0.1924  0.1389
 3067poe     o215200   3.843   2.164   6.818 -0.3597 -0.2530 -0.6251
 3067poe    c2315201   3.952   2.198   6.735 -0.5696 -0.0337 -0.8112
 3067poe    c2315202   4.047   2.080   6.760  0.0109  0.3864 -1.0273
 3067poe     o215203   3.971   1.961   6.751  0.0333  0.3045 -0.1459
 3067poe    c3115204   4.055   1.849   6.743  0.4512  0.5933  0.1424
 3068poe    c3115205   3.396   1.030   0.412 -0.6893  0.1074 -0.1160
 3068poe     o215206   3.405   1.077   0.280  0.2055  0.0417 -0.0832
 3068poe    c2315207   3.297   1.162   0.248  0.5340  0.6754  0.4735
 3068poe    c2315208   3.320   1.256   0.128 -0.0057  0.0465 -0.1284
 3068poe     o215209   3.316   1.197  -0.000 -0.0898 -0.4868  0.1203
 3068poe    c2315210   3.288   1.292  -0.100  0.2147 -0.3793  0.1370
 3068poe    c2315211   3.373   1.281  -0.227  0.0620  0.0485 -0.0050
 3068poe     o215212   3.350   1.164  -0.303 -0.8013  0.3086 -0.1594
 3068poe    c2315213   3.442   1.180  -0.409 -0.2595 -0.0174  0.2583
 3068poe    c2315214   3.386   1.240  -0.539 -0.0670 -0.4941 -0.0516
 3068poe     o215215   3.293   1.151  -0.596 -0.4580 -0.3118  0.2921
 3068poe    c3115216   3.281   1.183  -0.733 -0.4210  0.2948  0.4279
 3069poe    c3115217   4.405   1.396   4.285 -0.1239  0.1897 -0.7525
 3069poe     o215218   4.310   1.293   4.277 -0.3853  0.3756 -0.0982
 3069poe    c2315219   4.305   1.225   4.153  0.3826  0.4073 -0.1538
 3069poe    c2315220   4.429   1.150   4.103  0.0221 -0.6881  0.5580
 3069poe     o215221   4.546   1.227   4.084 -0.2238 -0.4247  0.0961
 3069poe    c2315222   4.660   1.145   4.092 -0.0827 -0.2873 -0.4420
 3069poe    c2315223   4.780   1.235   4.129 -0.4632  0.0387  0.0161
 3069poe     o215224   4.756   1.279   4.260  0.2219  0.2645  0.0680
 3069poe    c2315225   4.856   1.376   4.285  0.6859  0.0177 -0.8025
 3069poe    c2315226   4.867   1.421   4.432 -0.2584  0.0587 -0.7345
 3069poe     o215227   4.752   1.486   4.480  0.1212 -0.2518  0.6285
 3069poe    c3115228   4.772   1.556   4.601 -0.8574  1.0032  0.0850
 3070poe    c3115229   6.105   2.361   2.651 -0.4596  0.8694  0.0200
 3070poe     o215230   6.119   2.351   2.511 -0.1047  0.4379  0.0850
 3070poe    c2315231   6.250   2.389   2.477 -0.1941  0.2720 -0.4480
 3070poe    c2315232   6.265   2.400   2.324  0.1454 -0.0719 -0.4409
 3070poe     o215233   6.221   2.283   2.261  0.6131 -0.7902  0.5431
 3070poe    c2315234   6.171   2.321   2.134  0.8020 -0.2971  0.6148
 3070poe    c2315235   6.158   2.199   2.041 -0.0326  0.1971  0.0772
 3070poe     o215236   6.091   2.097   2.111  0.3341 -0.1256 -0.0402
 3070poe    c2315237   6.040   1.997   2.025  0.7593 -0.1381 -0.2804
 3070poe    c2315238   6.133   1.878   1.995  0.7383 -0.2319  0.0287
 3070poe     o215239   6.083   1.794   1.894  0.5206  0.0488 -0.0983
 3070poe    c3115240   6.177   1.699   1.851 -0.0851 -0.5032 -0.2278
 3071poe    c3115241   6.207   2.639   6.076 -0.0098  0.4287 -0.0466
 3071poe     o215242   6.310   2.638   5.979  0.0540  0.4465  0.0205
 3071poe    c2315243   6.260   2.663   5.850 -0.0249  0.0626 -0.0228
 3071poe    c2315244   6.192   2.542   5.783 -0.0119 -0.0484  0.1643
 3071poe     o215245   6.292   2.442   5.786  0.0500  0.0226  0.4751
 3071poe    c2315246   6.234   2.317   5.759  0.1307  0.0769  0.0520
 3071poe    c2315247   6.342   2.223   5.702 -0.0419 -0.2572  0.2707
 3071poe     o215248   6.431   2.205   5.810  0.0313  0.6320  0.3688
 3071poe    c2315249   6.535   2.114   5.782  0.0223  1.0669 -1.1958
 3071poe    c2315250   6.639   2.150   5.889 -0.6080 -0.0298 -0.1847
 3071poe     o215251   6.662   2.289   5.885  0.3607 -0.1884 -0.4042
 3071poe    c3115252   6.797   2.329   5.879  0.2710  0.1517 -0.1828
 3072poe    c3115253   3.853   0.050   5.545  0.3087 -0.0637  0.3880
 3072poe     o215254   3.844  -0.080   5.597 -0.2484 -0.1650  0.0543
 3072poe    c2315255   3.735  -0.082   5.687 -0.2091 -0.0066  0.1050
 3072poe    c2315256   3.778  -0.173   5.803  0.6251  0.0951 -0.1136
 3072poe     o215257   3.774  -0.308   5.761  0.3350 -0.0418  0.3389
 3072poe    c2315258   3.712  -0.387   5.860 -0.6906  0.5146  0.1533
 3072poe    c2315259   3.683  -0.532   5.817 -0.4076  0.4830  0.0636
 3072poe     o215260   3.804  -0.599   5.790 -0.7372  0.0275 -0.2979
 3072poe    c2315261   3.846  -0.674   5.902 -0.4291  0.1212 -0.3521
 3072poe    c2315262   3.952  -0.774   5.852 -0.1931  0.1524  0.0779
 3072poe     o215263   4.065  -0.711   5.796 -0.0088  0.2180  0.5165
 3072poe    c3115264   4.115  -0.803   5.701 -0.4974  0.0700  0.3976
 3073poe    c3115265   2.747   2.228   6.592  0.2091  0.1863 -0.1713
 3073poe     o215266   2.632   2.161   6.544  0.4012  0.2407 -0.7014
 3073poe    c2315267   2.660   2.059   6.450  0.9468 -0.3875  0.1317
 3073poe    c2315268   2.543   1.980   6.390  0.5736  0.0989  0.2058
 3073poe     o215269   2.466   2.047   6.294  0.0642  0.1857  0.6730
 3073poe    c2315270   2.375   1.954   6.238  0.1893  0.4165  0.0742
 3073poe    c2315271   2.299   2.020   6.122 -0.5359 -0.4937  0.0257
 3073poe     o215272   2.198   2.103   6.175  0.1334  0.5312 -0.2785
 3073poe    c2315273   2.106   2.124   6.070 -0.2631 -0.2827 -0.1035
 3073poe    c2315274   1.998   2.233   6.082  0.0764  0.0183  0.2640
 3073poe     o215275   1.871   2.187   6.123 -0.1648  0.4142 -0.0333
 3073poe    c3115276   1.771   2.282   6.152 -0.2957  0.2054  0.2070
 3074poe    c3115277   6.726   2.596   7.004  0.4632 -0.1529  0.3101
 3074poe     o215278   6.633   2.504   7.057  0.1486 -0.0281 -0.0281
 3074poe    c2315279   6.571   2.551   7.175 -0.0418 -0.5384  0.0761
 3074poe    c2315280   6.590   2.464   7.301  0.6529 -0.1635  0.2310
 3074poe     o215281   6.561   2.326   7.299  0.1004 -0.0479 -0.2411
 3074poe    c2315282   6.432   2.294   7.347  0.1026 -0.1733 -0.3190
 3074poe    c2315283   6.386   2.151   7.313  0.3988 -0.3494  0.0098
 3074poe     o215284   6.466   2.046   7.361 -0.0355 -0.6889 -0.0057
 3074poe    c2315285   6.414   2.002   7.485  0.5684  0.2869  0.6081
 3074poe    c2315286   6.465   1.869   7.545 -0.2654 -0.0395  0.6009
 3074poe     o215287   6.575   1.890   7.630  0.2729  0.0703 -0.1146
 3074poe    c3115288   6.641   1.765   7.629  0.6193  0.2502 -0.1191
 3075poe    c3115289   6.876   0.151   0.444 -1.1118 -0.3276  0.6232
 3075poe     o215290   6.839   0.092   0.322  0.8156 -0.0232 -0.1353
 3075poe    c2315291   6.888  -0.037   0.294  0.0159 -0.5204  0.7024
 3075poe    c2315292   6.852  -0.086   0.153  0.2934  0.2094  0.3764
 3075poe     o215293   6.917  -0.025   0.043  0.1322  1.0514  0.7390
 3075poe    c2315294   6.861   0.090  -0.017 -0.4737  0.4855  0.2018
 3075poe    c2315295   6.942   0.117  -0.145 -0.3140  0.4809  0.3017
 3075poe     o215296   6.883   0.057  -0.258  0.1799 -0.1781  0.3869
 3075poe    c2315297   6.751   0.094  -0.293  0.0845 -1.1507 -0.3077
 3075poe    c2315298   6.729   0.080  -0.445 -0.4189  0.5666 -0.4124
 3075poe     o215299   6.779   0.198  -0.503 -0.1751  0.4900 -0.3606
 3075poe    c3115300   6.688   0.256  -0.595 -0.2166  0.7073 -0.1831
 3076poe    c3115301   5.001   4.833   2.253  0.5329 -0.9223 -0.0968
 3076poe     o215302   5.076   4.928   2.325 -0.3694 -0.2580 -0.0038
 3076poe    c2315303   5.186   4.956   2.241 -0.3308 -0.6477 -0.0841
 3076poe    c2315304   5.257   5.067   2.321  0.2149 -0.9712 -0.1080
 3076poe     o215305   5.300   5.024   2.448 -0.2988  0.1370  0.4626
 3076poe    c2315306   5.368   5.118   2.528 -0.1109  0.3442  0.0637
 3076poe    c2315307   5.354   5.081   2.677 -0.2318  0.7251  0.1495
 3076poe     o215308   5.224   5.056   2.725 -0.1528  0.0780  0.0331
 3076poe    c2315309   5.198   5.044   2.863 -0.4683  0.3719  0.0000
 3076poe    c2315310   5.060   4.982   2.893 -0.4920  0.2913 -0.2660
 3076poe     o215311   5.052   4.843   2.876 -0.5874  0.2787 -0.1197
 3076poe    c3115312   5.034   4.783   3.002  0.1848  0.6018  0.1486
 3077poe    c3115313   3.406   0.609   0.623  0.0154 -0.3054  0.1947
 3077poe     o215314   3.537   0.574   0.662  0.2331 -0.0276 -0.2710
 3077poe    c2315315   3.605   0.479   0.582 -0.2372 -0.2248 -0.4386
 3077poe    c2315316   3.753   0.493   0.620 -0.3977  0.1887  0.0553
 3077poe     o215317   3.755   0.498   0.761 -0.4634 -0.3402  0.0781
 3077poe    c2315318   3.875   0.457   0.822  0.2011  0.6682 -0.5234
 3077poe    c2315319   3.862   0.416   0.970 -0.2458  0.1654 -0.6986
 3077poe     o215320   3.824   0.528   1.048  0.6978 -0.1609  0.2604
 3077poe    c2315321   3.805   0.499   1.185  0.0992 -0.2837  0.1541
 3077poe    c2315322   3.723   0.608   1.256  0.0307  0.1572 -0.5835
 3077poe     o215323   3.588   0.601   1.216 -0.0965 -0.0775 -0.1275
 3077poe    c3115324   3.516   0.703   1.282  0.0995 -0.1393  0.1817
 3078poe    c3115325   5.226   2.336   6.599  0.5098 -0.3253 -1.2842
 3078poe     o215326   5.281   2.441   6.522  0.5181  0.8396  0.2751
 3078poe    c2315327   5.180   2.533   6.488 -0.5106 -0.3253  0.1001
 3078poe    c2315328   5.229   2.654   6.406 -0.0497 -0.7123 -0.2042
 3078poe     o215329   5.341   2.723   6.458 -0.6332 -0.2008  0.3871
 3078poe    c2315330   5.326   2.860   6.428  0.0753 -0.3894 -0.8929
 3078poe    c2315331   5.469   2.917   6.434  0.0066 -0.2568 -0.4486
 3078poe     o215332   5.542   2.887   6.551 -0.4744  0.5799  0.0764
 3078poe    c2315333   5.676   2.898   6.510 -0.2734 -0.6326  0.3604
 3078poe    c2315334   5.748   2.979   6.620 -0.1084 -0.4719  0.1352
 3078poe     o215335   5.716   2.921   6.744  0.1012 -0.2850  0.2767
 3078poe    c3115336   5.787   2.997   6.839  0.4389  0.2709 -0.4128
 3079poe    c3115337   6.295   1.283   4.523 -0.1182  0.5394 -0.4214
 3079poe     o215338   6.248   1.150   4.517  0.1321  0.4449 -0.3125
 3079poe    c2315339   6.328   1.055   4.584 -0.6607 -0.0912 -0.1168
 3079poe    c2315340   6.267   1.008   4.717  0.2527 -0.3583  0.2130
 3079poe     o215341   6.181   0.896   4.720 -0.3250  0.0715 -0.0812
 3079poe    c2315342   6.186   0.839   4.849 -0.4473  0.1704 -0.0323
 3079poe    c2315343   6.116   0.703   4.863  0.2948 -0.2205 -0.0162
 3079poe     o215344   5.976   0.718   4.854  0.3022 -0.0485  0.1506
 3079poe    c2315345   5.911   0.751   4.975 -0.0846 -0.1033 -0.0380
 3079poe    c2315346   5.776   0.825   4.980  0.0938  0.1803  0.7323
 3079poe     o215347   5.685   0.749   4.905  0.4109  1.4873 -1.0202
 3079poe    c3115348   5.556   0.793   4.943  0.1040 -0.1011 -0.1616
 3080poe    c3115349   3.087   0.999   1.873 -0.0658  0.2671  0.7381
 3080poe     o215350   3.156   0.975   1.994  0.1323 -0.3422  0.5071
 3080poe    c2315351   3.139   1.081   2.085 -0.3338  0.3104 -0.3262
 3080poe    c2315352   3.178   1.057   2.232 -0.0046  0.4295 -0.3923
 3080poe     o215353   3.084   0.992   2.315  0.2829  0.3658 -0.1159
 3080poe    c2315354   3.137   0.976   2.444  0.4718  0.3366 -0.1969
 3080poe    c2315355   3.029   0.935   2.546  0.3317  0.3962 -0.3217
 3080poe     o215356   2.995   0.800   2.526 -0.0272  0.5146 -0.5113
 3080poe    c2315357   2.859   0.768   2.540  0.0767  0.2217 -0.1598
 3080poe    c2315358   2.748   0.817   2.444 -0.0678  0.7079  0.2536
 3080poe     o215359   2.617   0.777   2.475 -0.0472  0.4051 -0.0418
 3080poe    c3115360   2.535   0.807   2.365 -0.4290 -0.4312  0.0068
 3081poe    c3115361   2.780   0.981   2.115 -0.5263  0.1622  0.2078
 3081poe     o215362   2.767   0.841   2.124  0.1818  0.0831  0.0905
 3081poe    c2315363   2.767   0.783   1.995 -0.3754  0.0803  0.0900
 3081poe    c2315364   2.722   0.636   2.010 -0.1835 -0.0031 -0.1466
 3081poe     o215365   2.801   0.577   2.111  0.0508  0.0969 -0.2723
 3081poe    c2315366   2.720   0.518   2.209 -0.3619  0.0940 -0.6106
 3081poe    c2315367   2.817   0.443   2.303 -0.3837  0.2341 -0.4742
 3081poe     o215368   2.923   0.519   2.354 -0.3394 -0.1526  0.0212
 3081poe    c2315369   3.027   0.434   2.395 -0.2114 -0.0727 -0.1333
 3081poe    c2315370   3.156   0.503   2.444 -0.0372 -0.1229 -0.5176
 3081poe     o215371   3.228   0.569   2.342  0.1050  0.0688 -0.2935
 3081poe    c3115372   3.332   0.648   2.394 -0.0178 -0.0094  0.0741
 3082poe    c3115373   2.588   2.751   2.167  0.1935  0.3887 -0.5934
 3082poe     o215374   2.449   2.774   2.178  0.1910  0.4151 -0.6823
 3082poe    c2315375   2.398   2.776   2.309  0.0953 -0.6345 -0.6975
 3082poe    c2315376   2.299   2.892   2.328  0.3635 -0.4811 -0.2156
 3082poe     o215377   2.197   2.879   2.231 -0.0918  0.7344  0.0853
 3082poe    c2315378   2.139   3.005   2.206  0.2651  0.8506 -0.1532
 3082poe    c2315379   2.000   2.996   2.140  0.1575 -0.0937  0.1950
 3082poe     o215380   2.015   2.926   2.018  0.1328 -0.2941  0.3051
 3082poe    c2315381   1.920   2.978   1.928  0.6339 -0.1675 -0.1599
 3082poe    c2315382   1.908   2.872   1.817 -0.3940 -0.3053  0.0691
 3082poe     o215383   2.017   2.861   1.728 -0.0439 -0.0557  0.4612
 3082poe    c3115384   1.969   2.824   1.601  0.1339 -0.1041  0.4080
 3083poe    c3115385   1.957   4.711   5.382 -0.4910 -0.1530  0.0081
 3083poe     o215386   2.072   4.693   5.303 -0.3543  0.6102  0.0178
 3083poe    c2315387   2.049   4.719   5.167  0.0633  0.0519 -0.1676
 3083poe    c2315388   2.178   4.687   5.090  0.1112 -0.0826 -0.0298
 3083poe     o215389   2.190   4.553   5.048 -0.6748 -0.1108 -0.1768
 3083poe    c2315390   2.247   4.470   5.146 -0.4717  0.1194 -0.0985
 3083poe    c2315391   2.276   4.324   5.104 -0.0240  0.2800 -0.3547
 3083poe     o215392   2.272   4.222   5.201 -0.7452  0.4336 -0.2151
 3083poe    c2315393   2.297   4.098   5.138 -0.1214  0.1707  0.5323
 3083poe    c2315394   2.178   4.004   5.168 -0.0008 -0.0550  0.3096
 3083poe     o215395   2.161   3.978   5.305 -0.0526  0.0212  0.3180
 3083poe    c3115396   2.077   3.868   5.326  0.0096 -0.0663  0.1063
 3084poe    c3115397   3.074   0.284   0.725 -0.9862 -0.5676  0.2558
 3084poe     o215398   3.000   0.254   0.841 -0.7794  0.3776  0.6446
 3084poe    c2315399   2.885   0.176   0.816 -0.1855 -0.2883 -0.0473
 3084poe    c2315400   2.803   0.143   0.942  0.2135 -0.0240  0.2827
 3084poe     o215401   2.709   0.243   0.976 -0.4500 -0.4136 -0.3711
 3084poe    c2315402   2.685   0.237   1.115  0.4837  0.0957 -0.1737
 3084poe    c2315403   2.645   0.373   1.174 -0.3935  0.2172 -1.0202
 3084poe     o215404   2.747   0.467   1.200 -0.0011 -0.4325 -0.1828
 3084poe    c2315405   2.849   0.449   1.295 -0.4202 -0.1914  0.3179
 3084poe    c2315406   2.821   0.402   1.439 -0.2704  0.5036  0.5771
 3084poe     o215407   2.941   0.355   1.498  0.0391  0.3734 -0.1514
 3084poe    c3115408   2.933   0.326   1.635 -0.3141  0.1459 -0.2191
 3085poe    c3115409   6.844   5.321   6.027 -0.6895 -0.2629  0.0317
 3085poe     o215410   6.953   5.264   5.959 -0.0147 -0.5332  1.3049
 3085poe    c2315411   7.079   5.291   6.017  0.4332  0.6754 -0.1725
 3085poe    c2315412   7.180   5.274   5.903  0.0518  0.1310 -0.4327
 3085poe     o215413   7.141   5.153   5.841 -0.6167  0.1014  0.0497
 3085poe    c2315414   7.223   5.132   5.729 -0.2637 -0.5737  0.4297
 3085poe    c2315415   7.198   4.988   5.683 -0.2724 -0.2061 -0.7600
 3085poe     o215416   7.058   4.970   5.678 -0.3171  0.1638 -0.8329
 3085poe    c2315417   7.025   4.844   5.625  0.2490 -0.3354 -0.0174
 3085poe    c2315418   6.877   4.838   5.583  0.3775 -0.1201 -0.5024
 3085poe     o215419   6.841   4.936   5.489  0.0529  0.5933  0.3563
 3085poe    c3115420   6.718   4.918   5.423  0.2445 -0.1606  0.1975
 3086poe    c3115421   0.322   2.404   5.475 -0.5181  0.1375  0.7972
 3086poe     o215422   0.338   2.537   5.430 -0.5397 -0.0347  0.2840
 3086poe    c2315423   0.466   2.590   5.453 -0.2891 -0.4865 -0.0308
 3086poe    c2315424   0.492   2.731   5.395  0.4182 -0.6708 -0.1727
 3086poe     o215425   0.416   2.830   5.461  0.2620 -0.6290 -0.4142
 3086poe    c2315426   0.385   2.939   5.377 -0.0652 -0.1824  0.2731
 3086poe    c2315427   0.262   3.022   5.417 -0.1110 -0.0427 -0.1540
 3086poe     o215428   0.142   2.949   5.401 -0.1409 -0.0132 -0.0619
 3086poe    c2315429   0.036   3.037   5.370  0.0103  0.0679 -0.3532
 3086poe    c2315430  -0.089   2.946   5.364 -0.2516  0.3446  0.6459
 3086poe     o215431  -0.053   2.847   5.269 -0.5419  0.6226  0.2405
 3086poe    c3115432  -0.161   2.763   5.235 -0.0973  0.4163 -0.6880
 3087poe    c3115433   6.583   0.214   0.716 -0.5339 -1.3092  0.2342
 3087poe     o215434   6.523   0.248   0.593  0.1789  0.0567  0.2474
 3087poe    c2315435   6.559   0.377   0.547 -0.1694  0.1286  0.1743
 3087poe    c2315436   6.490   0.427   0.419  0.6777  0.4562 -0.1572
 3087poe     o215437   6.361   0.374   0.442  0.8832  0.0296  0.0308
 3087poe    c2315438   6.259   0.412   0.353  0.6515 -0.1763  0.2107
 3087poe    c2315439   6.120   0.372   0.406  0.4266  0.3695  0.0426
 3087poe     o215440   6.138   0.234   0.432  0.0273  0.3135  0.0258
 3087poe    c2315441   6.007   0.184   0.451  0.0205  0.3959  0.1956
 3087poe    c2315442   5.999   0.031   0.438 -0.6232  0.4305  0.1599
 3087poe     o215443   6.057  -0.039   0.546 -0.1956  0.2055 -0.2101
 3087poe    c3115444   6.047  -0.178   0.519 -0.2860  0.0802  0.4646
 3088poe    c3115445   3.804   1.762   1.569 -0.2071 -0.5215  1.2661
 3088poe     o215446   3.779   1.679   1.457  0.7050  0.5100  0.2730
 3088poe    c2315447   3.721   1.755   1.354 -0.2175 -0.4167  0.0936
 3088poe    c2315448   3.694   1.667   1.230 -0.3982  0.0071 -0.1709
 3088poe     o215449   3.793   1.582   1.178 -0.9427 -0.8362  0.1332
 3088poe    c2315450   3.734   1.523   1.064 -0.4543 -0.6174 -0.2404
 3088poe    c2315451   3.853   1.479   0.977 -0.0006 -0.3716  0.2473
 3088poe     o215452   3.959   1.443   1.063  0.1644 -0.1686  0.1286
 3088poe    c2315453   4.084   1.421   1.002  0.3391 -0.0033  0.4231
 3088poe    c2315454   4.174   1.328   1.086  0.1769 -0.9753 -0.4446
 3088poe     o215455   4.183   1.394   1.211  0.4384  0.2312 -1.0881
 3088poe    c3115456   4.278   1.315   1.278  0.0539  0.6311 -0.0592
 3089poe    c3115457   0.577   1.278   1.510 -0.2928  0.2391  0.3182
 3089poe     o215458   0.481   1.192   1.568 -0.8284  0.5193 -0.1394
 3089poe    c2315459   0.452   1.224   1.703  0.0918 -0.3506  0.2772
 3089poe    c2315460   0.326   1.149   1.749 -0.0831 -0.1730  0.0867
 3089poe     o215461   0.343   1.009   1.757 -0.3783 -0.2046  0.1983
 3089poe    c2315462   0.220   0.955   1.798 -0.4543 -0.1507  0.0428
 3089poe    c2315463   0.211   0.802   1.799 -0.2545 -0.1618  0.3899
 3089poe     o215464   0.241   0.744   1.673  0.0971  0.1632  0.3226
 3089poe    c2315465   0.316   0.626   1.691  0.0187 -0.0165 -0.4855
 3089poe    c2315466   0.352   0.562   1.556 -0.2406 -0.7167 -0.2297
 3089poe     o215467   0.442   0.648   1.489 -0.4264 -0.5332 -0.2468
 3089poe    c3115468   0.495   0.580   1.377  0.3958 -0.1372 -0.1035
 3090poe    c3115469   1.947   4.133   0.410  0.5565  0.0412 -0.4491
 3090poe     o215470   1.944   4.273   0.398 -0.0129  0.0253 -0.5129
 3090poe    c2315471   1.933   4.331   0.526 -0.7050 -0.4630 -0.3418
 3090poe    c2315472   1.946   4.485   0.528 -0.0840 -0.5155  0.4509
 3090poe     o215473   2.065   4.549   0.489 -0.0750 -0.9595 -0.2773
 3090poe    c2315474   2.169   4.566   0.582  0.1205  0.1739 -0.6835
 3090poe    c2315475   2.306   4.628   0.548  0.1524 -0.0087 -0.8869
 3090poe     o215476   2.288   4.758   0.497  0.2070  0.3589  0.0081
 3090poe    c2315477   2.413   4.822   0.483  0.4308 -0.2054 -0.6346
 3090poe    c2315478   2.407   4.975   0.493  0.6521 -0.2950  1.1460
 3090poe     o215479   2.326   5.045   0.585 -0.2186 -0.2516  0.3631
 3090poe    c3115480   2.361   5.004   0.716 -0.2685 -0.3831  0.3355
 3091poe    c3115481   4.844   4.245   5.246  0.6239  0.0445  0.0258
 3091poe     o215482   4.867   4.212   5.111  0.2623  0.0602 -0.0418
 3091poe    c2315483   4.901   4.075   5.108 -0.0184 -0.0215  0.4479
 3091poe    c2315484   4.948   4.020   4.972  0.0109 -0.0134  0.4549
 3091poe     o215485   5.088   4.023   4.965  0.0049 -0.2075  0.2111
 3091poe    c2315486   5.143   3.969   4.847  0.0351  0.3648 -0.0395
 3091poe    c2315487   5.288   3.920   4.860  0.0918  0.5315 -0.0399
 3091poe     o215488   5.296   3.798   4.930  0.0259  0.5947  0.0777
 3091poe    c2315489   5.309   3.683   4.850  0.2220  0.4810  0.2726
 3091poe    c2315490   5.356   3.561   4.932  0.1320  0.3207  0.0864
 3091poe     o215491   5.276   3.483   5.017 -0.2299  0.4955 -0.0907
 3091poe    c3115492   5.161   3.430   4.954 -0.2681 -0.2819  0.6096
 3092poe    c3115493   3.323   1.084   3.962  0.4542 -0.0875  0.2644
 3092poe     o215494   3.459   1.092   3.928  0.1838  0.5616 -0.6907
 3092poe    c2315495   3.535   1.121   4.043 -0.2724  0.0812 -0.2713
 3092poe    c2315496   3.608   1.256   4.054  0.1744 -0.1439 -0.4715
 3092poe     o215497   3.709   1.282   3.959  0.2664  0.3812 -0.2318
 3092poe    c2315498   3.764   1.406   3.996  0.1952  0.4121 -0.2294
 3092poe    c2315499   3.891   1.426   3.910  0.5926 -0.5092  0.1301
 3092poe     o215500   3.857   1.414   3.774  0.2117 -0.4168  0.2159
 3092poe    c2315501   3.966   1.441   3.689 -0.2062 -0.0320 -0.2045
 3092poe    c2315502   3.917   1.424   3.544 -0.4396 -0.0223 -0.1266
 3092poe     o215503   3.835   1.308   3.540 -0.6772  0.1532 -0.4224
 3092poe    c3115504   3.783   1.302   3.409 -0.2169 -0.3220 -0.5868
 3093poe    c3115505   6.738   6.205   6.988  0.1533 -0.2488  0.2978
 3093poe     o215506   6.835   6.232   7.087  0.5899 -0.1884 -0.1444
 3093poe    c2315507   6.899   6.348   7.038  0.4078 -0.2096 -0.4364
 3093poe    c2315508   6.992   6.409   7.145 -0.1833 -0.4751  0.2386
 3093poe     o215509   7.074   6.306   7.195 -0.2229 -0.5902  0.0663
 3093poe    c2315510   7.193   6.345   7.261 -0.5313 -0.4664  0.5498
 3093poe    c2315511   7.184   6.430   7.389  0.1489  0.2250  0.1371
 3093poe     o215512   7.102   6.353   7.472  0.0417 -0.1928 -0.3510
 3093poe    c2315513   7.101   6.419   7.597 -1.0284 -0.0161 -0.4441
 3093poe    c2315514   7.039   6.343   7.716  0.0874  0.0329  0.1819
 3093poe     o215515   6.899   6.339   7.705  0.1470 -0.7113 -0.4288
 3093poe    c3115516   6.855   6.220   7.766 -0.0645 -0.3397  0.1530
 3094poe    c3115517   0.837   2.818   5.560 -0.8271  0.0750 -0.3950
 3094poe     o215518   0.762   2.936   5.581 -0.1848  0.3857  0.2016
 3094poe    c2315519   0.811   3.037   5.496 -0.3495  0.2502 -0.0596
 3094poe    c2315520   0.700   3.143   5.508 -0.4651  0.1877 -0.5958
 3094poe     o215521   0.658   3.146   5.642  0.5738  0.4311 -0.2752
 3094poe    c2315522   0.548   3.233   5.648  0.7349  0.6087  0.1656
 3094poe    c2315523   0.512   3.254   5.797 -0.4508  0.0459 -0.0308
 3094poe     o215524   0.508   3.125   5.851  0.8942  0.1802  0.4201
 3094poe    c2315525   0.455   3.114   5.982 -0.4157  0.1090 -0.0993
 3094poe    c2315526   0.485   2.981   6.052 -0.4412  0.2311  0.1445
 3094poe     o215527   0.452   2.868   5.974  0.1663  0.1150  0.0515
 3094poe    c3115528   0.453   2.762   6.068 -0.5723  0.1813  0.1356
 3095poe    c3115529   1.823   6.374   6.130 -0.1837 -0.4229 -0.1745
 3095poe     o215530   1.926   6.469   6.123 -0.4167 -0.1688 -0.1608
 3095poe    c2315531   1.921   6.540   6.001  0.1115 -0.4555 -0.3498
 3095poe    c2315532   2.057   6.603   5.963  0.0345  0.0416  0.1926
 3095poe     o215533   2.163   6.514   5.937  0.0552  0.2851 -0.5964
 3095poe    c2315534   2.146   6.434   5.822  0.5286 -0.1546 -0.3632
 3095poe    c2315535   2.101   6.288   5.839  0.1390 -0.0202 -0.2397
 3095poe     o215536   2.176   6.227   5.942 -0.1756 -0.0227 -0.0090
 3095poe    c2315537   2.109   6.107   5.972  0.7491 -0.6823 -0.5413
 3095poe    c2315538   2.203   6.015   6.052 -0.3855 -0.9108  0.5594
 3095poe     o215539   2.318   5.987   5.975 -0.3359  0.2159  0.2087
 3095poe    c3115540   2.423   5.954   6.063  0.3931  0.2424 -0.6370
 3096poe    c3115541   4.185   2.378   2.428  0.4774 -0.1264 -0.6101
 3096poe     o215542   4.294   2.327   2.502 -0.1531 -0.2956  0.2080
 3096poe    c2315543   4.381   2.237   2.437 -0.2488 -0.2497  0.0181
 3096poe    c2315544   4.327   2.096   2.406 -0.3594 -0.1847 -0.0877
 3096poe     o215545   4.280   2.018   2.514 -0.2936 -0.3573 -0.1840
 3096poe    c2315546   4.375   1.985   2.613 -0.1222  0.6394 -0.0081
 3096poe    c2315547   4.312   1.913   2.733 -0.2598 -0.0187 -0.4717
 3096poe     o215548   4.229   1.969   2.833  0.1643  0.0375 -0.1473
 3096poe    c2315549   4.154   1.873   2.903  0.9071 -0.4265  0.0216
 3096poe    c2315550   4.070   1.942   3.012  1.0292  0.7094 -0.5878
 3096poe     o215551   3.970   2.033   2.971 -0.1489 -0.2455  0.0907
 3096poe    c3115552   3.905   2.097   3.078  0.1644  0.3594 -0.0745
 3097poe    c3115553   6.462   4.124   5.204  0.5594 -0.0658 -0.5173
 3097poe     o215554   6.449   4.194   5.082 -0.0651 -0.2098 -0.5342
 3097poe    c2315555   6.457   4.327   5.127  0.0939 -0.3628 -0.1065
 3097poe    c2315556   6.478   4.425   5.011 -0.0773 -0.1382  0.0504
 3097poe     o215557   6.369   4.427   4.922 -0.2232 -0.1759  0.2290
 3097poe    c2315558   6.331   4.562   4.904  0.4833  0.0312  0.2619
 3097poe    c2315559   6.209   4.570   4.810  0.0986  0.5069  0.8044
 3097poe     o215560   6.094   4.505   4.860 -0.0755  0.2766  0.1045
 3097poe    c2315561   5.987   4.523   4.770  0.1340 -1.1721 -0.4564
 3097poe    c2315562   5.843   4.475   4.797  0.0442 -0.6754 -0.0560
 3097poe     o215563   5.805   4.509   4.929  0.4841 -0.0524 -0.0817
 3097poe    c3115564   5.728   4.400   4.976  0.0488  0.1452 -0.3271
 3098poe    c3115565   7.122   0.771   5.792  0.0166  0.2405 -0.2700
 3098poe     o215566   7.070   0.858   5.891 -0.0663 -0.1023 -0.0097
 3098poe    c2315567   7.094   0.991   5.850 -0.1715  0.1753  0.8077
 3098poe    c2315568   7.027   1.100   5.935 -0.0781  0.7928  0.1018
 3098poe     o215569   7.087   1.087   6.062  0.7112 -0.1511 -0.3558
 3098poe    c2315570   7.083   1.212   6.127  0.6703 -0.5410  0.3959
 3098poe    c2315571   7.169   1.212   6.255  0.0638 -0.3250  0.8058
 3098poe     o215572   7.141   1.093   6.326  0.3582 -0.6719  0.3458
 3098poe    c2315573   7.165   1.108   6.464  0.2921 -0.1143  0.3016
 3098poe    c2315574   7.140   0.982   6.551 -0.3726 -0.5828 -0.5493
 3098poe     o215575   7.234   0.880   6.527 -0.7858 -1.0079 -0.3499
 3098poe    c3115576   7.237   0.779   6.626  0.2590 -0.4544  0.1926
 3099poe    c3115577   6.740   7.199   3.942 -0.0436  0.1684 -0.2287
 3099poe     o215578   6.605   7.166   3.920 -0.0622  0.0977 -0.0066
 3099poe    c2315579   6.527   7.230   4.019 -0.0282 -0.0226  0.0972
 3099poe    c2315580   6.379   7.232   3.979  0.0318  0.2130 -0.1156
 3099poe     o215581   6.317   7.110   3.946  0.5444 -0.1490  0.2437
 3099poe    c2315582   6.281   7.041   4.064  0.1835 -0.5601 -0.1025
 3099poe    c2315583   6.258   6.890   4.042 -0.2823 -0.5254  0.1350
 3099poe     o215584   6.382   6.831   4.008 -0.3006 -0.2584 -0.4138
 3099poe    c2315585   6.386   6.697   4.049 -0.3972 -0.2300 -0.3117
 3099poe    c2315586   6.527   6.634   4.048 -0.3643 -0.1560 -0.2912
 3099poe     o215587   6.563   6.592   3.918 -0.1874  0.3979 -0.4240
 3099poe    c3115588   6.609   6.460   3.903  0.1351  0.3901  0.5456
 3100poe    c3115589   0.481   3.753   4.084 -0.1894 -0.2472 -0.4769
 3100poe     o215590   0.373   3.674   4.129  0.0976 -0.3628  0.0081
 3100poe    c2315591   0.401   3.538   4.102  0.2282 -0.3077 -0.1356
 3100poe    c2315592   0.286   3.442   4.140 -0.3191  0.3520 -0.0906
 3100poe     o215593   0.197   3.440   4.031  0.0997  0.0725 -0.4314
 3100poe    c2315594   0.092   3.349   4.053  0.2481  0.0606  0.2399
 3100poe    c2315595   0.014   3.325   3.923  0.8418 -0.0082 -0.1077
 3100poe     o215596  -0.103   3.403   3.913  0.0941 -0.9718  0.8056
 3100poe    c2315597  -0.159   3.398   3.784  0.2428 -0.1445  0.7028
 3100poe    c2315598  -0.267   3.289   3.771  0.0019  0.0512  1.0554
 3100poe     o215599  -0.204   3.163   3.759 -0.1478  0.0539  0.1726
 3100poe    c3115600  -0.296   3.060   3.736 -0.4589  0.2201  0.6591
 3101poe    c3115601   6.168   4.685   6.685 -0.0521  0.4667 -0.4710
 3101poe     o215602   6.101   4.561   6.682  0.3901  0.2295 -0.6045
 3101poe    c2315603   6.123   4.495   6.559  0.0091 -0.2125 -0.4376
 3101poe    c2315604   6.054   4.358   6.568  0.0190 -0.2055 -0.2501
 3101poe     o215605   6.110   4.300   6.684  0.0829  0.2858 -0.0343
 3101poe    c2315606   6.090   4.160   6.685 -0.7694  0.4006 -0.1084
 3101poe    c2315607   6.147   4.084   6.806 -0.5243  0.2665 -0.3043
 3101poe     o215608   6.063   4.112   6.916 -0.3254  0.4645 -0.2016
 3101poe    c2315609   6.109   4.058   7.038  0.1591 -0.0107 -0.5881
 3101poe    c2315610   5.996   4.095   7.135  0.0368 -0.0616 -0.7112
 3101poe     o215611   5.975   4.230   7.172 -0.2726 -0.3109  0.0462
 3101poe    c3115612   6.085   4.282   7.244 -0.3384  0.1083 -0.1534
 3102poe    c3115613   3.257   6.492   3.918 -0.1627  0.1368  0.0015
 3102poe     o215614   3.250   6.411   4.033  0.6537 -0.6151 -0.4719
 3102poe    c2315615   3.255   6.488   4.151 -0.1349 -0.8793 -0.2641
 3102poe    c2315616   3.162   6.430   4.260 -0.3058 -0.5465 -0.2321
 3102poe     o215617   3.190   6.292   4.260 -0.7350 -0.6374 -0.2571
 3102poe    c2315618   3.141   6.220   4.370  0.4622 -0.3111  0.5093
 3102poe    c2315619   2.990   6.192   4.370  0.3048  0.4830 -0.4766
 3102poe     o215620   2.969   6.083   4.283 -0.0034  0.1402  0.0192
 3102poe    c2315621   2.829   6.074   4.272 -0.0176  0.3654  0.0082
 3102poe    c2315622   2.803   5.962   4.170  0.2073  0.3136  0.0078
 3102poe     o215623   2.821   6.008   4.039 -0.4273  0.3725 -0.0624
 3102poe    c3115624   2.796   5.903   3.948 -0.0647  0.5090 -0.3240
 3103poe    c3115625   0.334   1.961   0.509  0.2506 -0.4233  0.3240
 3103poe     o215626   0.265   1.873   0.423  0.4579 -0.2209 -0.0462
 3103poe    c2315627   0.340   1.755   0.408  0.3358 -0.3000 -0.0296
 3103poe    c2315628   0.291   1.664   0.293 -0.0609  0.0400 -0.1322
 3103poe     o215629   0.314   1.728   0.170  0.0028  0.1704 -0.0534
 3103poe    c2315630   0.261   1.665   0.055 -0.0988  0.4581 -0.1651
 3103poe    c2315631   0.253   1.769  -0.058 -0.6061  0.2727 -0.2997
 3103poe     o215632   0.156   1.864  -0.019 -0.2179  0.5160  0.0779
 3103poe    c2315633   0.135   1.943  -0.134  0.2789  0.1309 -0.2838
 3103poe    c2315634   0.031   2.048  -0.089 -0.2389 -0.4552 -0.1079
 3103poe     o215635   0.039   2.106   0.039 -0.2675 -0.2296 -0.2085
 3103poe    c3115636  -0.045   2.219   0.048 -0.2221 -0.2451  0.5060
 3104poe    c3115637   6.313   0.411   3.191  0.2876  0.6131 -0.4928
 3104poe     o215638   6.333   0.291   3.119 -0.3539  0.0515  0.2452
 3104poe    c2315639   6.210   0.243   3.068  0.1898 -0.5002 -0.5764
 3104poe    c2315640   6.219   0.091   3.049 -0.0977 -0.5553 -0.2772
 3104poe     o215641   6.254   0.021   3.166  0.2446  0.0227 -0.0295
 3104poe    c2315642   6.232  -0.118   3.161  0.0133  0.0634 -0.1549
 3104poe    c2315643   6.268  -0.179   3.298  0.1599  0.1200 -0.1687
 3104poe     o215644   6.220  -0.114   3.413  0.0746 -0.5994  0.2022
 3104poe    c2315645   6.079  -0.116   3.425  0.0108 -0.8011 -0.5324
 3104poe    c2315646   6.021  -0.134   3.567 -0.0271  0.3734 -0.3838
 3104poe     o215647   6.070  -0.249   3.633  0.1667  0.2841 -0.6787
 3104poe    c3115648   6.034  -0.367   3.566 -0.0516 -0.1806  0.2473
 3105poe    c3115649   4.246   3.061   1.581 -0.8295 -0.6615  0.2981
 3105poe     o215650   4.159   2.997   1.490 -0.3232 -0.3214 -0.4333
 3105poe    c2315651   4.220   3.007   1.363  0.1250  0.0510 -0.1944
 3105poe    c2315652   4.185   2.928   1.235  0.2055 -0.0967 -0.1249
 3105poe     o215653   4.135   2.799   1.262  0.7121 -0.2461  0.1050
 3105poe    c2315654   4.110   2.728   1.143  0.3569  0.3463 -0.1754
 3105poe    c2315655   3.993   2.630   1.165 -0.0356  0.8960  0.2025
 3105poe     o215656   3.879   2.679   1.232 -0.3772  0.4553 -0.0571
 3105poe    c2315657   3.782   2.577   1.231  0.4152 -0.3225  0.8391
 3105poe    c2315658   3.658   2.606   1.318  0.3034  0.3157  0.4721
 3105poe     o215659   3.693   2.596   1.455 -0.0495 -0.3038  0.5191
 3105poe    c3115660   3.576   2.615   1.531 -0.1329  0.3691  0.2307
 3106poe    c3115661   1.162   2.174   1.814  0.2043 -0.4534 -0.0359
 3106poe     o215662   1.180   2.271   1.713 -0.4845  0.1742  0.4318
 3106poe    c2315663   1.226   2.201   1.600 -0.1142  0.3969  0.4401
 3106poe    c2315664   1.288   2.308   1.509 -0.1821  0.0770  0.0136
 3106poe     o215665   1.206   2.376   1.416 -0.0169 -0.2347 -0.3623
 3106poe    c2315666   1.277   2.413   1.300  0.2885  0.2022 -0.0391
 3106poe    c2315667   1.185   2.476   1.194 -0.3158 -0.1015  0.3065
 3106poe     o215668   1.079   2.383   1.184  0.0190 -0.4352 -0.1122
 3106poe    c2315669   0.961   2.426   1.121  0.3778  0.2266 -0.3376
 3106poe    c2315670   0.840   2.333   1.140  0.2382  0.4688 -0.0280
 3106poe     o215671   0.800   2.304   1.272 -0.3349  0.6546 -0.1602
 3106poe    c3115672   0.664   2.267   1.280 -0.0614 -0.3282  0.0216
 3107poe    c3115673   7.283   1.434   2.183  0.3672 -0.0892 -0.6588
 3107poe     o215674   7.231   1.303   2.182 -0.1680  0.1009  0.5490
 3107poe    c2315675   7.189   1.272   2.051  0.3590 -0.1971  0.4454
 3107poe    c2315676   7.273   1.185   1.956  0.2021 -0.1312  0.2436
 3107poe     o215677   7.280   1.049   1.995 -0.1416 -0.0898  0.4513
 3107poe    c2315678   7.170   0.966   1.966  0.0191 -0.2235  0.2256
 3107poe    c2315679   7.148   0.850   2.064 -0.0391  0.0313  0.5165
 3107poe     o215680   7.262   0.767   2.052 -0.0139  0.1314  0.0592
 3107poe    c2315681   7.276   0.673   2.156  0.0867 -0.2803 -0.3244
 3107poe    c2315682   7.416   0.614   2.182  0.1087 -0.0459  0.0852
 3107poe     o215683   7.521   0.708   2.197  0.0341 -0.0525  0.6996
 3107poe    c3115684   7.642   0.636   2.205 -0.2389 -0.5454  0.4818
 3108poe    c3115685   1.122   0.007   3.179 -0.0586  0.0047  0.5687
 3108poe     o215686   1.059  -0.116   3.210  0.1666 -0.1080  0.5794
 3108poe    c2315687   0.942  -0.129   3.132  0.4415 -0.0844  0.1567
 3108poe    c2315688   0.832  -0.207   3.207 -0.0615  0.2505 -0.2307
 3108poe     o215689   0.746  -0.123   3.280  0.1623  0.2746  0.0028
 3108poe    c2315690   0.673  -0.018   3.221 -0.0527  0.4613  0.5939
 3108poe    c2315691   0.527  -0.048   3.181 -0.0654  0.5095  0.6039
 3108poe     o215692   0.446  -0.050   3.296 -0.1275  0.3685  0.5575
 3108poe    c2315693   0.347   0.049   3.276 -0.3493 -0.0822 -0.6928
 3108poe    c2315694   0.207  -0.014   3.276 -0.4303  0.0895 -0.0738
 3108poe     o215695   0.201  -0.121   3.184  0.2495 -0.0694  0.0631
 3108poe    c3115696   0.092  -0.206   3.213  0.2707 -0.0828  0.1020
 3109poe    c3115697   3.337   2.206   3.221 -0.2427 -0.1127  0.4510
 3109poe     o215698   3.411   2.322   3.253 -0.3204  0.0560  0.0258
 3109poe    c2315699   3.391   2.423   3.157  0.4357 -0.3037 -0.5156
 3109poe    c2315700   3.508   2.522   3.163  0.5496 -0.4692  0.0709
 3109poe     o215701   3.496   2.589   3.286 -0.3808  0.2285 -0.3839
 3109poe    c2315702   3.581   2.700   3.302  0.2716 -0.2294 -0.6255
 3109poe    c2315703   3.585   2.745   3.449  0.2017 -0.3037 -0.6012
 3109poe     o215704   3.624   2.642   3.537 -0.1476 -0.1341 -0.2470
 3109poe    c2315705   3.761   2.616   3.555 -0.1666  0.2979  0.6041
 3109poe    c2315706   3.766   2.482   3.630  0.6538  0.0234  0.0768
 3109poe     o215707   3.661   2.464   3.723  0.3637  0.0691 -0.2402
 3109poe    c3115708   3.687   2.363   3.818 -0.2503 -0.0143 -0.1568
 3110poe    c3115709   0.030   3.103   1.702  0.6223 -0.4253  1.0043
 3110poe     o215710  -0.057   3.166   1.794 -0.3734 -0.4071  0.0796
 3110poe    c2315711  -0.156   3.249   1.738 -0.4227 -0.5520 -0.0483
 3110poe    c2315712  -0.181   3.354   1.848  0.5072 -0.4127  0.0424
 3110poe     o215713  -0.291   3.340   1.935  0.1881  0.1733 -0.2604
 3110poe    c2315714  -0.264   3.430   2.040 -0.3296 -0.4418  0.4121
 3110poe    c2315715  -0.390   3.469   2.120 -0.6103 -0.4813 -0.0062
 3110poe     o215716  -0.413   3.386   2.232  0.2851 -0.1254  0.4583
 3110poe    c2315717  -0.525   3.426   2.308  0.0821 -0.1987  0.1992
 3110poe    c2315718  -0.669   3.393   2.263 -0.0207 -0.2252  0.5446
 3110poe     o215719  -0.698   3.256   2.254 -0.0534 -0.2086  0.3891
 3110poe    c3115720  -0.811   3.223   2.330 -0.0867 -0.5817  0.1813
 3111poe    c3115721   4.673   6.034   0.968  0.4016  0.2185  0.2409
 3111poe     o215722   4.743   6.106   1.066  0.4548 -0.1055  0.4402
 3111poe    c2315723   4.827   6.214   1.033 -0.1763  0.2315 -0.0660
 3111poe    c2315724   4.879   6.253   1.173  0.2437 -0.1907 -0.1047
 3111poe     o215725   4.773   6.272   1.264 -0.1636  0.2419 -0.6626
 3111poe    c2315726   4.819   6.309   1.392 -0.0880 -0.5130 -0.4613
 3111poe    c2315727   4.700   6.300   1.488  0.6009 -0.4559  0.4103
 3111poe     o215728   4.632   6.176   1.479  0.3154 -0.2403 -0.4341
 3111poe    c2315729   4.537   6.153   1.580  0.3645 -0.4000 -0.4256
 3111poe    c2315730   4.406   6.230   1.561  0.6508  0.0568 -0.5623
 3111poe     o215731   4.341   6.205   1.439 -0.2397 -0.0998 -0.0654
 3111poe    c3115732   4.241   6.303   1.422 -0.2273 -0.0916 -0.0866
 3112poe    c3115733   5.667   0.267   6.943  0.3014 -1.0829 -0.0823
 3112poe     o215734   5.753   0.162   6.982  0.5741 -0.6713  0.4387
 3112poe    c2315735   5.790   0.073   6.880  0.2280 -0.6325  0.2769
 3112poe    c2315736   5.878  -0.039   6.939  0.3235 -0.4141  0.5507
 3112poe     o215737   6.014  -0.008   6.960  0.1850  0.2997  0.4004
 3112poe    c2315738   6.094  -0.064   6.858 -0.0942  0.3915  0.1284
 3112poe    c2315739   6.199   0.045   6.827  0.0245  0.1024 -0.4955
 3112poe     o215740   6.271   0.063   6.946 -0.6633  0.3715 -0.1102
 3112poe    c2315741   6.310   0.197   6.965  0.4643  0.0778 -0.2472
 3112poe    c2315742   6.386   0.213   7.097 -0.3278  0.3582  0.1819
 3112poe     o215743   6.301   0.142   7.184 -0.3288  0.1663  0.0233
 3112poe    c3115744   6.337   0.177   7.316  0.0885 -0.1712 -0.0013
 3113poe    c3115745   3.388   2.406   5.929 -0.2416  0.7772  0.6631
 3113poe     o215746   3.369   2.299   6.019 -0.1402  0.2826  0.1049
 3113poe    c2315747   3.337   2.338   6.151 -0.0038  0.2165  0.1572
 3113poe    c2315748   3.302   2.209   6.227 -0.0076  0.2956  0.2902
 3113poe     o215749   3.233   2.218   6.350  0.0102  0.8462  0.2612
 3113poe    c2315750   3.291   2.143   6.454 -0.8232 -0.2324 -0.0346
 3113poe    c2315751   3.190   2.133   6.570  0.1352 -0.0397  0.8236
 3113poe     o215752   3.152   2.266   6.597  0.1080  0.1348 -0.0443
 3113poe    c2315753   3.135   2.282   6.736  0.5620 -0.1406  0.0474
 3113poe    c2315754   3.115   2.424   6.792 -0.1665 -0.1620 -0.1474
 3113poe     o215755   3.237   2.494   6.798 -0.1842 -0.1246 -0.2336
 3113poe    c3115756   3.222   2.617   6.864  0.3912 -0.1190 -0.1067
 3114poe    c3115757   5.588   1.765   6.438  0.5167  0.5007  0.2817
 3114poe     o215758   5.626   1.794   6.305  0.1626  0.0011  0.0652
 3114poe    c2315759   5.525   1.737   6.226 -0.1401 -0.0036  0.4519
 3114poe    c2315760   5.563   1.791   6.086  0.2493 -0.4050  0.4006
 3114poe     o215761   5.698   1.755   6.072  0.3320  0.0402  0.0467
 3114poe    c2315762   5.738   1.734   5.938 -0.1369 -0.1758 -0.0621
 3114poe    c2315763   5.890   1.710   5.934 -0.1488 -0.1778 -0.4805
 3114poe     o215764   5.925   1.576   5.959  0.1619 -0.1005 -0.4950
 3114poe    c2315765   6.063   1.581   5.988  0.0126  0.5787  0.1199
 3114poe    c2315766   6.142   1.448   5.990 -0.7921  0.0869 -0.2025
 3114poe     o215767   6.099   1.358   6.089  0.1728 -0.0562  0.1004
 3114poe    c3115768   6.149   1.375   6.219 -0.1717 -0.2200  0.2550
 3115poe    c3115769   1.177   1.230   3.134 -0.0498 -0.7011  0.0508
 3115poe     o215770   1.286   1.168   3.070  0.4904 -0.3332  0.5960
 3115poe    c2315771   1.237   1.131   2.943  0.6996  0.4952  0.2683
 3115poe    c2315772   1.328   1.033   2.866  0.5333 -0.0134  0.7133
 3115poe     o215773   1.354   0.929   2.957 -0.1909 -0.5108  0.3629
 3115poe    c2315774   1.438   0.832   2.900  0.1080 -0.1921  0.2597
 3115poe    c2315775   1.544   0.764   2.989  0.3927 -0.0114  0.0612
 3115poe     o215776   1.615   0.875   3.037  0.1725  0.0710  0.1970
 3115poe    c2315777   1.741   0.832   3.085  0.3581  0.3376 -0.0499
 3115poe    c2315778   1.856   0.934   3.081  0.1770  0.5358 -0.2021
 3115poe     o215779   1.819   1.036   3.172 -0.5971 -0.0009  0.0939
 3115poe    c3115780   1.851   1.164   3.123  0.0150 -0.1866 -0.0018
 3116poe    c3115781   2.870   2.041   1.668 -0.2759 -0.5134 -0.9214
 3116poe     o215782   2.991   2.101   1.629 -0.2193  0.0761  0.0967
 3116poe    c2315783   2.992   2.242   1.624  0.2631  0.0780  0.2039
 3116poe    c2315784   3.016   2.314   1.758  0.3511  0.4326 -0.0019
 3116poe     o215785   3.146   2.298   1.808  0.1031  0.0102  0.5171
 3116poe    c2315786   3.163   2.178   1.880 -0.1126 -0.5727 -0.3801
 3116poe    c2315787   3.216   2.218   2.019  0.0418  0.4391 -0.7222
 3116poe     o215788   3.122   2.293   2.093 -0.0485 -0.3878  0.0203
 3116poe    c2315789   3.043   2.208   2.174 -0.3774 -0.2559 -0.1596
 3116poe    c2315790   2.917   2.279   2.227  0.2872  0.3370  0.6518
 3116poe     o215791   2.792   2.266   2.164  0.2952 -0.0071  0.7024
 3116poe    c3115792   2.699   2.359   2.216 -0.5182  0.2303 -1.0801
 3117poe    c3115793   0.301   5.131   1.983 -0.0079 -0.3766 -0.5109
 3117poe     o215794   0.343   5.017   2.054 -0.3895 -0.1999  0.0119
 3117poe    c2315795   0.311   5.017   2.191 -0.2832  0.6306  0.0408
 3117poe    c2315796   0.360   4.893   2.269 -0.7672  0.2288 -0.2886
 3117poe     o215797   0.306   4.775   2.215 -0.0808 -0.2709  0.1067
 3117poe    c2315798   0.352   4.669   2.296  0.1242  0.3048  0.7505
 3117poe    c2315799   0.271   4.545   2.253  0.2047  0.4718  0.1040
 3117poe     o215800   0.332   4.503   2.133  0.4462 -0.1814  0.4502
 3117poe    c2315801   0.285   4.373   2.103  0.2717 -0.0112 -0.0241
 3117poe    c2315802   0.301   4.350   1.952 -0.4290 -0.1890 -0.0754
 3117poe     o215803   0.304   4.462   1.866 -0.1555 -0.1510 -0.0189
 3117poe    c3115804   0.271   4.426   1.734  0.3108 -0.0282 -0.1698
 3118poe    c3115805   3.784   4.343   5.728  0.5993  0.6586 -0.0779
 3118poe     o215806   3.848   4.320   5.851  0.5398 -0.1132 -0.1840
 3118poe    c2315807   3.831   4.432   5.935 -0.5275 -0.3125 -0.1300
 3118poe    c2315808   3.919   4.429   6.061  0.1619 -0.1871 -0.6061
 3118poe     o215809   4.045   4.477   6.020  0.2406 -0.1448 -0.3180
 3118poe    c2315810   4.124   4.512   6.131 -0.1242  0.0489 -0.1192
 3118poe    c2315811   4.249   4.556   6.052  0.1220 -0.2015  0.1259
 3118poe     o215812   4.296   4.434   5.999 -0.0383 -0.2196  0.0228
 3118poe    c2315813   4.413   4.459   5.924  0.4421 -0.3176  0.7281
 3118poe    c2315814   4.477   4.319   5.917 -0.1462 -0.5712  0.3061
 3118poe     o215815   4.383   4.240   5.848 -0.4459 -0.5015  0.6305
 3118poe    c3115816   4.446   4.123   5.801 -0.1819 -0.0205 -0.2256
 3119poe    c3115817   0.568   5.523   4.883 -0.7033 -0.0231  0.5650
 3119poe     o215818   0.594   5.628   4.792 -0.3536 -0.3318  0.3082
 3119poe    c2315819   0.721   5.599   4.739 -0.3402 -0.4243  0.3900
 3119poe    c2315820   0.761   5.701   4.630 -0.3014 -0.7880  0.0645
 3119poe     o215821   0.694   5.825   4.632  0.3227 -0.4521  0.5903
 3119poe    c2315822   0.762   5.905   4.537 -0.2223 -0.5216  0.1389
 3119poe    c2315823   0.678   6.029   4.501  0.4238 -0.1014  0.0715
 3119poe     o215824   0.567   6.001   4.419 -0.0032  0.0201  0.6029
 3119poe    c2315825   0.477   6.109   4.426 -0.4272 -0.3082  0.2754
 3119poe    c2315826   0.329   6.087   4.389 -0.4058  0.0807 -0.0545
 3119poe     o215827   0.274   6.008   4.492 -0.3958 -0.4156 -0.4278
 3119poe    c3115828   0.134   6.010   4.510 -0.3621  0.3622 -0.2304
 3120poe    c3115829   1.199   7.144   2.174 -0.1880 -0.4600 -0.5766
 3120poe     o215830   1.143   7.134   2.045 -0.7892 -0.1052 -0.3478
 3120poe    c2315831   1.043   7.231   2.020 -0.5568  0.2002 -0.1103
 3120poe    c2315832   1.026   7.211   1.868 -0.4653  0.6324 -0.1797
 3120poe     o215833   1.153   7.214   1.807 -0.5906  0.6999 -0.4381
 3120poe    c2315834   1.153   7.211   1.666 -0.3113 -0.9675 -0.4304
 3120poe    c2315835   1.289   7.189   1.599  0.1039 -0.2059  0.1500
 3120poe     o215836   1.316   7.053   1.624 -0.6968 -0.3156  0.4345
 3120poe    c2315837   1.441   7.011   1.575 -1.0659 -0.0939 -0.7335
 3120poe    c2315838   1.435   6.858   1.592 -0.3028 -0.0482 -0.0172
 3120poe     o215839   1.415   6.818   1.726 -0.1196  0.2450  0.0993
 3120poe    c3115840   1.471   6.693   1.758  0.4354  0.5531  0.3587
 3121poe    c3115841   0.590   1.177   3.665 -0.1743 -0.0116 -0.2567
 3121poe     o215842   0.593   1.274   3.767  0.5780 -0.2983 -0.0062
 3121poe    c2315843   0.460   1.305   3.799  0.7025  0.5434 -0.2790
 3121poe    c2315844   0.446   1.441   3.871 -0.0936  0.2639  0.1098
 3121poe     o215845   0.536   1.452   3.979 -0.0234  0.6774  0.0076
 3121poe    c2315846   0.585   1.583   3.999 -0.1697  0.7787 -0.2786
 3121poe    c2315847   0.659   1.579   4.134 -0.2300 -0.2655 -0.2718
 3121poe     o215848   0.754   1.474   4.128  0.2538  0.1144  0.5213
 3121poe    c2315849   0.826   1.469   4.249  0.2434 -0.8675  0.4924
 3121poe    c2315850   0.952   1.387   4.217  0.5699 -0.2442  0.1565
 3121poe     o215851   0.926   1.260   4.160  0.4561 -0.1236 -0.0598
 3121poe    c3115852   1.046   1.188   4.163  0.6378  0.1874  0.2291
 3122poe    c3115853   4.519   6.081   4.525  0.4499  0.7110 -0.3063
 3122poe     o215854   4.412   6.152   4.583  0.1924 -0.0904  0.2165
 3122poe    c2315855   4.403   6.139   4.723  0.5260 -0.0154  0.2455
 3122poe    c2315856   4.300   6.229   4.794  0.1069 -0.5450  0.3170
 3122poe     o215857   4.165   6.199   4.768 -0.0770  0.1767  0.4314
 3122poe    c2315858   4.072   6.242   4.865 -0.2017 -0.3535  0.5466
 3122poe    c2315859   3.925   6.215   4.827 -0.1157 -0.2740  0.1545
 3122poe     o215860   3.853   6.314   4.758  0.3075  0.0232  0.1371
 3122poe    c2315861   3.722   6.269   4.735  0.3480  0.0883 -0.2206
 3122poe    c2315862   3.637   6.366   4.650 -0.2256 -0.5374 -0.3705
 3122poe     o215863   3.619   6.342   4.513 -0.2513 -0.2024 -0.4252
 3122poe    c3115864   3.522   6.436   4.471 -0.1867  0.0958  0.0840
 3123poe    c3115865   5.535   5.430   0.477 -0.4074 -0.5133  0.0754
 3123poe     o215866   5.450   5.448   0.588 -0.1349  0.1109  0.1854
 3123poe    c2315867   5.492   5.540   0.687 -0.1384  0.4573 -0.1318
 3123poe    c2315868   5.395   5.535   0.806 -0.4423 -0.1022 -0.3981
 3123poe     o215869   5.396   5.399   0.844  0.2024  0.1109  0.3710
 3123poe    c2315870   5.314   5.357   0.951  0.2664 -0.1136  0.3327
 3123poe    c2315871   5.324   5.208   0.987 -0.5635 -0.0334  0.9328
 3123poe     o215872   5.262   5.135   0.883 -0.5952  0.6820  0.4429
 3123poe    c2315873   5.269   4.997   0.910 -0.3408  0.4943 -0.5389
 3123poe    c2315874   5.287   4.907   0.787 -0.2246 -0.1432 -0.0593
 3123poe     o215875   5.395   4.950   0.707 -0.5541  0.3571 -0.2367
 3123poe    c3115876   5.428   4.864   0.600 -0.6661  0.2357 -0.1754
 3124poe    c3115877   4.715   3.912   7.054  0.0986  0.4633  0.1203
 3124poe     o215878   4.658   4.038   7.028  0.0982  0.3672 -0.3497
 3124poe    c2315879   4.712   4.137   7.111 -0.0330 -0.1300  0.3349
 3124poe    c2315880   4.628   4.266   7.103  0.1738 -0.0477 -0.5492
 3124poe     o215881   4.526   4.253   7.199  0.2024 -0.5872 -0.5915
 3124poe    c2315882   4.408   4.312   7.152  0.1115 -0.1126  0.2169
 3124poe    c2315883   4.314   4.350   7.268 -0.2633 -0.3853  0.0022
 3124poe     o215884   4.366   4.459   7.340  0.2219 -0.3866 -0.3447
 3124poe    c2315885   4.383   4.435   7.478  0.4593  0.1589 -0.2777
 3124poe    c2315886   4.429   4.567   7.542 -0.4088  0.1060  0.4816
 3124poe     o215887   4.567   4.587   7.517 -0.3610 -0.0877  0.5923
 3124poe    c3115888   4.623   4.693   7.590 -0.4907  0.2234  0.2396
 3125poe    c3115889   1.142   1.440   2.100 -0.1893 -0.0231 -0.6430
 3125poe     o215890   1.282   1.456   2.113 -0.1827 -0.4133 -0.1633
 3125poe    c2315891   1.348   1.367   2.026 -0.0606  0.0159 -0.5157
 3125poe    c2315892   1.494   1.341   2.067  0.1579  0.5453 -0.9422
 3125poe     o215893   1.587   1.448   2.075  0.0371  0.5494  0.7527
 3125poe    c2315894   1.617   1.508   1.951  0.4459 -0.2308  0.4679
 3125poe    c2315895   1.712   1.628   1.967 -0.2361  0.3217  0.3773
 3125poe     o215896   1.825   1.595   2.045 -0.0985  0.2878  0.1620
 3125poe    c2315897   1.871   1.708   2.115 -0.1314  0.2948  0.1722
 3125poe    c2315898   2.001   1.677   2.192  0.1239 -0.3197 -0.4923
 3125poe     o215899   2.098   1.653   2.092  0.3202  0.0867 -0.4037
 3125poe    c3115900   2.213   1.586   2.139 -0.2999 -1.0217 -0.4312
 3126poe    c3115901   1.243   6.697   2.085  0.5042 -0.1248 -0.7759
 3126poe     o215902   1.364   6.769   2.091  0.1404  0.4201  0.3495
 3126poe    c2315903   1.447   6.724   2.195  0.0169 -0.2790  0.1500
 3126poe    c2315904   1.581   6.664   2.147  0.0120  0.0215 -0.2478
 3126poe     o215905   1.564   6.556   2.058 -0.0226 -0.5881  0.4869
 3126poe    c2315906   1.694   6.522   2.016  0.1683  0.0643  0.5428
 3126poe    c2315907   1.697   6.393   1.931  0.8916  0.2182  0.3251
 3126poe     o215908   1.621   6.421   1.816 -0.3962 -0.1396  1.0691
 3126poe    c2315909   1.574   6.305   1.751 -0.0635  0.2662  0.0915
 3126poe    c2315910   1.510   6.336   1.614  0.4902 -0.1034 -0.2579
 3126poe     o215911   1.381   6.391   1.628  0.4437 -0.2281 -0.1969
 3126poe    c3115912   1.324   6.402   1.500  0.3587  0.0580 -0.1359
 3127poe    c3115913   1.727   7.088   6.932  0.3932  0.1683 -0.0737
 3127poe     o215914   1.613   7.141   6.868  0.5801  0.0631 -0.5042
 3127poe    c2315915   1.548   7.031   6.808  0.0026  0.1466 -0.0396
 3127poe    c2315916   1.405   7.048   6.755  0.1154  0.1818 -0.3323
 3127poe     o215917   1.316   7.078   6.860 -0.0140 -0.0727 -0.3684
 3127poe    c2315918   1.188   7.033   6.822  0.1606 -0.4581 -0.5085
 3127poe    c2315919   1.085   7.087   6.923  0.3163 -0.6857 -0.2280
 3127poe     o215920   1.124   7.055   7.055 -0.5295 -0.9044 -0.0276
 3127poe    c2315921   1.013   7.039   7.141 -0.4287  0.6251  0.4231
 3127poe    c2315922   1.077   6.985   7.270  0.2000  0.2506 -0.0331
 3127poe     o215923   1.212   7.016   7.295  0.1787  0.3143  0.0036
 3127poe    c3115924   1.240   6.969   7.425 -0.1532 -0.4357 -0.1882
 3128poe    c3115925   6.608   2.345   4.526 -0.4422 -0.2031 -0.1824
 3128poe     o215926   6.686   2.451   4.474 -0.2156 -0.1322  0.2855
 3128poe    c2315927   6.657   2.457   4.336  0.0363  0.3303  0.2506
 3128poe    c2315928   6.545   2.559   4.309 -0.2872 -0.1635 -0.3075
 3128poe     o215929   6.589   2.686   4.351  0.0811 -0.2966 -0.2808
 3128poe    c2315930   6.497   2.792   4.370  0.3983 -0.2700  1.1973
 3128poe    c2315931   6.548   2.913   4.449  0.9989  0.2661  0.0132
 3128poe     o215932   6.567   2.870   4.582 -0.1735 -0.1605  0.0576
 3128poe    c2315933   6.459   2.886   4.671 -0.2498 -0.1377 -0.0392
 3128poe    c2315934   6.490   2.799   4.794 -0.5731 -0.0796  0.0835
 3128poe     o215935   6.482   2.661   4.766  0.3583 -0.1007 -0.1104
 3128poe    c3115936   6.509   2.597   4.888 -0.1480 -0.7490 -0.3323
 3129poe    c3115937   7.171   2.670   3.055 -0.0275  0.2130  0.8889
 3129poe     o215938   7.035   2.632   3.067  0.0048 -0.1890  0.0817
 3129poe    c2315939   6.979   2.628   2.938  0.0582  0.0027  0.0512
 3129poe    c2315940   6.834   2.681   2.924  0.2160  0.2903 -0.5153
 3129poe     o215941   6.774   2.647   3.047  0.5598  0.5520 -0.2726
 3129poe    c2315942   6.670   2.736   3.079  0.0959 -0.2229  0.3977
 3129poe    c2315943   6.634   2.721   3.228 -0.0094 -0.0248  0.3932
 3129poe     o215944   6.751   2.736   3.305  0.2010 -0.0537  0.0778
 3129poe    c2315945   6.739   2.800   3.430  0.0312  0.3342 -0.1359
 3129poe    c2315946   6.788   2.740   3.563 -0.0871  0.9616  0.1966
 3129poe     o215947   6.921   2.693   3.569 -0.3477  0.2086  0.1830
 3129poe    c3115948   6.947   2.624   3.689  0.2080  0.3472  0.1432
 3130poe    c3115949   2.938   4.039   4.480 -0.4821  0.1897 -0.2967
 3130poe     o215950   2.925   4.169   4.534 -0.0503  0.2722 -0.3815
 3130poe    c2315951   2.799   4.178   4.598  0.0913 -0.5410  0.0337
 3130poe    c2315952   2.763   4.318   4.651 -0.3516 -0.7233  0.2139
 3130poe     o215953   2.872   4.367   4.725 -0.2911  0.1123 -0.4073
 3130poe    c2315954   2.846   4.480   4.806  0.3360 -0.2855  0.3610
 3130poe    c2315955   2.978   4.558   4.824  0.0492  0.3231 -0.1286
 3130poe     o215956   3.086   4.477   4.864  0.1120  0.2511 -0.4417
 3130poe    c2315957   3.197   4.556   4.900  0.0679  0.0723  0.0893
 3130poe    c2315958   3.302   4.449   4.936  0.2091  0.1440 -0.1086
 3130poe     o215959   3.322   4.368   4.822  0.7153 -0.2544  0.2577
 3130poe    c3115960   3.458   4.372   4.784  0.4896  0.7559 -0.4933
 3131poe    c3115961   6.633   6.000   2.030 -0.4872  0.2123  0.1534
 3131poe     o215962   6.733   6.099   2.026  0.1148 -0.3966 -0.1984
 3131poe    c2315963   6.843   6.091   1.940  0.0706  0.1479 -0.3115
 3131poe    c2315964   6.981   6.146   1.982  0.0247  0.1786 -0.2025
 3131poe     o215965   7.068   6.116   1.875 -0.0583  0.3720 -0.3262
 3131poe    c2315966   7.198   6.157   1.912  0.1068 -0.5451  0.1407
 3131poe    c2315967   7.293   6.126   1.794 -0.2670 -0.0841 -0.2852
 3131poe     o215968   7.297   5.986   1.784 -0.4529 -0.1814  0.7951
 3131poe    c2315969   7.212   5.925   1.688 -0.4000  0.1066  0.5618
 3131poe    c2315970   7.193   5.772   1.690  0.1154  0.0240 -0.4125
 3131poe     o215971   7.318   5.708   1.673 -0.0578 -0.3909 -0.1291
 3131poe    c3115972   7.314   5.577   1.726  0.6027 -0.4359 -0.1843
 3132poe    c3115973   2.698   5.605   0.837 -0.6953 -0.0313  0.2697
 3132poe     o215974   2.558   5.595   0.824 -0.7498  0.7015  0.2677
 3132poe    c2315975   2.519   5.484   0.902 -0.1555  0.4941  0.2740
 3132poe    c2315976   2.368   5.457   0.909 -0.0702 -0.1330 -0.2442
 3132poe     o215977   2.309   5.534   1.012  0.1374 -0.2602 -0.0307
 3132poe    c2315978   2.217   5.455   1.083  0.0085 -0.1034 -0.0246
 3132poe    c2315979   2.193   5.507   1.227 -0.1183 -0.0022 -0.0822
 3132poe     o215980   2.281   5.458   1.325 -0.3244  0.2053  0.2071
 3132poe    c2315981   2.404   5.526   1.320 -0.1195 -0.1847 -0.0825
 3132poe    c2315982   2.483   5.529   1.453  0.0463  0.3561 -0.1910
 3132poe     o215983   2.416   5.589   1.562 -0.1376 -0.4706  0.1565
 3132poe    c3115984   2.446   5.725   1.583 -0.5712 -0.3735  0.1597
 3133poe    c3115985   2.317   3.166   7.024 -0.0360 -0.3941 -0.4022
 3133poe     o215986   2.341   3.169   7.163 -0.2744 -0.0312 -0.3670
 3133poe    c2315987   2.280   3.053   7.214 -0.1971 -0.0489 -0.3142
 3133poe    c2315988   2.286   3.043   7.367 -0.4177  0.0908 -0.2953
 3133poe     o215989   2.175   3.098   7.435 -0.3887 -0.0968 -0.0933
 3133poe    c2315990   2.148   3.234   7.415  0.1370  0.0568  0.2284
 3133poe    c2315991   2.019   3.287   7.481  0.1766  0.1336  0.2450
 3133poe     o215992   2.035   3.274   7.620 -0.1902  0.3686  0.3081
 3133poe    c2315993   1.909   3.303   7.677 -0.4625  0.2866 -0.2503
 3133poe    c2315994   1.884   3.252   7.820  0.2623 -0.1675 -0.2826
 3133poe     o215995   1.886   3.111   7.811  0.0156 -0.1647 -0.3870
 3133poe    c3115996   1.861   3.051   7.936  0.5921 -0.1812 -0.2747
 3134poe    c3115997   1.801   1.704   2.717 -0.6941  0.1678  0.1735
 3134poe     o215998   1.684   1.662   2.782 -0.1087 -0.1745  1.0174
 3134poe    c2315999   1.678   1.522   2.798  0.1729 -0.1921  0.9588
 3134poe    c2316000   1.551   1.498   2.881 -0.3612 -0.5810  0.0505
 3134poe     o216001   1.451   1.558   2.803  0.2700  0.6022  0.1254
 3134poe    c2316002   1.325   1.537   2.862 -0.0144 -0.0495 -0.6838
 3134poe    c2316003   1.216   1.555   2.755  0.2457  0.1661 -0.9152
 3134poe     o216004   1.201   1.687   2.709  0.4392  0.5413  0.0632
 3134poe    c2316005   1.160   1.685   2.574  0.0170  0.0222  0.1932
 3134poe    c2316006   1.190   1.828   2.524 -0.0455 -0.1760 -0.4298
 3134poe     o216007   1.326   1.864   2.515 -0.1421  0.2375 -0.2664
 3134poe    c3116008   1.354   2.000   2.487  0.2468  0.2181  0.0294
 3135poe    c3116009   1.006   6.139   0.366 -0.5105 -0.0809 -0.0618
 3135poe     o216010   0.878   6.128   0.425 -0.4976  0.0293 -0.0140
 3135poe    c2316011   0.860   6.020   0.514  0.3686 -0.0578  0.0640
 3135poe    c2316012   0.715   5.970   0.523  0.5259 -0.4598  0.4024
 3135poe     o216013   0.668   5.869   0.436  0.4489  0.2734 -0.4256
 3135poe    c2316014   0.623   5.923   0.314 -0.3838  0.7765  0.0905
 3135poe    c2316015   0.725   5.904   0.201  0.1773 -0.1890  0.7376
 3135poe     o216016   0.707   5.781   0.136  0.2866  0.0637  0.2205
 3135poe    c2316017   0.634   5.786   0.015 -0.3370 -0.1148  0.5906
 3135poe    c2316018   0.583   5.641  -0.004  0.1996 -0.2924  0.5034
 3135poe     o216019   0.673   5.534   0.012  0.2768 -0.2799  0.1594
 3135poe    c3116020   0.634   5.414  -0.052  0.3861  0.5147 -1.4509
 3136poe    c3116021   2.751   2.658   3.012  0.2525 -0.5095 -0.4037
 3136poe     o216022   2.839   2.763   3.045 -0.1302 -0.3705  0.2090
 3136poe    c2316023   2.872   2.835   2.928  0.4688 -0.4213  0.3419
 3136poe    c2316024   2.975   2.941   2.972  0.1105  0.0995 -0.0613
 3136poe     o216025   2.925   3.041   3.058  0.1965  0.0118  0.0910
 3136poe    c2316026   3.026   3.130   3.101  0.0291  0.0726  0.3573
 3136poe    c2316027   2.974   3.233   3.203  0.3414  0.0977  0.4914
 3136poe     o216028   2.911   3.185   3.319  0.6417 -0.4444  0.4313
 3136poe    c2316029   2.897   3.294   3.407  0.1758 -0.4651  0.3853
 3136poe    c2316030   2.871   3.264   3.555  0.2688 -0.9742  0.2984
 3136poe     o216031   2.732   3.251   3.577  0.1577 -0.0488  0.1672
 3136poe    c3116032   2.697   3.168   3.686 -0.1399  0.3656  0.3919
 3137poe    c3116033   1.322   3.278   6.502  0.6088  0.5695  0.3908
 3137poe     o216034   1.260   3.237   6.622  0.0402 -0.1801 -0.1494
 3137poe    c2316035   1.168   3.333   6.667  0.7699  0.4169  0.0999
 3137poe    c2316036   1.097   3.277   6.792  0.8192  0.4853  0.1583
 3137poe     o216037   1.169   3.164   6.837  0.6148  0.4566  0.4157
 3137poe    c2316038   1.117   3.116   6.959  0.5111 -0.0362  0.1782
 3137poe    c2316039   1.192   2.984   6.987  0.3159 -0.2129 -0.1236
 3137poe     o216040   1.301   2.963   6.900  0.1616 -0.0376 -0.3603
 3137poe    c2316041   1.363   2.852   6.961  0.0930 -0.0992 -0.4022
 3137poe    c2316042   1.497   2.807   6.899  0.3495  0.4152 -0.2316
 3137poe     o216043   1.449   2.755   6.777  0.7053  0.1211 -0.2467
 3137poe    c3116044   1.530   2.648   6.733 -0.1233 -0.2493 -0.8998
 3138poe    c3116045   5.390   1.598   0.504 -0.4559  0.1251  0.0811
 3138poe     o216046   5.372   1.713   0.424 -0.0155  0.1741  0.0502
 3138poe    c2316047   5.253   1.708   0.349  0.0356  0.9695 -0.0851
 3138poe    c2316048   5.258   1.813   0.235  0.1528  0.7863 -0.2484
 3138poe     o216049   5.387   1.797   0.179  0.0865 -1.1404  0.0738
 3138poe    c2316050   5.396   1.856   0.051 -0.1745 -0.5088  0.3396
 3138poe    c2316051   5.436   2.003   0.070 -0.0487 -0.4161 -0.5975
 3138poe     o216052   5.569   2.005   0.117 -0.1282  0.0469 -0.3932
 3138poe    c2316053   5.616   2.137   0.135  0.4681 -0.1456 -0.5206
 3138poe    c2316054   5.764   2.136   0.177  0.4210  0.2942 -0.3318
 3138poe     o216055   5.786   2.079   0.304  0.2196  0.0270 -0.4158
 3138poe    c3116056   5.922   2.080   0.341  0.1577 -0.6061 -0.1543
 3139poe    c3116057   2.905   2.522   4.268  0.5208  0.1731  0.0742
 3139poe     o216058   2.818   2.424   4.319  0.7602  0.0080  0.1683
 3139poe    c2316059   2.699   2.490   4.356  0.3702 -0.4421 -0.2740
 3139poe    c2316060   2.609   2.400   4.444  0.6762 -0.4352  0.0469
 3139poe     o216061   2.550   2.297   4.368 -0.4491  0.0506  0.2476
 3139poe    c2316062   2.470   2.214   4.449 -0.2210 -0.4489 -0.0395
 3139poe    c2316063   2.414   2.088   4.380 -0.3044 -0.4204 -0.0253
 3139poe     o216064   2.513   1.996   4.339 -0.2382 -0.4122  0.1179
 3139poe    c2316065   2.457   1.902   4.249 -0.1615 -0.4037  0.0615
 3139poe    c2316066   2.545   1.804   4.171  0.5745  0.3451 -0.0669
 3139poe     o216067   2.472   1.711   4.094  0.1353  0.2546  0.4613
 3139poe    c3116068   2.560   1.602   4.077 -0.4767 -0.1221 -0.3792
 3140poe    c3116069   7.068   6.266   1.432  0.2898  0.0097 -0.4854
 3140poe     o216070   6.977   6.159   1.445  0.0655  0.3089  0.5329
 3140poe    c2316071   6.915   6.178   1.570 -0.5265 -0.6818  0.4002
 3140poe    c2316072   6.775   6.114   1.568 -0.6996 -0.3016  0.1785
 3140poe     o216073   6.784   5.975   1.548 -0.4514 -0.1859 -0.5582
 3140poe    c2316074   6.673   5.910   1.606  0.0021 -0.4945 -0.0164
 3140poe    c2316075   6.705   5.762   1.631  0.0925 -0.4365  0.2187
 3140poe     o216076   6.755   5.710   1.510  0.2455  0.1804  0.0119
 3140poe    c2316077   6.771   5.570   1.522  0.3181  0.2292  0.5125
 3140poe    c2316078   6.835   5.526   1.388 -0.2623  0.1017  0.2771
 3140poe     o216079   6.960   5.590   1.375 -0.2545  0.1218  0.4426
 3140poe    c3116080   7.065   5.499   1.396 -0.2077  0.0898  0.0871
 3141poe    c3116081   6.017   4.021   1.968 -0.0625  0.1187  0.0086
 3141poe     o216082   5.938   3.986   1.857  0.2419 -0.6684  0.0360
 3141poe    c2316083   5.825   4.068   1.842  0.5891 -0.2412 -0.2687
 3141poe    c2316084   5.732   4.022   1.728 -0.2109  0.2708  0.1598
 3141poe     o216085   5.681   3.892   1.751  0.0270  0.1019 -0.2628
 3141poe    c2316086   5.598   3.832   1.654 -0.3090  0.3171 -0.1088
 3141poe    c2316087   5.445   3.830   1.664 -0.3056 -0.1718 -0.1313
 3141poe     o216088   5.385   3.734   1.580 -0.4904  0.5944 -0.8792
 3141poe    c2316089   5.259   3.699   1.634 -0.2132  0.3019 -0.4152
 3141poe    c2316090   5.209   3.571   1.565  0.1166  0.1316 -0.3409
 3141poe     o216091   5.294   3.459   1.578 -0.1922 -0.0693 -0.0211
 3141poe    c3116092   5.252   3.397   1.697 -0.4680  0.3970  0.1282
 3142poe    c3116093   4.250   0.512   2.223 -0.2196  0.1672 -0.7924
 3142poe     o216094   4.141   0.505   2.312  0.1385 -0.0420 -0.3658
 3142poe    c2316095   4.091   0.374   2.330  0.2395 -0.1032 -0.5318
 3142poe    c2316096   3.998   0.365   2.453  0.1173  0.6078 -0.5664
 3142poe     o216097   3.869   0.412   2.421 -0.1486  0.1226 -0.2144
 3142poe    c2316098   3.784   0.399   2.533  0.4065  0.5820  0.2740
 3142poe    c2316099   3.646   0.447   2.482  0.1296 -0.4848 -0.0093
 3142poe     o216100   3.577   0.382   2.378 -0.7898 -0.1612  0.3888
 3142poe    c2316101   3.544   0.247   2.397 -0.1752 -0.3425  0.1817
 3142poe    c2316102   3.446   0.191   2.293 -0.1920 -0.7226  0.3992
 3142poe     o216103   3.505   0.188   2.165 -0.5174  0.4264  0.2130
 3142poe    c3116104   3.415   0.165   2.059 -0.2498  0.4785 -0.0271
 3143poe    c3116105   7.050   5.960   7.054 -0.1750 -0.2842 -0.3182
 3143poe     o216106   6.969   5.988   7.166  0.3188 -0.7665  0.1667
 3143poe    c2316107   6.876   5.884   7.182  0.1077 -0.6933 -0.5293
 3143poe    c2316108   6.775   5.916   7.294  0.0964  0.3533 -0.8236
 3143poe     o216109   6.744   6.053   7.303  0.3512  0.3268  0.7828
 3143poe    c2316110   6.661   6.086   7.411 -0.0196 -0.2069  0.6634
 3143poe    c2316111   6.570   6.202   7.368 -0.0312 -0.6522 -0.5576
 3143poe     o216112   6.657   6.311   7.346  0.1985 -0.9106 -0.9288
 3143poe    c2316113   6.576   6.418   7.304  0.2356 -0.6000 -0.2246
 3143poe    c2316114   6.671   6.530   7.260 -0.8424  0.4181 -0.0238
 3143poe     o216115   6.764   6.578   7.356 -0.3476  0.1751 -0.3780
 3143poe    c3116116   6.856   6.667   7.297  0.2727 -0.3992 -0.2882
 3144poe    c3116117   0.104   2.692   7.056  0.2014  0.6696  0.2886
 3144poe     o216118   0.016   2.793   7.012 -0.2673  0.0657 -0.1795
 3144poe    c2316119  -0.099   2.755   6.941 -0.1885 -0.3160 -0.1051
 3144poe    c2316120  -0.183   2.879   6.904  0.8424  0.4994  0.2612
 3144poe     o216121  -0.198   2.946   7.027 -0.6163 -0.2758  0.5185
 3144poe    c2316122  -0.262   3.070   7.003  0.1339  0.0238  0.0253
 3144poe    c2316123  -0.291   3.126   7.143  0.0902  1.0298 -0.3811
 3144poe     o216124  -0.174   3.103   7.218 -0.0593  0.5845 -0.2814
 3144poe    c2316125  -0.198   3.142   7.351 -0.0492 -0.4026  0.0169
 3144poe    c2316126  -0.098   3.250   7.394 -0.1210 -0.3132 -0.0393
 3144poe     o216127   0.034   3.202   7.379 -0.1694 -0.4975  0.1241
 3144poe    c3116128   0.118   3.315   7.387  0.1598 -0.7229 -0.1459
 3145poe    c3116129   3.739   2.260   5.302  0.0430  0.2196 -0.1897
 3145poe     o216130   3.875   2.226   5.284  0.1919  0.8569 -0.2709
 3145poe    c2316131   3.969   2.310   5.346  0.2583  0.9357 -0.4780
 3145poe    c2316132   4.104   2.243   5.315 -0.2099 -0.0846 -0.3251
 3145poe     o216133   4.126   2.118   5.377  0.0305 -0.2295 -0.6982
 3145poe    c2316134   4.245   2.051   5.344  0.1853 -0.0318 -0.5423
 3145poe    c2316135   4.239   1.917   5.420  0.2686 -0.0518 -0.5708
 3145poe     o216136   4.114   1.856   5.397  0.3569 -0.2931 -0.4071
 3145poe    c2316137   4.132   1.718   5.420  0.1370 -0.4006 -0.8699
 3145poe    c2316138   4.008   1.632   5.390 -0.3818  0.1270 -0.2610
 3145poe     o216139   3.892   1.683   5.451  0.0296  0.7018  0.0439
 3145poe    c3116140   3.806   1.575   5.478  0.6027  0.0746 -0.6178
 3146poe    c3116141   6.846   4.600   2.982  0.2667  0.1380  0.1283
 3146poe     o216142   6.732   4.637   2.906 -0.2569 -0.3267  0.6752
 3146poe    c2316143   6.672   4.755   2.955 -0.5231 -0.2307  0.1234
 3146poe    c2316144   6.672   4.868   2.851 -0.1591 -0.4430 -0.1099
 3146poe     o216145   6.581   4.849   2.746 -0.2823 -0.5773  0.0209
 3146poe    c2316146   6.589   4.962   2.662 -0.1644 -0.5100  0.1241
 3146poe    c2316147   6.448   4.980   2.603 -0.2161 -0.3785  0.2862
 3146poe     o216148   6.396   4.861   2.548 -0.4659 -0.4872  0.7462
 3146poe    c2316149   6.266   4.891   2.503 -0.2388 -0.0087  0.3908
 3146poe    c2316150   6.169   4.772   2.515 -0.0921 -0.1403  0.2802
 3146poe     o216151   6.118   4.745   2.644  0.2536  0.0284  0.4518
 3146poe    c3116152   6.046   4.625   2.638 -0.1311  0.2787  0.0360
 3147poe    c3116153   4.154   4.939   6.208  0.2861 -0.1709  0.1066
 3147poe     o216154   4.155   5.077   6.239  0.1245 -0.0785 -0.2860
 3147poe    c2316155   4.022   5.116   6.265  0.1070  0.3102 -0.9483
 3147poe    c2316156   4.026   5.270   6.262 -0.2780  0.3488  0.1517
 3147poe     o216157   4.141   5.317   6.328 -0.0923 -0.1799  0.2106
 3147poe    c2316158   4.165   5.455   6.311  0.8152 -0.4085 -0.4812
 3147poe    c2316159   4.253   5.511   6.425 -0.3979  0.0009  0.2794
 3147poe     o216160   4.364   5.426   6.447 -0.0790  0.3763  0.1290
 3147poe    c2316161   4.474   5.472   6.522 -0.4264 -0.0596  0.9160
 3147poe    c2316162   4.601   5.384   6.519 -0.7084 -0.4482  0.0527
 3147poe     o216163   4.672   5.372   6.398  0.0746 -0.1040  0.4734
 3147poe    c3116164   4.765   5.270   6.428 -0.0639 -0.3069  0.2106
 3148poe    c3116165   0.583   1.048   3.074 -0.0643  0.0515  0.2641
 3148poe     o216166   0.602   1.178   3.125  0.6777  0.0664 -0.0364
 3148poe    c2316167   0.736   1.191   3.167  0.6672  0.3609 -0.0970
 3148poe    c2316168   0.792   1.120   3.291 -0.1071  0.0770  0.0973
 3148poe     o216169   0.929   1.144   3.318 -0.2419  0.4533  0.4550
 3148poe    c2316170   0.967   1.034   3.398 -0.7262  0.3547  0.5526
 3148poe    c2316171   1.088   1.075   3.483  0.1720  0.5182 -0.7829
 3148poe     o216172   1.207   1.095   3.409  0.6763  0.0340 -0.1124
 3148poe    c2316173   1.297   1.148   3.504 -0.0359  0.3727  0.3818
 3148poe    c2316174   1.444   1.108   3.481 -0.0324  0.8349 -0.4431
 3148poe     o216175   1.458   0.970   3.507 -0.6017  0.7951 -0.3254
 3148poe    c3116176   1.591   0.935   3.477 -0.5089  0.3521  0.5422
 3149poe    c3116177   5.843   0.317   0.969 -0.1386 -0.1618  0.3758
 3149poe     o216178   5.783   0.258   1.082 -0.3073 -0.3392  0.1932
 3149poe    c2316179   5.642   0.268   1.072 -0.2097  0.1830 -0.9315
 3149poe    c2316180   5.588   0.179   1.186  0.1515  0.4661 -0.5341
 3149poe     o216181   5.650   0.214   1.307 -0.4495  0.2167 -0.1488
 3149poe    c2316182   5.593   0.149   1.419 -0.3212  0.0930 -0.1539
 3149poe    c2316183   5.673   0.169   1.550 -0.2116  0.4399 -0.2720
 3149poe     o216184   5.809   0.140   1.528 -0.2149  0.0292  0.2389
 3149poe    c2316185   5.891   0.131   1.642  0.5537  0.5833 -0.2628
 3149poe    c2316186   6.029   0.076   1.600  0.2732  0.0369 -0.4857
 3149poe     o216187   6.098   0.154   1.505 -0.1152  0.4295 -0.4500
 3149poe    c3116188   6.206   0.075   1.459 -0.6368 -0.4680 -0.1560
 3150poe    c3116189   4.875   1.307   4.926 -0.4492  0.3949 -0.1795
 3150poe     o216190   4.762   1.224   4.910 -0.1674 -0.0459  0.0814
 3150poe    c2316191   4.759   1.101   4.978 -0.0816  0.0802  0.3162
 3150poe    c2316192   4.681   1.000   4.892 -0.2765  0.5066 -0.0084
 3150poe     o216193   4.728   0.972   4.762  0.0266 -0.2092  0.2512
 3150poe    c2316194   4.801   0.851   4.765 -0.5305 -0.5561 -0.0021
 3150poe    c2316195   4.878   0.805   4.640 -0.2879  0.2223 -0.1466
 3150poe     o216196   4.805   0.744   4.536  0.0824 -0.6287  0.0847
 3150poe    c2316197   4.883   0.718   4.422  0.0636  0.0013 -0.0730
 3150poe    c2316198   4.798   0.673   4.301 -0.3080 -0.3704  0.3268
 3150poe     o216199   4.751   0.541   4.319  0.0608 -0.6128 -0.4620
 3150poe    c3116200   4.611   0.533   4.319 -0.0788  1.2619  0.5650
 3151poe    c3116201   6.274   0.670   2.960 -0.4801  0.4324 -0.3370
 3151poe     o216202   6.304   0.808   2.969  0.0828  0.3012 -0.1338
 3151poe    c2316203   6.438   0.810   3.011  0.0907 -0.2491 -0.1303
 3151poe    c2316204   6.469   0.954   3.054  0.3301 -0.1949 -0.4770
 3151poe     o216205   6.469   1.041   2.943 -0.5488 -0.0649 -0.3808
 3151poe    c2316206   6.533   1.161   2.976 -0.8754  0.0515 -0.1609
 3151poe    c2316207   6.558   1.258   2.859 -0.6752 -0.0534 -0.2067
 3151poe     o216208   6.434   1.314   2.821 -0.4586  0.7437  0.2287
 3151poe    c2316209   6.439   1.356   2.687  0.0079 -0.1873 -0.0534
 3151poe    c2316210   6.302   1.418   2.653  0.0220 -0.4960 -0.6924
 3151poe     o216211   6.199   1.324   2.670 -0.3406 -0.1120 -0.7375
 3151poe    c3116212   6.077   1.393   2.665  0.2304  1.0347  0.5788
 3152poe    c3116213   6.839   4.782   0.639 -0.0585  0.1523 -0.1318
 3152poe     o216214   6.714   4.831   0.681 -0.0148  0.5130 -0.4166
 3152poe    c2316215   6.604   4.750   0.647  0.4004 -0.5800  0.7693
 3152poe    c2316216   6.476   4.835   0.640  0.5220 -0.5124 -1.0719
 3152poe     o216217   6.474   4.944   0.550  0.3151  0.1642 -0.2535
 3152poe    c2316218   6.341   4.975   0.515  0.1356  0.1212  0.3623
 3152poe    c2316219   6.341   5.094   0.417  0.4436 -0.3428 -0.2082
 3152poe     o216220   6.409   5.189   0.495 -1.2449  0.4983  0.2869
 3152poe    c2316221   6.416   5.310   0.423  0.7749 -0.1121 -0.6266
 3152poe    c2316222   6.507   5.401   0.509 -0.1706  0.2911 -0.0321
 3152poe     o216223   6.616   5.333   0.565  0.0027 -0.0093 -0.7157
 3152poe    c3116224   6.717   5.420   0.613  0.2388 -0.5387 -0.2380
 3153poe    c3116225   3.704   5.554   4.520  0.3106  0.6805 -0.3381
 3153poe     o216226   3.608   5.605   4.610  0.3295 -0.4255  0.3432
 3153poe    c2316227   3.597   5.512   4.715  0.0590 -0.1586  0.5545
 3153poe    c2316228   3.525   5.553   4.845 -0.0932 -0.5470  0.5927
 3153poe     o216229   3.388   5.534   4.813 -0.1605 -0.3612  0.7713
 3153poe    c2316230   3.325   5.545   4.938 -0.1139  0.4687  0.7274
 3153poe    c2316231   3.188   5.475   4.927  0.1858 -0.0253  0.0586
 3153poe     o216232   3.108   5.538   4.829  0.1021  0.0975  0.2051
 3153poe    c2316233   3.025   5.637   4.886  0.0244 -0.3168  0.8186
 3153poe    c2316234   2.926   5.689   4.780  0.7428 -0.1225  0.2349
 3153poe     o216235   2.992   5.726   4.662 -0.3186  0.1210 -0.2924
 3153poe    c3116236   2.902   5.776   4.565 -0.3138  0.5340 -0.0891
 3154poe    c3116237   2.516   4.930   6.746  0.1009 -0.0998  0.6901
 3154poe     o216238   2.421   4.834   6.707  0.2784  0.1394 -0.3874
 3154poe    c2316239   2.482   4.719   6.655  0.6182  0.3983 -0.5613
 3154poe    c2316240   2.375   4.636   6.582  0.2889 -0.2109  0.5834
 3154poe     o216241   2.314   4.707   6.476  0.3674 -0.4178  0.3987
 3154poe    c2316242   2.176   4.681   6.466  0.2646  0.2772 -0.0222
 3154poe    c2316243   2.099   4.748   6.350  0.8112  0.4684 -0.2783
 3154poe     o216244   2.067   4.885   6.357  0.2470  0.3223  0.0386
 3154poe    c2316245   1.951   4.900   6.436 -0.0058  0.2380 -0.3092
 3154poe    c2316246   1.902   5.042   6.470  0.0590  0.1351  0.2266
 3154poe     o216247   1.997   5.108   6.551 -0.1414  0.2522  0.3681
 3154poe    c3116248   1.940   5.219   6.617 -0.6488 -0.0725  0.4844
 3155poe    c3116249   3.091   2.780   4.709 -0.2893 -0.4421  0.1889
 3155poe     o216250   3.129   2.660   4.772  0.1388  0.0459  0.8783
 3155poe    c2316251   3.097   2.552   4.687  0.4085  0.2817  0.4756
 3155poe    c2316252   3.118   2.406   4.731 -0.0090 -0.0756 -0.4923
 3155poe     o216253   3.256   2.376   4.728  0.0460  0.1014  0.1582
 3155poe    c2316254   3.276   2.276   4.825  0.1573 -0.4843 -0.4602
 3155poe    c2316255   3.418   2.222   4.846  0.0177 -0.7123 -0.0916
 3155poe     o216256   3.458   2.168   4.722  0.3086 -0.6962 -0.0065
 3155poe    c2316257   3.597   2.147   4.733  0.4611  0.2265 -0.0952
 3155poe    c2316258   3.655   2.127   4.592 -0.7196 -0.1120 -0.5454
 3155poe     o216259   3.603   2.005   4.544  0.4188 -0.5495 -0.6908
 3155poe    c3116260   3.661   1.985   4.417  0.7481 -0.1774 -0.6010
 3156poe    c3116261   0.514   6.578   0.340  0.1691  0.0922 -0.0407
 3156poe     o216262   0.444   6.463   0.299 -0.0196  0.3893 -0.5541
 3156poe    c2316263   0.305   6.472   0.323  0.1245 -0.3162  0.5942
 3156poe    c2316264   0.230   6.355   0.256 -0.3552  0.0698  0.4545
 3156poe     o216265   0.259   6.231   0.315 -0.0249 -0.1737 -0.2077
 3156poe    c2316266   0.151   6.141   0.304  0.2623 -0.4565 -0.7200
 3156poe    c2316267   0.114   6.066   0.433  0.3559  0.2523 -0.2729
 3156poe     o216268   0.216   5.987   0.491 -0.0992 -0.6498 -0.6706
 3156poe    c2316269   0.155   5.895   0.578 -0.4887 -0.3499 -0.6235
 3156poe    c2316270   0.255   5.780   0.600 -0.0710  0.1243 -0.0170
 3156poe     o216271   0.377   5.823   0.657 -0.2597  0.1996  0.3362
 3156poe    c3116272   0.458   5.707   0.653  0.3068  0.5993 -0.0408
 3157poe    c3116273   2.724   3.142   0.522 -0.5927  0.0922 -1.0034
 3157poe     o216274   2.584   3.149   0.537 -0.4738 -0.2455  0.3520
 3157poe    c2316275   2.516   3.027   0.513 -0.0815 -0.3810 -0.0734
 3157poe    c2316276   2.410   3.011   0.623  0.1401  0.4137  0.2622
 3157poe     o216277   2.333   3.129   0.632  0.0558  0.3265  0.7140
 3157poe    c2316278   2.284   3.146   0.763 -0.4702  0.3826  0.5102
 3157poe    c2316279   2.303   3.293   0.805 -0.0502  0.5372 -0.2172
 3157poe     o216280   2.431   3.338   0.765  0.0593  0.4531  0.0321
 3157poe    c2316281   2.492   3.398   0.877 -0.2705  0.8117  0.0234
 3157poe    c2316282   2.622   3.467   0.832 -0.0242  0.2288 -0.1740
 3157poe     o216283   2.585   3.564   0.737  0.0116 -0.0159 -0.4366
 3157poe    c3116284   2.635   3.695   0.753 -0.5450  0.1224  0.2104
 3158poe    c3116285   4.219   3.773   6.260 -0.0249  0.2708 -0.2822
 3158poe     o216286   4.187   3.698   6.145 -0.0129  0.0634 -0.1509
 3158poe    c2316287   4.294   3.698   6.053  0.0069 -0.2754 -0.1281
 3158poe    c2316288   4.257   3.631   5.919  0.7092  0.0362 -0.4842
 3158poe     o216289   4.129   3.679   5.882  0.4323 -0.4080 -0.1111
 3158poe    c2316290   4.089   3.667   5.748  0.1640  0.3577 -0.1025
 3158poe    c2316291   4.146   3.759   5.638 -0.0582  0.1111 -0.4300
 3158poe     o216292   4.116   3.897   5.637 -0.5245  0.0180 -0.0835
 3158poe    c2316293   4.175   3.957   5.523  0.1475 -0.6308 -0.0821
 3158poe    c2316294   4.152   4.104   5.486 -0.3438 -0.5723  0.4252
 3158poe     o216295   4.170   4.184   5.600 -0.0106  0.1322 -0.1060
 3158poe    c3116296   4.156   4.319   5.560 -0.0385  0.0225 -0.4612
 3159poe    c3116297   1.669   1.690   6.531 -0.3121  0.5065 -0.1563
 3159poe     o216298   1.600   1.596   6.451  0.1278  0.3584 -0.3708
 3159poe    c2316299   1.511   1.655   6.359 -0.1917  0.1948 -0.1685
 3159poe    c2316300   1.525   1.564   6.236  0.0690 -0.3365  0.2460
 3159poe     o216301   1.464   1.440   6.262  0.4834 -0.4720  0.5770
 3159poe    c2316302   1.521   1.340   6.180  0.1795 -0.0071 -0.2119
 3159poe    c2316303   1.468   1.201   6.218 -0.0675 -0.0252 -0.6219
 3159poe     o216304   1.515   1.176   6.348 -0.2012 -0.3005 -0.6254
 3159poe    c2316305   1.436   1.084   6.421  0.3414 -0.2438  0.0431
 3159poe    c2316306   1.476   0.938   6.391  0.3413 -0.2809  0.2212
 3159poe     o216307   1.570   0.902   6.489  0.6342  0.4586  0.2154
 3159poe    c3116308   1.649   0.794   6.445  0.2659  0.3653 -0.2237
 3160poe    c3116309   6.408   5.663   5.266  0.0871 -0.0128  0.3470
 3160poe     o216310   6.278   5.691   5.314  0.0021  0.1914 -0.0022
 3160poe    c2316311   6.237   5.820   5.274 -0.7386 -0.0901 -0.1615
 3160poe    c2316312   6.116   5.860   5.361 -0.0611  0.2769  0.6154
 3160poe     o216313   6.023   5.754   5.355  0.3653 -0.0553 -0.3267
 3160poe    c2316314   5.888   5.779   5.385  0.4758  0.0073  0.1231
 3160poe    c2316315   5.811   5.651   5.346  0.4191  0.2075 -0.4245
 3160poe     o216316   5.861   5.536   5.411  0.0395  0.2906  0.0251
 3160poe    c2316317   5.778   5.498   5.518  0.2368 -0.1490  0.0230
 3160poe    c2316318   5.865   5.492   5.645  0.4669 -0.3780 -0.1447
 3160poe     o216319   5.983   5.416   5.635  0.6878 -0.1098  0.3959
 3160poe    c3116320   6.020   5.399   5.770 -0.2955  0.4285  0.7430
 3161poe    c3116321   3.442   3.094   4.788  0.4427 -0.5040 -0.2158
 3161poe     o216322   3.447   3.142   4.656 -0.4834 -0.3940 -0.2160
 3161poe    c2316323   3.366   3.076   4.561  0.1200 -0.8144 -0.4428
 3161poe    c2316324   3.369   3.152   4.428 -0.2289 -0.5354 -0.2953
 3161poe     o216325   3.491   3.133   4.359  0.1077  0.3724  0.0313
 3161poe    c2316326   3.491   3.170   4.223  0.1064 -0.8660 -0.3233
 3161poe    c2316327   3.617   3.237   4.165 -0.3139  0.4237  0.2006
 3161poe     o216328   3.619   3.372   4.203 -0.4644  0.4300  0.1873
 3161poe    c2316329   3.754   3.413   4.212 -0.4927  0.6722 -0.4351
 3161poe    c2316330   3.777   3.555   4.266  0.5689  0.1157  0.6142
 3161poe     o216331   3.724   3.642   4.169  0.0311 -0.3610  0.4791
 3161poe    c3116332   3.729   3.770   4.228  0.5026 -0.4428  0.6156
 3162poe    c3116333   0.177   3.628   3.067  0.1791 -0.7231  0.0246
 3162poe     o216334   0.316   3.654   3.060 -0.0088  0.3544  0.1734
 3162poe    c2316335   0.344   3.788   3.095 -0.2730  0.3132  0.5573
 3162poe    c2316336   0.442   3.800   3.213  0.0168 -0.2058  0.3729
 3162poe     o216337   0.574   3.781   3.168  0.0267  0.5361  0.0771
 3162poe    c2316338   0.666   3.761   3.273 -0.1150  0.2267  0.1425
 3162poe    c2316339   0.788   3.675   3.236 -0.1823  0.3580 -0.3869
 3162poe     o216340   0.890   3.727   3.154  0.0290 -0.2026 -0.4874
 3162poe    c2316341   1.004   3.651   3.185  0.1138  0.3607  0.6408
 3162poe    c2316342   1.094   3.609   3.067 -0.4755  0.5950  0.1036
 3162poe     o216343   1.013   3.511   3.006 -0.5752  0.8890 -0.2383
 3162poe    c3116344   1.085   3.448   2.902 -0.3045  0.2757  0.3130
 3163poe    c3116345   5.769   6.510   0.244 -0.1247 -0.1879 -0.1882
 3163poe     o216346   5.701   6.426   0.335 -0.3073 -0.1353 -0.2754
 3163poe    c2316347   5.660   6.302   0.282 -0.3051 -0.0954 -0.3706
 3163poe    c2316348   5.521   6.258   0.332  0.0955 -0.6953  0.2297
 3163poe     o216349   5.421   6.335   0.269  0.0762 -0.3958  0.6311
 3163poe    c2316350   5.293   6.296   0.312 -0.2466  0.5806  0.5806
 3163poe    c2316351   5.182   6.372   0.237 -0.3713  0.3309  0.5086
 3163poe     o216352   5.208   6.510   0.256  0.2499  0.2850  0.0171
 3163poe    c2316353   5.091   6.586   0.235  0.0395 -0.1916 -0.5813
 3163poe    c2316354   5.075   6.703   0.334  0.1687 -0.0383 -0.7402
 3163poe     o216355   5.120   6.823   0.276  0.2951  0.0401 -0.4831
 3163poe    c3116356   5.115   6.924   0.374 -0.2487 -0.2020 -0.2591
 3164poe    c3116357   6.914   0.182   3.009 -0.1591  0.3231 -0.1972
 3164poe     o216358   6.914   0.047   3.051 -0.0368  0.2468 -0.4448
 3164poe    c2316359   6.810   0.013   3.139  0.8530  0.6159  0.7783
 3164poe    c2316360   6.826  -0.128   3.199  0.1139 -0.0607 -0.5512
 3164poe     o216361   6.842  -0.231   3.105  0.1379 -0.3900 -0.1861
 3164poe    c2316362   6.857  -0.363   3.155  0.4684 -0.0735  0.5674
 3164poe    c2316363   6.898  -0.452   3.036 -0.7651  0.4519 -0.2704
 3164poe     o216364   7.007  -0.402   2.961 -0.3882 -0.1508 -0.1265
 3164poe    c2316365   7.066  -0.498   2.876  0.0231 -0.1603  0.1651
 3164poe    c2316366   7.167  -0.586   2.951 -0.4924 -0.2406  0.7740
 3164poe     o216367   7.286  -0.514   2.975 -0.1399 -0.3640 -0.5104
 3164poe    c3116368   7.352  -0.553   3.093 -0.3938  0.2428 -0.1630
 3165poe    c3116369   0.163   6.899   0.034  0.7889  0.0416 -0.0751
 3165poe     o216370   0.114   7.024  -0.009 -0.4243 -0.7358 -1.0100
 3165poe    c2316371   0.200   7.083  -0.104  0.0343  0.1578 -0.0540
 3165poe    c2316372   0.122   7.192  -0.180  0.0897  0.2827  0.0690
 3165poe     o216373   0.102   7.285  -0.075 -0.0850  0.5491 -0.1987
 3165poe    c2316374   0.042   7.394  -0.142 -0.4913  0.4915  0.0643
 3165poe    c2316375   0.023   7.494  -0.026 -0.2541  0.3036  0.2671
 3165poe     o216376  -0.035   7.430   0.086 -0.3165  0.0475  0.0899
 3165poe    c2316377   0.007   7.481   0.211  0.2178 -0.3833  0.0881
 3165poe    c2316378  -0.021   7.361   0.303  0.7173 -0.4833  0.1158
 3165poe     o216379   0.017   7.241   0.240  0.0033 -0.3904 -0.5129
 3165poe    c3116380   0.009   7.135   0.332  0.3450  0.1548  0.1550
 3166poe    c3116381   0.105   1.907   2.659 -0.0756  0.0744  0.3488
 3166poe     o216382   0.225   1.871   2.594 -0.3048  0.1805 -0.1330
 3166poe    c2316383   0.315   1.974   2.628 -0.1924 -0.0999  0.4202
 3166poe    c2316384   0.464   1.954   2.594 -0.1930  0.3464  0.1512
 3166poe     o216385   0.527   1.841   2.651  0.3467  0.4818 -0.1711
 3166poe    c2316386   0.642   1.801   2.580  0.0530 -0.3315 -0.1960
 3166poe    c2316387   0.708   1.677   2.643 -0.1280 -0.1814  0.2980
 3166poe     o216388   0.731   1.681   2.782  0.4254  0.2366  0.1981
 3166poe    c2316389   0.803   1.564   2.811  0.5422  0.1717 -0.3549
 3166poe    c2316390   0.852   1.572   2.956 -0.0428 -0.5216 -0.1137
 3166poe     o216391   0.960   1.660   2.980 -0.1156 -0.3017 -0.5915
 3166poe    c3116392   1.002   1.630   3.111  0.7992 -0.3547 -0.8854
 3167poe    c3116393   1.419   0.612   2.517  0.1096 -0.3260  0.3643
 3167poe     o216394   1.349   0.548   2.622  0.2644 -0.3678  0.4421
 3167poe    c2316395   1.427   0.443   2.674  0.2374 -0.6081  0.0070
 3167poe    c2316396   1.351   0.404   2.802  0.0256  0.0749  0.0913
 3167poe     o216397   1.225   0.351   2.768 -0.0507  0.0284  0.4430
 3167poe    c2316398   1.171   0.268   2.869  0.6365 -1.0172 -0.0344
 3167poe    c2316399   1.017   0.268   2.861  0.6362  0.3926 -0.2378
 3167poe     o216400   0.975   0.235   2.731  0.4341  0.4374 -0.1846
 3167poe    c2316401   0.836   0.240   2.708  0.4299  0.1026 -0.2407
 3167poe    c2316402   0.814   0.195   2.563 -0.1403  0.4517 -0.2660
 3167poe     o216403   0.927   0.244   2.492 -0.3601  0.8136 -0.3691
 3167poe    c3116404   0.928   0.212   2.355 -0.5564 -0.4707 -0.0820
 3168poe    c3116405   6.519   2.976   7.286  0.4337 -0.1352 -0.6539
 3168poe     o216406   6.519   3.045   7.163 -0.2984  0.5161 -0.2973
 3168poe    c2316407   6.394   3.027   7.100 -0.3265  0.0717 -0.1205
 3168poe    c2316408   6.401   3.082   6.956  0.1856  0.3449  0.0061
 3168poe     o216409   6.413   3.222   6.971  0.2287  0.3575 -0.1535
 3168poe    c2316410   6.428   3.293   6.850  0.1692  0.2907 -0.1999
 3168poe    c2316411   6.450   3.445   6.865  0.2115  0.2765 -0.1193
 3168poe     o216412   6.567   3.462   6.943  0.1421  0.4898 -0.0613
 3168poe    c2316413   6.558   3.585   7.011 -0.0103  0.6125 -0.3026
 3168poe    c2316414   6.686   3.643   7.074  0.4710 -0.3281 -0.3937
 3168poe     o216415   6.766   3.558   7.153  0.2081 -0.2329 -0.0230
 3168poe    c3116416   6.856   3.638   7.226  0.1791  0.3667 -0.6340
 3169poe    c3116417   2.983   0.871   1.184  0.1884  0.2589  0.3779
 3169poe     o216418   2.905   0.910   1.073  0.4749  0.3694  0.2167
 3169poe    c2316419   2.981   0.988   0.983 -0.3257  0.6787 -0.2063
 3169poe    c2316420   2.950   0.975   0.833  0.3145 -0.2554 -0.2644
 3169poe     o216421   2.986   0.863   0.754  0.1693 -0.5298  0.0548
 3169poe    c2316422   2.959   0.895   0.619 -0.0842 -0.2184  0.1757
 3169poe    c2316423   2.827   0.859   0.549  0.1006 -0.4628 -0.0460
 3169poe     o216424   2.814   0.737   0.479  0.4772 -0.1125 -0.7391
 3169poe    c2316425   2.684   0.731   0.423  0.0135  0.4057  0.2601
 3169poe    c2316426   2.657   0.589   0.369 -0.4364  0.5583  0.0781
 3169poe     o216427   2.668   0.499   0.477  0.1709  0.0884 -0.3704
 3169poe    c3116428   2.728   0.373   0.453  0.3382  0.0854  0.0527
 3170poe    c3116429   6.343   6.729   1.390  0.6103  0.2857  1.1481
 3170poe     o216430   6.471   6.684   1.353  0.4201  0.6984 -0.0517
 3170poe    c2316431   6.517   6.583   1.439  0.8309  0.5656 -0.4213
 3170poe    c2316432   6.623   6.501   1.364  0.6063  0.0650 -0.1977
 3170poe     o216433   6.696   6.596   1.290  0.3714 -0.0449 -0.5724
 3170poe    c2316434   6.782   6.535   1.196  0.0014 -0.2472 -0.7806
 3170poe    c2316435   6.861   6.640   1.116 -0.0235 -0.0424 -0.5368
 3170poe     o216436   6.800   6.767   1.128 -0.7517 -0.3843 -0.5543
 3170poe    c2316437   6.899   6.851   1.074 -0.8230 -0.0649 -0.1932
 3170poe    c2316438   6.845   6.993   1.049 -0.2916  0.3449  0.9262
 3170poe     o216439   6.786   7.049   1.164 -0.6093  0.7196  0.5858
 3170poe    c3116440   6.746   7.182   1.145 -0.9606  0.4824 -0.3634
 3171poe    c3116441   0.533   4.556   4.350  0.3618  0.2787  0.1154
 3171poe     o216442   0.459   4.634   4.441 -0.6172 -0.5266  0.0301
 3171poe    c2316443   0.502   4.583   4.565  0.9932 -0.3327 -0.4356
 3171poe    c2316444   0.410   4.658   4.662  0.4827 -0.2087 -1.0070
 3171poe     o216445   0.277   4.657   4.615  0.3316  0.7039 -0.6240
 3171poe    c2316446   0.187   4.676   4.721  0.2487  0.5082 -0.6594
 3171poe    c2316447   0.045   4.636   4.674  0.0086  0.3011  0.2168
 3171poe     o216448   0.025   4.695   4.548 -0.3312 -0.1184  0.0753
 3171poe    c2316449  -0.101   4.650   4.503 -0.0867 -0.4036 -0.3281
 3171poe    c2316450  -0.136   4.740   4.383  0.1287 -0.1954 -0.2351
 3171poe     o216451  -0.036   4.718   4.287 -0.0573 -0.3238 -0.4012
 3171poe    c3116452  -0.031   4.813   4.183 -0.1387  0.1305  0.0076
 3172poe    c3116453   1.069   4.348   6.861  0.1989 -0.5168 -0.0339
 3172poe     o216454   1.146   4.237   6.824 -0.0643 -0.8518  0.4070
 3172poe    c2316455   1.274   4.287   6.790 -0.5824  0.0478 -0.2634
 3172poe    c2316456   1.306   4.307   6.641 -0.0862  0.1807 -0.1409
 3172poe     o216457   1.309   4.184   6.572 -0.3238  0.1903 -0.1697
 3172poe    c2316458   1.372   4.177   6.446 -0.1688 -0.5351 -0.0600
 3172poe    c2316459   1.393   4.034   6.394  0.1366 -0.2598 -0.7004
 3172poe     o216460   1.274   3.959   6.406 -0.3669  0.6919  0.5167
 3172poe    c2316461   1.226   3.919   6.280  0.2055  0.6125  0.3198
 3172poe    c2316462   1.100   3.842   6.325  0.3499  0.1637 -0.0269
 3172poe     o216463   1.026   3.917   6.419  0.3511 -0.1486  0.2244
 3172poe    c3116464   0.893   3.871   6.431  0.1840  0.1341 -0.4997
 3173poe    c3116465   1.756   4.984   0.473  0.1043  0.3652 -0.3130
 3173poe     o216466   1.711   5.070   0.371  0.6153  0.1275 -0.7431
 3173poe    c2316467   1.582   5.070   0.313  0.1648 -0.3444  0.2301
 3173poe    c2316468   1.529   4.943   0.243 -0.0691 -0.1084 -0.0236
 3173poe     o216469   1.607   4.927   0.126 -0.2249 -0.6327 -0.0571
 3173poe    c2316470   1.539   4.835   0.043 -0.5785 -0.5300  0.1172
 3173poe    c2316471   1.545   4.888  -0.102 -0.8796  0.2134  0.3691
 3173poe     o216472   1.520   5.026  -0.109  0.5388  0.4527 -0.2150
 3173poe    c2316473   1.480   5.042  -0.243  1.2712 -0.1992 -0.5216
 3173poe    c2316474   1.476   5.192  -0.277  0.2489 -0.1837 -0.3746
 3173poe     o216475   1.601   5.255  -0.258  0.0426  0.0466  0.2412
 3173poe    c3116476   1.613   5.363  -0.348 -0.4724  0.0914  0.2259
 3174poe    c3116477   7.252   1.596   4.389 -0.7526  0.4528  0.1978
 3174poe     o216478   7.219   1.646   4.516 -0.4533  0.1535  0.3966
 3174poe    c2316479   7.328   1.704   4.584  0.2936 -0.7201 -0.0389
 3174poe    c2316480   7.306   1.765   4.723  0.8841 -0.6919  0.0434
 3174poe     o216481   7.224   1.681   4.801  0.1787  0.0384  0.1029
 3174poe    c2316482   7.290   1.679   4.925  0.0309 -0.5120  0.1787
 3174poe    c2316483   7.213   1.748   5.040  0.0208 -0.1003 -0.0731
 3174poe     o216484   7.198   1.887   5.027  0.3566 -0.0483  0.0971
 3174poe    c2316485   7.132   1.944   5.138  0.4234  0.1808  0.0199
 3174poe    c2316486   7.199   1.947   5.276 -0.4039  0.2277  0.4248
 3174poe     o216487   7.287   2.054   5.304  0.3086 -0.2887  0.2046
 3174poe    c3116488   7.330   2.054   5.438  0.2004 -0.6408  0.2423
 3175poe    c3116489   4.837   2.063   4.447  0.6667  0.2627  0.4597
 3175poe     o216490   4.877   2.119   4.324  0.3631 -0.3662  0.0704
 3175poe    c2316491   4.875   2.017   4.227  0.2882 -0.4805  0.1927
 3175poe    c2316492   4.875   2.060   4.080 -0.2473  0.5486  0.4812
 3175poe     o216493   4.743   2.086   4.037  0.0105 -0.0679 -0.7243
 3175poe    c2316494   4.737   2.117   3.899 -0.1005 -0.3210 -0.7783
 3175poe    c2316495   4.592   2.136   3.851 -0.3376  0.1970  0.1168
 3175poe     o216496   4.528   2.013   3.828 -0.1043  0.1074 -0.0640
 3175poe    c2316497   4.406   2.013   3.757  0.0331  0.4476 -0.2988
 3175poe    c2316498   4.283   2.065   3.834 -0.0475  0.1327 -0.2166
 3175poe     o216499   4.291   2.204   3.853 -0.0640  0.0345  0.5381
 3175poe    c3116500   4.186   2.265   3.924 -0.1708  0.1787  0.2574
 3176poe    c3116501   3.210   6.772   5.394  0.0876  0.5794 -0.0504
 3176poe     o216502   3.072   6.751   5.382  0.1768 -0.3124  0.4560
 3176poe    c2316503   3.009   6.851   5.460 -0.3946 -0.1629 -0.1897
 3176poe    c2316504   2.856   6.864   5.449 -0.3813  0.1951  0.0422
 3176poe     o216505   2.776   6.820   5.557 -0.3478 -0.3784 -0.1602
 3176poe    c2316506   2.652   6.888   5.564 -0.0915  0.0619  0.1353
 3176poe    c2316507   2.564   6.841   5.682  0.1049 -0.5206  0.0559
 3176poe     o216508   2.569   6.703   5.708 -0.1808 -0.6050 -0.3263
 3176poe    c2316509   2.486   6.667   5.816 -0.0069  0.4908  0.1874
 3176poe    c2316510   2.521   6.525   5.864 -0.0934  0.2302 -0.5113
 3176poe     o216511   2.527   6.445   5.748  0.4266  0.1764 -0.4516
 3176poe    c3116512   2.538   6.308   5.779 -0.0773  0.0506 -0.8023
 3177poe    c3116513   3.862   0.438   1.984 -0.3345 -0.9507  0.5950
 3177poe     o216514   3.811   0.565   2.019 -0.0816 -0.7420  0.2157
 3177poe    c2316515   3.784   0.643   1.905  0.1423 -0.1542  0.5600
 3177poe    c2316516   3.861   0.777   1.903 -0.8545  0.4272  0.4738
 3177poe     o216517   3.813   0.873   1.993 -0.3920  0.4507  0.6970
 3177poe    c2316518   3.867   0.997   1.954  0.1007 -0.0826 -0.3605
 3177poe    c2316519   3.803   1.124   2.015  0.7035 -0.0106  0.1283
 3177poe     o216520   3.679   1.160   1.961  0.7287  0.0803  0.1311
 3177poe    c2316521   3.615   1.259   2.038  0.0484 -0.0402 -0.2687
 3177poe    c2316522   3.477   1.292   1.978  0.1015 -0.8356 -0.8494
 3177poe     o216523   3.462   1.359   1.855 -0.2284  0.5356 -0.0886
 3177poe    c3116524   3.338   1.402   1.804 -0.1487 -0.1467 -0.8664
 3178poe    c3116525   0.093   3.849   0.405  0.0090  0.2316 -0.4029
 3178poe     o216526   0.094   3.940   0.513  0.5080 -0.0478 -0.1709
 3178poe    c2316527   0.045   4.061   0.461 -0.4029 -0.3955 -0.1514
 3178poe    c2316528   0.035   4.190   0.544 -0.1555 -0.0877 -0.5949
 3178poe     o216529  -0.079   4.195   0.628 -0.2237  0.2942 -0.7071
 3178poe    c2316530  -0.090   4.109   0.738 -0.2795  0.3741 -0.6501
 3178poe    c2316531  -0.229   4.109   0.803 -0.1873  0.3297 -0.4504
 3178poe     o216532  -0.264   4.239   0.845  0.3791  0.2877  0.1723
 3178poe    c2316533  -0.376   4.220   0.927 -0.1668  0.1885 -0.5818
 3178poe    c2316534  -0.415   4.358   0.983  0.0976  0.0232  0.0152
 3178poe     o216535  -0.296   4.431   1.004  0.3443 -0.3250 -0.1661
 3178poe    c3116536  -0.317   4.529   1.103 -0.1950 -0.4507 -0.1541
 3179poe    c3116537   2.172   4.389   3.537  0.2445 -0.3915  0.3503
 3179poe     o216538   2.225   4.448   3.653  0.2973 -0.0827  0.1686
 3179poe    c2316539   2.333   4.535   3.630  0.0305  0.0718 -0.5118
 3179poe    c2316540   2.420   4.576   3.750  0.1726  0.2734 -0.6804
 3179poe     o216541   2.488   4.468   3.810  0.0856  0.6573  0.1222
 3179poe    c2316542   2.576   4.519   3.908  1.1720  0.0124 -0.4997
 3179poe    c2316543   2.654   4.410   3.984  0.1947 -0.2044  0.2236
 3179poe     o216544   2.567   4.332   4.063 -0.2777 -0.0648 -0.1545
 3179poe    c2316545   2.626   4.249   4.160  0.1802 -0.1902 -0.5343
 3179poe    c2316546   2.533   4.149   4.231 -0.6920  0.8512 -0.1688
 3179poe     o216547   2.460   4.084   4.130 -0.2368  0.3898 -0.2048
 3179poe    c3116548   2.354   4.013   4.190 -0.0002 -0.0930 -0.3490
 3180poe    c3116549   4.085   5.144   5.496  0.3408 -0.2311  0.2702
 3180poe     o216550   4.217   5.178   5.459 -0.0671  0.3381 -0.7100
 3180poe    c2316551   4.304   5.115   5.552 -0.7080 -0.2883 -0.5273
 3180poe    c2316552   4.440   5.180   5.522 -0.7065  0.0784  0.2495
 3180poe     o216553   4.417   5.317   5.501 -0.1308  0.0943 -0.3266
 3180poe    c2316554   4.541   5.384   5.493  0.0351 -0.2503 -0.6377
 3180poe    c2316555   4.523   5.527   5.439 -0.1069 -0.0265 -0.0100
 3180poe     o216556   4.452   5.504   5.319  0.0695 -0.0996 -0.1008
 3180poe    c2316557   4.420   5.625   5.254 -0.4446 -0.1685  0.0194
 3180poe    c2316558   4.396   5.580   5.109  0.0375  0.1487 -0.1627
 3180poe     o216559   4.502   5.509   5.050  0.1531 -0.0661  0.3046
 3180poe    c3116560   4.455   5.442   4.936  0.2435 -0.0097  0.2339
 3181poe    c3116561   2.195   0.555   5.385  0.0555  0.1026  0.0928
 3181poe     o216562   2.210   0.534   5.246 -0.4655  0.4102 -0.0113
 3181poe    c2316563   2.219   0.649   5.165  0.4504  0.2325 -0.1710
 3181poe    c2316564   2.299   0.616   5.037 -0.4934  0.5607 -0.8594
 3181poe     o216565   2.251   0.496   4.983  0.0018 -0.1822  0.3081
 3181poe    c2316566   2.335   0.439   4.884 -0.1797  0.0193  0.0377
 3181poe    c2316567   2.261   0.340   4.792  0.3711 -0.2108 -0.1593
 3181poe     o216568   2.188   0.237   4.855 -0.5535  0.4573 -0.1180
 3181poe    c2316569   2.132   0.150   4.760  0.4745 -0.1806 -0.1501
 3181poe    c2316570   2.066   0.033   4.836  0.6647 -0.0856  0.1627
 3181poe     o216571   2.001   0.092   4.946 -0.7840 -0.3248 -0.5530
 3181poe    c3116572   1.960  -0.002   5.042  0.4757 -0.3063  0.0191
 3182poe    c3116573   5.359   4.365   0.964  0.6983 -0.1705 -0.0510
 3182poe     o216574   5.413   4.486   1.011  0.8749 -0.4671  0.5169
 3182poe    c2316575   5.441   4.561   0.895  0.4484 -0.0023  0.7086
 3182poe    c2316576   5.531   4.680   0.933 -0.1399  0.5971  0.2270
 3182poe     o216577   5.665   4.642   0.910 -0.2253  0.1096  0.5204
 3182poe    c2316578   5.728   4.729   0.818  0.0049 -0.4250  0.1690
 3182poe    c2316579   5.871   4.675   0.798  0.1058 -0.0062 -0.2377
 3182poe     o216580   5.978   4.736   0.866 -0.4939 -0.1590  0.8635
 3182poe    c2316581   6.099   4.667   0.841 -0.4446  0.3953 -0.4977
 3182poe    c2316582   6.214   4.728   0.922 -0.3822 -0.4454  0.0581
 3182poe     o216583   6.250   4.864   0.907 -0.2584 -0.4697  0.1337
 3182poe    c3116584   6.373   4.890   0.970 -0.2451  0.0680 -0.1119
 3183poe    c3116585   3.070   4.824   0.722 -0.3612  0.2818  0.3072
 3183poe     o216586   3.117   4.696   0.760 -0.1277  0.2789  0.0091
 3183poe    c2316587   3.027   4.630   0.846  0.3969  0.5862  0.8026
 3183poe    c2316588   3.101   4.518   0.922  0.0264 -0.5372 -0.4518
 3183poe     o216589   3.212   4.582   0.982 -0.4343 -0.3085  0.1567
 3183poe    c2316590   3.300   4.484   1.034 -0.5695 -0.2268  0.5446
 3183poe    c2316591   3.405   4.545   1.128 -0.2427  0.2425 -0.1199
 3183poe     o216592   3.488   4.633   1.055  0.2989 -0.3855 -0.2749
 3183poe    c2316593   3.604   4.684   1.117  0.2749 -0.2654 -0.3286
 3183poe    c2316594   3.651   4.801   1.027  0.6047 -0.2708 -0.1630
 3183poe     o216595   3.572   4.917   1.016  0.5038 -0.3570 -0.3537
 3183poe    c3116596   3.641   5.024   1.077 -0.1653  0.0613 -0.3219
 3184poe    c3116597   4.033   3.113   2.688 -0.5456  0.2706 -0.2500
 3184poe     o216598   4.046   3.231   2.763 -0.8726  0.1769 -0.0438
 3184poe    c2316599   4.059   3.196   2.899  0.0584  0.4643 -0.0517
 3184poe    c2316600   4.103   3.319   2.980 -0.2120  0.7609 -0.3541
 3184poe     o216601   4.242   3.340   2.993 -0.1841  0.3784 -0.0336
 3184poe    c2316602   4.268   3.444   3.085  0.2959 -0.1682  0.4547
 3184poe    c2316603   4.236   3.590   3.049 -0.1557 -0.1247  1.0277
 3184poe     o216604   4.099   3.622   3.039 -0.1797 -0.4187  0.3700
 3184poe    c2316605   4.086   3.750   2.982 -0.3335 -0.5443  0.1210
 3184poe    c2316606   3.954   3.811   3.033 -0.2470 -0.5020  0.2927
 3184poe     o216607   3.958   3.842   3.171 -0.0841 -0.0374  0.1848
 3184poe    c3116608   3.827   3.870   3.215 -0.0862 -0.1010  0.2181
 3185poe    c3116609   1.866   2.107   6.769 -0.9601 -0.6172  0.0971
 3185poe     o216610   1.909   2.087   6.636  0.2270 -0.4434  0.4364
 3185poe    c2316611   1.801   2.077   6.545  0.5750  0.4568 -0.0837
 3185poe    c2316612   1.865   2.033   6.412  0.2658 -0.5001  0.0802
 3185poe     o216613   1.951   1.925   6.442  0.3812 -0.4334 -0.0082
 3185poe    c2316614   1.965   1.851   6.322  0.5480  0.2946 -0.4420
 3185poe    c2316615   2.003   1.704   6.348 -0.1239  0.1701 -0.1424
 3185poe     o216616   2.140   1.704   6.379 -0.0848  0.4197 -0.3069
 3185poe    c2316617   2.190   1.574   6.402  0.2067  0.5563 -0.1619
 3185poe    c2316618   2.344   1.569   6.388  0.2096 -0.4346  0.1443
 3185poe     o216619   2.406   1.645   6.489  0.2106  0.0410 -0.2114
 3185poe    c3116620   2.539   1.599   6.483  0.0216 -0.5308 -0.1153
 3186poe    c3116621   6.564   0.389   1.345  0.1887 -0.0733 -0.1327
 3186poe     o216622   6.596   0.471   1.455 -0.0464  0.1024 -0.1936
 3186poe    c2316623   6.545   0.419   1.576  0.4036 -0.4345 -0.2304
 3186poe    c2316624   6.584   0.507   1.696  0.2459 -0.3746 -0.2231
 3186poe     o216625   6.724   0.513   1.710  0.2385 -0.2286 -0.2080
 3186poe    c2316626   6.781   0.609   1.796 -0.0427 -0.2675  0.0205
 3186poe    c2316627   6.932   0.582   1.788 -0.0115 -0.0167 -0.2440
 3186poe     o216628   6.978   0.629   1.663 -0.1081 -0.2591 -0.3711
 3186poe    c2316629   7.118   0.626   1.665 -0.1136 -0.8774 -0.6445
 3186poe    c2316630   7.195   0.670   1.538  0.0319 -0.1273 -0.3037
 3186poe     o216631   7.160   0.594   1.424  0.1467 -0.3259 -0.2069
 3186poe    c3116632   7.240   0.648   1.321 -0.6815  0.6593 -0.3427
 3187poe    c3116633   4.377   1.861   6.533 -0.0720 -0.4910  0.4874
 3187poe     o216634   4.429   1.908   6.655  0.3937  0.1397  0.0541
 3187poe    c2316635   4.542   1.830   6.689  0.2247 -0.2325 -0.2222
 3187poe    c2316636   4.674   1.855   6.613  0.3582  0.0821  0.1060
 3187poe     o216637   4.738   1.980   6.623 -0.4166  0.4851  0.0840
 3187poe    c2316638   4.824   1.993   6.734 -0.0851  0.0666 -0.1199
 3187poe    c2316639   4.895   2.129   6.736 -0.8012  0.4556 -0.6777
 3187poe     o216640   4.808   2.215   6.806 -0.4613 -0.0507  0.3854
 3187poe    c2316641   4.876   2.326   6.860  0.0185 -0.2537  0.2010
 3187poe    c2316642   4.785   2.416   6.945  0.1240 -0.7327  0.8256
 3187poe     o216643   4.669   2.446   6.871  0.8521  0.2173  0.0502
 3187poe    c3116644   4.586   2.527   6.952  0.3946 -0.2780  0.0804
 3188poe    c3116645   2.219   6.056   2.385  0.0107 -0.7197  0.1121
 3188poe     o216646   2.322   6.011   2.470 -0.0387 -0.5988  0.2372
 3188poe    c2316647   2.299   6.011   2.609 -0.4442  0.2995  0.1771
 3188poe    c2316648   2.427   5.970   2.684 -0.1649 -0.1832 -0.5508
 3188poe     o216649   2.465   5.837   2.658 -0.3408 -0.3802  0.1828
 3188poe    c2316650   2.604   5.853   2.636 -0.3975 -0.2273 -0.0682
 3188poe    c2316651   2.667   5.713   2.620  0.6793  0.2399  0.0271
 3188poe     o216652   2.585   5.616   2.681  0.3992  0.3085 -0.2363
 3188poe    c2316653   2.648   5.490   2.677  0.3375  0.2592  0.2315
 3188poe    c2316654   2.566   5.374   2.735 -0.5148  0.3983 -0.6649
 3188poe     o216655   2.541   5.373   2.874  0.6258  0.4201 -0.4488
 3188poe    c3116656   2.535   5.242   2.925 -0.8507  0.6770  0.0916
 3189poe    c3116657   0.836   6.244   2.900  0.0780 -0.3698 -0.7224
 3189poe     o216658   0.890   6.118   2.932  0.2984 -0.0993 -0.0064
 3189poe    c2316659   0.980   6.058   2.841  0.2909 -0.2381  0.0778
 3189poe    c2316660   1.069   5.949   2.905  0.4111 -0.6434 -0.7740
 3189poe     o216661   1.148   5.990   3.014 -0.2366 -0.3887 -0.3937
 3189poe    c2316662   1.225   5.886   3.070  0.5149  0.2604 -0.1998
 3189poe    c2316663   1.336   5.924   3.170  0.3308 -0.2086  0.1842
 3189poe     o216664   1.270   5.988   3.276  0.0566  0.0939 -0.1682
 3189poe    c2316665   1.365   5.998   3.380  0.0651 -0.7341 -0.0916
 3189poe    c2316666   1.295   6.078   3.492 -0.2115  0.1350 -0.8718
 3189poe     o216667   1.297   6.215   3.457  0.0256  0.2529 -0.4129
 3189poe    c3116668   1.206   6.288   3.535 -0.3734 -0.4172 -0.2407
 3190poe    c3116669   5.140   0.011   1.499 -0.4378 -0.4244  0.1122
 3190poe     o216670   5.061   0.097   1.420  0.2073  0.1379  0.0710
 3190poe    c2316671   4.954   0.156   1.490 -0.4285 -0.4735 -0.3700
 3190poe    c2316672   4.859   0.185   1.372 -0.3078 -0.6631 -0.5148
 3190poe     o216673   4.933   0.251   1.272 -0.0398 -0.3138 -0.0910
 3190poe    c2316674   4.852   0.272   1.159 -0.0829 -0.0344 -0.0077
 3190poe    c2316675   4.912   0.382   1.068 -0.1760  0.0429  0.0238
 3190poe     o216676   5.045   0.343   1.045 -0.1272  0.2230  0.0047
 3190poe    c2316677   5.108   0.394   0.930 -0.1599 -0.3939 -0.2901
 3190poe    c2316678   5.249   0.452   0.947 -0.2191 -0.1560 -0.5899
 3190poe     o216679   5.247   0.583   0.999 -0.1416 -0.2961 -0.2345
 3190poe    c3116680   5.379   0.631   0.994 -0.1409 -0.2847 -0.1260
 3191poe    c3116681   1.070   3.953   0.464  0.6323 -1.0128 -0.7838
 3191poe     o216682   1.104   4.045   0.363 -0.5782  0.5653  0.1864
 3191poe    c2316683   1.000   4.044   0.268 -0.1036  0.0708 -0.3362
 3191poe    c2316684   1.043   4.052   0.120  0.1821 -0.0455 -0.2602
 3191poe     o216685   1.087   4.181   0.087 -0.1786  0.0939 -0.2027
 3191poe    c2316686   1.097   4.193  -0.053  0.1316  0.6325 -0.1398
 3191poe    c2316687   0.978   4.259  -0.125 -0.1407 -0.1242 -0.3991
 3191poe     o216688   0.939   4.387  -0.082  0.2297 -0.0457 -0.2886
 3191poe    c2316689   0.798   4.391  -0.072  0.2552  0.0024  0.0549
 3191poe    c2316690   0.761   4.539  -0.089  0.1153 -0.0354  0.0338
 3191poe     o216691   0.793   4.585  -0.219 -0.1388  0.5087  0.1582
 3191poe    c3116692   0.791   4.725  -0.228 -0.6261  0.4751 -0.2734
 3192poe    c3116693   0.393   5.281   3.165 -0.3063 -0.3979 -0.2220
 3192poe     o216694   0.509   5.224   3.109 -0.2281 -0.2166 -0.2449
 3192poe    c2316695   0.607   5.231   3.210 -0.2858 -0.1885 -0.1908
 3192poe    c2316696   0.712   5.127   3.166 -0.2741 -0.0027 -0.6104
 3192poe     o216697   0.635   5.012   3.139  0.0733 -0.3530 -0.1162
 3192poe    c2316698   0.721   4.915   3.084  0.4404 -0.6280  0.9019
 3192poe    c2316699   0.647   4.782   3.065 -0.4505 -0.0434  0.1834
 3192poe     o216700   0.531   4.817   2.993  0.2045  0.2293 -0.7630
 3192poe    c2316701   0.433   4.715   2.998  0.7288 -0.2702 -0.4699
 3192poe    c2316702   0.324   4.724   2.889 -0.1608  0.1304  0.4365
 3192poe     o216703   0.248   4.843   2.887 -0.0983  0.1717  0.5225
 3192poe    c3116704   0.131   4.844   2.966 -0.2440  0.5582  0.3043
 3193poe    c3116705   5.395   5.206   1.592  0.3873 -0.5068  0.2632
 3193poe     o216706   5.340   5.240   1.717 -0.0984  0.3980 -0.1877
 3193poe    c2316707   5.391   5.158   1.820 -0.2319  0.2689 -0.2248
 3193poe    c2316708   5.315   5.184   1.951  0.4105 -0.0411  0.2148
 3193poe     o216709   5.309   5.325   1.957 -0.1887 -0.0401 -0.2826
 3193poe    c2316710   5.247   5.380   2.071 -0.0158 -0.2218 -0.0999
 3193poe    c2316711   5.262   5.534   2.074 -0.1793 -0.2166  0.4113
 3193poe     o216712   5.237   5.579   1.943  0.9201 -0.1595  0.2109
 3193poe    c2316713   5.205   5.717   1.948  0.6621 -0.2148  0.0882
 3193poe    c2316714   5.187   5.769   1.804  0.2119  0.1260  0.2671
 3193poe     o216715   5.307   5.773   1.729  0.0532 -0.2050 -0.0060
 3193poe    c3116716   5.375   5.893   1.703  0.4730 -0.3733  0.2997
 3194poe    c3116717   4.759   4.622   5.269 -0.2092  0.6655 -0.2336
 3194poe     o216718   4.627   4.623   5.220 -0.3480 -0.0456  0.1065
 3194poe    c2316719   4.533   4.629   5.324  0.0043  0.6705  0.3896
 3194poe    c2316720   4.392   4.641   5.263  0.3942  0.2753 -0.5982
 3194poe     o216721   4.360   4.531   5.180 -0.6121  0.1389 -0.0413
 3194poe    c2316722   4.222   4.536   5.152 -0.5104  0.2649 -0.5251
 3194poe    c2316723   4.221   4.467   5.015  0.0673 -0.3804 -0.2076
 3194poe     o216724   4.261   4.559   4.916  0.0209 -0.4110 -0.2549
 3194poe    c2316725   4.237   4.520   4.782  0.2880 -0.2790 -0.3403
 3194poe    c2316726   4.318   4.621   4.698  0.0156 -0.0133 -0.2854
 3194poe     o216727   4.451   4.633   4.745  0.0379 -0.1349 -0.3162
 3194poe    c3116728   4.541   4.646   4.638  0.1296  0.0761 -0.2125
 3195poe    c3116729   7.246   2.303   2.746 -0.2496  0.1094  0.6468
 3195poe     o216730   7.120   2.335   2.800 -0.6328 -0.1932 -0.0590
 3195poe    c2316731   7.028   2.269   2.716 -0.3302  0.0346 -0.5723
 3195poe    c2316732   6.884   2.308   2.754 -0.1654  0.0345  0.0657
 3195poe     o216733   6.860   2.289   2.891  0.2622  0.4179  0.1963
 3195poe    c2316734   6.731   2.263   2.942  0.1242  0.6629 -0.0301
 3195poe    c2316735   6.738   2.141   3.036 -0.2880  0.6342 -0.0338
 3195poe     o216736   6.794   2.177   3.160 -0.1230 -0.3346  0.1764
 3195poe    c2316737   6.808   2.069   3.251 -0.4623  0.0225  0.6534
 3195poe    c2316738   6.755   2.106   3.391 -0.9514 -0.0835  0.5004
 3195poe     o216739   6.825   2.222   3.431 -0.6389 -0.1474  0.1414
 3195poe    c3116740   6.793   2.281   3.554  0.3149  0.1159  0.2713
 3196poe    c3116741   5.537   1.269   1.481  0.5266 -0.0629  0.1932
 3196poe     o216742   5.567   1.189   1.369 -0.5736 -0.0635 -0.1110
 3196poe    c2316743   5.482   1.077   1.354  0.1669 -0.6642  0.1602
 3196poe    c2316744   5.521   1.003   1.225  0.4989  0.6846 -0.5384
 3196poe     o216745   5.660   1.013   1.203  0.6513  0.2854  0.2077
 3196poe    c2316746   5.708   0.948   1.087 -0.5549 -0.4763  0.1168
 3196poe    c2316747   5.860   0.971   1.080 -0.6644  0.2066 -0.0252
 3196poe     o216748   5.899   1.105   1.102 -0.3655  0.1084  0.0464
 3196poe    c2316749   6.035   1.130   1.075 -0.4799  0.4449 -0.2257
 3196poe    c2316750   6.122   1.107   1.199 -0.5005  0.7797 -0.1498
 3196poe     o216751   6.086   1.180   1.315 -0.0081  0.8944 -0.0646
 3196poe    c3116752   6.186   1.174   1.414 -0.5007 -0.4278  0.3702
 3197poe    c3116753   5.428   0.591   5.321  0.3325 -0.2918  0.4595
 3197poe     o216754   5.478   0.700   5.395 -0.5685  0.3225  0.1925
 3197poe    c2316755   5.574   0.761   5.311 -0.2035 -0.2809  0.1657
 3197poe    c2316756   5.657   0.854   5.402  0.3823 -0.1310 -0.5124
 3197poe     o216757   5.584   0.972   5.426 -0.3244 -0.5903 -0.3481
 3197poe    c2316758   5.667   1.060   5.499 -0.6416 -0.5578 -0.0227
 3197poe    c2316759   5.587   1.172   5.567 -0.1772 -0.0845 -0.2460
 3197poe     o216760   5.527   1.263   5.477 -0.1521 -0.2242 -0.4026
 3197poe    c2316761   5.442   1.352   5.545  0.4951  0.4573 -0.4817
 3197poe    c2316762   5.311   1.376   5.467  0.1277 -0.4289 -0.1416
 3197poe     o216763   5.329   1.439   5.342  0.5592 -0.3850 -0.0610
 3197poe    c3116764   5.223   1.400   5.258 -0.2453  0.1198  0.6962
 3198poe    c3116765   0.070   5.389   3.687 -0.2430  0.1136  0.8978
 3198poe     o216766   0.193   5.455   3.708  0.1634 -0.4358  0.2628
 3198poe    c2316767   0.257   5.477   3.584 -0.1311  0.0132  0.1842
 3198poe    c2316768   0.388   5.552   3.617  0.2517 -0.8060  0.5776
 3198poe     o216769   0.356   5.644   3.719 -0.0989 -0.6870  0.3611
 3198poe    c2316770   0.464   5.722   3.764 -0.6034  0.5149 -0.4320
 3198poe    c2316771   0.424   5.827   3.869  0.1946 -0.0231  0.4327
 3198poe     o216772   0.338   5.767   3.964  0.3435 -0.1699  0.4745
 3198poe    c2316773   0.333   5.831   4.089 -0.1085  0.3991  0.1673
 3198poe    c2316774   0.253   5.755   4.197 -0.1144 -0.2130 -0.2656
 3198poe     o216775   0.320   5.634   4.223 -0.3946 -0.2733  0.1825
 3198poe    c3116776   0.321   5.595   4.358 -0.4992 -0.4617  0.1291
 3199poe    c3116777   6.907   1.035   1.314  0.2894  0.5117 -0.5830
 3199poe     o216778   6.931   0.941   1.211 -0.1467  0.1428 -0.3508
 3199poe    c2316779   7.041   0.995   1.141  0.1637  0.2342  0.1982
 3199poe    c2316780   7.088   0.907   1.024 -0.1305 -0.1654  0.3776
 3199poe     o216781   7.003   0.942   0.916  0.3110  0.2690  0.1666
 3199poe    c2316782   7.088   0.941   0.804 -0.2014  1.1812 -0.2418
 3199poe    c2316783   7.002   0.982   0.683  0.0710  0.1491 -0.8015
 3199poe     o216784   6.905   0.883   0.657 -0.0760  0.0792 -0.0156
 3199poe    c2316785   6.805   0.937   0.573 -0.1106  0.5709  0.3384
 3199poe    c2316786   6.670   0.862   0.572  0.2235 -0.0436  0.4155
 3199poe     o216787   6.587   0.876   0.684 -0.1434 -0.0303  0.1432
 3199poe    c3116788   6.496   0.769   0.696 -0.2434  0.0668  0.2560
 3200poe    c3116789   2.503   3.878   1.061 -0.0194 -0.4899  0.4958
 3200poe     o216790   2.458   3.969   1.158 -0.0633  0.1381 -0.1056
 3200poe    c2316791   2.534   4.083   1.193 -0.1306  0.3176 -0.5436
 3200poe    c2316792   2.636   4.067   1.307 -0.1608 -0.1879 -0.5834
 3200poe     o216793   2.597   3.991   1.419 -0.0695  0.4125 -0.1337
 3200poe    c2316794   2.714   3.970   1.496  0.0979  0.2803 -0.4199
 3200poe    c2316795   2.692   3.864   1.605  0.3086 -0.0882 -0.7327
 3200poe     o216796   2.563   3.870   1.663  0.4432  0.1420 -0.4500
 3200poe    c2316797   2.527   3.791   1.774  0.0021  0.5891 -0.2768
 3200poe    c2316798   2.382   3.833   1.808 -0.3211 -0.6513 -0.0735
 3200poe     o216799   2.322   3.884   1.692 -0.1043 -0.2266 -0.0016
 3200poe    c3116800   2.183   3.906   1.699 -0.0091  0.2883  0.4193
 3201poe    c3116801   2.357   1.533   0.865  0.4718  0.0482 -0.2111
 3201poe     o216802   2.332   1.438   0.967 -0.7154 -0.2347 -0.7608
 3201poe    c2316803   2.405   1.323   0.930 -0.5439 -0.2218 -0.4622
 3201poe    c2316804   2.394   1.207   1.031 -0.0493 -0.2688 -0.4596
 3201poe     o216805   2.273   1.140   1.004 -0.5554  0.4663 -0.0665
 3201poe    c2316806   2.281   1.044   0.901  1.1376 -0.6888  1.0824
 3201poe    c2316807   2.190   0.935   0.960 -0.0433 -0.1304  0.3317
 3201poe     o216808   2.259   0.838   1.036  0.1838 -0.2218  0.0107
 3201poe    c2316809   2.193   0.786   1.149  0.2671  0.1947  0.2551
 3201poe    c2316810   2.073   0.689   1.140  0.5179 -0.0710 -0.2739
 3201poe     o216811   1.948   0.753   1.130  0.3579 -0.3035  0.2192
 3201poe    c3116812   1.850   0.661   1.173 -0.0389  0.2684  0.5427
 3202poe    c3116813   5.053   6.230   3.185 -0.1352 -0.2188 -0.1558
 3202poe     o216814   5.133   6.342   3.152  0.1613 -0.3548  0.0993
 3202poe    c2316815   5.102   6.462   3.219  0.1692 -0.2794 -0.0314
 3202poe    c2316816   5.214   6.563   3.250  0.0254 -0.2980  0.5766
 3202poe     o216817   5.264   6.627   3.134 -0.1540 -0.0041  0.6615
 3202poe    c2316818   5.380   6.704   3.159 -0.1880  0.2967 -0.0848
 3202poe    c2316819   5.507   6.637   3.104 -0.0853  0.2561  0.1990
 3202poe     o216820   5.549   6.509   3.146  0.1024  0.1945 -0.1680
 3202poe    c2316821   5.689   6.506   3.131  0.1496  0.7070  0.1439
 3202poe    c2316822   5.749   6.409   3.234  0.1509  0.1843 -0.3409
 3202poe     o216823   5.694   6.281   3.249 -0.5390  0.5104 -0.0071
 3202poe    c3116824   5.760   6.178   3.179 -0.3294  0.5413  0.1454
 3203poe    c3116825   6.638   1.907   1.824  0.4682  0.2340 -0.1783
 3203poe     o216826   6.642   1.791   1.744 -0.6685 -0.2572  0.4605
 3203poe    c2316827   6.740   1.701   1.789  0.5266  0.3407 -0.8879
 3203poe    c2316828   6.751   1.565   1.716 -0.3739 -0.0660 -0.2767
 3203poe     o216829   6.797   1.578   1.584  0.2368 -0.0569 -0.0647
 3203poe    c2316830   6.936   1.580   1.558  0.2426  0.1766 -0.0111
 3203poe    c2316831   6.954   1.578   1.406 -0.1296 -0.0975 -0.0528
 3203poe     o216832   6.933   1.705   1.348  0.5792 -0.0237 -0.1613
 3203poe    c2316833   7.054   1.766   1.308  0.6602  0.0710  0.2225
 3203poe    c2316834   7.029   1.900   1.237 -0.4790 -0.2259  0.0367
 3203poe     o216835   6.946   1.901   1.123 -0.4437 -0.0078  0.0120
 3203poe    c3116836   6.915   2.033   1.083 -0.7858 -0.1452 -0.1791
 3204poe    c3116837   5.092   5.044   7.127  0.4563 -0.0314 -0.3411
 3204poe     o216838   4.955   5.012   7.144  0.3719  0.2572 -0.4687
 3204poe    c2316839   4.893   4.941   7.040 -0.1728 -0.0157  0.0361
 3204poe    c2316840   4.759   4.875   7.077 -0.1670  0.1625  0.3732
 3204poe     o216841   4.659   4.973   7.093 -0.3021  0.0652  0.1269
 3204poe    c2316842   4.550   4.906   7.154 -0.1514 -0.3369 -0.0467
 3204poe    c2316843   4.461   4.997   7.240  0.1236 -0.4246  0.3286
 3204poe     o216844   4.529   5.057   7.349  0.0514 -0.1641  0.2303
 3204poe    c2316845   4.444   5.111   7.447 -0.0424  0.1640 -0.0271
 3204poe    c2316846   4.508   5.240   7.503 -0.3337  0.2716  0.0569
 3204poe     o216847   4.645   5.212   7.522 -0.0672  0.9982 -0.7468
 3204poe    c3116848   4.707   5.330   7.567  0.1271  0.6825 -0.1848
 3205poe    c3116849   6.739   3.257   4.379  0.1379  0.2499 -0.0718
 3205poe     o216850   6.599   3.254   4.365  0.1612 -0.5539 -0.1466
 3205poe    c2316851   6.562   3.337   4.257  0.0598 -0.6583 -0.1926
 3205poe    c2316852   6.422   3.305   4.201 -0.3857  1.3193 -0.2804
 3205poe     o216853   6.318   3.320   4.295 -0.7851  0.2124 -0.5292
 3205poe    c2316854   6.212   3.397   4.243 -0.2971  0.8602 -0.5802
 3205poe    c2316855   6.104   3.427   4.349 -0.2514  0.0864 -0.3091
 3205poe     o216856   6.165   3.478   4.464 -0.2131 -0.6747  0.0159
 3205poe    c2316857   6.082   3.527   4.567  0.2238  0.4359 -0.1434
 3205poe    c2316858   6.156   3.540   4.701  0.5243 -0.4202 -0.2223
 3205poe     o216859   6.225   3.423   4.741 -0.1826 -0.6415  0.3733
 3205poe    c3116860   6.306   3.471   4.846  0.3226 -0.3638 -0.1377
 3206poe    c3116861   6.459   3.448   5.680  0.3057  0.1323  0.6041
 3206poe     o216862   6.535   3.348   5.745 -0.2669 -0.3398  0.5607
 3206poe    c2316863   6.522   3.227   5.675 -0.5439 -0.2741  0.4990
 3206poe    c2316864   6.600   3.109   5.737  0.1557 -0.4493 -0.6710
 3206poe     o216865   6.545   3.062   5.858  0.4853  0.4618 -0.1563
 3206poe    c2316866   6.590   2.940   5.912  0.2938  0.5692  0.2536
 3206poe    c2316867   6.508   2.900   6.036  0.0965  0.0225 -0.0504
 3206poe     o216868   6.488   3.014   6.117  0.0448  0.1272 -0.2088
 3206poe    c2316869   6.405   2.975   6.224  0.0484  0.2383 -0.1648
 3206poe    c2316870   6.368   3.099   6.307  0.5463 -0.0198  0.4438
 3206poe     o216871   6.331   3.195   6.211  0.8051  0.0536  0.4169
 3206poe    c3116872   6.316   3.324   6.267 -0.4667  0.0114  0.1917
 3207poe    c3116873   1.521   6.402   2.475 -0.0557 -0.3173 -0.6140
 3207poe     o216874   1.644   6.450   2.524 -0.3555  0.1491 -0.3030
 3207poe    c2316875   1.740   6.347   2.519 -0.0348  0.3962  0.5763
 3207poe    c2316876   1.881   6.383   2.571  0.0555  0.4553  0.2937
 3207poe     o216877   1.863   6.414   2.708  0.1743  0.0083  0.4123
 3207poe    c2316878   1.988   6.448   2.764  0.3995 -0.4520  0.1968
 3207poe    c2316879   1.965   6.512   2.902  0.5667 -0.0271  0.0304
 3207poe     o216880   1.955   6.412   3.002 -0.7457  0.4118  0.3673
 3207poe    c2316881   1.966   6.463   3.133  0.4109  0.1916  0.3674
 3207poe    c2316882   1.919   6.348   3.224 -0.1848  0.0253 -0.1404
 3207poe     o216883   2.016   6.246   3.230 -0.5651 -0.3910 -0.9467
 3207poe    c3116884   1.969   6.145   3.316  0.1576  0.0509 -0.0112
 3208poe    c3116885   6.137   6.793   2.768  0.0745 -0.4723  0.0708
 3208poe     o216886   6.151   6.912   2.694  0.1303 -0.1987  0.5200
 3208poe    c2316887   6.074   7.005   2.767 -0.0435  0.1416 -0.0893
 3208poe    c2316888   6.043   7.131   2.684 -0.2161  0.0283 -0.1949
 3208poe     o216889   6.167   7.198   2.685 -0.0881 -0.2066 -0.1038
 3208poe    c2316890   6.153   7.327   2.630 -0.2169 -0.1565  0.0468
 3208poe    c2316891   6.269   7.415   2.682 -0.1081 -0.3590  0.1501
 3208poe     o216892   6.386   7.338   2.677 -0.2657 -0.6205  0.5100
 3208poe    c2316893   6.498   7.423   2.681 -0.1555 -0.7500  0.2006
 3208poe    c2316894   6.642   7.376   2.650 -0.0170 -0.4053  0.3158
 3208poe     o216895   6.696   7.297   2.753  0.5710 -0.0045  0.3191
 3208poe    c3116896   6.822   7.249   2.710  0.6242 -0.0005  0.4699
 3209poe    c3116897   0.962   4.007   1.365  0.1614 -0.6436 -0.2857
 3209poe     o216898   0.907   4.096   1.461 -0.0211 -0.4597 -0.5572
 3209poe    c2316899   0.769   4.076   1.482  0.0281 -0.0131  0.2210
 3209poe    c2316900   0.713   4.178   1.582  0.2749  0.3836 -0.0417
 3209poe     o216901   0.724   4.315   1.549  0.1212  0.2713 -0.5567
 3209poe    c2316902   0.661   4.386   1.653 -0.1953 -0.2257 -0.4035
 3209poe    c2316903   0.678   4.535   1.615  0.1443  0.0946  0.9410
 3209poe     o216904   0.814   4.562   1.590 -0.0624  0.1734 -0.1436
 3209poe    c2316905   0.825   4.702   1.573  0.0971  0.2495  0.5886
 3209poe    c2316906   0.975   4.737   1.566  0.1644 -0.1812 -0.2534
 3209poe     o216907   1.032   4.656   1.466  0.4639 -0.0380 -0.1996
 3209poe    c3116908   1.151   4.712   1.415  0.2618 -0.0099 -0.6468
 3210poe    c3116909   2.993   3.189   0.762  0.3453 -0.5390 -0.5143
 3210poe     o216910   3.068   3.270   0.850 -0.3422 -0.5004  0.0423
 3210poe    c2316911   3.098   3.193   0.965  0.4180 -0.3505 -0.0558
 3210poe    c2316912   3.138   3.298   1.071 -0.1218  0.0962 -0.2897
 3210poe     o216913   3.244   3.371   1.016 -0.2638  0.4471 -0.1000
 3210poe    c2316914   3.303   3.468   1.100  1.1876 -0.3129 -0.2038
 3210poe    c2316915   3.380   3.570   1.014  0.7411 -0.1701 -0.4369
 3210poe     o216916   3.298   3.607   0.905 -0.6618 -0.1282  0.5918
 3210poe    c2316917   3.299   3.745   0.879  0.5439 -0.1287  0.5727
 3210poe    c2316918   3.176   3.816   0.938  0.4348 -0.0349  0.2338
 3210poe     o216919   3.051   3.784   0.881  0.1905 -0.2215  0.8728
 3210poe    c3116920   2.951   3.868   0.935 -0.1703  0.0116 -0.1356
 3211poe    c3116921   4.866   4.858   1.813 -0.1222  0.7056  0.2552
 3211poe     o216922   4.769   4.780   1.747  1.0554 -0.1022 -0.5606
 3211poe    c2316923   4.757   4.654   1.809 -0.0755  0.4068  0.2785
 3211poe    c2316924   4.630   4.572   1.777  0.4138 -0.3810  0.3295
 3211poe     o216925   4.513   4.623   1.837 -0.1613 -0.5321 -0.6351
 3211poe    c2316926   4.432   4.513   1.871 -0.1399 -0.2654  0.3022
 3211poe    c2316927   4.353   4.530   2.002  0.3016  0.0585  0.5300
 3211poe     o216928   4.266   4.423   2.033 -0.4990  0.5676  0.0894
 3211poe    c2316929   4.183   4.444   2.145 -0.3435 -0.0651  0.3264
 3211poe    c2316930   4.259   4.407   2.274  0.6034  0.0487 -0.1935
 3211poe     o216931   4.276   4.268   2.279 -0.1833 -0.0327  0.4092
 3211poe    c3116932   4.360   4.238   2.389  0.3100  0.3956  0.1535
 3212poe    c3116933   3.750   1.164   6.476  0.0636  0.2465 -0.7378
 3212poe     o216934   3.885   1.133   6.449  0.0547 -0.4523 -0.0223
 3212poe    c2316935   3.924   1.017   6.519  0.0354 -0.4553 -0.0167
 3212poe    c2316936   4.067   0.981   6.476  0.1597 -0.1330  0.1257
 3212poe     o216937   4.136   1.101   6.448 -0.2469  0.0079 -0.2961
 3212poe    c2316938   4.272   1.078   6.416 -0.1992 -0.2846  0.1084
 3212poe    c2316939   4.328   1.190   6.327  0.4416 -0.4017  0.3621
 3212poe     o216940   4.254   1.199   6.208  0.0396  0.4179  0.6686
 3212poe    c2316941   4.301   1.293   6.114 -0.1369  0.0657  0.2268
 3212poe    c2316942   4.219   1.287   5.983 -0.2542  0.2906  0.2905
 3212poe     o216943   4.085   1.329   6.002 -0.3691  0.0986 -0.1055
 3212poe    c3116944   4.017   1.365   5.884 -0.3106  0.4005 -0.0484
 3213poe    c3116945   4.929   3.689   3.915 -0.5624 -0.1564  0.8839
 3213poe     o216946   4.874   3.819   3.919  0.0782  0.1542 -0.1490
 3213poe    c2316947   4.914   3.893   3.806  0.5624 -0.5062 -0.4145
 3213poe    c2316948   4.818   4.003   3.759  0.7148  0.2153  0.9230
 3213poe     o216949   4.700   3.938   3.719  0.8234  0.8907 -0.5907
 3213poe    c2316950   4.583   4.009   3.755  0.0828 -0.1634 -0.8658
 3213poe    c2316951   4.456   3.949   3.692 -0.3320 -0.7806  0.5242
 3213poe     o216952   4.496   3.918   3.560 -0.4214 -0.1241  0.3420
 3213poe    c2316953   4.416   3.988   3.467 -0.3889 -0.2048  0.2534
 3213poe    c2316954   4.441   3.914   3.334 -0.2390  0.2323  0.0366
 3213poe     o216955   4.561   3.841   3.347 -0.5565 -0.2603  0.2474
 3213poe    c3116956   4.598   3.785   3.222 -0.0163 -0.1585  0.3600
 3214poe    c3116957   1.013   3.463   1.354 -0.2229  0.1924 -0.8861
 3214poe     o216958   0.909   3.539   1.297 -0.4479  0.0903 -0.6170
 3214poe    c2316959   0.959   3.645   1.218 -0.0165 -0.0126 -0.4784
 3214poe    c2316960   0.861   3.739   1.147 -0.0258  0.1340 -0.2714
 3214poe     o216961   0.756   3.769   1.237 -0.2639 -0.3919 -0.3751
 3214poe    c2316962   0.646   3.829   1.171  0.0167  0.5391 -0.0065
 3214poe    c2316963   0.529   3.841   1.270  0.1613  0.4379  0.1804
 3214poe     o216964   0.488   3.720   1.330  0.2222  0.2740 -0.1065
 3214poe    c2316965   0.350   3.725   1.359  0.1170  0.0329 -0.5575
 3214poe    c2316966   0.308   3.589   1.419  0.6070  0.0290 -0.2114
 3214poe     o216967   0.325   3.481   1.330  0.5348 -0.2789  0.1462
 3214poe    c3116968   0.283   3.360   1.388  0.0104 -0.1018  0.1396
 3215poe    c3116969   7.246   5.551   6.413 -0.3366  0.3478  0.1104
 3215poe     o216970   7.337   5.536   6.520 -0.1384 -0.1797 -0.1331
 3215poe    c2316971   7.303   5.615   6.632  0.1152  0.1620 -0.2961
 3215poe    c2316972   7.413   5.685   6.715  0.3213 -0.4413 -0.0529
 3215poe     o216973   7.504   5.594   6.773 -0.2723 -0.6187  0.6224
 3215poe    c2316974   7.568   5.658   6.881  0.7904 -0.4049 -0.1184
 3215poe    c2316975   7.571   5.582   7.014 -0.1778  0.1592  0.2332
 3215poe     o216976   7.648   5.464   7.003  0.1167  0.3909 -0.2001
 3215poe    c2316977   7.632   5.364   7.101  0.5793  0.7795  0.2814
 3215poe    c2316978   7.724   5.259   7.035 -0.2028  0.7452 -0.7921
 3215poe     o216979   7.667   5.192   6.925  0.0875 -0.0903 -0.4459
 3215poe    c3116980   7.744   5.080   6.887 -0.7230 -0.5969 -0.6102
 3216poe    c3116981   0.745   1.932   2.989  0.5118 -0.2726 -0.1247
 3216poe     o216982   0.814   1.983   3.102  0.4126  0.2766 -0.3058
 3216poe    c2316983   0.711   2.025   3.189  0.1732  0.1477 -0.5220
 3216poe    c2316984   0.771   2.060   3.326  0.0558 -0.2650 -0.3654
 3216poe     o216985   0.881   2.148   3.321 -0.1304  0.0288  0.4388
 3216poe    c2316986   0.944   2.140   3.447  0.1191 -0.0037  0.3131
 3216poe    c2316987   1.074   2.222   3.444  0.0526  0.0993  0.2012
 3216poe     o216988   1.182   2.160   3.379 -0.1439 -0.4254  0.3713
 3216poe    c2316989   1.244   2.073   3.471  0.3499 -0.7201 -0.2246
 3216poe    c2316990   1.360   1.996   3.407  0.7834 -0.2761  0.0178
 3216poe     o216991   1.302   1.922   3.302  0.5540 -0.2706  0.1400
 3216poe    c3116992   1.402   1.843   3.242 -0.0430 -0.4620 -0.6116
 3217poe    c3116993   7.029   4.372   3.213 -0.5078  0.3306  0.2493
 3217poe     o216994   7.004   4.237   3.245 -0.0592  0.1063 -0.3167
 3217poe    c2316995   6.867   4.208   3.228 -0.2563  0.3976  0.7079
 3217poe    c2316996   6.828   4.071   3.286  0.3713 -0.2384 -0.3555
 3217poe     o216997   6.764   4.072   3.411  0.4523  0.2774 -0.3152
 3217poe    c2316998   6.729   3.946   3.464  0.0950  0.4341 -0.1793
 3217poe    c2316999   6.680   3.965   3.609  0.2904 -0.2264 -0.0214
 3217poe     o217000   6.781   4.037   3.677  0.0041 -0.0325  0.1994
 3217poe    c2317001   6.800   4.001   3.812 -0.1313  0.1953  0.2799
 3217poe    c2317002   6.948   4.010   3.854 -0.1166  0.6399  0.1369
 3217poe     o217003   6.990   4.141   3.883 -0.1360  0.5958  0.3645
 3217poe    c3117004   7.115   4.171   3.941  0.0980 -0.3546  0.3596
 3218poe    c3117005   2.988   4.162   3.234 -0.3026 -0.5212  0.0730
 3218poe     o217006   3.063   4.263   3.170 -0.8286 -0.3944 -0.3546
 3218poe    c2317007   2.982   4.345   3.089 -0.2858  0.0020 -0.4999
 3218poe    c2317008   3.064   4.459   3.025  0.1670  0.0474  0.1476
 3218poe     o217009   3.164   4.408   2.940  0.7196  0.3341  0.6188
 3218poe    c2317010   3.204   4.514   2.856 -0.1343 -0.2995 -0.6212
 3218poe    c2317011   3.322   4.450   2.780  0.6529  0.6311 -0.2050
 3218poe     o217012   3.388   4.355   2.861  0.0065 -0.2291 -0.6732
 3218poe    c2317013   3.511   4.323   2.800 -0.1631 -0.4642 -0.8957
 3218poe    c2317014   3.586   4.222   2.889  0.0891  0.1954 -0.3588
 3218poe     o217015   3.585   4.275   3.020  0.0748 -0.8112  0.0570
 3218poe    c3117016   3.692   4.225   3.097  0.5048 -0.1559 -0.0997
 3219poe    c3117017   5.469   6.407   5.531 -0.0774 -0.1634 -0.1546
 3219poe     o217018   5.432   6.532   5.585  0.1206  0.1494 -0.7361
 3219poe    c2317019   5.418   6.498   5.721 -0.3913  0.3972 -0.7256
 3219poe    c2317020   5.338   6.596   5.810 -0.3091 -0.0810 -0.1200
 3219poe     o217021   5.382   6.727   5.833 -0.1462 -0.0981 -0.3381
 3219poe    c2317022   5.487   6.735   5.926 -0.7449 -0.0788  0.3442
 3219poe    c2317023   5.495   6.878   5.982 -0.2317  0.1617 -0.3300
 3219poe     o217024   5.542   6.968   5.884  0.2232  0.2165 -0.0631
 3219poe    c2317025   5.634   7.049   5.954  0.0835  0.2219  0.1144
 3219poe    c2317026   5.654   7.189   5.894 -0.1656  0.2083 -0.0045
 3219poe     o217027   5.717   7.192   5.768 -0.1473  0.6084  0.0134
 3219poe    c3117028   5.775   7.320   5.756  0.2376  0.4135 -0.2269
 3220poe    c3117029   6.859   2.363   0.239  0.3175 -0.0075  0.4720
 3220poe     o217030   6.920   2.349   0.365  0.3631 -0.2249  0.4261
 3220poe    c2317031   6.877   2.460   0.441  0.4566 -0.0867  0.2768
 3220poe    c2317032   7.001   2.529   0.501  0.4604 -0.0963  0.2807
 3220poe     o217033   7.093   2.440   0.560  0.1927 -0.7668 -0.2869
 3220poe    c2317034   7.080   2.430   0.700  0.5988  0.3638 -0.1594
 3220poe    c2317035   7.192   2.334   0.744  0.2098  0.0504  0.1610
 3220poe     o217036   7.151   2.200   0.726 -0.6293  0.2608  0.4580
 3220poe    c2317037   7.248   2.114   0.783 -0.6618 -0.4259 -0.5098
 3220poe    c2317038   7.219   1.964   0.762 -0.0917 -0.5944 -0.1051
 3220poe     o217039   7.261   1.943   0.629 -0.5071  0.3088 -0.3887
 3220poe    c3117040   7.254   1.806   0.597 -0.0088  0.3425 -0.6489
 3221poe    c3117041   2.039   5.326   4.684 -0.0077  0.1821 -0.4301
 3221poe     o217042   1.987   5.300   4.555 -0.5709 -0.1389 -0.1383
 3221poe    c2317043   2.028   5.172   4.513 -0.3098 -0.2769  0.5127
 3221poe    c2317044   1.966   5.168   4.372 -0.2759 -0.1670  0.4944
 3221poe     o217045   2.014   5.261   4.277  0.0459 -0.2271  0.5976
 3221poe    c2317046   2.013   5.207   4.147  0.1107 -0.0578  0.5257
 3221poe    c2317047   2.006   5.324   4.048 -0.5260 -0.6568 -0.1501
 3221poe     o217048   1.887   5.401   4.043  0.1099  0.3204 -0.5809
 3221poe    c2317049   1.885   5.487   3.932  0.2560  0.7293 -0.2698
 3221poe    c2317050   1.757   5.571   3.924 -0.5188 -0.4025 -0.0361
 3221poe     o217051   1.752   5.640   4.047  0.1825 -0.0891 -0.1801
 3221poe    c3117052   1.646   5.732   4.034  0.2978  0.1167  0.3247
 3222poe    c3117053   4.169   4.383   6.892 -0.2529  0.0788  0.4220
 3222poe     o217054   4.108   4.499   6.944 -0.2703  0.5349 -0.5809
 3222poe    c2317055   4.201   4.597   6.984  0.2617 -0.2066  0.0233
 3222poe    c2317056   4.138   4.737   6.997  0.2089 -0.2082 -0.2110
 3222poe     o217057   4.116   4.794   6.870 -0.0866  0.6850  0.2348
 3222poe    c2317058   4.071   4.927   6.883 -0.4496  0.5763  0.0783
 3222poe    c2317059   4.001   4.993   6.763 -0.5065  0.3702 -0.0026
 3222poe     o217060   3.895   4.902   6.742 -0.1506 -0.1052  0.2261
 3222poe    c2317061   3.806   4.964   6.652 -0.2989 -0.1480  0.3443
 3222poe    c2317062   3.722   4.866   6.568 -0.2498 -0.3776  0.5644
 3222poe     o217063   3.807   4.778   6.498  0.3730 -0.0699  0.9245
 3222poe    c3117064   3.731   4.696   6.412 -0.1314  0.5310  0.7823
 3223poe    c3117065   0.207   3.619   5.813 -0.0270 -0.1187 -0.7212
 3223poe     o217066   0.137   3.739   5.791 -0.5939 -0.2155  0.4647
 3223poe    c2317067   0.131   3.781   5.656  0.7276 -0.0012  0.4607
 3223poe    c2317068   0.054   3.908   5.617  0.3983 -0.3834 -0.1559
 3223poe     o217069   0.120   4.024   5.664  0.2172 -0.1799 -0.4013
 3223poe    c2317070   0.069   4.140   5.603 -0.4580 -0.1745  0.1555
 3223poe    c2317071  -0.024   4.215   5.700 -0.2666 -0.0644  0.2520
 3223poe     o217072   0.032   4.248   5.826  0.2670 -0.3427  0.0893
 3223poe    c2317073   0.138   4.341   5.828 -0.2956  0.2936  0.2365
 3223poe    c2317074   0.202   4.352   5.967  0.3401 -0.8085  0.0425
 3223poe     o217075   0.271   4.243   6.023 -0.3215 -0.7544  0.9949
 3223poe    c3117076   0.337   4.274   6.144  0.1407  0.3151  0.4792
 3224poe    c3117077   3.906   7.241   2.173 -0.2831 -0.0351 -0.6583
 3224poe     o217078   3.830   7.181   2.070 -0.4925  0.1059 -0.5879
 3224poe    c2317079   3.709   7.252   2.057  0.0490  1.0232 -0.6937
 3224poe    c2317080   3.637   7.185   1.939 -0.2265  0.5103 -0.2374
 3224poe     o217081   3.585   7.057   1.966  0.9685  0.0497 -0.1096
 3224poe    c2317082   3.496   7.023   1.862  0.4411 -0.0953  0.3851
 3224poe    c2317083   3.438   6.880   1.867  0.0914  0.0502  0.5230
 3224poe     o217084   3.511   6.787   1.791  0.4979  0.2583  0.6539
 3224poe    c2317085   3.471   6.653   1.810  0.9268 -0.0237 -0.3534
 3224poe    c2317086   3.530   6.576   1.929  0.2415  0.6656  0.4420
 3224poe     o217087   3.669   6.563   1.947  0.2827  0.4434 -0.0322
 3224poe    c3117088   3.712   6.469   2.043 -0.1372  0.2480 -0.0337
 3225poe    c3117089   6.823   7.057   5.190 -0.4459  0.3465  0.3658
 3225poe     o217090   6.795   7.115   5.064  0.1459 -0.5699 -0.2024
 3225poe    c2317091   6.889   7.083   4.964  0.4172 -0.0402 -0.1215
 3225poe    c2317092   6.831   6.970   4.876 -0.2575  0.2312 -0.0287
 3225poe     o217093   6.815   6.841   4.931  0.0787  0.0511 -0.3514
 3225poe    c2317094   6.771   6.742   4.840  0.4670 -0.1359 -0.3352
 3225poe    c2317095   6.778   6.601   4.901  0.8005 -0.0528 -0.1774
 3225poe     o217096   6.910   6.554   4.917  0.9653  0.5338  0.2278
 3225poe    c2317097   6.888   6.434   4.987  0.0485  0.3326 -0.3876
 3225poe    c2317098   7.010   6.340   4.985 -0.3361 -0.1884  0.0618
 3225poe     o217099   7.129   6.413   4.963 -0.2950 -0.2475  0.0902
 3225poe    c3117100   7.250   6.342   4.941 -0.1100  0.0422  0.1694
 3226poe    c3117101   2.297   2.354   6.983 -0.2230 -0.2054  0.2530
 3226poe     o217102   2.272   2.226   7.037 -0.1755 -0.2003  0.2868
 3226poe    c2317103   2.227   2.145   6.931 -0.6709 -0.1400  0.4502
 3226poe    c2317104   2.273   2.001   6.962 -0.0464 -0.0553 -0.0658
 3226poe     o217105   2.210   1.954   7.079 -0.3266  0.0178 -0.1853
 3226poe    c2317106   2.245   1.822   7.115  0.3662  0.2903  0.1671
 3226poe    c2317107   2.208   1.776   7.257 -0.5401 -0.1209 -0.1976
 3226poe     o217108   2.273   1.864   7.346 -0.8117  0.0350 -0.1502
 3226poe    c2317109   2.218   1.845   7.474 -0.1305  0.0584  0.1507
 3226poe    c2317110   2.235   1.964   7.571 -0.1673  0.3278 -0.1725
 3226poe     o217111   2.372   1.991   7.593 -0.1551 -0.0020  0.1722
 3226poe    c3117112   2.384   2.107   7.672 -0.3374 -0.4495  0.8612
 3227poe    c3117113   4.371   5.379   2.471  0.4768 -0.2322 -0.3545
 3227poe     o217114   4.302   5.258   2.493 -0.2027  0.2888  0.4529
 3227poe    c2317115   4.319   5.184   2.374 -0.4070  0.6185  0.2173
 3227poe    c2317116   4.195   5.114   2.316 -0.2221  0.2104  0.3115
 3227poe     o217117   4.136   5.010   2.391 -0.3454  0.0765  0.0319
 3227poe    c2317118   4.040   4.962   2.300  0.0516  0.0835 -0.3947
 3227poe    c2317119   3.976   4.824   2.323  0.5220 -0.0291  0.2917
 3227poe     o217120   3.937   4.815   2.458  0.1915  0.2246  0.2153
 3227poe    c2317121   3.877   4.691   2.487  0.2027  0.1874  0.0826
 3227poe    c2317122   3.784   4.713   2.608  0.4221 -0.1277  0.3087
 3227poe     o217123   3.671   4.787   2.568  0.3685 -0.6679 -0.5430
 3227poe    c3117124   3.560   4.699   2.571 -0.3713  0.2487 -0.6235
 3228poe    c3117125   2.787   3.222   4.701 -0.1866  0.6042  0.6764
 3228poe     o217126   2.818   3.242   4.837 -0.0668  0.4374  0.6740
 3228poe    c2317127   2.938   3.175   4.869  0.0028  0.2895  0.1150
 3228poe    c2317128   3.017   3.233   4.987  0.0105  0.3117  0.0984
 3228poe     o217129   3.084   3.352   4.951  0.3140  0.1496  0.1211
 3228poe    c2317130   3.183   3.383   5.047  0.4041 -0.0773  0.1000
 3228poe    c2317131   3.247   3.520   5.018  0.1806  0.1946  0.8791
 3228poe     o217132   3.160   3.629   5.041  0.1930  0.3624  0.1469
 3228poe    c2317133   3.215   3.755   5.009  0.0648  0.2763 -0.4281
 3228poe    c2317134   3.113   3.868   5.030 -0.6949 -0.4883  0.0693
 3228poe     o217135   3.006   3.831   4.946 -0.3362 -0.9734 -0.1754
 3228poe    c3117136   3.004   3.877   4.813  0.0159  0.6780  0.3669
 3229poe    c3117137   5.572   4.742   7.255  0.5696 -0.6203 -0.0859
 3229poe     o217138   5.483   4.635   7.233 -0.2465 -0.0692  0.4632
 3229poe    c2317139   5.377   4.685   7.155 -0.2709 -0.0834  0.4871
 3229poe    c2317140   5.258   4.588   7.140 -0.5488  0.3672 -0.2733
 3229poe     o217141   5.292   4.476   7.062 -0.0274  0.3168  0.0221
 3229poe    c2317142   5.188   4.384   7.083 -0.3025  0.6291  0.0485
 3229poe    c2317143   5.211   4.237   7.043  0.4880  0.7952 -0.1200
 3229poe     o217144   5.280   4.161   7.139  0.0410  0.4160 -0.0977
 3229poe    c2317145   5.293   4.024   7.105  0.0866  0.3891  0.0258
 3229poe    c2317146   5.336   3.933   7.222  0.0433 -0.0503 -0.3001
 3229poe     o217147   5.466   3.912   7.272 -0.1075 -0.4118 -0.0601
 3229poe    c3117148   5.552   3.845   7.183  0.1502 -0.5008  0.2532
 3230poe    c3117149   3.057   5.251   5.863 -0.4286 -0.5185 -0.1110
 3230poe     o217150   3.106   5.147   5.781  0.6809 -0.4156  0.4024
 3230poe    c2317151   3.145   5.042   5.866  0.0258 -0.6678  0.3951
 3230poe    c2317152   3.297   5.033   5.839 -0.0413 -0.4842 -0.0578
 3230poe     o217153   3.319   5.021   5.701  0.4355 -0.1598 -0.0131
 3230poe    c2317154   3.452   4.985   5.673  0.3193 -0.3405 -0.3504
 3230poe    c2317155   3.488   4.960   5.526  0.7556 -0.0743 -0.2946
 3230poe     o217156   3.468   5.079   5.453 -0.4748 -0.1580 -0.1272
 3230poe    c2317157   3.523   5.069   5.324 -0.2723 -0.0954 -0.0477
 3230poe    c2317158   3.673   5.095   5.302 -0.3768  0.5101 -0.0438
 3230poe     o217159   3.724   5.119   5.172  0.2054 -0.1466  0.0575
 3230poe    c3117160   3.864   5.103   5.159  0.1721 -0.0453 -0.4182
 3231poe    c3117161   0.878   5.385   5.911  0.7692 -0.0942 -0.0941
 3231poe     o217162   0.920   5.378   5.777  0.2765  0.5325 -0.2843
 3231poe    c2317163   1.039   5.453   5.772  0.3544  0.4043 -0.3611
 3231poe    c2317164   1.060   5.467   5.620 -0.0940 -0.5521 -0.5159
 3231poe     o217165   0.942   5.522   5.565  0.1027  0.1274 -0.2651
 3231poe    c2317166   0.934   5.513   5.425  0.6317  0.1842 -0.3002
 3231poe    c2317167   0.848   5.611   5.344 -0.0166 -0.1293  0.0083
 3231poe     o217168   0.714   5.567   5.348 -0.1980  0.4512  0.4889
 3231poe    c2317169   0.628   5.670   5.304 -0.0147  0.4785  0.1908
 3231poe    c2317170   0.478   5.640   5.319  0.1106 -0.2304  0.0398
 3231poe     o217171   0.444   5.523   5.248 -0.2715 -0.3414  0.4000
 3231poe    c3117172   0.305   5.522   5.227 -0.2615 -0.3694  0.3351
 3232poe    c3117173   3.702   3.507   2.995 -0.4066 -0.3006  0.0003
 3232poe     o217174   3.675   3.424   3.106  0.4883 -0.1692  0.3213
 3232poe    c2317175   3.580   3.325   3.075  0.5162  0.0024 -0.3478
 3232poe    c2317176   3.502   3.281   3.201  0.6765 -0.0742 -0.2756
 3232poe     o217177   3.581   3.219   3.301  0.9610  0.5935 -0.0796
 3232poe    c2317178   3.493   3.192   3.407  0.6459 -0.0490 -0.5030
 3232poe    c2317179   3.588   3.139   3.516 -0.0903  0.1848  0.2557
 3232poe     o217180   3.668   3.250   3.552  0.0600  0.1099  0.1499
 3232poe    c2317181   3.775   3.231   3.641  0.1792 -0.2706 -0.0703
 3232poe    c2317182   3.898   3.171   3.572  0.4229  0.1848 -0.0355
 3232poe     o217183   3.967   3.257   3.484 -0.2112  0.3662 -0.3615
 3232poe    c3117184   4.100   3.273   3.529 -0.3557  0.1077  0.1581
 3233poe    c3117185   1.257   3.266   3.843  0.4237 -0.1879  0.0841
 3233poe     o217186   1.216   3.135   3.810  0.4167 -0.2897  0.4982
 3233poe    c2317187   1.271   3.097   3.686 -0.0997  0.0016  0.1748
 3233poe    c2317188   1.274   2.945   3.668  0.0828  0.0667 -0.3575
 3233poe     o217189   1.146   2.885   3.663 -0.0229  0.2867 -0.2759
 3233poe    c2317190   1.138   2.765   3.590 -0.0353 -0.1340  0.4091
 3233poe    c2317191   1.008   2.753   3.509  0.0503  0.2027  0.2243
 3233poe     o217192   1.005   2.865   3.423 -0.1547  0.0340  0.0115
 3233poe    c2317193   0.874   2.882   3.373 -0.3759  0.5330  0.7405
 3233poe    c2317194   0.867   3.007   3.283  1.0530  0.0555 -0.0731
 3233poe     o217195   0.860   3.125   3.360  0.1987  0.0504 -0.1307
 3233poe    c3117196   0.826   3.241   3.289 -0.2062 -0.2808 -0.4803
 3234poe    c3117197   2.075   1.832   0.593 -0.0897  0.1622 -0.4937
 3234poe     o217198   1.964   1.771   0.531 -0.0578 -0.1086 -0.2870
 3234poe    c2317199   1.997   1.673   0.436 -0.0302 -0.4899  0.1139
 3234poe    c2317200   1.874   1.653   0.346 -0.0047  0.5432 -0.1592
 3234poe     o217201   1.886   1.721   0.223  0.3537  0.0281 -0.4123
 3234poe    c2317202   1.779   1.713   0.131  0.2270 -0.0086 -0.2619
 3234poe    c2317203   1.633   1.741   0.170  0.2351 -0.7825  0.3340
 3234poe     o217204   1.536   1.696   0.078  0.3067 -0.0447 -0.1061
 3234poe    c2317205   1.413   1.740   0.129  0.4044 -0.1478  0.2202
 3234poe    c2317206   1.356   1.874   0.078 -0.0231 -0.2146  0.5181
 3234poe     o217207   1.418   1.981   0.146  0.3442  0.0737 -0.2638
 3234poe    c3117208   1.364   2.105   0.106 -0.6435 -0.4759 -0.6695
 3235poe    c3117209   2.999   0.277   3.301 -0.1367  0.2468 -0.3431
 3235poe     o217210   2.982   0.408   3.254 -0.4473  0.1981 -0.3675
 3235poe    c2317211   3.038   0.420   3.125  0.1684  0.3055 -0.0961
 3235poe    c2317212   3.002   0.555   3.059 -0.2678  0.0005 -0.4952
 3235poe     o217213   3.047   0.652   3.151 -0.1043 -0.3088 -0.2445
 3235poe    c2317214   3.051   0.783   3.099  0.3739 -0.2517 -0.0676
 3235poe    c2317215   3.151   0.880   3.164 -0.0715 -0.3752  0.8084
 3235poe     o217216   3.108   0.884   3.298 -0.5853 -0.0714  0.6368
 3235poe    c2317217   3.130   1.011   3.356  0.4336 -0.0148  0.1541
 3235poe    c2317218   3.079   1.013   3.502 -0.3611 -0.7458 -0.0981
 3235poe     o217219   3.113   0.889   3.559 -0.5090 -0.6372  0.2267
 3235poe    c3117220   3.106   0.885   3.700 -0.2989  0.2847  0.2723
 3236poe    c3117221   4.199   0.669   1.325 -0.2562  0.1779 -0.3819
 3236poe     o217222   4.313   0.745   1.358 -0.1444  0.0242 -0.4153
 3236poe    c2317223   4.412   0.743   1.258  0.2990  0.1511  0.0165
 3236poe    c2317224   4.518   0.632   1.270 -0.3783 -0.5243 -0.1807
 3236poe     o217225   4.547   0.623   1.408 -0.0711 -0.1128 -0.2175
 3236poe    c2317226   4.571   0.491   1.450 -0.4455 -0.0172  0.3079
 3236poe    c2317227   4.634   0.483   1.590 -0.4049  0.4428  0.3170
 3236poe     o217228   4.761   0.545   1.599  0.0328 -0.3948  0.0188
 3236poe    c2317229   4.808   0.540   1.732  0.2993 -0.3734 -0.0740
 3236poe    c2317230   4.962   0.541   1.737  0.3015 -0.2301 -0.1548
 3236poe     o217231   5.014   0.415   1.704  0.4068 -0.1879 -0.1483
 3236poe    c3117232   5.147   0.420   1.752  0.1980 -0.2108  0.4392
 3237poe    c3117233   0.367   5.312   1.166 -0.7032 -0.1441 -0.7738
 3237poe     o217234   0.463   5.209   1.162 -0.0031  0.4434  0.3653
 3237poe    c2317235   0.447   5.113   1.264 -0.2674  0.2065  0.1006
 3237poe    c2317236   0.568   5.018   1.255 -0.1854  0.3398 -0.2011
 3237poe     o217237   0.689   5.071   1.304  0.0037  0.3184 -0.6438
 3237poe    c2317238   0.697   5.068   1.444  0.4072 -0.1211 -0.6725
 3237poe    c2317239   0.746   5.205   1.493 -0.1861 -0.2747  0.3897
 3237poe     o217240   0.673   5.293   1.410  0.2092 -0.1907  0.1271
 3237poe    c2317241   0.712   5.428   1.419  0.1661 -0.0836 -1.1910
 3237poe    c2317242   0.837   5.487   1.351  0.6491  0.3869  0.0828
 3237poe     o217243   0.840   5.473   1.211 -0.2283 -0.5218  0.1422
 3237poe    c3117244   0.962   5.519   1.159 -0.2457  0.0897  0.6262
 3238poe    c3117245   5.960   5.445   6.126  0.4038  0.2516 -0.5588
 3238poe     o217246   5.823   5.414   6.110  0.4255 -0.0148 -0.2462
 3238poe    c2317247   5.802   5.275   6.098 -0.3943  0.0850 -0.0136
 3238poe    c2317248   5.728   5.226   5.972  0.3449  0.0375 -0.4339
 3238poe     o217249   5.608   5.298   5.955  0.3249  0.0115 -0.4023
 3238poe    c2317250   5.556   5.289   5.824 -0.2599 -0.1658 -0.1611
 3238poe    c2317251   5.432   5.380   5.812 -0.0813  0.0273 -0.5540
 3238poe     o217252   5.359   5.351   5.928  0.0731 -0.0031 -0.4629
 3238poe    c2317253   5.256   5.446   5.941  0.5676  0.4232  0.3988
 3238poe    c2317254   5.161   5.413   6.058  0.4817  0.3187  0.2986
 3238poe     o217255   5.229   5.373   6.175  0.1608  0.1194  0.4187
 3238poe    c3117256   5.152   5.390   6.292  0.4559 -0.1595  0.6541
 3239poe    c3117257   0.292   0.396   6.447  0.0695 -0.1231 -0.1241
 3239poe     o217258   0.290   0.291   6.354  0.0306  0.1055 -0.3825
 3239poe    c2317259   0.172   0.223   6.386  0.1752  0.1262  0.1937
 3239poe    c2317260   0.119   0.115   6.290 -0.2096  0.0129  0.5270
 3239poe     o217261   0.204   0.003   6.289  0.3641  0.4423 -0.3076
 3239poe    c2317262   0.172  -0.091   6.189  0.0321 -0.1253  0.3196
 3239poe    c2317263   0.290  -0.158   6.116 -0.0384 -0.2886  0.3546
 3239poe     o217264   0.349  -0.050   6.048  0.1116 -0.1658  0.6767
 3239poe    c2317265   0.427  -0.091   5.938 -0.0582  0.3842  0.3447
 3239poe    c2317266   0.551  -0.015   5.889  0.0524  0.0748  0.1398
 3239poe     o217267   0.538   0.093   5.799  0.2262  0.0082  0.0341
 3239poe    c3117268   0.626   0.200   5.828  0.7364 -0.4047  0.0309
 3240poe    c3117269   1.908   4.577   0.112  0.0998 -0.4122 -0.3212
 3240poe     o217270   2.010   4.582   0.015  0.1927  0.3108 -0.1927
 3240poe    c2317271   1.958   4.572  -0.116 -0.3164  0.0740  0.0228
 3240poe    c2317272   2.040   4.633  -0.232  0.2573  0.0445  0.4080
 3240poe     o217273   2.167   4.573  -0.217  0.6231  0.7329  0.0992
 3240poe    c2317274   2.264   4.612  -0.311  0.3470 -0.3264 -0.6416
 3240poe    c2317275   2.404   4.554  -0.281  0.0923 -0.5856  0.0671
 3240poe     o217276   2.449   4.591  -0.153  0.1734  0.6743 -0.3117
 3240poe    c2317277   2.588   4.581  -0.169  0.1490 -0.2345 -0.0319
 3240poe    c2317278   2.682   4.602  -0.048  0.1292  0.1737 -0.0862
 3240poe     o217279   2.659   4.504   0.050  0.0003  0.1791 -0.1103
 3240poe    c3117280   2.724   4.533   0.172 -0.1091 -0.2333  0.0490
 3241lim     li17281   2.824   0.184   5.749 -0.2271 -0.5424 -0.2008
 3242lim     li17282   7.055   0.449   1.424  0.8107 -0.4533 -0.2273
 3243lim     li17283   2.153   4.178   7.229 -1.1061  1.0802  0.2298
 3244lim     li17284   2.423   5.688   2.727 -0.5397 -0.4170 -0.3698
 3245lim     li17285   4.765   0.327   0.221 -0.2532  1.0072  0.3507
 3246lim     li17286   4.235   4.270   5.963 -0.3992 -0.4607 -0.3696
 3247lim     li17287   3.289   5.802   4.487  0.2547 -0.6367 -0.7831
 3248lim     li17288   0.435   0.969   1.311 -0.6866  0.3298 -0.5547
 3249lim     li17289   4.914   0.943   6.840  0.5333  0.2855  0.8958
 3250lim     li17290   6.833   4.585   5.953  0.4101 -0.5280  0.4662
 3251lim     li17291   6.524   0.194   3.395 -1.0293  0.6528  0.0835
 3252lim     li17292   6.219   1.103   6.903  1.0239 -0.9187 -0.1156
 3253lim     li17293   0.471   5.040   3.103  0.0504  0.2820  1.1202
 3254lim     li17294   0.244   3.518   6.660  1.0955  0.8036  0.2433
 3255lim     li17295   3.085   0.613   4.168 -0.6916  0.5161 -0.5281
 3256lim     li17296   2.151   4.706   0.084 -0.4821 -0.8915  0.3227
 3257lim     li17297   2.581   6.724   3.702 -0.5355  0.7088 -1.1315
 3258lim     li17298   3.974   1.547   1.218  0.2419  0.8691  0.3921
 3259lim     li17299   2.656   1.017   5.714  0.1477 -0.7578 -0.3201
 3260lim     li17300   0.906   4.976   0.963 -0.4682  0.1345 -1.1718
 3261lim     li17301   0.269   2.779   4.483 -0.4145 -0.6645  0.2965
 3262lim     li17302   2.095   1.390   5.265 -0.3221  1.3668 -1.2041
 3263lim     li17303   1.997   1.505   1.161 -0.0423  0.9506  0.0533
 3264lim     li17304   6.875   2.612   3.195 -0.5957 -0.5464  0.1736
 3265lim     li17305   0.752   0.349   0.481  0.6526 -0.0888  0.2195
 3266lim     li17306   0.198   1.209   3.187 -0.1074  0.4639  0.4030
 3267lim     li17307   5.828   3.286   2.372  1.4796 -0.2395  0.0403
 3268lim     li17308   2.303   2.179   7.205  0.4861  0.4917  1.0006
 3269lim     li17309   4.247   5.184   6.365 -0.6864 -0.1822 -0.3940
 3270lim     li17310   0.199   0.973   0.127  0.4741  1.3843  0.3778
 3271lim     li17311   4.731   2.376   0.360  1.4116  0.4042 -0.1754
 3272lim     li17312   0.280   4.702   4.447  0.2817  0.3507  0.3628
 3273lim     li17313   7.128   5.422   2.653 -0.0394  0.6198  0.0086
 3274lim     li17314   0.510   3.936   5.783 -0.9829  0.4378  1.4243
 3275lim     li17315   5.278   2.820   1.508 -0.0684  0.4174  0.8365
 3276lim     li17316   4.059   5.361   3.498  0.8012  0.2235  0.1308
 3277lim     li17317   0.189   6.621   6.759  0.3690 -0.2662  0.9694
 3278lim     li17318   7.009   0.526   4.705  0.3628  0.9803 -0.8036
 3279lim     li17319   1.202   4.382   0.561 -0.3559 -0.6514  0.2374
 3280lim     li17320   6.585   3.542   1.037 -0.3078  0.6850 -0.0576
 3281lim     li17321   5.736   2.551   0.573 -0.5768 -0.1568 -0.0002
 3282lim     li17322   2.611   6.550   5.628  0.0592  0.8295  0.3383
 3283lim     li17323   6.947   0.656   4.179  0.6508 -0.3689  1.0099
 3284lim     li17324   2.061   1.965   6.586 -0.0344 -0.2807  0.5507
 3285lim     li17325   7.156   7.291   6.728 -0.6372 -0.1278 -0.8189
 3286lim     li17326   4.238   1.031   0.445 -0.3750  0.8815  0.0279
 3287lim     li17327   4.004   1.260   6.397  0.1308  0.7542  0.0807
 3288lim     li17328   1.970   5.837   1.242  0.3786  0.4033 -0.3207
 3289lim     li17329   6.455   3.529   3.037  0.4503 -0.2686  0.1449
 3290lim     li17330   5.265   5.391   1.783  1.6881  1.1955 -0.3781
 3291lim     li17331   6.193   1.146   2.622 -0.1895  0.0751  0.4224
 3292lim     li17332   5.060   6.000   6.668  0.2809  0.7922  0.2479
 3293lim     li17333   3.779   1.255   3.705 -0.2564  0.0948 -0.4379
 3294lim     li17334   0.829   6.726   6.126  0.2276  0.9783  0.2367
 3295lim     li17335   2.104   1.272   1.783 -0.9095  0.9890 -0.7686
 3296lim     li17336   3.495   2.531   3.691 -1.1140 -1.2924 -0.0152
 3297lim     li17337   5.448   4.704   5.427 -0.6771  0.2415  0.1107
 3298lim     li17338   0.892   4.795   4.653 -0.4200  0.6049 -0.3403
 3299lim     li17339   5.262   6.869   0.176  0.4460 -0.4800 -0.3459
 3300lim     li17340   3.999   1.980   5.370  0.4914 -1.9543  0.9714
 3301lim     li17341   1.925   3.834   1.078 -0.6272  0.1492 -0.0655
 3302lim     li17342   7.133   2.747   6.230 -0.2372  0.3953  0.3061
 3303lim     li17343   4.168   4.129   0.368 -1.5150  0.2065  1.0488
 3304lim     li17344   4.600   3.135   3.125  0.3568 -0.4892  0.9994
 3305lim     li17345   5.056   0.658   5.648 -0.1775  0.0496  1.1085
 3306lim     li17346   0.128   2.796   5.285  0.7465  0.7547  0.6860
 3307lim     li17347   1.222   6.668   4.946  0.4215 -0.8960 -1.3990
 3308lim     li17348   6.349   4.184   4.286 -0.0373  0.0101  0.0228
 3309lim     li17349   6.628   6.772   1.241  0.5879 -1.0124  0.1906
 3310lim     li17350   4.807   3.767   4.315 -0.2073 -0.0883 -1.2783
 3311lim     li17351   1.719   1.603   3.673  0.8621  1.1950 -0.6229
 3312lim     li17352   2.167   4.251   5.580 -0.0132  0.0479  0.1875
 3313lim     li17353   3.808   3.447   3.237 -0.0522 -0.6740 -0.9006
 3314lim     li17354   2.435   6.884   2.738  0.1429 -0.9771 -0.1217
 3315lim     li17355   2.744   3.111   7.198 -0.0867 -0.9563 -0.6297
 3316lim     li17356   1.067   5.542   3.824  0.2163  0.5668  0.0428
 3317lim     li17357   5.560   1.962   4.109 -0.6994 -0.5779  0.0649
 3318lim     li17358   4.152   4.007   4.819  1.1674 -0.5903 -0.8358
 3319lim     li17359   4.475   2.019   4.237  0.6028  0.2576  0.7680
 3320lim     li17360   3.213   5.741   0.168 -0.9289 -0.9436  0.2848
 3321lim     li17361   6.291   5.832   0.458  1.5765  0.1521  0.0909
 3322lim     li17362   3.397   1.815   5.902 -0.0619  1.2770  0.2592
 3323lim     li17363   0.563   6.317   0.319  0.6217  0.5889  0.4337
 3324lim     li17364   2.244   5.898   3.717  0.0716  1.2038 -0.4992
 3325lim     li17365   4.886   4.801   4.255 -0.3425 -0.0366 -0.0070
 3326lim     li17366   5.654   4.780   3.669  1.4429 -1.1620  0.3862
 3327lim     li17367   1.192   2.023   5.496  0.2926  0.2578  0.3767
 3328lim     li17368   4.790   6.357   4.276 -0.1348  0.7539  0.6876
 3329lim     li17369   7.038   3.031   0.682  0.4534  0.4548  0.2262
 3330lim     li17370   2.953   1.759   4.791 -0.4530 -2.1226  1.0049
 3331lim     li17371   1.215   6.588   3.082  1.0995  0.2393  1.7842
 3332lim     li17372   6.824   4.176   3.552 -0.0174  0.7906  0.7332
 3333lim     li17373   2.423   3.952   1.560 -0.3852 -0.1624  0.3504
 3334lim     li17374   6.780   0.843   6.172 -1.0081  0.2778  0.2066
 3335lim     li17375   1.371   3.430   1.836 -0.8755  0.0092  0.0461
 3336lim     li17376   6.404   2.708   3.822 -0.2566 -0.8268  0.4446
 3337lim     li17377   4.934   3.942   5.831 -0.5070  1.3282 -0.5704
 3338lim     li17378   4.986   0.700   0.132 -0.1477  0.6036  0.5099
 3339lim     li17379   2.828   3.593   4.990 -0.2460 -0.7514 -1.5299
 3340lim     li17380   2.415   5.019   5.251  0.6965  1.2682  0.3045
 3341lim     li17381   4.443   0.166   5.632  0.5401  0.2202 -0.1089
 3342lim     li17382   5.741   5.379   6.767 -0.7659  0.2950  0.2231
 3343lim     li17383   1.515   1.712   2.727 -0.3164  0.0901 -1.4212
 3344lim     li17384   1.927   4.361   4.181  0.2048  0.1643  0.5393
 3345lim     li17385   5.482   1.425   3.669 -0.3219  0.5526  0.9522
 3346lim     li17386   3.828   0.481   6.615  0.7514 -0.3065 -0.2436
 3347lim     li17387   6.061   1.845   5.091 -0.4395 -0.4204 -0.7313
 3348lim     li17388   3.199   5.213   7.004  0.3060 -0.4587  0.8411
 3349lim     li17389   2.121   6.565   6.706 -0.3307  0.8380 -0.4159
 3350lim     li17390   3.163   4.339   4.782  0.8112  0.3648 -0.7928
 3351lim     li17391   2.413   2.430   6.285 -0.4123 -0.0039 -0.6413
 3352lim     li17392   6.272   2.184   6.796  0.5439 -0.1886 -0.6102
 3353lim     li17393   0.825   6.317   6.714  0.7008 -0.2751 -0.4043
 3354lim     li17394   7.175   6.385   3.936  1.1359  0.2953  0.6049
 3355lim     li17395   5.069   5.791   0.261  0.5829  0.0428  0.6175
 3356lim     li17396   1.405   0.181   6.751 -0.4164  0.5700  0.0725
 3357lim     li17397   4.483   7.031   6.441 -0.4737  0.0352  0.0571
 3358lim     li17398   1.647   3.362   2.664 -0.3819 -0.5554 -0.4633
 3359lim     li17399   4.311   1.344   2.137 -0.0446 -0.0232 -0.8285
 3360lim     li17400   5.717   3.798   3.155  1.2848 -1.9379  1.1544
 3361lim     li17401   0.320   3.058   3.172  0.9199 -1.1798  0.9134
 3362lim     li17402   1.566   3.856   5.409  0.2550  0.1236  1.5016
 3363lim     li17403   0.916   2.550   0.354  0.4514 -1.2458 -0.9551
 3364lim     li17404   3.126   0.768   3.429 -0.6529 -0.0996 -0.2260
 3365lim     li17405   4.906   7.132   5.328  0.6323  0.6611 -0.5737
 3366lim     li17406   3.149   2.387   6.451 -0.5179 -0.2854  0.6163
 3367lim     li17407   1.176   4.559   2.583  0.3300  0.3601 -0.9835
 3368lim     li17408   2.054   7.225   1.766  1.2398  0.5623 -0.2767
 3369lim     li17409   1.586   4.948   4.868 -0.4471  1.2330  0.6055
 3370lim     li17410   1.655   1.847   4.124 -1.4307  0.9435  0.5342
 3371lim     li17411   5.585   0.442   3.212  0.6731 -0.8514 -0.6530
 3372lim     li17412   6.862   0.323   2.328 -1.0868  1.5969 -0.4416
 3373lim     li17413   6.422   4.113   4.937 -0.0764 -0.6922  0.1675
 3374lim     li17414   2.212   2.308   5.525  0.3061 -0.4421  0.1369
 3375lim     li17415   5.509   1.789   0.314  0.3076  0.1272 -0.1848
 3376lim     li17416   2.482   6.611   7.185  0.2227 -0.7838  0.4698
 3377lim     li17417   3.765   0.969   5.079  0.7983 -0.6888  0.6144
 3378lim     li17418   1.673   3.871   4.840 -0.2506 -0.9801 -0.3564
 3379lim     li17419   0.238   5.108   5.295  0.1001 -0.5919  0.3601
 3380lim     li17420   7.039   5.805   4.731 -0.9455  0.4995 -0.2152
 3381lim     li17421   4.204   5.197   2.633  0.0837 -0.7264  1.0060
 3382lim     li17422   6.700   4.761   4.000 -1.9086  1.0133 -0.3280
 3383lim     li17423   5.393   5.308   0.685 -0.1863 -0.3088 -0.6078
 3384lim     li17424   6.461   0.983   0.167 -0.1674  0.8081 -0.9932
 3385lim     li17425   5.727   1.172   1.270  1.0125 -0.6600 -0.5676
 3386lim     li17426   2.982   3.494   2.796  0.2953  0.8676 -0.1127
 3387lim     li17427   3.409   4.646   5.976  0.6779 -0.0054 -0.6571
 3388lim     li17428   0.815   3.783   4.960 -0.3262 -0.6823  0.7642
 3389lim     li17429   6.591   6.926   6.068  0.0370 -0.0603 -0.4322
 3390lim     li17430   3.154   5.423   1.284 -0.3895  0.3428 -1.0993
 3391lim     li17431   1.756   5.199   7.089 -0.5616 -0.3651  0.2445
 3392lim     li17432   2.074   0.261   4.986 -0.4529 -0.2419  0.2133
 3393lim     li17433   1.019   7.203   4.512  0.4997 -1.2196 -0.4612
 3394lim     li17434   0.342   3.316   2.213  0.1108  0.0656  0.6763
 3395lim     li17435   1.611   3.096   1.279 -0.3205  1.0198  0.2969
 3396lim     li17436   5.176   7.208   7.015 -1.2858 -0.1919 -0.0327
 3397lim     li17437   2.317   5.091   6.306 -1.1856  0.0717  0.2192
 3398lim     li17438   2.700   6.825   6.403 -0.3694 -0.3959 -0.6235
 3399lim     li17439   2.901   4.872   4.407 -0.0443  0.5910 -0.5002
 3400lim     li17440   3.191   0.116   4.634 -1.0380  0.2367  0.3423
 3401lim     li17441   2.533   5.588   2.059 -0.5998  0.4823  0.3286
 3402lim     li17442   4.614   6.874   1.310 -0.1963 -0.1824 -1.2230
 3403lim     li17443   7.108   4.397   0.823 -1.2449 -0.6768 -0.1746
 3404lim     li17444   4.598   1.848   1.038  0.0951 -0.0152 -0.8704
 3405lim     li17445   2.960   4.282   6.508 -0.6842  0.8793  0.2241
 3406lim     li17446   4.441   4.661   4.916  1.0003 -0.3612  0.6020
 3407lim     li17447   6.883   6.144   7.240 -1.1151  0.2232 -0.1040
 3408lim     li17448   0.601   7.204   5.479 -0.2345  0.4612 -0.5402
 3409lim     li17449   5.141   3.586   5.353 -0.7761  0.1694 -0.0608
 3410lim     li17450   5.040   5.981   2.326 -0.3431 -1.0613  0.9747
 3411lim     li17451   0.285   5.765   2.617  0.2398 -1.0745 -0.0204
 3412lim     li17452   5.073   7.109   4.453  0.1889  0.8868  0.3745
 3413lim     li17453   1.468   2.697   3.116 -0.5735 -1.1435 -0.1895
 3414lim     li17454   3.195   6.247   4.059 -0.1125 -1.7226  0.4610
 3415lim     li17455   5.578   2.810   6.785  0.4144 -0.7760  0.2046
 3416lim     li17456   5.710   1.722   1.832  0.7205 -0.1216  1.6649
 3417lim     li17457   5.776   1.795   6.216 -0.8748 -0.0632  0.5398
 3418lim     li17458   4.469   2.693   1.831 -0.5636 -0.5734 -0.1646
 3419lim     li17459   3.474   4.866   4.306 -1.0186 -0.7530 -0.3918
 3420lim     li17460   7.281   3.771   3.891 -0.1668  0.1993 -0.2802
 3421lim     li17461   6.546   4.788   7.100  1.0183 -0.3760 -0.1604
 3422lim     li17462   0.244   2.714   2.763 -0.1112  0.8075 -0.4329
 3423lim     li17463   3.445   4.758   0.074 -0.1730  0.8486  0.7371
 3424lim     li17464   3.342   3.585   4.049  0.0569 -0.2116  1.1450
 3425lim     li17465   3.963   1.384   4.513  0.4988 -0.6422 -0.4557
 3426lim     li17466   3.910   6.126   3.674  0.2974  0.2473 -0.0272
 3427lim     li17467   5.491   1.703   4.827 -0.0116  1.2295 -0.8569
 3428lim     li17468   2.525   4.090   3.365 -0.4413  1.0367  0.3241
 3429lim     li17469   2.914   1.936   0.222  0.0624 -0.7613  0.0007
 3430lim     li17470   5.534   4.279   0.123  0.8390 -0.3261  0.1746
 3431lim     li17471   6.929   2.986   2.131  0.1270 -0.0289 -0.4379
 3432lim     li17472   6.305   6.973   2.603  0.3552  0.0919 -0.2486
 3433lim     li17473   6.527   3.258   7.110 -0.3029  0.4300  1.1703
 3434lim     li17474   1.067   0.281   2.587 -0.4966 -0.1043  1.0101
 3435lim     li17475   6.776   2.140   6.867  0.1358 -0.1424  0.3475
 3436lim     li17476   4.642   2.292   6.751 -0.1543 -0.2264 -0.0748
 3437lim     li17477   1.829   5.644   4.363 -0.5190  0.0440  0.2713
 3438lim     li17478   3.584   1.073   1.579 -0.5728 -0.6569 -2.3865
 3439lim     li17479   6.977   5.097   5.835 -0.6436 -0.2381  0.6806
 3440lim     li17480   3.534   6.743   2.778 -0.4231 -0.1234 -0.7537
 3441lim     li17481   0.280   6.819   2.222  0.1549 -0.0102 -0.6137
 3442lim     li17482   1.167   4.255   3.994 -0.3583 -0.4859  0.7132
 3443lim     li17483   1.387   1.456   0.696  0.8657 -0.6709  0.9064
 3444lim     li17484   1.183   6.076   1.947  0.0178  0.9639  0.0095
 3445lim     li17485   2.028   5.262   1.596  0.3464 -0.0265  0.5522
 3446lim     li17486   4.687   2.520   4.283 -0.0987  0.4121  0.6284
 3447lim     li17487   3.827   3.450   2.074  0.0400  0.8636  0.7203
 3448lim     li17488   0.608   6.278   1.946 -0.6174 -1.1742  0.1176
 3449lim     li17489   4.695   1.035   4.611 -0.4713  0.1849  0.2667
 3450lim     li17490   5.664   6.333   2.002 -0.6848 -0.0929  0.4709
 3451lim     li17491   0.876   5.080   6.517 -1.7536  0.9274 -0.1593
 3452lim     li17492   0.153   1.978   0.303 -0.5439  0.8441  0.6335
 3453lim     li17493   2.218   7.184   3.950 -0.8190 -1.4933 -0.2865
 3454lim     li17494   5.084   4.197   2.447  0.1685 -0.2325  1.0851
 3455lim     li17495   0.850   1.518   5.760 -0.3252  1.4225 -0.1508
 3456lim     li17496   3.339   4.354   3.016  0.3025  0.5488  0.2705
 3457lim     li17497   4.978   2.828   4.858  0.0272  0.1602  0.6566
 3458lim     li17498   6.568   1.768   1.373  0.1561 -0.2454 -0.2313
 3459lim     li17499   4.639   6.850   6.827 -1.7430 -0.1348  0.5286
 3460lim     li17500   1.298   3.104   6.758  0.0723 -0.3383  0.7674
 3461lim     li17501   5.315   5.945   1.233 -0.0368 -0.2306  0.6855
 3462lim     li17502   6.171   0.627   1.903 -0.4419  0.7487 -0.0591
 3463lim     li17503   5.828   4.341   1.141 -0.4824  0.6679 -0.0634
 3464lim     li17504   6.158   2.480   5.194 -0.5049  1.5523 -0.2798
 3465lim     li17505   0.926   4.448   1.520 -1.3864  0.8791  0.3772
 3466lim     li17506   5.518   1.359   2.368  0.2551  0.6604  0.2766
 3467lim     li17507   6.408   3.172   6.043  0.5247 -0.3598 -1.2692
 3468lim     li17508   5.676   1.257   5.143 -0.1834  1.5186 -0.4815
 3469lim     li17509   1.822   2.887   4.719 -0.6685  0.8542 -0.1832
 3470lim     li17510   6.105   2.113   2.278 -0.3597 -0.2492 -0.1609
 3471lim     li17511   6.703   1.728   0.887 -0.1623 -0.2099  0.1287
 3472lim     li17512   6.168   0.018   7.103  0.6033  0.0546  1.2004
 3473lim     li17513   2.392   2.973   6.259  0.2062 -0.6472 -0.3554
 3474lim     li17514   2.371   5.783   0.594 -0.7181  0.1564 -0.8836
 3475lim     li17515   3.306   5.030   2.664  1.1114 -1.2901 -0.3550
 3476lim     li17516   6.112   4.453   6.830  2.3506 -0.2586 -0.7695
 3477lim     li17517   1.738   3.141   6.161 -0.0076 -0.6400  0.4332
 3478lim     li17518   5.139   4.171   1.192 -0.1952  1.1472 -0.0962
 3479lim     li17519   3.934   3.172   4.862 -1.7555  0.2425  0.3729
 3480lim     li17520   0.193   6.989   1.840  1.3844 -0.5467 -0.0790
 3481lim     li17521   0.291   6.312   0.932  0.2577 -0.5577  0.8157
 3482lim     li17522   5.726   3.800   5.790  0.3707  0.0772 -0.1823
 3483lim     li17523   5.915   3.551   3.850  0.0424  0.4475 -0.7641
 3484lim     li17524   4.947   1.074   1.633  0.1318  1.1077  0.5334
 3485lim     li17525   3.479   4.730   0.603  0.3402  0.0218 -0.2430
 3486lim     li17526   2.715   2.880   1.148  0.5137 -1.0819 -0.3822
 3487lim     li17527   0.606   1.601   0.934  0.6151  1.6670 -0.9910
 3488lim     li17528   4.463   4.616   3.215 -0.5294  0.6859 -0.8959
 3489lim     li17529   4.003   6.269   4.385 -0.2546  1.7825 -0.6691
 3490lim     li17530   2.992   3.956   7.275 -0.0139  1.4039  0.5295
 3491lim     li17531   0.685   1.357   4.019 -0.9858 -0.3234  0.1542
 3492lim     li17532   2.646   1.803   2.818  0.5398  0.4244  0.1278
 3493lim     li17533   1.870   2.785   0.207 -0.6098 -0.4064  0.1729
 3494lim     li17534   5.613   4.496   2.489  1.1313  0.3616  0.5789
 3495lim     li17535   1.280   7.026   7.135  0.1347 -1.1972 -0.1756
 3496lim     li17536   1.200   6.442   0.696 -1.0261  0.0870  1.4151
 3497lim     li17537   6.105   6.107   0.915  0.4128  0.1871 -0.4626
 3498lim     li17538   6.957   4.269   2.220  0.4720  0.5399  0.4055
 3499lim     li17539   2.699   6.390   5.017  0.5336  1.1590  0.9988
 3500lim     li17540   3.673   6.977   0.105 -0.1417  0.6101 -2.1648
 3501lim     li17541   0.804   5.449   5.665 -1.1625  0.3124  0.3600
 3502lim     li17542   1.396   1.023   3.119 -0.4258  0.6597  0.0114
 3503lim     li17543   2.651   0.191   7.306 -0.6263  1.1105 -0.4345
 3504lim     li17544   2.136   1.896   1.762 -0.6194 -0.8992 -1.0283
 3505lim     li17545   0.541   5.799   4.723 -1.1865 -0.4451  2.2482
 3506lim     li17546   5.407   3.325   6.566  0.4018  0.2160  0.3949
 3507lim     li17547   6.928   4.891   1.668 -0.0437 -0.4364  0.1802
 3508lim     li17548   5.752   2.686   2.842  0.3738  0.4248 -1.0132
 3509lim     li17549   6.603   2.689   1.958 -0.6724  0.7376  1.1503
 3510lim     li17550   1.613   1.144   5.408  0.0420 -0.0236  1.0903
 3511lim     li17551   4.286   2.355   2.914 -0.5917 -0.5935 -0.1998
 3512lim     li17552   0.728   3.611   1.351 -0.4937  0.1186 -0.4214
 3513lim     li17553   6.220   3.751   0.346  0.3177 -0.6071 -0.0821
 3514lim     li17554   1.276   5.985   5.145 -0.6250  1.4842  0.6509
 3515lim     li17555   1.266   6.951   1.752 -1.1667 -1.0503  0.8536
 3516lim     li17556   3.063   2.722   5.197 -0.0521  0.3240 -1.0547
 3517lim     li17557   7.252   3.635   4.510  0.3215  0.0235 -0.0506
 3518lim     li17558   1.213   0.794   3.696 -0.0904 -0.1536  0.3353
 3519lim     li17559   3.176   5.709   3.062 -0.5719  0.5785 -0.7383
 3520lim     li17560   0.063   2.246   1.692  0.0002  0.1709  0.4172
 3521lim     li17561   4.828   1.447   2.507 -0.3565 -1.5846  0.4498
 3522lim     li17562   5.460   3.407   3.526 -0.0519 -0.5211  0.4248
 3523lim     li17563   6.925   4.951   4.884  0.5866 -1.0227  0.8720
 3524lim     li17564   6.692   4.741   2.236 -1.6482  0.5959  0.4084
 3525lim     li17565   1.238   3.245   0.426 -0.1916 -0.2226  0.5883
 3526lim     li17566   3.895   6.830   5.107  0.4422 -0.2052  0.7211
 3527lim     li17567   3.142   5.100   5.618  0.2664  0.4107  0.6490
 3528lim     li17568   0.623   1.515   4.924  1.7274  0.6694 -0.0634
 3529lim     li17569   7.238   7.219   2.864  1.0957  0.3251  0.2766
 3530lim     li17570   2.800   0.904   4.661 -0.3055 -1.4688  0.8775
 3531lim     li17571   5.711   3.479   4.948 -1.2588 -1.3549  0.0850
 3532lim     li17572   1.658   7.265   3.803 -0.5936  0.5224 -1.2417
 3533lim     li17573   3.178   3.406   0.846  0.5905  0.0045 -0.8592
 3534lim     li17574   1.654   0.229   6.100 -0.6957 -0.6991 -0.3341
 3535lim     li17575   1.638   3.404   3.790  0.0393 -0.3005  0.0211
 3536lim     li17576   0.445   0.403   5.159  0.2355  0.0755  1.8837
 3537lim     li17577   3.686   3.208   0.351  0.2887  0.8648 -1.0768
 3538lim     li17578   1.936   4.312   6.179 -0.0224  0.0547 -0.4976
 3539lim     li17579   1.554   2.655   2.432  0.2507 -0.3142 -0.9065
 3540lim     li17580   3.245   0.886   7.090  0.6754  1.0051  0.0308
 3541lim     li17581   6.377   1.635   3.449 -0.9022 -0.3183 -0.7950
 3542lim     li17582   2.473   1.457   0.087 -0.1279  1.0792 -0.3160
 3543lim     li17583   1.599   4.029   1.968  0.9469 -0.6102  0.6158
 3544lim     li17584   4.958   2.253   1.785  0.1258  0.2994 -0.8475
 3545lim     li17585   0.000   5.094   0.955 -0.6316  0.9255  0.9445
 3546lim     li17586   6.361   0.197   0.503 -0.7349  1.0039 -0.0476
 3547lim     li17587   6.039   5.152   1.122 -0.2961 -0.8433  0.5883
 3548lim     li17588   3.442   6.271   6.508  0.1158 -1.7382 -0.5154
 3549lim     li17589   5.870   2.473   4.041  0.7826  0.4853  0.6655
 3550lim     li17590   7.252   2.936   7.141  0.9441  1.0065 -0.7268
 3551lim     li17591   0.904   2.544   1.581 -0.2665  0.2853 -1.3473
 3552lim     li17592   3.182   0.626   2.180 -0.2698 -0.6077  0.7334
 3553lim     li17593   4.337   3.854   6.881  0.8076  0.2597  0.5658
 3554lim     li17594   5.979   2.654   1.431 -0.5493 -1.0187 -0.0824
 3555lim     li17595   2.013   6.061   4.243  0.6130  0.4118  0.6061
 3556lim     li17596   3.408   4.978   3.579  0.3624 -0.9141  0.0101
 3557lim     li17597   2.077   4.921   3.707  1.1933  1.0227  0.0246
 3558lim     li17598   6.191   6.367   3.665  1.0113 -0.3546  0.0766
 3559lim     li17599   0.812   4.212   2.786 -0.1292  0.0450  0.9538
 3560lim     li17600   0.551   3.566   2.735 -0.6636 -1.0658 -0.6012
 3561lim     li17601   0.896   2.972   3.970 -0.7938 -0.4755  0.0323
 3562lim     li17602   2.510   3.888   2.230 -0.4491  0.0632 -0.2222
 3563lim     li17603   3.757   3.926   5.794  0.3432 -0.0948 -0.0818
 3564lim     li17604   6.507   5.683   3.643 -0.8080  0.0114  0.5916
 3565lim     li17605   4.260   6.441   3.082 -0.8181  0.7807 -0.1931
 3566lim     li17606   1.047   2.096   4.822 -0.5316  0.9530 -1.8069
 3567lim     li17607   2.754   1.920   2.085  0.4621  0.2091 -0.3425
 3568lim     li17608   6.833   2.551   4.532 -0.7068 -0.1893  0.1143
 3569lim     li17609   4.496   3.105   5.485 -0.1029 -0.6216 -0.4568
 3570lim     li17610   7.304   7.226   0.070  0.0536  1.1116 -0.7162
 3571lim     li17611   4.162   5.310   0.507  0.0364  0.3375  0.1581
 3572lim     li17612   4.022   6.093   7.029  0.2144 -0.8248 -0.1218
 3573lim     li17613   3.956   7.039   1.700  0.7776  0.0312 -0.1724
 3574lim     li17614   5.588   2.079   6.936  0.5042  0.2363 -1.0930
 3575lim     li17615   3.447   5.488   5.358  0.6212  0.7329 -0.3079
 3576lim     li17616   0.750   0.282   6.192 -0.9579  1.0659 -0.8033
 3577lim     li17617   2.712   5.149   3.336 -0.4893  0.5601  0.1197
 3578lim     li17618   0.261   4.369   7.094 -0.1530 -1.8239 -0.4316
 3579lim     li17619   4.305   6.030   0.363 -0.2054  1.2966 -1.0201
 3580lim     li17620   6.298   5.418   2.515  0.0803  0.7885 -1.1074
 3581lim     li17621   1.405   0.926   1.752  0.2420  1.2646  0.4568
 3582lim     li17622   2.074   7.051   3.005 -1.4403  0.3840 -0.5080
 3583lim     li17623   4.450   5.032   1.805 -0.1618  0.7359 -0.1860
 3584lim     li17624   0.689   6.951   3.896 -0.6244 -0.4002  0.0694
 3585lim     li17625   6.656   3.560   6.399  0.1665  0.7394 -0.6086
 3586lim     li17626   1.226   0.473   5.380  0.6319  1.0873  0.3546
 3587lim     li17627   1.188   3.079   5.031 -0.4176  0.8326 -0.1611
 3588lim     li17628   2.147   0.862   3.918 -0.3611 -0.9756 -0.9415
 3589lim     li17629   5.019   4.778   2.720 -0.6173  1.1454 -1.5094
 3590lim     li17630   2.066   3.098   5.182 -0.1090  1.0690  1.0156
 3591lim     li17631   6.324   0.275   5.790 -0.8150  1.4448  1.1726
 3592lim     li17632   2.396   3.270   4.200 -0.0095  0.8692  0.9039
 3593lim     li17633   3.149   0.166   6.499  1.2360 -0.0632  0.4371
 3594lim     li17634   1.512   6.896   5.750 -0.6985  0.8773 -0.1574
 3595lim     li17635   2.431   3.294   0.559 -0.0342  1.7983  0.4576
 3596lim     li17636   6.457   0.843   3.883 -0.1485 -0.6584 -0.3082
 3597lim     li17637   4.272   5.386   5.404  0.1558  0.3740  1.3660
 3598lim     li17638   1.266   1.995   1.218 -0.0560 -0.3427  0.1040
 3599lim     li17639   6.641   3.415   1.620  0.0734  0.6561 -0.1647
 3600lim     li17640   3.767   4.342   6.811 -0.1915 -0.9755 -0.6272
 3601lim     li17641   3.582   1.532   3.013  0.1332  0.4923 -0.0443
 3602lim     li17642   3.221   4.903   1.235  0.7405  0.1750  0.7439
 3603lim     li17643   2.668   7.177   5.988 -0.6456  0.0580 -1.2439
 3604lim     li17644   3.452   4.947   2.080  0.5984  0.7376  0.7892
 3605lim     li17645   0.762   3.577   7.209 -0.9892  1.1626 -0.7423
 3606lim     li17646   3.489   5.843   7.089 -0.4302  0.6782  0.5332
 3607lim     li17647   4.331   2.314   0.572  0.0900 -1.2309 -0.3606
 3608lim     li17648   1.841   6.059   6.727 -0.6279  0.4907 -1.7725
 3609lim     li17649   0.170   0.822   3.584 -0.1254 -0.7902 -0.8057
 3610lim     li17650   0.787   5.548   0.150 -0.0438 -0.7357 -0.1046
 3611lim     li17651   4.474   5.057   1.014 -0.8409  1.0777  2.1217
 3612lim     li17652   3.927   5.860   1.318 -0.2380  0.2700 -0.0038
 3613lim     li17653   5.433   7.004   0.811  0.2140 -1.4223  1.0716
 3614lim     li17654   3.717   2.604   4.482  0.0682  0.7545 -1.2174
 3615lim     li17655   3.124   1.082   5.492  1.5984 -0.3850  0.1610
 3616lim     li17656   6.497   6.938   3.694  1.0936 -0.1470 -0.6160
 3617lim     li17657   6.545   5.158   0.622  0.1498 -0.4292  0.8185
 3618lim     li17658   4.036   2.853   6.219 -0.2490 -0.5498 -0.8035
 3619lim     li17659   0.653   2.985   5.715  0.4608 -0.5898 -0.7933
 3620lim     li17660   3.761   2.067   2.222  0.6170  0.5856  0.1417
 3621lim     li17661   6.954   2.003   0.385 -0.4601  1.4321 -0.3480
 3622lim     li17662   7.220   7.012   5.302  0.1624 -0.3953  1.1370
 3623lim     li17663   7.205   4.134   6.476  0.1845  0.0701 -0.5727
 3624lim     li17664   4.219   3.262   6.487 -0.1716  0.4523  0.4256
 3625lim     li17665   3.980   2.996   1.503 -0.3046 -0.4266 -0.6865
 3626lim     li17666   4.147   4.154   2.257 -0.6520  0.1798 -0.9929
 3627lim     li17667   7.258   5.078   7.292 -0.4039 -0.3559  0.5568
 3628lim     li17668   6.991   5.738   1.266 -0.5913 -0.3103 -0.5115
 3629lim     li17669   0.312   4.605   1.983  0.3131 -0.2088 -0.2474
 3630lim     li17670   1.719   6.744   0.965 -0.5597 -0.4549  0.4235
 3631lim     li17671   6.091   1.797   3.031 -0.5937  0.4336  0.1158
 3632lim     li17672   3.785   2.737   0.141  0.8226  0.5518 -0.3043
 3633lim     li17673   6.463   6.376   2.169 -1.1233 -0.4924 -0.2255
 3634lim     li17674   5.856   0.728   4.508  0.7061 -0.5091  0.0566
 3635lim     li17675   5.263   1.303   6.668  0.2991  0.0752 -0.2781
 3636lim     li17676   1.646   2.608   4.009 -0.7091  0.3832  0.2327
 3637lim     li17677   2.508   3.031   3.057 -0.7156  0.2410 -0.5462
 3638lim     li17678   3.264   0.008   3.335 -0.2238  0.3128 -1.5143
 3639lim     li17679   5.523   4.308   6.409 -0.6588  1.1549  0.1023
 3640lim     li17680   1.869   3.806   3.107  1.0045  0.0562 -0.7570
 3641lim     li17681   0.940   0.381   1.042 -0.3070  0.2886 -0.2215
 3642lim     li17682   0.858   1.895   3.879 -0.3723  1.2449  0.5405
 3643lim     li17683   4.699   5.119   0.042  0.4837 -0.7277  0.2634
 3644lim     li17684   0.138   3.531   0.956 -0.0180 -0.1162 -0.5428
 3645lim     li17685   0.513   1.032   6.802  0.5241 -0.5422  1.2120
 3646lim     li17686   2.894   3.554   6.129 -0.0695  1.3754 -1.9361
 3647lim     li17687   5.613   6.904   5.500  0.4426 -0.7743 -0.0712
 3648lim     li17688   1.126   2.012   2.944  0.4558  0.2305  0.0438
 3649lim     li17689   2.509   6.766   1.770  0.6741 -0.2779 -0.2529
 3650lim     li17690   0.691   5.955   3.198 -0.9087 -0.4994  0.5984
 3651lim     li17691   2.351   2.965   1.858  0.4537  0.4285 -0.3436
 3652lim     li17692   5.965   1.321   0.618  0.1189 -0.0368 -1.1115
 3653lim     li17693   3.433   0.036   5.128  0.6405 -0.2331  0.4897
 3654lim     li17694   2.984   6.690   0.796 -0.7208 -0.3930 -0.5078
 3655lim     li17695   4.992   6.475   2.823 -0.0204 -0.4223  0.8258
 3656lim     li17696   1.031   2.691   6.045 -1.1319  0.2488  0.4742
 3657lim     li17697   0.315   1.526   2.487 -0.1534  0.3726  0.6712
 3658lim     li17698   6.015   5.354   4.129 -0.0736  0.6700  0.3391
 3659lim     li17699   0.208   5.575   3.838 -0.0937 -0.0194  0.0624
 3660lim     li17700   2.064   1.016   6.321  0.9860  0.8821  0.3231
 3661lim     li17701   7.102   6.607   4.933 -0.0073 -0.6415 -1.0674
 3662lim     li17702   3.065   1.641   1.311 -0.7285 -1.6997 -0.7440
 3663lim     li17703   1.661   5.467   0.308 -0.8121 -0.0114  0.4532
 3664lim     li17704   5.300   5.499   2.807 -0.2805 -0.4779  0.9069
 3665lim     li17705   2.432   1.703   3.467  0.8944 -0.2585 -0.5896
 3666lim     li17706   2.063   2.330   1.194  0.5290  0.2369  0.0875
 3667lim     li17707   4.907   5.430   5.192 -0.7984  0.2284  0.0247
 3668lim     li17708   0.345   5.349   6.529 -0.4365 -0.8108 -0.3431
 3669lim     li17709   2.407   6.957   4.476 -0.2877 -1.5193 -0.2695
 3670lim     li17710   2.140   5.805   5.652  1.3385 -0.4230  0.2905
 3671lim     li17711   4.132   4.341   1.579  0.3917 -0.4823 -0.4238
 3672lim     li17712   4.390   3.447   2.685 -0.0055 -0.3982  0.4347
 3673lim     li17713   1.753   6.038   2.831 -0.9817  0.2708 -0.4330
 3674lim     li17714   6.617   1.152   5.335  0.1004 -0.4860 -0.4149
 3675lim     li17715   1.084   4.761   3.897  0.4035  0.1645  0.1403
 3676lim     li17716   6.687   0.759   1.071 -0.1868 -0.9563 -0.7482
 3677lim     li17717   3.249   2.662   1.902 -1.1652 -0.7171  0.4112
 3678lim     li17718   1.832   0.326   2.514 -0.3078  0.1667 -0.5390
 3679lim     li17719   2.985   6.456   2.412  0.5449 -0.2336  0.9809
 3680lim     li17720   5.648   0.134   2.522  0.3957 -1.4311 -0.1891
 3681lim     li17721   5.394   5.333   6.110  0.1488 -0.1370  0.7436
 3682lim     li17722   5.099   0.197   1.265 -0.0998  0.1355  0.6616
 3683lim     li17723   7.034   3.894   5.227 -0.6092 -1.2155 -0.3362
 3684lim     li17724   4.231   7.016   0.369  0.0350  1.0775  0.2939
 3685lim     li17725   7.178   2.237   4.840 -1.0441  0.2733  0.4225
 3686lim     li17726   4.672   6.127   1.246  0.1756  1.4041 -0.0039
 3687lim     li17727   5.519   6.299   3.300  0.5010 -0.1400 -0.4246
 3688lim     li17728   5.831   0.179   1.252  1.0085 -0.7256 -0.0826
 3689lim     li17729   6.086   0.837   5.974 -0.0956  0.6717  0.4067
 3690lim     li17730   4.789   5.859   6.148  0.1955  0.7403  0.0536
 3691lim     li17731   6.135   5.795   6.376 -0.2290  0.8172  0.4623
 3692lim     li17732   6.739   6.645   0.417  0.2175  0.1702 -1.1073
 3693lim     li17733   3.896   5.481   4.208 -0.3575 -0.2636  0.9411
 3694lim     li17734   4.699   6.631   2.223 -0.5382 -0.0045  0.9538
 3695lim     li17735   2.923   2.009   4.224  0.4980 -0.1295 -1.3292
 3696lim     li17736   5.503   6.591   6.311  0.3491  0.3017  0.8147
 3697lim     li17737   2.633   5.577   5.980 -0.0453  1.1905 -0.5202
 3698lim     li17738   2.448   0.823   3.058 -0.2622 -1.3800  0.4600
 3699lim     li17739   5.151   6.283   5.325 -0.6510  0.2967  0.2565
 3700lim     li17740   6.243   5.994   4.639 -0.2356  0.3515  1.1338
 3701lim     li17741   6.251   4.785   3.019  0.1207 -0.0887  0.5168
 3702lim     li17742   4.001   4.026   3.763  0.6201  0.0684 -0.6192
 3703lim     li17743   3.941   0.847   2.404  0.1786 -0.7714  0.3510
 3704lim     li17744   3.636   0.648   0.795 -0.8356 -0.1774  0.0970
 3705lim     li17745   3.448   1.577   4.138 -0.2014 -1.8038 -0.0306
 3706lim     li17746   2.731   1.000   6.728 -0.5147  0.8533 -0.4104
 3707lim     li17747   1.890   0.171   0.646 -0.7213 -0.0897  0.0806
 3708lim     li17748   2.579   4.713   2.515  1.5723  0.8320 -0.1740
 3709lim     li17749   4.720   1.396   0.167  0.0590  0.2149  0.2872
 3710lim     li17750   2.265   0.330   1.987 -0.0646 -0.4465  0.2801
 3711lim     li17751   6.129   5.602   5.352  0.6011 -0.4622 -0.5812
 3712lim     li17752   1.971   3.761   6.909 -0.3152 -0.4385 -0.1949
 3713lim     li17753   0.254   6.444   5.607 -0.0716 -0.9824 -0.5149
 3714lim     li17754   0.999   5.818   6.362  0.7951  0.6749  0.7793
 3715lim     li17755   1.047   1.586   7.225 -0.1101 -0.0909 -0.4487
 3716lim     li17756   4.828   1.347   3.135 -0.2841 -1.0443  0.0314
 3717lim     li17757   4.627   3.810   3.513  0.4171  0.6146 -0.5860
 3718lim     li17758   0.815   0.624   2.286 -0.3058 -0.0852  0.2587
 3719lim     li17759   4.473   2.985   3.968  0.6754  0.4326 -0.1235
 3720lim     li17760   4.483   3.927   1.342  1.2374 -0.0490  0.0056
 3721lim     li17761   5.992   3.650   1.797 -0.0471 -0.3775  1.2368
 3722lim     li17762   2.594   2.300   3.943  0.7127 -0.0085 -0.2904
 3723lim     li17763   1.236   4.653   5.729 -2.5984 -0.6565  0.9555
 3724lim     li17764   0.421   5.652   1.605 -1.0624 -0.3231  0.3731
 3725lim     li17765   2.613   0.687   0.917  0.6271  0.4969  0.3036
 3726lim     li17766   2.474   4.107   3.951  0.5556  1.0745  0.9794
 3727lim     li17767   6.031   5.325   1.663  1.0736  0.8836 -0.0980
 3728lim     li17768   3.811   1.993   6.826  0.3435  0.4539 -1.2119
 3729lim     li17769   0.892   2.472   6.842 -1.0604  0.3808  0.4053
 3730lim     li17770   7.151   1.699   3.581 -0.0478  1.3823  0.6109
 3731lim     li17771   1.590   1.128   7.135 -0.2082  0.8070  0.0047
 3732lim     li17772   4.158   0.800   5.806  0.0467  0.7541 -0.4394
 3733lim     li17773   5.497   0.329   4.026 -1.0447  0.4482  0.1531
 3734lim     li17774   6.543   6.410   2.837 -0.2504  0.6107 -0.9691
 3735lim     li17775   3.446   2.462   0.800 -0.8568 -1.0450 -0.1894
 3736lim     li17776   6.558   0.097   5.114  0.3652 -0.3217  0.5932
 3737lim     li17777   6.484   2.345   5.921 -0.1247 -0.1906  0.4782
 3738lim     li17778   3.720   0.098   3.805 -0.1931  0.2825  0.1121
 3739lim     li17779   4.675   0.051   2.084 -0.3947 -0.3120  0.0495
 3740lim     li17780   5.432   2.388   5.778  0.0860 -0.1858  0.1247
 3741lim     li17781   4.601   6.897   3.554  0.2685 -0.6366 -0.7418
 3742lim     li17782   4.306   6.025   2.010  0.6923  0.0397 -0.4470
 3743lim     li17783   3.075   3.910   5.602 -0.3626 -0.3901  0.1870
 3744lim     li17784   6.992   6.033   6.086 -0.8609 -0.4067  0.1142
 3745lim     li17785   4.120   0.931   3.319  0.0818  0.7799  0.4015
 3746lim     li17786   0.115   0.798   6.148  0.1663  0.7979  1.4871
 3747lim     li17787   6.156   4.776   5.610  0.2413  0.2038  0.1998
 3748lim     li17788   4.782   0.922   6.129 -0.4578 -0.2664 -1.0264
 3749lim     li17789   4.928   1.793   5.495  0.0983  0.3636 -0.1359
 3750lim     li17790   6.900   1.446   4.610  0.2383 -0.3439 -0.7264
 3751lim     li17791   1.143   4.017   6.514 -0.2770 -0.3866 -0.3369
 3752lim     li17792   1.271   0.800   4.692  0.3030 -0.0535  0.5636
 3753lim     li17793   3.562   6.003   5.781  1.0102  0.2794 -0.7345
 3754lim     li17794   0.143   1.011   2.356  0.3149  0.4962 -0.7704
 3755lim     li17795   3.641   5.852   2.624  0.0830  0.7824  0.0374
 3756lim     li17796   2.089   4.741   1.394  1.2117 -0.2649 -0.1899
 3757lim     li17797   2.038   4.542   2.476 -0.6032  0.2561  0.5753
 3758lim     li17798   3.317   5.963   1.681  0.1959 -0.3735  0.0084
 3759lim     li17799   4.758   3.165   2.161  0.0972 -0.6743  0.6122
 3760lim     li17800   7.246   1.708   6.145 -0.4777 -0.0380 -0.5190
 3761lim     li17801   1.171   5.218   2.463 -0.6317 -0.1240 -0.1925
 3762lim     li17802   5.291   5.962   3.901  0.0058 -0.2356  0.0146
 3763lim     li17803   5.225   5.401   4.229 -0.3225  0.1363 -0.7668
 3764lim     li17804   6.031   7.197   4.704 -0.4551 -0.1541  0.0169
 3765lim     li17805   3.269   0.032   1.136  0.0351  1.1033 -0.1841
 3766lim     li17806   5.388   3.365   1.453  0.3645  0.5814  0.5020
 3767lim     li17807   1.481   1.381   6.663 -0.5663 -0.3583  1.0157
 3768lim     li17808   2.273   6.279   0.948  0.0368 -0.1138  0.1847
 3769lim     li17809   0.286   7.099   0.939  0.4968 -1.0753  0.2227
 3770lim     li17810   4.126   6.769   5.799  1.5854  1.2063 -0.2722
 3771lim     li17811   5.156   4.504   4.975 -0.3332  1.0461  0.2528
 3772lim     li17812   0.294   2.312   6.326  0.4137 -0.6976 -0.7140
 3773lim     li17813   5.872   6.305   6.943  0.0917  1.2255  0.0458
 3774lim     li17814   3.341   3.858   2.083  0.2158 -0.4795  0.3778
 3775lim     li17815   0.778   0.260   7.167 -0.2369  0.8414  0.3093
 3776lim     li17816   6.265   3.257   4.684 -0.3513 -0.4307 -0.6278
 3777lim     li17817   0.513   0.330   4.411  0.4017 -0.1453 -0.9881
 3778lim     li17818   5.413   3.124   0.156 -0.9242 -1.3131 -0.0658
 3779lim     li17819   4.688   3.508   0.858 -0.4501  1.0843 -0.3457
 3780lim     li17820   1.201   7.090   3.611 -0.3519 -0.1034  0.5547
 3781ntf    cn117821   5.388   3.126   4.250  0.1588  0.0908 -0.2007
 3781ntf    sn217822   5.443   3.134   4.077  0.0069  0.2220 -0.2438
 3781ntf    nn317823   5.303   3.140   4.006 -0.0596  0.0883 -0.1263
 3781ntf    sn217824   5.230   3.277   3.981 -0.2326  0.0499  0.1745
 3781ntf    cn117825   5.061   3.243   4.038 -0.2346  0.0398  0.1629
 3781ntf    fn417826   5.279   3.198   4.269  0.5878  0.8071 -0.3992
 3781ntf    fn417827   5.356   3.007   4.298 -0.4747  0.2437 -0.2443
 3781ntf    fn417828   5.479   3.178   4.330  0.2878 -0.3654 -0.0492
 3781ntf    on517829   5.526   3.251   4.065  0.2101  0.1585  0.4957
 3781ntf    on517830   5.505   3.005   4.060 -0.7802 -0.1357 -0.4456
 3781ntf    on517831   5.208   3.310   3.842  0.0289  0.5346  0.2465
 3781ntf    on517832   5.264   3.385   4.070 -0.3691  0.2127  0.0292
 3781ntf    fn417833   5.067   3.207   4.166 -0.4241  0.3114  0.2492
 3781ntf    fn417834   4.989   3.353   4.028 -0.6691 -0.2606 -0.0642
 3781ntf    fn417835   4.993   3.152   3.970 -0.3651  0.0846  0.2312
 3782ntf    cn117836   1.652   5.620   1.988  0.3901  0.1239  0.3582
 3782ntf    sn217837   1.635   5.801   1.983  0.1670  0.0939 -0.0072
 3782ntf    nn317838   1.684   5.841   2.127  0.2054  0.0462 -0.0073
 3782ntf    sn217839   1.628   5.940   2.236  0.0296  0.1341 -0.1768
 3782ntf    cn117840   1.729   6.085   2.190  0.2692 -0.0243 -0.1543
 3782ntf    fn417841   1.573   5.566   2.079  0.0732 -0.3167 -0.1808
 3782ntf    fn417842   1.605   5.574   1.874  0.1410  0.1542  0.4484
 3782ntf    fn417843   1.776   5.576   1.998  0.1538 -0.5437  0.3463
 3782ntf    on517844   1.725   5.854   1.884 -0.0803 -0.5143 -0.5593
 3782ntf    on517845   1.495   5.831   1.964  0.1499 -0.1412 -0.2563
 3782ntf    on517846   1.679   5.916   2.368 -0.1422  0.5502 -0.0337
 3782ntf    on517847   1.489   5.971   2.217  0.0011  0.1894  0.1299
 3782ntf    fn417848   1.856   6.054   2.210  0.2869  0.0039 -0.2228
 3782ntf    fn417849   1.710   6.119   2.063  0.4209 -0.9326 -0.4301
 3782ntf    fn417850   1.716   6.199   2.254 -0.4475  0.1403 -0.5815
 3783ntf    cn117851   7.158   2.738   4.118  0.0768  0.2328  0.1044
 3783ntf    sn217852   7.309   2.728   4.017 -0.0051 -0.1492  0.0192
 3783ntf    nn317853   7.318   2.572   4.036 -0.5483 -0.1390  0.3754
 3783ntf    sn217854   7.281   2.458   3.935 -0.2116  0.1123 -0.0358
 3783ntf    cn117855   7.403   2.333   3.987 -0.2212  0.2566  0.3405
 3783ntf    fn417856   7.152   2.674   4.233 -0.1422 -0.0775 -0.0776
 3783ntf    fn417857   7.138   2.864   4.155  0.0023  0.4112 -0.5292
 3783ntf    fn417858   7.047   2.707   4.052  0.3772 -0.6387  0.0011
 3783ntf    on517859   7.276   2.785   3.889 -0.3057 -0.3008  0.0275
 3783ntf    on517860   7.408   2.799   4.094  0.1699 -0.1841 -0.1745
 3783ntf    on517861   7.314   2.476   3.796 -0.3286 -0.6481 -0.1700
 3783ntf    on517862   7.152   2.404   3.972  0.1487 -0.6036  0.2021
 3783ntf    fn417863   7.382   2.305   4.114  0.2651 -0.1450  0.3341
 3783ntf    fn417864   7.396   2.217   3.923  0.9425  0.0985  0.4876
 3783ntf    fn417865   7.530   2.369   3.985 -0.0779 -0.2439  0.1912
 3784ntf    cn117866   0.096   3.655   1.775 -0.3899  0.0540 -0.0095
 3784ntf    sn217867   0.228   3.681   1.897 -0.5573 -0.0050  0.1839
 3784ntf    nn317868   0.296   3.803   1.825 -0.2303 -0.0815  0.3627
 3784ntf    sn217869   0.297   3.958   1.849 -0.2795 -0.0813  0.3651
 3784ntf    cn117870   0.317   4.021   1.680  0.0707 -0.3738  0.2954
 3784ntf    fn417871   0.031   3.769   1.754  0.3380  0.5332  0.3204
 3784ntf    fn417872   0.162   3.624   1.665 -0.6642  0.4422 -0.2878
 3784ntf    fn417873   0.014   3.554   1.798  0.1450 -0.4057 -0.1200
 3784ntf    on517874   0.158   3.703   2.022  0.5765  0.2054  0.7927
 3784ntf    on517875   0.316   3.568   1.885 -0.7382 -0.0565 -0.6867
 3784ntf    on517876   0.419   4.015   1.901 -0.0204  0.2016 -0.5295
 3784ntf    on517877   0.169   4.009   1.890 -0.2521  0.2638  0.0267
 3784ntf    fn417878   0.214   3.999   1.600 -0.0242  0.0565  0.2959
 3784ntf    fn417879   0.324   4.153   1.679 -0.5017 -0.3433 -0.2015
 3784ntf    fn417880   0.422   3.964   1.622  0.1794  0.0515  0.0692
 3785ntf    cn117881   6.844   5.285   1.036  0.0539 -0.0149 -0.1485
 3785ntf    sn217882   6.696   5.258   1.138  0.0213  0.3515 -0.0943
 3785ntf    nn317883   6.644   5.402   1.173  0.1847  0.3715  0.0660
 3785ntf    sn217884   6.509   5.473   1.137  0.1550  0.0895 -0.3827
 3785ntf    cn117885   6.558   5.553   0.981  0.0707  0.3272 -0.2870
 3785ntf    fn417886   6.829   5.372   0.937  0.1814 -0.2755 -0.3987
 3785ntf    fn417887   6.939   5.346   1.105  0.3678 -0.2337 -0.3871
 3785ntf    fn417888   6.888   5.169   0.990  0.4658  0.1332 -0.1328
 3785ntf    on517889   6.613   5.182   1.048 -0.1243  0.3383  0.0502
 3785ntf    on517890   6.749   5.189   1.253 -0.3483  0.0684 -0.0908
 3785ntf    on517891   6.467   5.578   1.227  0.1336  0.3501 -0.6945
 3785ntf    on517892   6.403   5.382   1.101  0.1325  0.1860 -0.5601
 3785ntf    fn417893   6.467   5.637   0.936  0.1006  0.3464 -0.3113
 3785ntf    fn417894   6.670   5.624   0.987  0.3013 -0.0536 -0.0146
 3785ntf    fn417895   6.571   5.453   0.896 -0.0502  0.1115 -0.0503
 3786ntf    cn117896   1.953   3.473   4.397 -0.4754  0.0334 -0.1827
 3786ntf    sn217897   1.832   3.367   4.313 -0.4940 -0.2417  0.1881
 3786ntf    nn317898   1.697   3.419   4.373 -0.5011  0.2556 -0.2433
 3786ntf    sn217899   1.560   3.349   4.342 -0.3260 -0.2010  0.0032
 3786ntf    cn117900   1.476   3.452   4.219  0.0317 -0.3095 -0.3321
 3786ntf    fn417901   1.945   3.599   4.356  0.5112  0.0864 -0.2415
 3786ntf    fn417902   1.938   3.464   4.528 -0.3923  0.0356 -0.1726
 3786ntf    fn417903   2.075   3.432   4.366 -0.4780  0.0626 -0.2317
 3786ntf    on517904   1.832   3.394   4.171  0.0417  0.4423  0.3127
 3786ntf    on517905   1.884   3.239   4.355  0.4349 -0.0991 -0.4961
 3786ntf    on517906   1.475   3.359   4.459  0.8507 -0.8130  0.9370
 3786ntf    on517907   1.566   3.220   4.278 -1.0197 -0.1274 -0.2127
 3786ntf    fn417908   1.553   3.532   4.146 -0.0864 -0.1087 -0.2393
 3786ntf    fn417909   1.395   3.388   4.137 -0.0344 -0.4077 -0.1893
 3786ntf    fn417910   1.404   3.542   4.285  0.6959 -0.1641  0.2082
 3787ntf    cn117911   1.438   5.638   5.617 -0.1692  0.4269 -0.5225
 3787ntf    sn217912   1.517   5.588   5.460  0.3977 -0.0855 -0.0807
 3787ntf    nn317913   1.504   5.433   5.477 -0.1386 -0.1057 -0.6480
 3787ntf    sn217914   1.604   5.313   5.460  0.1874  0.0554  0.0989
 3787ntf    cn117915   1.515   5.183   5.550 -0.0482  0.0961 -0.0759
 3787ntf    fn417916   1.405   5.766   5.613  0.3500  0.5657 -0.4413
 3787ntf    fn417917   1.329   5.569   5.641  0.0403  0.0936 -0.5243
 3787ntf    fn417918   1.518   5.622   5.721  0.1851  0.3496 -0.8034
 3787ntf    on517919   1.430   5.641   5.358 -0.4034 -0.1890  0.5360
 3787ntf    on517920   1.645   5.654   5.471  0.4386 -0.2186  0.2596
 3787ntf    on517921   1.731   5.326   5.527  0.5329 -0.2930 -0.4756
 3787ntf    on517922   1.614   5.256   5.327  0.2711  0.1608  0.0593
 3787ntf    fn417923   1.470   5.223   5.667  0.7321  0.5357  0.0743
 3787ntf    fn417924   1.408   5.144   5.481 -0.0026  0.7122 -0.4955
 3787ntf    fn417925   1.588   5.074   5.570  0.1732  0.2678  0.0519
 3788ntf    cn117926   2.168   1.927   2.489  0.4084  0.3218 -0.4594
 3788ntf    sn217927   2.325   1.957   2.402  0.5657 -0.1473 -0.3444
 3788ntf    nn317928   2.296   2.103   2.350 -0.2918 -0.0054  0.5091
 3788ntf    sn217929   2.214   2.152   2.226 -0.2709 -0.0975  0.4592
 3788ntf    cn117930   2.344   2.218   2.116  0.0052 -0.0405  0.8165
 3788ntf    fn417931   2.059   1.941   2.415 -0.2127 -0.5723  0.2610
 3788ntf    fn417932   2.155   1.812   2.553 -0.3637  0.2515 -0.7310
 3788ntf    fn417933   2.153   2.013   2.588 -0.3946 -0.4247  0.0820
 3788ntf    on517934   2.423   1.955   2.507  0.4538 -0.1515 -0.2407
 3788ntf    on517935   2.339   1.848   2.308 -0.3714 -0.5588 -0.0256
 3788ntf    on517936   2.144   2.269   2.271 -0.4054  0.1654 -0.4137
 3788ntf    on517937   2.144   2.055   2.145 -0.1968  0.0706  0.1888
 3788ntf    fn417938   2.411   2.132   2.040 -0.9477 -0.2126  0.1492
 3788ntf    fn417939   2.292   2.296   2.022  0.0654 -0.5898  0.3185
 3788ntf    fn417940   2.422   2.294   2.190  0.4314  0.8077 -0.4738
 3789ntf    cn117941   4.976   4.976   0.565  0.0320 -0.0629 -0.0243
 3789ntf    sn217942   5.024   4.859   0.435  0.2883 -0.0946  0.0988
 3789ntf    nn317943   5.021   4.959   0.314 -0.1698  0.1689  0.3273
 3789ntf    sn217944   5.137   5.058   0.280 -0.0132 -0.0136  0.3281
 3789ntf    cn117945   5.266   4.953   0.207 -0.3894  0.0122 -0.3769
 3789ntf    fn417946   5.078   5.039   0.619  0.1013 -0.1478 -0.0543
 3789ntf    fn417947   4.896   5.072   0.521  0.3329  0.1836 -0.0311
 3789ntf    fn417948   4.920   4.903   0.661 -0.0381 -0.0316 -0.0415
 3789ntf    on517949   5.153   4.806   0.474  0.0762 -0.2209  0.6369
 3789ntf    on517950   4.914   4.766   0.442 -0.0811  0.2973 -0.4517
 3789ntf    on517951   5.199   5.122   0.394 -0.0529  0.4651  0.0867
 3789ntf    on517952   5.097   5.147   0.173 -0.5964 -0.1507  0.4288
 3789ntf    fn417953   5.345   4.892   0.294 -0.6762  0.1100 -0.0464
 3789ntf    fn417954   5.210   4.853   0.140  0.7581 -0.3841 -0.7670
 3789ntf    fn417955   5.350   5.009   0.122  0.2980 -0.0722  0.2422
 3790ntf    cn117956   5.390   2.692   3.375  0.1636  0.2289 -0.3071
 3790ntf    sn217957   5.317   2.844   3.443 -0.2944 -0.2036  0.1678
 3790ntf    nn317958   5.180   2.855   3.367 -0.1294  0.1840 -0.0712
 3790ntf    sn217959   5.027   2.842   3.399 -0.1448  0.1742 -0.1483
 3790ntf    cn117960   4.995   2.689   3.306  0.0620  0.3138 -0.4513
 3790ntf    fn417961   5.521   2.685   3.392  0.0960 -0.6131 -0.0749
 3790ntf    fn417962   5.340   2.581   3.426 -0.0916  0.5256  0.0885
 3790ntf    fn417963   5.366   2.684   3.245 -0.0805 -0.0100 -0.2472
 3790ntf    on517964   5.313   2.820   3.585  0.0325 -0.1050  0.1928
 3790ntf    on517965   5.399   2.952   3.397 -0.5957 -0.0107  0.0800
 3790ntf    on517966   4.942   2.930   3.322 -0.1958 -0.0151 -0.3120
 3790ntf    on517967   4.985   2.801   3.530  0.5799 -0.3251 -0.0690
 3790ntf    fn417968   4.869   2.650   3.316 -0.0018  0.5361 -0.3730
 3790ntf    fn417969   5.022   2.708   3.178 -0.6409  0.2981 -0.6032
 3790ntf    fn417970   5.070   2.590   3.353 -0.2822  0.2375 -0.0610
 3791ntf    cn117971   3.398   3.748   4.518  0.2759  0.4270  0.0462
 3791ntf    sn217972   3.338   3.589   4.582  0.4024  0.5151  0.3891
 3791ntf    nn317973   3.257   3.555   4.452  0.1511  0.4163  0.5705
 3791ntf    sn217974   3.109   3.597   4.419  0.1286  0.1266  0.2976
 3791ntf    cn117975   3.031   3.433   4.431  0.0364  0.1773  0.3915
 3791ntf    fn417976   3.415   3.758   4.387  0.1645  0.2420  0.0182
 3791ntf    fn417977   3.314   3.842   4.560 -0.2544 -0.1561  0.3144
 3791ntf    fn417978   3.512   3.789   4.571  0.3203  0.0986  0.2009
 3791ntf    on517979   3.457   3.509   4.594 -0.0092 -0.0795  0.5841
 3791ntf    on517980   3.258   3.612   4.700 -0.3554 -0.2650  0.0394
 3791ntf    on517981   3.090   3.635   4.281 -0.1092 -0.5757  0.1316
 3791ntf    on517982   3.034   3.675   4.514  0.1028  0.4551  0.0127
 3791ntf    fn417983   3.086   3.372   4.535  0.1198 -0.1504  0.1543
 3791ntf    fn417984   2.901   3.441   4.452 -0.0208 -0.5706  0.3326
 3791ntf    fn417985   3.046   3.345   4.334 -0.0636  0.3650  0.2060
 3792ntf    cn117986   2.689   0.510   5.270 -0.0852  0.4000 -0.0635
 3792ntf    sn217987   2.807   0.627   5.342  0.4171 -0.2081  0.1111
 3792ntf    nn317988   2.710   0.735   5.402 -0.0222 -0.5612  0.0413
 3792ntf    sn217989   2.687   0.883   5.354  0.0740 -0.4710  0.2721
 3792ntf    cn117990   2.506   0.873   5.352  0.0369  0.1527  0.1867
 3792ntf    fn417991   2.606   0.569   5.186  0.3075  0.6409 -0.2850
 3792ntf    fn417992   2.746   0.411   5.204 -0.7735 -0.1287  0.1203
 3792ntf    fn417993   2.618   0.444   5.360  0.4197 -0.6224 -0.3955
 3792ntf    on517994   2.879   0.563   5.449  0.6952  0.7494  0.5156
 3792ntf    on517995   2.881   0.669   5.225  0.9056  0.2367  0.5723
 3792ntf    on517996   2.714   0.911   5.215 -0.4674 -0.3933  0.1793
 3792ntf    on517997   2.724   0.977   5.457  0.1723  0.1579 -0.3334
 3792ntf    fn417998   2.474   0.747   5.326  0.0444  0.0660  0.5852
 3792ntf    fn417999   2.463   0.895   5.475  0.8997  0.3114  0.4621
 3792ntf    fn418000   2.451   0.958   5.268  0.5012  0.2448 -0.0252
 3793ntf    cn118001   6.493   5.124   6.078  0.0904  0.2502 -0.4638
 3793ntf    sn218002   6.396   5.180   5.934  0.0452  0.5467 -0.3181
 3793ntf    nn318003   6.496   5.291   5.885  1.1922 -0.0728  0.5494
 3793ntf    sn218004   6.512   5.336   5.735 -0.3996 -0.2597  0.3044
 3793ntf    cn118005   6.479   5.513   5.758 -0.2072 -0.1558 -0.2302
 3793ntf    fn418006   6.514   5.228   6.157 -0.2258  0.0515 -0.1102
 3793ntf    fn418007   6.426   5.035   6.149 -0.3328  0.6072 -0.4065
 3793ntf    fn418008   6.612   5.075   6.048  0.1423 -0.1065  0.3106
 3793ntf    on518009   6.380   5.063   5.853 -0.1283 -0.0664  0.5833
 3793ntf    on518010   6.281   5.228   6.006 -0.1617 -0.1259 -0.1952
 3793ntf    on518011   6.409   5.305   5.640 -0.3331  0.9513 -0.1765
 3793ntf    on518012   6.643   5.328   5.675 -0.6193 -0.2794 -0.1797
 3793ntf    fn418013   6.363   5.537   5.817  0.0045 -0.4392  0.3109
 3793ntf    fn418014   6.572   5.561   5.839 -0.5894  0.4027 -0.1199
 3793ntf    fn418015   6.471   5.575   5.641 -0.5785 -0.4327 -0.3528
 3794ntf    cn118016   6.706   5.586   2.802 -0.2912  0.0035  0.1106
 3794ntf    sn218017   6.788   5.700   2.918  0.1020  0.1801 -0.3377
 3794ntf    nn318018   6.772   5.618   3.051  0.1191 -0.0358 -0.4683
 3794ntf    sn218019   6.831   5.481   3.099 -0.4692 -0.1435 -0.0435
 3794ntf    cn118020   6.970   5.535   3.203 -0.5339 -0.2177  0.0816
 3794ntf    fn418021   6.651   5.646   2.698  0.3233  0.2343 -0.0854
 3794ntf    fn418022   6.795   5.504   2.748  0.6891  1.1443 -0.0471
 3794ntf    fn418023   6.611   5.514   2.858 -0.2646  0.0434  0.2076
 3794ntf    on518024   6.922   5.722   2.868  0.1088  0.7288 -0.0821
 3794ntf    on518025   6.700   5.814   2.919 -0.7454 -0.4609 -0.7148
 3794ntf    on518026   6.895   5.399   2.999 -0.8454 -0.1781 -0.2574
 3794ntf    on518027   6.746   5.402   3.185 -0.0217 -0.4821  0.0949
 3794ntf    fn418028   7.054   5.608   3.131 -0.6629  0.0323  0.1809
 3794ntf    fn418029   6.931   5.614   3.302 -0.2939  0.3598 -0.2829
 3794ntf    fn418030   7.037   5.430   3.245  0.1518  0.3107  0.3224
 3795ntf    cn118031   1.696   1.888   6.101 -0.0085  0.2464 -0.0824
 3795ntf    sn218032   1.576   1.937   5.974 -0.1829 -0.4252 -0.1853
 3795ntf    nn318033   1.650   2.065   5.920 -0.5343 -0.1210  0.0482
 3795ntf    sn218034   1.670   2.100   5.768 -0.2235  0.1166  0.1438
 3795ntf    cn118035   1.825   2.016   5.724 -0.4836 -0.3105  0.0485
 3795ntf    fn418036   1.675   1.767   6.151  0.2988  0.1724 -0.1277
 3795ntf    fn418037   1.819   1.878   6.053 -0.0287 -0.4924 -0.0035
 3795ntf    fn418038   1.703   1.966   6.208  0.1596  0.1558 -0.0274
 3795ntf    on518039   1.575   1.820   5.891 -0.3984 -0.1945 -0.5096
 3795ntf    on518040   1.454   1.967   6.045 -0.2686  0.0003 -0.5093
 3795ntf    on518041   1.698   2.240   5.749  0.5497  0.0045  0.4089
 3795ntf    on518042   1.570   2.049   5.678 -0.5255  0.4147  0.3062
 3795ntf    fn418043   1.831   1.891   5.768  0.1519 -0.3007 -0.0013
 3795ntf    fn418044   1.830   2.013   5.591  0.3609  0.1962  0.0658
 3795ntf    fn418045   1.934   2.069   5.775 -0.4207 -0.4607  0.0729
 3796ntf    cn118046   2.001   5.951   0.384  0.0285 -0.0289  0.1958
 3796ntf    sn218047   2.091   6.063   0.272 -0.4676  0.2209  0.0442
 3796ntf    nn318048   1.989   6.079   0.153 -0.3054  0.3522 -0.0768
 3796ntf    sn218049   1.998   6.069  -0.003  0.2435  0.2910 -0.0430
 3796ntf    cn118050   1.985   6.247  -0.041  0.0645  0.1605 -0.6080
 3796ntf    fn418051   1.872   5.981   0.384  0.1290  0.3997  0.1538
 3796ntf    fn418052   1.994   5.833   0.323  0.4879 -0.1841  0.4355
 3796ntf    fn418053   2.039   5.930   0.509 -0.6242  0.0226  0.4083
 3796ntf    on518054   2.113   6.186   0.343 -0.1311  0.0793  0.1879
 3796ntf    on518055   2.206   5.985   0.234 -0.6724 -0.0060 -0.1165
 3796ntf    on518056   1.878   6.021  -0.067  0.1132  0.4416  0.0884
 3796ntf    on518057   2.122   6.034  -0.069 -0.0802  0.5076 -0.7710
 3796ntf    fn418058   2.027   6.269  -0.164  0.8555 -0.1137 -0.3894
 3796ntf    fn418059   1.862   6.297  -0.036  0.3110  0.7064  0.2008
 3796ntf    fn418060   2.063   6.320   0.037 -0.5714  0.4296 -0.2146
 3797ntf    cn118061   3.461   0.883   6.555  0.0623 -0.0864  0.0218
 3797ntf    sn218062   3.472   0.786   6.709 -0.3826 -0.1850 -0.0048
 3797ntf    nn318063   3.425   0.646   6.656  0.1677 -0.1256 -0.6769
 3797ntf    sn218064   3.499   0.510   6.684  0.1054  0.0083  0.1875
 3797ntf    cn118065   3.462   0.483   6.859 -0.4771 -0.0484  0.0558
 3797ntf    fn418066   3.333   0.887   6.520  0.0203  0.0301  0.1904
 3797ntf    fn418067   3.501   1.008   6.565 -0.2253  0.0267 -0.2102
 3797ntf    fn418068   3.537   0.827   6.462  0.6568  0.1168  0.3788
 3797ntf    on518069   3.607   0.788   6.761 -0.2885 -0.2527 -0.2400
 3797ntf    on518070   3.375   0.839   6.801 -0.1750 -0.0287  0.1264
 3797ntf    on518071   3.643   0.509   6.671  0.0938 -0.7297  0.0919
 3797ntf    on518072   3.427   0.400   6.625  0.2432 -0.1936  0.3973
 3797ntf    fn418073   3.538   0.561   6.933 -0.2758 -0.4191  0.2457
 3797ntf    fn418074   3.338   0.511   6.896 -0.4969  0.2188 -0.2099
 3797ntf    fn418075   3.493   0.359   6.895  0.3626  0.2200  0.2709
 3798ntf    cn118076   0.215   6.797   4.468  0.1150 -0.4502 -0.0364
 3798ntf    sn218077   0.212   6.857   4.640  0.1594  0.2687 -0.2818
 3798ntf    nn318078   0.092   6.958   4.632 -0.0864 -0.0215 -0.2765
 3798ntf    sn218079  -0.060   6.951   4.673 -0.0138  0.1056  0.0125
 3798ntf    cn118080  -0.127   7.087   4.573  0.1991  0.2622  0.0803
 3798ntf    fn418081   0.223   6.902   4.387 -0.1611  0.2327  0.8065
 3798ntf    fn418082   0.310   6.709   4.442  0.1541 -0.3673 -0.1805
 3798ntf    fn418083   0.095   6.744   4.447  0.0749 -0.2715 -0.2666
 3798ntf    on518084   0.171   6.744   4.720  0.2287  0.5788  0.1895
 3798ntf    on518085   0.343   6.910   4.668  0.1949  0.1176 -0.1605
 3798ntf    on518086  -0.078   6.984   4.812 -0.6467  0.6682 -0.2004
 3798ntf    on518087  -0.137   6.839   4.624 -0.0147 -0.2753  0.8533
 3798ntf    fn418088  -0.071   7.205   4.586  0.7114  0.0482 -0.1722
 3798ntf    fn418089  -0.113   7.054   4.446 -0.2883  0.9307 -0.1492
 3798ntf    fn418090  -0.257   7.095   4.598  0.1165  0.0950 -0.2855
 3799ntf    cn118091   6.034   2.407   0.133 -0.3352  0.1744 -0.1660
 3799ntf    sn218092   5.992   2.437  -0.041 -0.3359  0.1948 -0.1622
 3799ntf    nn318093   6.001   2.594  -0.048 -0.4312  0.2258  0.3305
 3799ntf    sn218094   6.095   2.690  -0.129  0.3939 -0.7695  0.0813
 3799ntf    cn118095   6.003   2.699  -0.285  0.0759 -0.0696  0.3059
 3799ntf    fn418096   6.018   2.282   0.173 -0.3848  0.2658  0.1039
 3799ntf    fn418097   6.155   2.442   0.175 -0.5313  0.6553  0.0015
 3799ntf    fn418098   5.948   2.475   0.207  0.2473  0.7550 -0.0089
 3799ntf    on518099   6.098   2.375  -0.116  0.0118 -0.0664  0.5315
 3799ntf    on518100   5.862   2.375  -0.055 -0.2937  0.2085 -0.6155
 3799ntf    on518101   6.221   2.633  -0.169  0.6272 -0.1381 -0.0957
 3799ntf    on518102   6.094   2.826  -0.081  0.4234 -0.7019 -0.1083
 3799ntf    fn418103   5.980   2.578  -0.332  0.1294 -0.1210  0.4118
 3799ntf    fn418104   5.883   2.747  -0.254 -0.0227 -0.0270 -0.1374
 3799ntf    fn418105   6.057   2.784  -0.370 -0.1529  0.1718  0.3975
 3800ntf    cn118106   2.643   0.900   3.585  0.1165  0.0927  0.5752
 3800ntf    sn218107   2.662   0.805   3.738  0.1955 -0.4293  0.2449
 3800ntf    nn318108   2.643   0.658   3.688 -0.2716 -0.2365 -0.1491
 3800ntf    sn218109   2.725   0.528   3.721 -0.1523 -0.1561 -0.1273
 3800ntf    cn118110   2.632   0.393   3.642 -0.1682 -0.3445  0.2136
 3800ntf    fn418111   2.706   0.843   3.484 -0.1905  0.4138  0.1974
 3800ntf    fn418112   2.520   0.921   3.542  0.1369 -0.2596  0.3428
 3800ntf    fn418113   2.702   1.018   3.599  0.0688  0.1871 -0.0019
 3800ntf    on518114   2.796   0.829   3.786  0.1913 -0.0923  0.0929
 3800ntf    on518115   2.560   0.859   3.825  0.0776  0.0786 -0.2040
 3800ntf    on518116   2.719   0.497   3.862 -0.1252  0.0393 -0.0839
 3800ntf    on518117   2.848   0.524   3.647  0.0587  0.3903  0.1901
 3800ntf    fn418118   2.614   0.409   3.512  0.0590 -0.0912  0.2135
 3800ntf    fn418119   2.698   0.278   3.650  0.3373 -0.0682  0.0185
 3800ntf    fn418120   2.510   0.373   3.691 -0.1689 -0.1422  0.2932
 3801ntf    cn118121   5.842   1.710   2.521  0.1938 -0.3529  0.1045
 3801ntf    sn218122   6.007   1.714   2.445  0.0541  0.1239 -0.1857
 3801ntf    nn318123   6.012   1.564   2.400 -1.0218 -0.1048  0.4258
 3801ntf    sn218124   5.971   1.505   2.260  0.4291  0.3168 -0.1959
 3801ntf    cn118125   6.138   1.469   2.198  0.4270  0.5185 -0.3178
 3801ntf    fn418126   5.833   1.607   2.603 -0.1840 -0.0727  0.4156
 3801ntf    fn418127   5.803   1.823   2.578  0.2440 -0.1455 -0.2658
 3801ntf    fn418128   5.756   1.681   2.425 -0.2850  0.4479  0.2740
 3801ntf    on518129   6.003   1.816   2.344  0.2572 -0.2512 -0.5759
 3801ntf    on518130   6.102   1.734   2.553  0.1550  0.4895 -0.3416
 3801ntf    on518131   5.911   1.592   2.162 -0.3220 -0.4326 -0.4080
 3801ntf    on518132   5.903   1.380   2.282 -0.5405  0.8297 -0.1943
 3801ntf    fn418133   6.222   1.445   2.297  0.5271  0.3694 -0.4389
 3801ntf    fn418134   6.132   1.361   2.122  0.3867 -0.1363  0.6026
 3801ntf    fn418135   6.192   1.567   2.126  0.5087  0.4504 -0.3494
 3802ntf    cn118136   4.232   5.732   2.748  0.3062  0.2197 -0.0770
 3802ntf    sn218137   4.354   5.776   2.620  0.3382  0.0353 -0.1091
 3802ntf    nn318138   4.367   5.929   2.651  0.1811  0.1349 -0.5332
 3802ntf    sn218139   4.501   6.009   2.667  0.2887 -0.2216  0.4188
 3802ntf    cn118140   4.440   6.179   2.653  0.2312 -0.3110 -0.4518
 3802ntf    fn418141   4.271   5.726   2.874  0.1213  0.2417 -0.0187
 3802ntf    fn418142   4.141   5.828   2.753 -0.1944 -0.2987  0.9035
 3802ntf    fn418143   4.171   5.618   2.721  0.4021  0.0795  0.3056
 3802ntf    on518144   4.465   5.696   2.667 -0.0202 -0.1461  0.4414
 3802ntf    on518145   4.274   5.734   2.508 -0.5439 -0.1532  0.5839
 3802ntf    on518146   4.595   6.002   2.557  0.1479  0.4866  0.2496
 3802ntf    on518147   4.554   6.017   2.801 -0.1358  0.3756  0.5505
 3802ntf    fn418148   4.354   6.209   2.748  0.0500 -0.2956 -0.6204
 3802ntf    fn418149   4.538   6.268   2.647  0.6257 -0.6888  0.3861
 3802ntf    fn418150   4.377   6.197   2.538 -0.3223  0.1728 -0.0782
 3803ntf    cn118151   0.126   0.530   4.067  0.0448 -0.1222 -0.1748
 3803ntf    sn218152  -0.004   0.557   3.943 -0.0402  0.0621 -0.0451
 3803ntf    nn318153  -0.116   0.454   3.982  0.3547 -0.1554  0.5368
 3803ntf    sn218154  -0.123   0.306   3.931 -0.0964 -0.0387  0.2498
 3803ntf    cn118155  -0.194   0.332   3.765  0.2098  0.3825  0.1828
 3803ntf    fn418156   0.241   0.586   4.032  0.0260 -0.2079 -0.3778
 3803ntf    fn418157   0.099   0.593   4.179 -0.6513 -0.5649 -0.0889
 3803ntf    fn418158   0.155   0.405   4.101  0.3678 -0.1729 -0.6123
 3803ntf    on518159  -0.064   0.684   3.977 -0.3435 -0.1739  0.3063
 3803ntf    on518160   0.060   0.535   3.816  0.0395  0.1712 -0.0235
 3803ntf    on518161  -0.228   0.243   4.006 -0.2422  0.0388  0.1116
 3803ntf    on518162   0.002   0.236   3.912 -0.2014 -0.2884  0.4838
 3803ntf    fn418163  -0.295   0.416   3.752 -0.0626  0.0566  0.1971
 3803ntf    fn418164  -0.099   0.366   3.679  0.4280 -0.1064  0.2273
 3803ntf    fn418165  -0.252   0.220   3.727  0.0530  0.5775 -0.1495
 3804ntf    cn118166   1.207   2.664   4.506  0.3590  0.0788 -0.4390
 3804ntf    sn218167   1.349   2.704   4.612  0.1024 -0.1623  0.0008
 3804ntf    nn318168   1.441   2.591   4.552 -0.1962 -0.2324 -0.3272
 3804ntf    sn218169   1.579   2.587   4.477  0.0285 -0.1359  0.0810
 3804ntf    cn118170   1.629   2.413   4.492  0.0858 -0.1411 -0.1786
 3804ntf    fn418171   1.238   2.665   4.378 -0.4191 -0.3213 -0.6377
 3804ntf    fn418172   1.158   2.545   4.537 -0.1886  0.3188 -0.3650
 3804ntf    fn418173   1.105   2.744   4.534 -0.1140 -0.6372 -0.0781
 3804ntf    on518174   1.388   2.838   4.575  0.3803 -0.2747 -0.1155
 3804ntf    on518175   1.295   2.680   4.744 -0.8240  0.1039 -0.3251
 3804ntf    on518176   1.673   2.665   4.554 -0.4388  0.3987  0.1202
 3804ntf    on518177   1.562   2.622   4.338 -0.1639  0.7171  0.3098
 3804ntf    fn418178   1.520   2.339   4.482 -0.0054 -0.0120 -0.1436
 3804ntf    fn418179   1.724   2.381   4.405  0.2875  0.2557 -0.1090
 3804ntf    fn418180   1.676   2.390   4.613 -0.1570 -0.1559 -0.0863
 3805ntf    cn118181   4.674   5.198   2.257 -0.4895 -0.0108 -0.2593
 3805ntf    sn218182   4.836   5.241   2.185 -0.2637  0.2074  0.3705
 3805ntf    nn318183   4.926   5.205   2.308 -0.6590 -0.5252  0.4511
 3805ntf    sn218184   4.973   5.304   2.420 -0.2352 -0.2308  0.0168
 3805ntf    cn118185   4.965   5.203   2.571 -0.0351  0.0536  0.2193
 3805ntf    fn418186   4.674   5.076   2.307 -0.2596  0.1193  0.0640
 3805ntf    fn418187   4.632   5.280   2.352  0.5089  0.2544 -0.0322
 3805ntf    fn418188   4.580   5.202   2.165 -0.3121 -0.2362 -0.4517
 3805ntf    on518189   4.844   5.141   2.081 -0.2715  0.0690  0.5020
 3805ntf    on518190   4.821   5.380   2.149  0.5279  0.2276  0.0981
 3805ntf    on518191   4.896   5.424   2.446  0.4789  0.4398 -0.9083
 3805ntf    on518192   5.113   5.336   2.420 -0.2781 -0.0384  0.0226
 3805ntf    fn418193   5.031   5.254   2.674  0.5028 -0.4021  0.1059
 3805ntf    fn418194   4.842   5.188   2.617 -0.0681  0.8187  0.3978
 3805ntf    fn418195   5.009   5.081   2.543 -0.3081  0.0519 -0.2107
 3806ntf    cn118196   1.739   1.929   0.799 -0.3123 -0.0016 -0.3630
 3806ntf    sn218197   1.568   1.989   0.786 -0.2262  0.2536 -0.3251
 3806ntf    nn318198   1.601   2.141   0.810  0.0148  0.1891 -0.2467
 3806ntf    sn218199   1.577   2.226   0.940 -0.0159  0.0510 -0.1611
 3806ntf    cn118200   1.569   2.392   0.865 -0.2754  0.1366  0.0530
 3806ntf    fn418201   1.792   1.923   0.920 -0.9862  0.0870 -0.0577
 3806ntf    fn418202   1.748   1.804   0.756 -0.0996 -0.1501  0.1082
 3806ntf    fn418203   1.814   1.999   0.715 -0.2308  0.0045 -0.2849
 3806ntf    on518204   1.531   1.956   0.650 -1.2143  0.1121 -0.0282
 3806ntf    on518205   1.504   1.920   0.895 -0.3296  0.2341 -0.3980
 3806ntf    on518206   1.690   2.229   1.028 -0.1659  0.1440  0.0278
 3806ntf    on518207   1.447   2.213   1.000 -0.0090  0.2007 -0.1138
 3806ntf    fn418208   1.508   2.481   0.940 -0.1408 -0.1491  0.5068
 3806ntf    fn418209   1.687   2.446   0.838  0.1582 -0.6687  0.2955
 3806ntf    fn418210   1.515   2.380   0.744 -0.3340  0.9307 -0.0020
 3807ntf    cn118211   2.027   7.233   6.697  0.0165  0.2146 -0.0583
 3807ntf    sn218212   1.895   7.206   6.576 -0.3164  0.2653  0.2919
 3807ntf    nn318213   1.780   7.290   6.643  0.1763  0.6164  0.7033
 3807ntf    sn218214   1.701   7.408   6.577 -0.3636  0.0037  0.2387
 3807ntf    cn118215   1.796   7.549   6.642  0.0485 -0.0290 -0.2870
 3807ntf    fn418216   2.153   7.228   6.654  0.0044  0.4861 -0.1249
 3807ntf    fn418217   2.019   7.346   6.765 -0.5503  0.0127  0.2119
 3807ntf    fn418218   2.016   7.139   6.789 -0.0395 -0.3054 -0.5907
 3807ntf    on518219   1.965   7.251   6.458 -0.0941 -0.0403  0.3079
 3807ntf    on518220   1.877   7.063   6.586 -0.2867  0.1988 -0.5392
 3807ntf    on518221   1.569   7.417   6.635 -0.4278  0.0571  0.0860
 3807ntf    on518222   1.714   7.425   6.434 -0.4695  0.3479  0.2689
 3807ntf    fn418223   1.771   7.565   6.771  0.4163 -0.3650 -0.1749
 3807ntf    fn418224   1.924   7.521   6.631  0.0811 -0.2386  0.6302
 3807ntf    fn418225   1.772   7.666   6.583 -0.0401 -0.1229 -0.4373
 3808ntf    cn118226   6.795   0.457   5.395  0.0652 -0.4318  0.0074
 3808ntf    sn218227   6.653   0.530   5.308  0.1522 -0.2502  0.0187
 3808ntf    nn318228   6.615   0.653   5.398 -0.0791 -0.2697 -0.0528
 3808ntf    sn218229   6.479   0.681   5.471  0.2222 -0.1567  0.4686
 3808ntf    cn118230   6.360   0.677   5.333  0.3427 -0.1930  0.3658
 3808ntf    fn418231   6.850   0.358   5.327 -0.7915 -0.3490 -0.8281
 3808ntf    fn418232   6.885   0.553   5.407 -0.3484 -0.0234 -0.1363
 3808ntf    fn418233   6.767   0.411   5.515  0.4790  0.1016  0.3126
 3808ntf    on518234   6.696   0.570   5.176  0.0082  0.5296  0.1996
 3808ntf    on518235   6.562   0.420   5.322  0.0634 -0.2176 -0.2917
 3808ntf    on518236   6.468   0.818   5.514 -0.0080  0.0223 -0.1480
 3808ntf    on518237   6.429   0.587   5.568 -0.3149 -0.3844 -0.0213
 3808ntf    fn418238   6.337   0.798   5.286 -0.0777 -0.5199 -0.2804
 3808ntf    fn418239   6.399   0.590   5.241 -0.4054 -0.0605 -0.0761
 3808ntf    fn418240   6.240   0.630   5.361  0.0939  0.2988  0.1258
 3809ntf    cn118241   2.927   1.826   3.334 -0.0810 -0.0878 -0.7898
 3809ntf    sn218242   2.914   1.909   3.495  0.1512 -0.3097 -0.6579
 3809ntf    nn318243   2.893   2.053   3.436  0.2937 -0.1089 -0.2218
 3809ntf    sn218244   2.764   2.138   3.408  0.2906  0.0957  0.3913
 3809ntf    cn118245   2.812   2.242   3.267 -0.2054 -0.0851  0.0854
 3809ntf    fn418246   2.829   1.858   3.251 -0.3214  0.0729 -0.4446
 3809ntf    fn418247   3.040   1.862   3.274 -0.0121 -0.1849 -0.7171
 3809ntf    fn418248   2.931   1.695   3.346  0.0100 -0.0010  0.2300
 3809ntf    on518249   2.810   1.843   3.570  0.6869 -0.2547  0.1467
 3809ntf    on518250   3.047   1.896   3.549  0.0777 -0.1225 -0.4309
 3809ntf    on518251   2.744   2.244   3.504 -0.3582 -0.0318  0.4020
 3809ntf    on518252   2.654   2.065   3.349  0.8153  0.0458 -0.5441
 3809ntf    fn418253   2.871   2.182   3.165 -0.3332 -0.0397 -0.0149
 3809ntf    fn418254   2.703   2.295   3.216  0.0317  0.2359 -0.0906
 3809ntf    fn418255   2.884   2.349   3.296  0.5655 -0.7066  0.5096
 3810ntf    cn118256   1.012   5.947   5.805 -0.1135  0.2356  0.0289
 3810ntf    sn218257   0.851   5.900   5.876  0.1685 -0.2001  0.3899
 3810ntf    nn318258   0.818   6.046   5.924  0.0490  0.1684 -0.7753
 3810ntf    sn218259   0.784   6.102   6.067 -0.2267 -0.0623 -0.7493
 3810ntf    cn118260   0.608   6.061   6.077 -0.2255  0.1239  0.0899
 3810ntf    fn418261   0.999   6.055   5.730 -0.2577  0.2005  0.0048
 3810ntf    fn418262   1.098   5.978   5.901  0.1785 -0.4448 -0.0035
 3810ntf    fn418263   1.072   5.850   5.737 -0.7020 -0.1158  0.0112
 3810ntf    on518264   0.779   5.865   5.756  0.0483 -0.6761  0.5998
 3810ntf    on518265   0.893   5.802   5.973 -0.2321 -0.2921  0.4714
 3810ntf    on518266   0.788   6.246   6.069  0.6612 -0.0863  0.3275
 3810ntf    on518267   0.842   6.032   6.179 -0.0681  1.0787 -0.1123
 3810ntf    fn418268   0.529   6.145   6.012 -0.1125 -0.3341 -0.6588
 3810ntf    fn418269   0.584   5.942   6.025  0.0091  0.2008 -0.1926
 3810ntf    fn418270   0.559   6.052   6.200 -0.6353  0.4693 -0.0432
 3811ntf    cn118271   3.065   6.189   3.181  0.2662 -0.3402 -0.2522
 3811ntf    sn218272   2.959   6.121   3.050 -0.0580  0.1367 -0.2417
 3811ntf    nn318273   2.958   6.238   2.946 -0.0990  0.3829  0.0351
 3811ntf    sn218274   3.053   6.260   2.823 -0.1788  0.1873 -0.0610
 3811ntf    cn118275   2.978   6.142   2.706 -0.3808  0.3637 -0.1101
 3811ntf    fn418276   3.089   6.106   3.280  0.2630 -0.6108 -0.4779
 3811ntf    fn418277   3.186   6.214   3.134  0.3354  0.0784  0.1427
 3811ntf    fn418278   3.025   6.307   3.226 -0.1422 -0.4374 -0.3553
 3811ntf    on518279   3.024   5.999   3.006 -0.4270 -0.3111  0.4465
 3811ntf    on518280   2.833   6.101   3.117 -0.1185  0.1632 -0.3483
 3811ntf    on518281   3.186   6.209   2.843  0.0714  0.8869  0.0612
 3811ntf    on518282   3.034   6.391   2.765 -0.4146 -0.1349 -0.7319
 3811ntf    fn418283   2.848   6.159   2.689 -0.5157 -0.2183  0.3063
 3811ntf    fn418284   3.029   6.154   2.585  0.3024 -0.0797  0.1263
 3811ntf    fn418285   3.005   6.020   2.748 -0.0111  0.3368 -0.4210
 3812ntf    cn118286   6.438   3.652   2.424  0.1210  0.2805 -0.8475
 3812ntf    sn218287   6.394   3.753   2.568  0.3507 -0.0693 -0.5278
 3812ntf    nn318288   6.276   3.846   2.520  0.2314  0.0997  0.0778
 3812ntf    sn218289   6.277   3.981   2.440  0.0939  0.1427  0.1495
 3812ntf    cn118290   6.226   4.095   2.572 -0.1250  0.3561 -0.1182
 3812ntf    fn418291   6.391   3.528   2.430  0.0238  0.3523 -0.1059
 3812ntf    fn418292   6.378   3.692   2.313 -0.1272  0.6649 -0.5736
 3812ntf    fn418293   6.568   3.655   2.398  0.2529  0.2730 -0.1997
 3812ntf    on518294   6.338   3.653   2.655  0.8081 -0.0310 -0.1866
 3812ntf    on518295   6.516   3.823   2.600  0.2935 -0.1478 -0.1411
 3812ntf    on518296   6.166   3.977   2.348  0.0727  0.3585  0.1667
 3812ntf    on518297   6.402   4.036   2.394  0.0458 -0.1462 -0.3412
 3812ntf    fn418298   6.299   4.075   2.681  0.4058 -0.0563 -0.5436
 3812ntf    fn418299   6.249   4.222   2.542 -0.3309  0.4843  0.2581
 3812ntf    fn418300   6.099   4.088   2.607 -0.1077  0.3199 -0.0623
 3813ntf    cn118301   6.429   3.134   0.327 -0.0760 -0.0304  0.3743
 3813ntf    sn218302   6.476   3.305   0.286 -0.2863  0.0016  0.2623
 3813ntf    nn318303   6.618   3.311   0.352 -0.1878  0.0087  0.0517
 3813ntf    sn218304   6.757   3.271   0.290 -0.2382 -0.3026  0.1346
 3813ntf    cn118305   6.802   3.438   0.233 -0.5099 -0.2146  0.1755
 3813ntf    fn418306   6.409   3.123   0.457 -0.2830 -0.2673  0.3236
 3813ntf    fn418307   6.312   3.103   0.273  0.0179  0.2600 -0.0024
 3813ntf    fn418308   6.523   3.049   0.291  0.0711  0.2589  0.0608
 3813ntf    on518309   6.477   3.324   0.143  0.1275  0.3831  0.3122
 3813ntf    on518310   6.382   3.381   0.364 -0.0911 -0.3417  0.8361
 3813ntf    on518311   6.747   3.192   0.170 -0.4161  0.6889 -0.5172
 3813ntf    on518312   6.853   3.226   0.388 -0.0796 -0.2767 -0.0081
 3813ntf    fn418313   6.775   3.530   0.324 -0.6769  0.0114 -0.1008
 3813ntf    fn418314   6.930   3.463   0.212 -0.4556 -0.2428  0.4595
 3813ntf    fn418315   6.734   3.478   0.127 -0.0707  0.7572  0.2514
 3814ntf    cn118316   5.011   5.419   1.218  0.0968  0.0300 -0.1201
 3814ntf    sn218317   5.081   5.325   1.356 -0.1414  0.0795  0.0359
 3814ntf    nn318318   5.005   5.189   1.341  0.0607 -0.0647  0.3038
 3814ntf    sn218319   4.947   5.086   1.445 -0.0818 -0.0893  0.1996
 3814ntf    cn118320   5.059   4.944   1.428  0.2066  0.1555  0.0509
 3814ntf    fn418321   5.035   5.375   1.095  0.0720  0.0802 -0.1430
 3814ntf    fn418322   4.879   5.409   1.230  0.1088 -0.4597 -0.4035
 3814ntf    fn418323   5.039   5.548   1.211  0.3227 -0.0151 -0.0497
 3814ntf    on518324   5.220   5.311   1.320 -0.1200 -0.0248  0.1568
 3814ntf    on518325   5.051   5.412   1.467  0.2473  0.6866 -0.3321
 3814ntf    on518326   4.814   5.039   1.415 -0.0904  0.1186 -0.1017
 3814ntf    on518327   4.973   5.127   1.581 -0.2688 -0.4067  0.3296
 3814ntf    fn418328   5.020   4.838   1.496 -0.0816  0.1353 -0.1445
 3814ntf    fn418329   5.064   4.903   1.303 -0.9661 -0.0163  0.0538
 3814ntf    fn418330   5.184   4.980   1.453  0.2857 -0.1957  0.1662
 3815ntf    cn118331   2.664   4.419   5.191  0.4171  0.2633 -0.2401
 3815ntf    sn218332   2.806   4.398   5.303 -0.0303  0.3253  0.3485
 3815ntf    nn318333   2.807   4.242   5.316  0.4529  0.2518 -0.4630
 3815ntf    sn218334   2.896   4.144   5.232  0.0284 -0.2806 -0.3055
 3815ntf    cn118335   2.762   4.030   5.187 -0.0660 -0.1945 -0.2443
 3815ntf    fn418336   2.662   4.355   5.076  0.6583 -0.2494  0.0387
 3815ntf    fn418337   2.558   4.369   5.253  0.3840  0.7301  0.0901
 3815ntf    fn418338   2.633   4.546   5.170 -0.0697  0.1519 -0.2096
 3815ntf    on518339   2.910   4.459   5.224  0.4880  0.1051  0.8573
 3815ntf    on518340   2.759   4.464   5.422  0.0349  0.7457  0.1433
 3815ntf    on518341   2.997   4.064   5.296  0.3877  0.6114  0.2695
 3815ntf    on518342   2.938   4.193   5.103  0.2582  0.1760 -0.0618
 3815ntf    fn418343   2.696   3.987   5.293  0.0487 -0.3383 -0.2304
 3815ntf    fn418344   2.671   4.086   5.110 -0.3002 -0.1516  0.0607
 3815ntf    fn418345   2.803   3.925   5.117 -0.1407 -0.2844 -0.1539
 3816ntf    cn118346   1.990   3.494   5.157 -0.0471 -0.0690 -0.1054
 3816ntf    sn218347   1.860   3.440   5.272 -0.1696  0.1026 -0.1610
 3816ntf    nn318348   1.772   3.360   5.169 -0.3823  0.3748 -0.1901
 3816ntf    sn218349   1.616   3.363   5.158 -0.4067  0.1301  0.0728
 3816ntf    cn118350   1.568   3.259   5.299 -0.2381  0.0028  0.0356
 3816ntf    fn418351   2.056   3.392   5.105 -0.0141 -0.0704 -0.0607
 3816ntf    fn418352   1.946   3.562   5.052 -0.0638  0.5051  0.2725
 3816ntf    fn418353   2.082   3.571   5.213  0.0579 -0.3090  0.0494
 3816ntf    on518354   1.934   3.354   5.362  0.1286  0.7242  0.1895
 3816ntf    on518355   1.805   3.561   5.326  0.3213  0.0824  0.3951
 3816ntf    on518356   1.570   3.281   5.048  0.3079  0.2688 -0.3385
 3816ntf    on518357   1.544   3.484   5.189 -0.2030  0.1715  0.3763
 3816ntf    fn418358   1.596   3.306   5.419 -0.1081  0.3616 -0.1355
 3816ntf    fn418359   1.438   3.239   5.302 -0.1680 -0.4637  0.1178
 3816ntf    fn418360   1.617   3.136   5.292  0.2425  0.1926 -0.0229
 3817ntf    cn118361   1.187   6.736   1.330  0.3450 -0.3169 -0.1033
 3817ntf    sn218362   1.284   6.830   1.208  0.1021  0.0441 -0.0180
 3817ntf    nn318363   1.245   6.973   1.260 -0.4079 -0.1562  0.1575
 3817ntf    sn218364   1.135   7.069   1.203  0.1373  0.3840 -0.0004
 3817ntf    cn118365   1.258   7.170   1.116  0.5617 -0.0665  0.0734
 3817ntf    fn418366   1.208   6.777   1.454  0.2491  0.2839 -0.2836
 3817ntf    fn418367   1.059   6.748   1.298  0.3561  0.1168  0.0193
 3817ntf    fn418368   1.220   6.608   1.330  0.4451 -0.2934 -0.4433
 3817ntf    on518369   1.417   6.788   1.247 -0.1438 -0.4062  0.3521
 3817ntf    on518370   1.235   6.787   1.080  0.2411 -0.1537 -0.0059
 3817ntf    on518371   1.088   7.153   1.311 -0.3038  0.1348  0.0066
 3817ntf    on518372   1.041   7.026   1.103  0.2291 -0.0539  0.0968
 3817ntf    fn418373   1.346   7.099   1.047  0.4412 -0.0927 -0.0537
 3817ntf    fn418374   1.187   7.241   1.029  0.3194 -0.1546  0.1985
 3817ntf    fn418375   1.324   7.246   1.202  0.2247  0.1580  0.1347
 3818ntf    cn118376   5.203   1.047   0.766  0.2697  0.3688 -0.2680
 3818ntf    sn218377   5.333   1.107   0.878  0.0698  0.3752 -0.0390
 3818ntf    nn318378   5.255   1.177   0.995 -0.1119 -0.0876  0.1189
 3818ntf    sn218379   5.223   1.330   1.011  0.3074 -0.0175  0.2957
 3818ntf    cn118380   5.280   1.352   1.182  0.4173 -0.3664  0.3031
 3818ntf    fn418381   5.104   0.988   0.832  0.3973  0.1406 -0.2833
 3818ntf    fn418382   5.144   1.152   0.710  0.4491  0.6156  0.0011
 3818ntf    fn418383   5.237   0.963   0.670  0.1652 -0.6123  0.5375
 3818ntf    on518384   5.393   0.983   0.919  0.5468  0.4149 -0.6159
 3818ntf    on518385   5.402   1.192   0.785  0.1547  0.2882 -0.0548
 3818ntf    on518386   5.081   1.348   1.026  0.3015  0.1657  0.0295
 3818ntf    on518387   5.297   1.427   0.934 -0.1744  0.1684  0.0604
 3818ntf    fn418388   5.407   1.317   1.193  0.3379 -0.9111 -0.3856
 3818ntf    fn418389   5.257   1.470   1.236  0.0216 -0.2002 -0.2277
 3818ntf    fn418390   5.216   1.268   1.262 -0.1071 -0.0276  0.2455
 3819ntf    cn118391   0.700   2.089   0.622 -0.0589  0.3656 -0.3259
 3819ntf    sn218392   0.672   2.253   0.697 -0.2984  0.0963  0.1758
 3819ntf    nn318393   0.523   2.232   0.742 -0.3519  0.0165 -0.0359
 3819ntf    sn218394   0.474   2.199   0.887  0.2659 -0.1011  0.1468
 3819ntf    cn118395   0.294   2.194   0.870  0.3085 -0.2847 -0.2547
 3819ntf    fn418396   0.662   1.990   0.700 -0.0060  0.4813 -0.1524
 3819ntf    fn418397   0.634   2.071   0.509 -0.7193  0.7679 -0.0105
 3819ntf    fn418398   0.829   2.078   0.593 -0.0610 -0.3382 -0.0661
 3819ntf    on518399   0.775   2.272   0.796  0.5108 -0.0454 -0.6260
 3819ntf    on518400   0.685   2.337   0.580 -0.8010 -0.4478 -0.2788
 3819ntf    on518401   0.496   2.301   0.986  0.0558  0.1189 -0.0326
 3819ntf    on518402   0.498   2.064   0.932 -0.1574 -0.2510 -0.0750
 3819ntf    fn418403   0.234   2.182   0.987 -0.2632  0.1149 -0.4963
 3819ntf    fn418404   0.247   2.307   0.820 -0.2688  0.0304  0.9816
 3819ntf    fn418405   0.235   2.093   0.808  0.1722 -0.2398 -0.2002
 3820ntf    cn118406   5.278   6.065   4.809 -0.3633  0.0631 -0.7573
 3820ntf    sn218407   5.154   5.992   4.920  0.3166  0.0381 -0.0046
 3820ntf    nn318408   5.084   5.905   4.810  0.1120 -0.0387  0.1858
 3820ntf    sn218409   4.987   5.783   4.826 -0.1060  0.1033 -0.0313
 3820ntf    cn118410   4.830   5.874   4.833 -0.3447 -0.3086  0.0024
 3820ntf    fn418411   5.340   5.970   4.742  0.0971  0.1245 -0.4281
 3820ntf    fn418412   5.233   6.156   4.724 -0.1675  0.3928 -0.5143
 3820ntf    fn418413   5.372   6.126   4.879 -0.7906 -0.2586  0.1207
 3820ntf    on518414   5.236   5.926   5.018 -0.2498  0.1505  0.5569
 3820ntf    on518415   5.064   6.097   4.964  0.5219  0.2865 -0.1739
 3820ntf    on518416   4.989   5.721   4.956  0.0923  0.7499  0.2776
 3820ntf    on518417   4.980   5.696   4.711 -0.0707  0.3434 -0.2156
 3820ntf    fn418418   4.798   5.924   4.951  0.3815 -0.3002  0.1973
 3820ntf    fn418419   4.841   5.969   4.742  0.6777 -0.3952  0.0338
 3820ntf    fn418420   4.727   5.797   4.800 -0.0974 -0.5527 -0.2015
 3821ntf    cn118421   0.205   5.983   7.193 -0.0975  0.0623  0.1669
 3821ntf    sn218422   0.328   6.117   7.198 -0.1349  0.1019  0.0507
 3821ntf    nn318423   0.347   6.152   7.046  0.5282  0.3635  0.1907
 3821ntf    sn218424   0.480   6.135   6.964  0.4023 -0.2897  0.1165
 3821ntf    cn118425   0.486   5.956   6.934 -0.3035 -0.2800 -0.1028
 3821ntf    fn418426   0.109   6.011   7.106 -0.1794  0.3345  0.3463
 3821ntf    fn418427   0.270   5.872   7.161 -0.0514  0.1449 -0.0294
 3821ntf    fn418428   0.154   5.960   7.313  0.3972 -0.6695  0.2417
 3821ntf    on518429   0.248   6.221   7.257 -0.7112  0.0840 -0.6861
 3821ntf    on518430   0.440   6.064   7.272 -0.4933 -0.2806  0.3245
 3821ntf    on518431   0.602   6.172   7.031  0.4006  0.4705 -0.2865
 3821ntf    on518432   0.464   6.184   6.830  0.3246  0.0833  0.2586
 3821ntf    fn418433   0.488   5.881   7.043 -0.2337  0.3184  0.3091
 3821ntf    fn418434   0.393   5.909   6.852 -0.0871 -0.7658 -0.0728
 3821ntf    fn418435   0.596   5.931   6.865 -0.3064 -0.4959 -0.0297
 3822ntf    cn118436   2.894   3.467   6.969 -0.2250 -0.1328 -0.1142
 3822ntf    sn218437   2.838   3.558   6.822 -0.0668  0.1845  0.0218
 3822ntf    nn318438   2.734   3.660   6.880 -0.2628  0.0169 -0.0309
 3822ntf    sn218439   2.584   3.624   6.907 -0.2709 -0.1194 -0.2564
 3822ntf    cn118440   2.505   3.653   6.746 -0.2113 -0.5617 -0.3652
 3822ntf    fn418441   2.802   3.387   7.020 -0.1329 -0.2495 -0.1289
 3822ntf    fn418442   3.009   3.403   6.951  0.2215  0.6151  0.0355
 3822ntf    fn418443   2.918   3.560   7.059 -0.4239 -0.4233  0.2427
 3822ntf    on518444   2.960   3.625   6.785  0.0844 -0.1952 -0.1724
 3822ntf    on518445   2.788   3.457   6.732  1.3517 -0.1935 -0.3757
 3822ntf    on518446   2.522   3.723   6.992 -0.8359  0.1457 -0.9733
 3822ntf    on518447   2.546   3.490   6.944 -0.3331  0.0423  0.2792
 3822ntf    fn418448   2.590   3.629   6.647  0.3199 -0.4931  0.0699
 3822ntf    fn418449   2.392   3.587   6.723 -0.1584 -0.8609  0.2161
 3822ntf    fn418450   2.479   3.781   6.729 -0.0254 -0.5147 -0.2993
 3823ntf    cn118451   2.085   6.611   4.909 -0.1257  0.1771  0.2306
 3823ntf    sn218452   2.168   6.449   4.916  0.0210  0.2299 -0.2195
 3823ntf    nn318453   2.051   6.355   4.965  0.2437  0.2950  0.4455
 3823ntf    sn218454   2.037   6.282   5.103  0.0368 -0.0737  0.2296
 3823ntf    cn118455   2.099   6.120   5.048 -0.2564 -0.0174 -0.2766
 3823ntf    fn418456   1.993   6.613   4.814  0.1804  0.2736 -0.0702
 3823ntf    fn418457   2.029   6.637   5.025  0.2249  0.4784  0.3347
 3823ntf    fn418458   2.172   6.705   4.875  0.6594 -0.3753  0.6590
 3823ntf    on518459   2.198   6.434   4.776 -0.9702  1.0898 -0.5344
 3823ntf    on518460   2.271   6.491   5.008 -0.2668  0.7798 -0.1463
 3823ntf    on518461   1.898   6.259   5.135 -0.1234  0.0265 -0.3706
 3823ntf    on518462   2.128   6.315   5.210  0.3174 -0.1954  0.0294
 3823ntf    fn418463   2.094   6.033   5.148  0.4424  0.4199  0.1511
 3823ntf    fn418464   2.030   6.069   4.947 -0.0471  0.0956 -0.4789
 3823ntf    fn418465   2.226   6.123   5.010 -0.1184 -0.6914  0.1278
 3824ntf    cn118466   2.220   0.395   4.273  0.5470 -0.0181 -0.1629
 3824ntf    sn218467   2.057   0.422   4.198  0.4397  0.0291  0.0838
 3824ntf    nn318468   1.981   0.470   4.327  0.2342 -0.1651  0.0354
 3824ntf    sn218469   1.931   0.612   4.369  0.0405 -0.0622 -0.5298
 3824ntf    cn118470   1.764   0.627   4.298 -0.1404 -0.1730 -0.1353
 3824ntf    fn418471   2.223   0.282   4.342  0.3000  0.0647 -0.0167
 3824ntf    fn418472   2.312   0.409   4.179  0.5715  0.1758 -0.1113
 3824ntf    fn418473   2.249   0.495   4.356  0.5729 -0.3487  0.2287
 3824ntf    on518474   2.091   0.514   4.092  0.4985 -0.1929 -0.0912
 3824ntf    on518475   2.024   0.289   4.156  0.5379 -0.1112  0.4493
 3824ntf    on518476   2.008   0.720   4.313 -0.4611  0.6066  0.0383
 3824ntf    on518477   1.914   0.619   4.513 -0.0306  0.8256 -0.5760
 3824ntf    fn418478   1.681   0.528   4.327 -0.4773  0.1936  0.1629
 3824ntf    fn418479   1.710   0.740   4.341  0.2471  0.0537 -0.2353
 3824ntf    fn418480   1.766   0.635   4.166 -0.2930  0.6967 -0.0900
 3825ntf    cn118481   0.654   1.822   0.286 -0.1496  0.0644 -0.2339
 3825ntf    sn218482   0.814   1.904   0.258 -0.1380 -0.0792 -0.5982
 3825ntf    nn318483   0.878   1.875   0.398  0.5597  0.8161 -0.7227
 3825ntf    sn218484   0.981   1.760   0.428 -0.3800  0.1161 -0.0855
 3825ntf    cn118485   1.133   1.860   0.435 -0.1474 -0.2073 -0.4402
 3825ntf    fn418486   0.568   1.830   0.186  0.3158  0.0396 -0.6414
 3825ntf    fn418487   0.668   1.691   0.300  0.2535  0.1186 -0.1057
 3825ntf    fn418488   0.599   1.855   0.402 -0.2289  0.0109 -0.2559
 3825ntf    on518489   0.882   1.844   0.146  0.8908 -0.2145  0.0839
 3825ntf    on518490   0.781   2.044   0.245  0.6439  0.1989  0.3051
 3825ntf    on518491   1.013   1.671   0.319  0.1445  0.2909 -0.0798
 3825ntf    on518492   0.983   1.699   0.558 -0.4467  0.5953  0.1421
 3825ntf    fn418493   1.240   1.783   0.443  0.1990  0.2524 -0.6201
 3825ntf    fn418494   1.166   1.932   0.329  0.2314  0.8459  0.3650
 3825ntf    fn418495   1.131   1.944   0.538 -0.2244  0.0448 -0.6474
 3826ntf    cn118496   4.647   4.125   6.405  0.1257 -0.0776 -0.1059
 3826ntf    sn218497   4.496   4.197   6.477  0.1570 -0.1608  0.0450
 3826ntf    nn318498   4.563   4.324   6.541  0.7240 -0.5584  0.2525
 3826ntf    sn218499   4.587   4.365   6.690 -0.1728  0.0921  0.2292
 3826ntf    cn118500   4.757   4.309   6.724 -0.2468 -0.3297 -0.0916
 3826ntf    fn418501   4.737   4.094   6.497  0.0973 -0.8015 -0.3136
 3826ntf    fn418502   4.630   4.017   6.330 -0.2694 -0.1508  0.0819
 3826ntf    fn418503   4.696   4.202   6.310  0.1619 -0.0226 -0.0429
 3826ntf    on518504   4.418   4.238   6.363  0.4384  0.0539 -0.0721
 3826ntf    on518505   4.438   4.103   6.569 -0.0999  0.0717  0.1209
 3826ntf    on518506   4.501   4.306   6.790 -0.4342 -0.0326 -0.0680
 3826ntf    on518507   4.599   4.509   6.689  0.4770  0.0400 -0.3006
 3826ntf    fn418508   4.758   4.176   6.718 -0.0556 -0.3373  0.1127
 3826ntf    fn418509   4.854   4.349   6.645 -0.3205  0.1120  0.0404
 3826ntf    fn418510   4.787   4.334   6.851  0.0915  0.2788 -0.2897
 3827ntf    cn118511   5.194   1.669   4.005 -0.0139 -0.3020 -0.1543
 3827ntf    sn218512   5.122   1.700   3.841  0.0761  0.0497 -0.1284
 3827ntf    nn318513   5.251   1.759   3.772  0.0555  0.0716 -0.1491
 3827ntf    sn218514   5.319   1.900   3.781  0.0903  0.0333  0.2072
 3827ntf    cn118515   5.237   1.987   3.645 -0.0062  0.2086  0.3780
 3827ntf    fn418516   5.311   1.609   3.992 -0.0257 -0.3264 -0.1460
 3827ntf    fn418517   5.212   1.788   4.059 -0.0352 -0.2382 -0.2859
 3827ntf    fn418518   5.119   1.599   4.087 -0.3255  0.4652  0.2260
 3827ntf    on518519   5.104   1.570   3.781 -0.1291  0.1714 -0.3352
 3827ntf    on518520   5.008   1.787   3.855 -0.0002 -0.0403 -0.1919
 3827ntf    on518521   5.458   1.890   3.744 -0.1634 -0.1873 -0.6981
 3827ntf    on518522   5.279   1.968   3.902 -0.4947  0.1285 -0.0407
 3827ntf    fn418523   5.106   1.983   3.662  0.0099 -0.5330  0.3162
 3827ntf    fn418524   5.274   2.114   3.645  0.1209  0.1764  0.8757
 3827ntf    fn418525   5.254   1.926   3.529 -0.8354 -0.2683  0.4972
 3828ntf    cn118526   6.778   6.366   4.561  0.2051  0.3287  0.2230
 3828ntf    sn218527   6.937   6.279   4.564  0.0320 -0.0015 -0.1273
 3828ntf    nn318528   6.967   6.243   4.414 -0.3392  0.3853 -0.2955
 3828ntf    sn218529   6.915   6.123   4.326 -0.0749  0.0527  0.0006
 3828ntf    cn118530   7.072   6.031   4.317 -0.0723  0.0530  0.0362
 3828ntf    fn418531   6.769   6.455   4.659 -0.0649  0.4620  0.0772
 3828ntf    fn418532   6.761   6.434   4.449  0.1429  0.6243  0.4090
 3828ntf    fn418533   6.677   6.282   4.575  0.0823  0.5312  0.5536
 3828ntf    on518534   7.022   6.380   4.622  0.5356 -0.5032  0.0180
 3828ntf    on518535   6.915   6.166   4.651  0.3921  0.1515  0.1682
 3828ntf    on518536   6.897   6.162   4.189 -0.3982 -0.0608  0.0094
 3828ntf    on518537   6.815   6.038   4.386 -0.1766 -0.1938 -0.5199
 3828ntf    fn418538   7.172   6.110   4.282  0.0579  0.1534  0.6218
 3828ntf    fn418539   7.102   5.974   4.432  0.1450 -0.4136 -0.2521
 3828ntf    fn418540   7.079   5.936   4.225 -0.0155  0.1002 -0.0079
 3829ntf    cn118541   5.532   3.154   5.987 -0.1668  0.0657 -0.6095
 3829ntf    sn218542   5.653   3.284   6.028 -0.3879  0.0128  0.2286
 3829ntf    nn318543   5.778   3.192   6.005  0.1320  0.6506  0.4663
 3829ntf    sn218544   5.878   3.143   6.116 -0.0526  0.0892  0.3882
 3829ntf    cn118545   5.929   3.296   6.200  0.1302 -0.0403  0.5162
 3829ntf    fn418546   5.550   3.043   6.056 -0.2248 -0.1436 -0.9313
 3829ntf    fn418547   5.403   3.182   6.001  0.0054  0.3620  0.4888
 3829ntf    fn418548   5.545   3.114   5.862  0.2547  0.3712 -0.6659
 3829ntf    on518549   5.626   3.384   5.928 -0.6949 -0.4748 -0.1835
 3829ntf    on518550   5.620   3.314   6.166  0.1194 -0.1469  0.3860
 3829ntf    on518551   6.003   3.095   6.060 -0.3902  0.0054 -0.3053
 3829ntf    on518552   5.822   3.056   6.216  0.1822 -0.7079 -0.1518
 3829ntf    fn418553   5.951   3.387   6.106  0.0316 -0.5716 -0.0323
 3829ntf    fn418554   5.837   3.349   6.278  0.5142  0.3881  0.6800
 3829ntf    fn418555   6.038   3.281   6.273  0.7726 -0.6806 -0.5338
 3830ntf    cn118556   4.996   5.428   3.264  0.0391  0.0621 -0.1870
 3830ntf    sn218557   4.917   5.491   3.113 -0.2841  0.0072 -0.0415
 3830ntf    nn318558   5.000   5.621   3.083 -0.0143 -0.2373 -0.3590
 3830ntf    sn218559   4.954   5.765   3.041 -0.0523 -0.2181 -0.2494
 3830ntf    cn118560   4.888   5.825   3.199  0.0134 -0.4622 -0.1271
 3830ntf    fn418561   4.985   5.503   3.372 -0.0415 -0.2042 -0.0079
 3830ntf    fn418562   4.948   5.307   3.290  0.3821 -0.1598 -0.5724
 3830ntf    fn418563   5.125   5.406   3.244 -0.0001  0.0594 -0.4445
 3830ntf    on518564   4.939   5.394   3.008 -0.3862  0.3029 -0.3363
 3830ntf    on518565   4.782   5.520   3.153 -0.5733 -0.4618 -0.6558
 3830ntf    on518566   4.842   5.772   2.951 -0.2110 -0.0147 -0.0396
 3830ntf    on518567   5.068   5.849   3.018  0.0872 -0.2550  0.3030
 3830ntf    fn418568   4.987   5.832   3.287  0.0931 -0.6097 -0.2059
 3830ntf    fn418569   4.844   5.950   3.185  0.7826 -0.1847 -0.0939
 3830ntf    fn418570   4.791   5.757   3.258  0.4961 -0.9334  0.1278
 3831ntf    cn118571   1.909   4.861   5.836 -0.3812 -0.1793 -0.1054
 3831ntf    sn218572   1.807   4.752   5.939  0.0283 -0.0332  0.4604
 3831ntf    nn318573   1.702   4.860   5.983 -0.2437 -0.3312  0.5495
 3831ntf    sn218574   1.706   4.951   6.111  0.2233  0.0542  0.2618
 3831ntf    cn118575   1.582   5.076   6.065 -0.0111 -0.0287  0.6625
 3831ntf    fn418576   2.010   4.792   5.786 -0.3312  0.0274 -0.2954
 3831ntf    fn418577   1.839   4.910   5.734 -0.3426 -0.2509 -0.1664
 3831ntf    fn418578   1.955   4.964   5.905 -0.2207  0.1921 -0.7552
 3831ntf    on518579   1.749   4.663   5.840  0.2249  0.3905 -0.0410
 3831ntf    on518580   1.877   4.687   6.047 -0.5262 -0.5035  0.5467
 3831ntf    on518581   1.827   5.024   6.142  0.2628  0.2332 -0.3048
 3831ntf    on518582   1.634   4.895   6.222 -0.1467 -0.5497 -0.2774
 3831ntf    fn418583   1.589   5.183   6.142  1.2239  0.2540  0.1923
 3831ntf    fn418584   1.581   5.125   5.942 -0.2526  0.1439  0.7338
 3831ntf    fn418585   1.460   5.028   6.081  0.0218 -0.1859  0.4579
 3832ntf    cn118586   4.998   6.600   1.082 -0.2412  0.0584 -0.3940
 3832ntf    sn218587   5.105   6.718   1.170 -0.0356 -0.0598 -0.4851
 3832ntf    nn318588   5.136   6.642   1.305  0.1298  0.3321 -0.3011
 3832ntf    sn218589   5.059   6.667   1.439  0.0550  0.1965 -0.3189
 3832ntf    cn118590   5.142   6.816   1.502  0.0620  0.0620 -0.0090
 3832ntf    fn418591   4.951   6.659   0.973  0.1536  0.6428 -0.2523
 3832ntf    fn418592   5.055   6.486   1.046 -0.5795 -0.2607  0.0784
 3832ntf    fn418593   4.898   6.566   1.161  0.0693  0.1770  0.0566
 3832ntf    on518594   5.228   6.722   1.095 -0.1392 -0.2545 -0.6672
 3832ntf    on518595   5.028   6.838   1.188 -0.3029 -0.2223 -0.5434
 3832ntf    on518596   5.091   6.569   1.540 -0.5694  0.3774  0.0577
 3832ntf    on518597   4.918   6.692   1.422  0.0149  0.1616 -0.0409
 3832ntf    fn418598   5.131   6.808   1.634 -0.3191 -0.4459 -0.0714
 3832ntf    fn418599   5.268   6.809   1.461  0.0900  0.7653 -0.0511
 3832ntf    fn418600   5.103   6.937   1.466  0.4616  0.1518 -0.1479
 3833ntf    cn118601   0.913   4.340   6.166  0.2000  0.2317  0.0640
 3833ntf    sn218602   0.998   4.309   6.323 -0.3177 -0.3260  0.2391
 3833ntf    nn318603   0.884   4.264   6.421 -0.2629 -0.6105  0.1750
 3833ntf    sn218604   0.781   4.354   6.499  0.1059 -0.2090  0.2046
 3833ntf    cn118605   0.632   4.258   6.459 -0.1708  0.3458 -0.1105
 3833ntf    fn418606   0.991   4.363   6.062  0.0798 -0.1549 -0.1133
 3833ntf    fn418607   0.833   4.236   6.145 -0.2149  0.6633 -0.5234
 3833ntf    fn418608   0.833   4.445   6.179  0.1862  0.2327 -0.0247
 3833ntf    on518609   1.087   4.199   6.290 -0.0299 -0.1261  0.3449
 3833ntf    on518610   1.069   4.431   6.353 -0.3495 -0.2872  0.1550
 3833ntf    on518611   0.756   4.488   6.452  0.3343 -0.4269 -0.5570
 3833ntf    on518612   0.806   4.346   6.640  0.2088  0.0140  0.2003
 3833ntf    fn418613   0.522   4.317   6.503 -0.3030 -0.0393  0.0820
 3833ntf    fn418614   0.609   4.236   6.330 -0.6458  0.2685 -0.0155
 3833ntf    fn418615   0.627   4.139   6.517 -0.2489  0.5529  0.3071
 3834ntf    cn118616   4.539   4.764   2.273  0.1677  0.4128  0.0103
 3834ntf    sn218617   4.560   4.643   2.407 -0.1699  0.2294 -0.0999
 3834ntf    nn318618   4.424   4.653   2.483 -0.0171 -0.6203  0.3023
 3834ntf    sn218619   4.391   4.750   2.602  0.0037 -0.0911 -0.1183
 3834ntf    cn118620   4.452   4.651   2.741 -0.4055  0.0727  0.1824
 3834ntf    fn418621   4.649   4.779   2.201  0.0424  0.3760 -0.1905
 3834ntf    fn418622   4.451   4.719   2.185  0.2695 -0.4042  0.3129
 3834ntf    fn418623   4.504   4.882   2.320 -0.4823  0.4536 -0.5589
 3834ntf    on518624   4.577   4.519   2.334 -0.0315  0.3183 -0.2198
 3834ntf    on518625   4.675   4.698   2.473 -0.2580  0.7799 -0.3994
 3834ntf    on518626   4.249   4.773   2.611 -0.0444 -0.4497  0.0590
 3834ntf    on518627   4.476   4.866   2.615  0.0833 -0.1922  0.2691
 3834ntf    fn418628   4.432   4.717   2.854  0.4480  0.2470  0.2382
 3834ntf    fn418629   4.396   4.532   2.752 -0.3780  0.0376 -0.0515
 3834ntf    fn418630   4.582   4.624   2.730 -0.3521  0.2017  0.4680
 3835ntf    cn118631   5.468   3.999   5.146 -0.4577  0.2329 -0.0587
 3835ntf    sn218632   5.468   4.150   5.247  0.0806  0.1256  0.1053
 3835ntf    nn318633   5.457   4.082   5.389 -0.1667 -0.6894 -0.2988
 3835ntf    sn218634   5.336   4.018   5.466 -0.2337 -0.1878  0.0153
 3835ntf    cn118635   5.284   4.152   5.578 -0.2813 -0.1919 -0.0023
 3835ntf    fn418636   5.512   4.009   5.022  0.3697  0.6249  0.2584
 3835ntf    fn418637   5.535   3.899   5.203 -0.3584  0.0424 -0.4999
 3835ntf    fn418638   5.348   3.943   5.144 -0.2331 -0.2484 -0.2062
 3835ntf    on518639   5.595   4.211   5.219 -0.0193  0.5198  0.5034
 3835ntf    on518640   5.349   4.223   5.214 -0.3635 -0.4390  0.4344
 3835ntf    on518641   5.368   3.912   5.558 -0.6233  0.3121  0.7410
 3835ntf    on518642   5.224   3.996   5.378 -0.4916 -0.0942  0.3199
 3835ntf    fn418643   5.394   4.205   5.629 -0.3077  0.4952 -0.6449
 3835ntf    fn418644   5.227   4.259   5.526 -0.3210 -0.1375  0.1521
 3835ntf    fn418645   5.204   4.104   5.673 -0.2121 -0.2011  0.0516
 3836ntf    cn118646   3.336   0.585   3.816 -0.0874  0.1349  0.1080
 3836ntf    sn218647   3.499   0.581   3.735  0.0826 -0.1299  0.4613
 3836ntf    nn318648   3.567   0.697   3.816 -0.5361  0.5907 -0.0369
 3836ntf    sn218649   3.716   0.746   3.800 -0.2338 -0.2877  0.0333
 3836ntf    cn118650   3.800   0.653   3.932 -0.0372 -0.3571 -0.1397
 3836ntf    fn418651   3.242   0.516   3.753 -0.4196  0.5462  0.1498
 3836ntf    fn418652   3.348   0.536   3.939  0.1546  0.3977  0.1900
 3836ntf    fn418653   3.291   0.709   3.824  0.4345  0.3238  0.1614
 3836ntf    on518654   3.539   0.444   3.753  0.4765 -0.0616  0.1105
 3836ntf    on518655   3.454   0.627   3.606  0.5574  0.0424  0.3549
 3836ntf    on518656   3.740   0.883   3.835  1.3383 -0.3351 -0.7588
 3836ntf    on518657   3.786   0.690   3.686 -0.1797 -0.1736  0.0110
 3836ntf    fn418658   3.751   0.687   4.050 -0.4499  0.0672 -0.4279
 3836ntf    fn418659   3.796   0.523   3.906  0.2296 -0.2949 -0.5083
 3836ntf    fn418660   3.927   0.691   3.931 -0.1241 -0.0697 -0.7288
 3837ntf    cn118661   1.774   5.396   5.042  0.2064  0.1878  0.1696
 3837ntf    sn218662   1.847   5.539   4.957  0.1393 -0.0193 -0.2342
 3837ntf    nn318663   1.997   5.506   4.985  0.0213 -0.2276  0.1526
 3837ntf    sn218664   2.088   5.526   5.112  0.2162  0.0175 -0.0276
 3837ntf    cn118665   2.181   5.669   5.046  0.0082  0.2157  0.1069
 3837ntf    fn418666   1.820   5.279   5.000 -0.0015  0.3652 -0.5650
 3837ntf    fn418667   1.800   5.402   5.172 -0.2273 -0.6258  0.3036
 3837ntf    fn418668   1.642   5.394   5.038  0.2279 -0.3742 -0.4774
 3837ntf    on518669   1.796   5.521   4.823 -0.0207  0.1214 -0.1931
 3837ntf    on518670   1.796   5.657   5.022  0.0752 -0.4341  0.4814
 3837ntf    on518671   2.180   5.416   5.125  0.6660  0.4147  0.1981
 3837ntf    on518672   2.017   5.565   5.231  0.0168  0.0504 -0.1567
 3837ntf    fn418673   2.103   5.771   5.012  0.5343  0.6162  0.0944
 3837ntf    fn418674   2.270   5.705   5.136  0.3009 -0.8410  0.2521
 3837ntf    fn418675   2.253   5.623   4.945 -0.5231 -0.6898  0.1256
 3838ntf    cn118676   1.329   1.304   3.904 -0.4245 -0.1105  0.3713
 3838ntf    sn218677   1.216   1.441   3.866 -0.3993 -0.1885  0.0101
 3838ntf    nn318678   1.292   1.504   3.744 -0.0001 -0.0972  0.3024
 3838ntf    sn218679   1.251   1.623   3.650 -0.1829 -0.4310 -0.0433
 3838ntf    cn118680   1.193   1.537   3.500 -0.1244 -0.0588 -0.2796
 3838ntf    fn418681   1.454   1.346   3.912 -0.4247  0.1414 -0.7730
 3838ntf    fn418682   1.312   1.236   4.016  1.0897 -0.4772  0.4042
 3838ntf    fn418683   1.345   1.215   3.808  0.5295  0.7834 -0.3117
 3838ntf    on518684   1.097   1.365   3.839 -0.0065 -0.8079  0.0048
 3838ntf    on518685   1.206   1.522   3.985  0.0006  0.7796 -0.5993
 3838ntf    on518686   1.356   1.709   3.603  0.0601 -0.8031 -0.1808
 3838ntf    on518687   1.130   1.690   3.690  0.2261  0.2201  0.1169
 3838ntf    fn418688   1.299   1.473   3.454 -0.2309 -0.4473  0.0113
 3838ntf    fn418689   1.097   1.454   3.538  0.3955 -0.5337  0.0066
 3838ntf    fn418690   1.145   1.606   3.398 -0.0876  0.4238  0.0201
 3839ntf    cn118691   4.389   0.067   6.836  0.0869  0.1518 -0.3334
 3839ntf    sn218692   4.567   0.030   6.848  0.0387  0.0691  0.1482
 3839ntf    nn318693   4.631   0.146   6.765  0.3079 -0.3645 -0.2513
 3839ntf    sn218694   4.782   0.166   6.726  0.2787  0.2128 -0.0793
 3839ntf    cn118695   4.771   0.162   6.544  0.0980  0.2214 -0.0686
 3839ntf    fn418696   4.351   0.186   6.879 -0.7999 -0.0534 -0.5324
 3839ntf    fn418697   4.350   0.066   6.710  0.4168  0.0060 -0.4361
 3839ntf    fn418698   4.322  -0.025   6.904 -0.1222  0.3246 -0.3046
 3839ntf    on518699   4.593   0.041   6.990  0.4369  0.7215  0.0291
 3839ntf    on518700   4.575  -0.101   6.788 -0.2003  0.0647  0.1243
 3839ntf    on518701   4.865   0.049   6.739 -0.0511 -0.0355 -0.1810
 3839ntf    on518702   4.835   0.298   6.745  0.5507  0.0392  0.3737
 3839ntf    fn418703   4.719   0.277   6.502  0.2796  0.3598  0.0815
 3839ntf    fn418704   4.890   0.152   6.488 -0.0142  0.4956 -0.3632
 3839ntf    fn418705   4.691   0.067   6.500 -0.3040  0.4652  0.1268
 3840ntf    cn118706   3.502   4.075   4.309 -0.1430 -0.8850 -0.0074
 3840ntf    sn218707   3.333   4.137   4.331  0.2908  0.2451  0.1789
 3840ntf    nn318708   3.312   4.211   4.194  0.4250 -0.3080 -0.1410
 3840ntf    sn218709   3.227   4.180   4.066  0.1252 -0.1477  0.0178
 3840ntf    cn118710   3.071   4.266   4.101  0.0360 -0.2233 -0.1916
 3840ntf    fn418711   3.556   4.013   4.412  0.0209 -0.5486  0.1125
 3840ntf    fn418712   3.521   3.997   4.203 -0.4791 -0.2877 -0.5137
 3840ntf    fn418713   3.588   4.174   4.288 -0.4579 -0.5411  0.3243
 3840ntf    on518714   3.252   4.020   4.353 -0.2750  0.6351  0.1823
 3840ntf    on518715   3.359   4.230   4.439  0.7257  0.3014  0.0293
 3840ntf    on518716   3.204   4.038   4.059 -0.6199 -0.0424  0.3014
 3840ntf    on518717   3.286   4.252   3.956  0.4293 -0.0627  0.2327
 3840ntf    fn418718   2.974   4.246   4.013  0.0413  0.3090 -0.3182
 3840ntf    fn418719   3.020   4.245   4.222  0.1911  0.8921  0.0801
 3840ntf    fn418720   3.088   4.397   4.095 -0.5851 -0.1403 -0.1963
 3841ntf    cn118721   2.784   4.977   6.055 -0.2984 -0.0080 -0.1442
 3841ntf    sn218722   2.687   5.055   5.923  0.1586  0.3573 -0.2656
 3841ntf    nn318723   2.548   4.995   5.965  0.5394 -0.3206  0.0247
 3841ntf    sn218724   2.483   4.854   5.940 -0.0327  0.0072 -0.3355
 3841ntf    cn118725   2.352   4.899   5.822  0.0086  0.1912 -0.3122
 3841ntf    fn418726   2.793   5.051   6.165 -0.5934 -0.7101  0.3630
 3841ntf    fn418727   2.724   4.870   6.105 -0.5584  0.2932  0.1960
 3841ntf    fn418728   2.907   4.948   6.015 -0.1412  0.1665  0.2076
 3841ntf    on518729   2.695   5.196   5.954 -0.3585  0.4383 -0.4830
 3841ntf    on518730   2.738   5.010   5.796  0.0988  0.3713 -0.2944
 3841ntf    on518731   2.407   4.794   6.047  0.5568 -0.1243  0.0140
 3841ntf    on518732   2.567   4.770   5.860  0.2433 -0.7044  0.6826
 3841ntf    fn418733   2.395   4.959   5.713  0.6916  0.3672  0.0477
 3841ntf    fn418734   2.280   4.794   5.784 -0.3094  0.2644  0.0671
 3841ntf    fn418735   2.261   4.977   5.879 -0.4927 -0.5735 -0.0353
 3842ntf    cn118736   1.574   6.532   6.342  0.0656 -0.2468 -0.0673
 3842ntf    sn218737   1.474   6.408   6.428 -0.0564 -0.0420  0.0874
 3842ntf    nn318738   1.497   6.281   6.338 -0.9670  0.3130 -0.6611
 3842ntf    sn218739   1.465   6.131   6.372  0.0086  0.2675  0.0882
 3842ntf    cn118740   1.605   6.050   6.289 -0.2441 -0.0629 -0.0190
 3842ntf    fn418741   1.553   6.656   6.383 -0.0031 -0.4673  0.5795
 3842ntf    fn418742   1.704   6.506   6.346  0.1645  0.2392 -0.0337
 3842ntf    fn418743   1.543   6.536   6.213  0.2363 -0.2390 -0.1086
 3842ntf    on518744   1.545   6.413   6.553 -0.6553 -0.0201  0.4346
 3842ntf    on518745   1.342   6.465   6.415 -0.0533 -0.0332  0.0936
 3842ntf    on518746   1.346   6.078   6.310  0.2530  0.4942 -0.5798
 3842ntf    on518747   1.482   6.103   6.512  0.1755 -0.5492 -0.0902
 3842ntf    fn418748   1.573   5.943   6.219 -0.4199 -0.1879  0.2538
 3842ntf    fn418749   1.671   6.134   6.211 -0.0222 -0.1975  0.0237
 3842ntf    fn418750   1.693   6.007   6.378 -0.2014 -0.3243 -0.1879
 3843ntf    cn118751   5.599   0.817   7.075  0.2387 -0.0120 -0.2676
 3843ntf    sn218752   5.422   0.805   7.035  0.1883 -0.3201  0.0386
 3843ntf    nn318753   5.360   0.692   7.125  0.5121 -0.3899  0.1749
 3843ntf    sn218754   5.222   0.619   7.112  0.1579  0.3153 -0.0751
 3843ntf    cn118755   5.265   0.468   7.020  0.2354  0.0351  0.4153
 3843ntf    fn418756   5.655   0.931   7.038 -0.0763  0.2824  0.1516
 3843ntf    fn418757   5.632   0.789   7.201 -0.7962  0.1610  0.0554
 3843ntf    fn418758   5.665   0.722   7.011 -0.1196 -0.6472  0.2856
 3843ntf    on518759   5.376   0.939   7.061 -0.6499 -0.5826 -0.0693
 3843ntf    on518760   5.429   0.761   6.898  0.6401 -0.5896  0.1466
 3843ntf    on518761   5.124   0.693   7.037 -0.5246 -0.8413 -0.3447
 3843ntf    on518762   5.179   0.568   7.240 -0.0627  0.2145 -0.1889
 3843ntf    fn418763   5.342   0.489   6.914 -0.0982  0.1200  0.1878
 3843ntf    fn418764   5.325   0.369   7.084  0.0111 -0.5450 -0.2482
 3843ntf    fn418765   5.160   0.413   6.961  0.5349  0.0417 -0.1322
 3844ntf    cn118766   2.653   0.221   6.636 -0.2355  0.0109  0.7755
 3844ntf    sn218767   2.649   0.044   6.595  0.0231  0.1716  0.0402
 3844ntf    nn318768   2.516   0.031   6.513 -0.1708  0.2044  0.3467
 3844ntf    sn218769   2.488   0.046   6.359 -0.0803  0.2484  0.3341
 3844ntf    cn118770   2.313   0.095   6.365 -0.3526 -0.6965  0.1483
 3844ntf    fn418771   2.544   0.261   6.699 -0.0817  0.3297  0.8416
 3844ntf    fn418772   2.754   0.238   6.720  0.2316 -0.2726  0.2789
 3844ntf    fn418773   2.659   0.310   6.538  0.1704 -0.5684  0.2689
 3844ntf    on518774   2.769   0.016   6.519 -0.5586  0.8699 -1.1596
 3844ntf    on518775   2.639  -0.018   6.725 -0.0833  0.1553  0.0244
 3844ntf    on518776   2.495  -0.078   6.286 -0.0548 -0.1252  0.9616
 3844ntf    on518777   2.544   0.168   6.305 -0.2435 -0.0261 -0.4626
 3844ntf    fn418778   2.265   0.124   6.245 -0.0280 -0.5637  0.0477
 3844ntf    fn418779   2.232   0.003   6.415 -0.1420 -0.2815  1.2737
 3844ntf    fn418780   2.299   0.206   6.435 -0.1436 -0.1276 -0.6992
 3845ntf    cn118781   4.746   4.384   3.726 -0.1534  0.0963 -0.3422
 3845ntf    sn218782   4.663   4.502   3.836  0.0745  0.2996 -0.3888
 3845ntf    nn318783   4.538   4.418   3.880  0.4078 -0.1621 -0.3206
 3845ntf    sn218784   4.400   4.402   3.808  0.0375 -0.0702  0.3580
 3845ntf    cn118785   4.295   4.524   3.892  0.2251  0.4682 -0.1850
 3845ntf    fn418786   4.669   4.341   3.627 -0.3174 -0.6020  0.0884
 3845ntf    fn418787   4.855   4.435   3.671 -0.2400  0.0653 -0.5469
 3845ntf    fn418788   4.776   4.275   3.795  0.0534  0.1390 -0.3649
 3845ntf    on518789   4.758   4.515   3.944 -0.3243  0.0044 -0.0003
 3845ntf    on518790   4.628   4.626   3.771 -0.2517  0.5500  0.2497
 3845ntf    on518791   4.332   4.279   3.839 -0.6889  0.3115  0.2904
 3845ntf    on518792   4.400   4.452   3.673  0.5535 -0.0551  0.3625
 3845ntf    fn418793   4.364   4.637   3.889  0.6036  0.2471  0.1298
 3845ntf    fn418794   4.177   4.550   3.838 -0.3602 -0.6468  0.5206
 3845ntf    fn418795   4.273   4.488   4.017 -0.3936 -0.2846 -0.5045
 3846ntf    cn118796   1.874   5.505   3.506  0.0163  0.5571 -0.3684
 3846ntf    sn218797   2.028   5.439   3.577 -0.2629  0.1962 -0.0976
 3846ntf    nn318798   2.126   5.448   3.454  0.5467 -0.1386  0.5146
 3846ntf    sn218799   2.218   5.337   3.392  0.4603  0.0569  0.0349
 3846ntf    cn118800   2.152   5.329   3.223  0.1080 -0.1671  0.1795
 3846ntf    fn418801   1.884   5.634   3.480  0.0317  0.6946  0.3124
 3846ntf    fn418802   1.838   5.444   3.394 -0.4906  0.3776 -0.1082
 3846ntf    fn418803   1.771   5.491   3.587  0.4853 -0.2322  0.1088
 3846ntf    on518804   2.064   5.541   3.671 -0.0761  0.1541 -0.1229
 3846ntf    on518805   1.992   5.307   3.624  0.9099 -0.2165 -0.3100
 3846ntf    on518806   2.188   5.203   3.439  0.0796  0.0446 -0.2369
 3846ntf    on518807   2.354   5.382   3.376  0.4258  0.2434  0.2632
 3846ntf    fn418808   2.234   5.249   3.157 -0.2164 -0.3374 -0.0172
 3846ntf    fn418809   2.032   5.274   3.221 -0.4691  1.0373  0.5866
 3846ntf    fn418810   2.133   5.444   3.159 -0.0197  0.0240  0.5626
 3847ntf    cn118811   2.874   7.004   3.199  0.4844  0.3334  0.3926
 3847ntf    sn218812   2.813   7.146   3.104 -0.2657 -0.3100 -0.0969
 3847ntf    nn318813   2.779   7.243   3.223 -0.4005  0.2785 -0.6099
 3847ntf    sn218814   2.637   7.269   3.283 -0.0624  0.7370  0.0062
 3847ntf    cn118815   2.672   7.291   3.460  0.4685 -0.3047  0.0407
 3847ntf    fn418816   2.771   6.939   3.250 -0.0963  0.5411 -0.4882
 3847ntf    fn418817   2.951   6.919   3.131 -0.3849  0.0950 -0.3085
 3847ntf    fn418818   2.950   7.046   3.299  0.2100  0.6690  0.4605
 3847ntf    on518819   2.930   7.193   3.034 -0.3685  0.3431  0.1642
 3847ntf    on518820   2.701   7.090   3.032 -0.4636 -0.9930  0.7290
 3847ntf    on518821   2.549   7.154   3.286  0.3223  0.4387 -0.0960
 3847ntf    on518822   2.573   7.393   3.246  0.3031  0.7796 -0.4782
 3847ntf    fn418823   2.571   7.344   3.528  0.6847  0.1566  0.0039
 3847ntf    fn418824   2.705   7.181   3.525  0.2422 -0.1602  0.4075
 3847ntf    fn418825   2.769   7.378   3.483 -0.1856  0.4225  0.0896
 3848ntf    cn118826   5.244   1.487   6.073 -0.0229 -0.0215  0.1625
 3848ntf    sn218827   5.358   1.368   5.995  0.0414 -0.2059  0.5334
 3848ntf    nn318828   5.356   1.253   6.102  0.0451 -0.0291  0.7248
 3848ntf    sn218829   5.381   1.099   6.082  0.3622  0.1106 -0.0209
 3848ntf    cn118830   5.538   1.108   5.992  0.4496  0.3909  0.1558
 3848ntf    fn418831   5.125   1.433   6.096 -0.0302  0.0525  0.2955
 3848ntf    fn418832   5.297   1.532   6.186  0.2404 -0.0336  0.0444
 3848ntf    fn418833   5.229   1.593   5.996  0.7638  0.1046  0.1720
 3848ntf    on518834   5.279   1.331   5.880 -0.3272 -0.2955  0.8137
 3848ntf    on518835   5.483   1.440   5.985  0.1644 -0.4808  0.0828
 3848ntf    on518836   5.291   1.028   5.995  0.4927 -0.1247  0.0366
 3848ntf    on518837   5.410   1.038   6.210  0.1391 -0.5082 -0.2631
 3848ntf    fn418838   5.631   1.180   6.053  0.3487  0.3239  0.3925
 3848ntf    fn418839   5.587   0.985   5.981 -0.8197 -0.1139 -0.0673
 3848ntf    fn418840   5.520   1.154   5.870 -0.0573 -0.6169 -0.1572
 3849ntf    cn118841   3.349   0.752   2.820  0.2235  0.2035 -0.1326
 3849ntf    sn218842   3.520   0.695   2.840  0.0331 -0.4424 -0.3191
 3849ntf    nn318843   3.505   0.538   2.838 -0.2527 -0.4140 -0.3899
 3849ntf    sn218844   3.499   0.430   2.951 -0.2015 -0.1931 -0.1752
 3849ntf    cn118845   3.665   0.359   2.930  0.2040  0.6918  0.0046
 3849ntf    fn418846   3.275   0.697   2.916  0.0014  0.2461 -0.2773
 3849ntf    fn418847   3.336   0.878   2.857 -0.1101  0.2053 -0.2504
 3849ntf    fn418848   3.287   0.735   2.704 -0.2839  0.5365  0.0872
 3849ntf    on518849   3.567   0.739   2.711 -0.8282 -0.1834 -0.5514
 3849ntf    on518850   3.572   0.760   2.957  0.1661  0.3771 -0.8235
 3849ntf    on518851   3.409   0.325   2.911 -1.5315  0.9095 -0.1668
 3849ntf    on518852   3.488   0.478   3.087 -0.0468 -0.2378 -0.1473
 3849ntf    fn418853   3.735   0.365   3.042  0.5352 -0.4212 -0.1389
 3849ntf    fn418854   3.658   0.232   2.896 -0.2512  0.5903  0.4607
 3849ntf    fn418855   3.742   0.419   2.840  0.3869  0.0964 -0.2360
 3850ntf    cn118856   4.326   6.239   3.813  0.4738 -0.2662 -0.4210
 3850ntf    sn218857   4.176   6.153   3.868  0.3246  0.1603 -0.1567
 3850ntf    nn318858   4.247   6.023   3.918 -0.4460 -0.2005  0.0124
 3850ntf    sn218859   4.259   5.980   4.069  0.0205 -0.1935 -0.0217
 3850ntf    cn118860   4.417   5.890   4.071  0.0772 -0.0913  0.0822
 3850ntf    fn418861   4.386   6.172   3.716  0.1129 -0.3256 -0.6049
 3850ntf    fn418862   4.307   6.360   3.761 -0.6884 -0.2818 -0.0538
 3850ntf    fn418863   4.408   6.259   3.914  0.3628 -0.4227 -0.3007
 3850ntf    on518864   4.120   6.239   3.970  0.5925  0.4241 -0.2310
 3850ntf    on518865   4.100   6.131   3.747  0.2973 -0.0825 -0.0954
 3850ntf    on518866   4.159   5.880   4.100 -0.2535  0.0663 -0.0642
 3850ntf    on518867   4.274   6.087   4.164  0.0133  0.0717 -0.3182
 3850ntf    fn418868   4.430   5.783   3.994 -0.8551  0.1440 -0.4134
 3850ntf    fn418869   4.511   5.973   4.028 -0.3405  0.3533  0.0154
 3850ntf    fn418870   4.449   5.852   4.193 -0.5332 -0.4515  0.1319
 3851ntf    cn118871   3.200   4.739   6.843  0.3315  0.2776 -0.0036
 3851ntf    sn218872   3.116   4.650   6.977  0.0911  0.3515 -0.1040
 3851ntf    nn318873   3.143   4.503   6.930  0.2092  0.3052  0.1028
 3851ntf    sn218874   3.130   4.368   7.008 -0.0093  0.2103 -0.0961
 3851ntf    cn118875   2.954   4.332   6.984 -0.0429  0.0811  0.3413
 3851ntf    fn418876   3.154   4.863   6.841  0.3225  0.2795  0.2745
 3851ntf    fn418877   3.332   4.742   6.849  0.3619 -0.4232 -0.1700
 3851ntf    fn418878   3.169   4.687   6.725 -0.8406  0.5782  0.1622
 3851ntf    on518879   3.185   4.689   7.098 -0.3786 -0.3134  0.3818
 3851ntf    on518880   2.978   4.690   6.963  0.0917  0.3635 -0.0756
 3851ntf    on518881   3.140   4.382   7.151  0.2133 -0.1822 -0.0714
 3851ntf    on518882   3.186   4.248   6.951  0.0789 -0.0273  0.4820
 3851ntf    fn418883   2.912   4.206   6.984  0.5729 -0.1239 -0.0178
 3851ntf    fn418884   2.884   4.379   7.086 -0.0729 -0.0406  0.3774
 3851ntf    fn418885   2.905   4.390   6.876 -0.2209 -0.1825  0.2779
 3852ntf    cn118886   3.901   1.164   2.946  0.0258 -0.3768  0.0714
 3852ntf    sn218887   3.875   1.208   2.771 -0.3465  0.1904  0.2663
 3852ntf    nn318888   3.980   1.324   2.758 -0.1935  0.0350  0.0934
 3852ntf    sn218889   4.116   1.323   2.680 -0.1589  0.0528  0.1531
 3852ntf    cn118890   4.149   1.501   2.689 -0.0784  0.0452  0.0013
 3852ntf    fn418891   3.827   1.061   2.986 -0.2786 -0.1901 -0.0071
 3852ntf    fn418892   4.025   1.139   2.982  0.1019 -0.1141 -0.0116
 3852ntf    fn418893   3.859   1.261   3.025  0.0758 -0.1873 -0.1357
 3852ntf    on518894   3.904   1.079   2.713 -0.6705  0.4933 -0.5738
 3852ntf    on518895   3.737   1.250   2.772 -0.2146  0.6323 -0.0210
 3852ntf    on518896   4.112   1.307   2.537 -0.3413  0.7091  0.0805
 3852ntf    on518897   4.228   1.268   2.751 -0.1141  0.3922  0.3487
 3852ntf    fn418898   4.161   1.548   2.812  0.1143  0.1766 -0.0665
 3852ntf    fn418899   4.249   1.540   2.611  0.0476 -0.3838 -0.0509
 3852ntf    fn418900   4.047   1.566   2.635  0.3348  0.6361 -0.0862
 3853ntf    cn118901   0.915   3.816   2.329  0.2277  0.7238  0.0380
 3853ntf    sn218902   1.086   3.761   2.300 -0.0925 -0.1124 -0.2969
 3853ntf    nn318903   1.117   3.669   2.423  0.0294  0.0998 -0.1683
 3853ntf    sn218904   1.207   3.541   2.437  0.2172  0.2143 -0.3284
 3853ntf    cn118905   1.072   3.420   2.442  0.2555  0.1915  0.3185
 3853ntf    fn418906   0.897   3.910   2.420 -0.6347  0.4434  0.1740
 3853ntf    fn418907   0.846   3.849   2.221 -0.2560 -0.4210 -0.0288
 3853ntf    fn418908   0.844   3.718   2.384  0.1158  0.3067 -0.8306
 3853ntf    on518909   1.087   3.702   2.168  0.3474 -0.2287 -0.2411
 3853ntf    on518910   1.169   3.877   2.318 -0.2710 -0.0576  0.1789
 3853ntf    on518911   1.270   3.533   2.567  0.2323 -0.1697 -0.3597
 3853ntf    on518912   1.292   3.491   2.332  0.5202  0.3769 -0.1645
 3853ntf    fn418913   0.998   3.428   2.332  0.9304  0.5407 -0.1178
 3853ntf    fn418914   1.128   3.300   2.448 -0.1971 -0.0070  0.6327
 3853ntf    fn418915   1.000   3.432   2.552 -0.0317  1.0753  0.0421
 3854ntf    cn118916   0.356   6.642   1.388 -0.4266 -0.5180 -0.0339
 3854ntf    sn218917   0.208   6.538   1.411 -0.6276 -0.1969  0.1379
 3854ntf    nn318918   0.099   6.629   1.344 -0.4387 -0.1193 -0.0649
 3854ntf    sn218919   0.030   6.762   1.392 -0.3201 -0.0450 -0.0992
 3854ntf    cn118920  -0.085   6.796   1.255 -0.3187 -0.0863 -0.1107
 3854ntf    fn418921   0.358   6.744   1.473 -0.0549 -0.2060 -0.4125
 3854ntf    fn418922   0.465   6.574   1.418 -0.3054 -0.5161 -0.4721
 3854ntf    fn418923   0.375   6.687   1.265  0.1965  0.2821  0.3442
 3854ntf    on518924   0.240   6.427   1.325  0.2471  0.6834 -0.7071
 3854ntf    on518925   0.185   6.519   1.552 -0.4981 -0.1915  0.1600
 3854ntf    on518926   0.126   6.870   1.394 -0.4168  0.0373  0.1757
 3854ntf    on518927  -0.061   6.752   1.503 -0.2088 -0.0078 -0.0053
 3854ntf    fn418928  -0.166   6.697   1.223  0.0317 -0.1910 -0.6731
 3854ntf    fn418929  -0.160   6.905   1.269  0.3000  0.3395 -0.0456
 3854ntf    fn418930  -0.011   6.809   1.146  0.5296 -0.2954  0.4283
 3855ntf    cn118931   0.378   4.359   2.576  0.5330  0.2927 -0.1462
 3855ntf    sn218932   0.344   4.246   2.714 -0.0240  0.3847 -0.2074
 3855ntf    nn318933   0.187   4.258   2.706 -0.0748 -0.0156  0.1402
 3855ntf    sn218934   0.068   4.163   2.744  0.2622 -0.3663  0.3303
 3855ntf    cn118935  -0.007   4.253   2.884  0.3612  0.3070 -0.0439
 3855ntf    fn418936   0.277   4.439   2.546  0.4293  0.2140 -0.0038
 3855ntf    fn418937   0.485   4.427   2.614  0.5445  0.1839  0.0176
 3855ntf    fn418938   0.402   4.294   2.463  0.1350 -0.2125  0.0565
 3855ntf    on518939   0.399   4.124   2.660 -0.2514 -0.0749  0.5862
 3855ntf    on518940   0.414   4.302   2.826  0.5992 -0.3356 -0.2217
 3855ntf    on518941   0.102   4.034   2.797  0.3915 -0.5777 -0.2654
 3855ntf    on518942  -0.038   4.162   2.647  0.1236 -0.2759  0.4808
 3855ntf    fn418943   0.063   4.233   2.995  0.0875 -0.2912  0.0252
 3855ntf    fn418944   0.000   4.384   2.865  0.1406  0.3062 -0.1333
 3855ntf    fn418945  -0.133   4.224   2.912  0.2000  0.5865 -0.4679
 3856ntf    cn118946   4.424   1.622   5.906  0.0738  0.3152  0.0834
 3856ntf    sn218947   4.565   1.598   5.794  0.0058 -0.0939  0.0822
 3856ntf    nn318948   4.529   1.447   5.773 -0.0002 -0.1089  0.2018
 3856ntf    sn218949   4.440   1.397   5.654  0.0205  0.3055  0.0104
 3856ntf    cn118950   4.582   1.371   5.543  0.0142 -0.3705  0.1572
 3856ntf    fn418951   4.403   1.751   5.930  0.3819  0.4757 -0.5072
 3856ntf    fn418952   4.314   1.563   5.862  0.2460  0.4584 -0.5435
 3856ntf    fn418953   4.443   1.565   6.024 -0.0687  0.0306 -0.0313
 3856ntf    on518954   4.547   1.696   5.690 -0.0165  0.5061  0.6401
 3856ntf    on518955   4.681   1.618   5.879 -0.0002 -0.0977  0.0910
 3856ntf    on518956   4.346   1.487   5.591 -0.0814 -0.2171 -0.5920
 3856ntf    on518957   4.391   1.263   5.675  0.2849  0.2741  0.4419
 3856ntf    fn418958   4.668   1.467   5.572  0.2952 -0.5314 -0.1424
 3856ntf    fn418959   4.639   1.253   5.558 -0.1303 -0.4643 -0.0234
 3856ntf    fn418960   4.544   1.391   5.418 -0.3183 -0.1635  0.2886
 3857ntf    cn118961   0.591   3.462   3.593 -0.2666 -0.5859 -0.4320
 3857ntf    sn218962   0.418   3.494   3.548 -0.2933 -0.0926  0.0139
 3857ntf    nn318963   0.429   3.650   3.527  0.4741 -0.0870  0.4274
 3857ntf    sn218964   0.404   3.774   3.620  0.0679  0.1283  0.0342
 3857ntf    cn118965   0.564   3.859   3.627 -0.0661  0.3837  0.0145
 3857ntf    fn418966   0.673   3.515   3.503  0.1409 -0.0972  0.2141
 3857ntf    fn418967   0.625   3.524   3.705 -0.4915 -0.0700 -0.6450
 3857ntf    fn418968   0.627   3.335   3.606 -0.0149 -0.4557  0.2160
 3857ntf    on518969   0.411   3.421   3.424  0.4015 -0.3321  0.1119
 3857ntf    on518970   0.353   3.435   3.662 -0.3146 -0.0414  0.0283
 3857ntf    on518971   0.380   3.726   3.754 -0.0283  0.1133  0.0115
 3857ntf    on518972   0.312   3.863   3.553  0.1441 -0.1790 -0.4826
 3857ntf    fn418973   0.557   3.969   3.700  0.1225  0.6368 -0.3469
 3857ntf    fn418974   0.653   3.776   3.680 -0.4392 -0.1540 -0.1931
 3857ntf    fn418975   0.606   3.884   3.504 -0.3256  0.0255 -0.1471
 3858ntf    cn118976   3.538   3.528   6.563  0.0551  0.1543 -0.7806
 3858ntf    sn218977   3.641   3.678   6.554 -0.3775  0.4910 -0.1261
 3858ntf    nn318978   3.544   3.774   6.631 -0.3285  0.7372 -0.3717
 3858ntf    sn218979   3.591   3.863   6.751  0.0876  0.2506 -0.1736
 3858ntf    cn118980   3.616   3.744   6.887  0.0057  0.0582 -0.3274
 3858ntf    fn418981   3.525   3.477   6.684 -0.0752  0.6394 -0.5920
 3858ntf    fn418982   3.417   3.543   6.513 -0.3986 -0.7342  0.0183
 3858ntf    fn418983   3.597   3.435   6.489  0.3960  0.1924 -0.5583
 3858ntf    on518984   3.770   3.646   6.611 -0.4156 -0.1192 -0.3747
 3858ntf    on518985   3.647   3.712   6.414  0.2947 -0.8897 -0.4485
 3858ntf    on518986   3.482   3.942   6.803  0.2928  0.1267  0.4555
 3858ntf    on518987   3.718   3.927   6.731  0.6917 -0.8795 -0.0436
 3858ntf    fn418988   3.648   3.800   7.002 -0.4439 -0.2289 -0.0583
 3858ntf    fn418989   3.504   3.678   6.910 -0.1688  0.5284  0.1927
 3858ntf    fn418990   3.712   3.657   6.858 -0.4003 -0.5227  0.0467
 3859ntf    cn118991   6.053   1.025   5.193 -0.0743  0.0351 -0.0464
 3859ntf    sn218992   5.976   1.158   5.290  0.0916  0.0805  0.0235
 3859ntf    nn318993   5.967   1.089   5.431  0.4744 -0.6868 -0.3205
 3859ntf    sn218994   6.078   1.107   5.540 -0.1114  0.1823  0.1462
 3859ntf    cn118995   6.057   1.277   5.603  0.5443  0.2377  0.2220
 3859ntf    fn418996   6.065   1.064   5.068  0.1972  0.0620 -0.0127
 3859ntf    fn418997   6.177   1.001   5.233 -0.1356  0.2127  0.2581
 3859ntf    fn418998   5.984   0.912   5.202  0.1713 -0.1136 -0.0054
 3859ntf    on518999   6.066   1.270   5.281  0.2207 -0.0312 -0.0858
 3859ntf    on519000   5.843   1.172   5.237 -0.0956 -0.4611  0.3405
 3859ntf    on519001   6.216   1.086   5.502 -0.0218  0.2520  0.4301
 3859ntf    on519002   6.037   1.033   5.656 -0.1422  0.0723  0.0645
 3859ntf    fn419003   6.147   1.297   5.697  0.5048  0.0319  0.3047
 3859ntf    fn419004   6.068   1.373   5.513 -0.7158  0.4565  0.2916
 3859ntf    fn419005   5.941   1.299   5.661  0.1494 -0.6544 -0.2127
 3860ntf    cn119006   5.162   1.740   4.427 -0.2211 -0.2474  0.3730
 3860ntf    sn219007   5.221   1.892   4.507  0.2067 -0.1528 -0.1165
 3860ntf    nn319008   5.101   1.934   4.599  0.1834 -0.1500 -0.1485
 3860ntf    sn219009   5.092   1.913   4.755 -0.1918 -0.0868 -0.1615
 3860ntf    cn119010   4.923   1.974   4.784 -0.1149  0.2303 -0.3658
 3860ntf    fn419011   5.249   1.696   4.337 -0.0292 -0.4490  0.6561
 3860ntf    fn419012   5.130   1.648   4.516 -0.3189  0.5421  1.1629
 3860ntf    fn419013   5.049   1.752   4.358 -0.0334 -0.3560  0.0442
 3860ntf    on519014   5.345   1.857   4.574  0.2725 -0.3323 -0.3323
 3860ntf    on519015   5.247   1.982   4.398  0.3069  0.2767  0.2601
 3860ntf    on519016   5.169   2.004   4.836  0.4879 -0.3728 -0.4771
 3860ntf    on519017   5.094   1.773   4.786 -0.1402 -0.2215 -0.7522
 3860ntf    fn419018   4.827   1.907   4.723  0.2938 -0.1026 -0.6520
 3860ntf    fn419019   4.889   1.986   4.911  0.4665 -0.0194 -0.1846
 3860ntf    fn419020   4.905   2.093   4.728 -0.2551  0.2787 -0.2171
 3861ntf    cn119021   0.546   3.345   0.393 -0.1838 -0.3440 -0.1972
 3861ntf    sn219022   0.548   3.501   0.299  0.2316 -0.1534  0.1213
 3861ntf    nn319023   0.694   3.548   0.333  0.1150 -0.1007  0.5630
 3861ntf    sn219024   0.826   3.535   0.250 -0.1850  0.0189  0.0579
 3861ntf    cn119025   0.921   3.674   0.319 -0.1827  0.0614 -0.0315
 3861ntf    fn419026   0.437   3.275   0.371 -0.3848 -0.0039 -0.2895
 3861ntf    fn419027   0.656   3.280   0.357  0.1402  0.2313 -0.2690
 3861ntf    fn419028   0.554   3.372   0.523 -0.2156 -0.0779 -0.2488
 3861ntf    on519029   0.517   3.458   0.165  0.5376 -0.1871  0.0608
 3861ntf    on519030   0.448   3.578   0.370  0.1395 -0.6669  0.5558
 3861ntf    on519031   0.810   3.570   0.111 -0.0305 -0.2886 -0.0378
 3861ntf    on519032   0.909   3.425   0.293 -0.1334 -0.0043 -0.0998
 3861ntf    fn419033   1.035   3.689   0.253 -0.2472  0.4012 -0.0680
 3861ntf    fn419034   0.850   3.785   0.317  0.2115  0.3146 -0.2891
 3861ntf    fn419035   0.959   3.643   0.442  0.0621 -0.6603 -0.2847
 3862ntf    cn119036   6.488   2.564   2.756  0.2380  0.1191  0.1248
 3862ntf    sn219037   6.447   2.738   2.722  0.2158  0.0951  0.0267
 3862ntf    nn319038   6.375   2.710   2.586 -0.0952 -0.0039  0.2110
 3862ntf    sn219039   6.389   2.787   2.450  0.1274 -0.3433  0.0396
 3862ntf    cn119040   6.214   2.792   2.403  0.0996 -0.1121  0.1692
 3862ntf    fn419041   6.540   2.540   2.875 -0.1412 -0.4594  0.1790
 3862ntf    fn419042   6.379   2.490   2.746  0.2038  0.1499  0.2567
 3862ntf    fn419043   6.574   2.513   2.670 -0.4432 -0.3541 -0.2851
 3862ntf    on519044   6.350   2.770   2.824 -0.0495  0.2339 -0.2685
 3862ntf    on519045   6.574   2.807   2.733  0.0975  0.3961 -0.4715
 3862ntf    on519046   6.446   2.702   2.349  0.1191  0.1360 -0.3741
 3862ntf    on519047   6.424   2.927   2.450 -0.7116 -0.1185 -0.9961
 3862ntf    fn419048   6.200   2.831   2.277  0.0197  0.1098  0.2448
 3862ntf    fn419049   6.154   2.676   2.422  0.0229 -0.0652  0.2195
 3862ntf    fn419050   6.139   2.874   2.476 -0.8696  0.0358 -0.9698
 3863ntf    cn119051   5.609   0.327   0.324 -0.3438  0.2712 -0.0527
 3863ntf    sn219052   5.538   0.179   0.402 -0.0735  0.0777 -0.1701
 3863ntf    nn319053   5.639   0.151   0.519 -0.3121 -0.1408 -0.0149
 3863ntf    sn219054   5.590   0.127   0.666 -0.0113 -0.2177  0.0735
 3863ntf    cn119055   5.735   0.038   0.729  0.2613 -0.1503 -0.4528
 3863ntf    fn419056   5.709   0.298   0.243 -0.3572  0.3549 -0.0988
 3863ntf    fn419057   5.512   0.382   0.253 -0.5673  0.1364  0.1469
 3863ntf    fn419058   5.654   0.415   0.411 -0.0708 -0.5466  0.6534
 3863ntf    on519059   5.402   0.219   0.433 -0.0090  0.3087 -0.1883
 3863ntf    on519060   5.544   0.077   0.301  0.1795 -0.0779  0.0020
 3863ntf    on519061   5.482   0.032   0.682  0.0264 -0.3089 -0.2028
 3863ntf    on519062   5.583   0.249   0.743  0.4052  0.0721 -0.3452
 3863ntf    fn419063   5.845   0.112   0.729 -0.0541  0.3381  0.2812
 3863ntf    fn419064   5.714   0.001   0.855  0.4923  0.2217 -0.3017
 3863ntf    fn419065   5.772  -0.070   0.662  0.1669 -0.4292 -0.0611
 3864ntf    cn119066   4.036   4.933   4.017  0.1168 -0.0041  0.2613
 3864ntf    sn219067   3.935   4.936   4.168 -0.0899 -0.3946  0.1335
 3864ntf    nn319068   4.020   4.856   4.272  0.6229 -0.1943 -0.2910
 3864ntf    sn219069   3.988   4.797   4.414  0.1902  0.2035 -0.2222
 3864ntf    cn119070   4.080   4.913   4.519  0.2098 -0.2748  0.2956
 3864ntf    fn419071   3.989   5.016   3.925  0.2315 -0.3142 -0.0806
 3864ntf    fn419072   4.159   4.975   4.041 -0.0261  0.3068  0.4517
 3864ntf    fn419073   4.030   4.815   3.957  0.2305  0.1647 -0.0835
 3864ntf    on519074   3.921   5.079   4.188  0.2671 -0.2002 -0.9767
 3864ntf    on519075   3.819   4.865   4.121 -0.4220  0.1818  0.0639
 3864ntf    on519076   4.051   4.669   4.437 -0.1491  0.1102  0.2126
 3864ntf    on519077   3.850   4.803   4.455  0.1101 -0.6343 -0.3460
 3864ntf    fn419078   4.061   4.878   4.645 -0.1002  0.1703  0.3782
 3864ntf    fn419079   4.210   4.914   4.494  0.0539  0.2500 -0.5196
 3864ntf    fn419080   4.029   5.034   4.499 -0.0977 -0.5606 -0.6890
 3865ntf    cn119081   3.966   6.636   6.593  0.4067 -0.2816 -0.1468
 3865ntf    sn219082   4.053   6.795   6.587 -0.0531 -0.0364 -0.3630
 3865ntf    nn319083   3.957   6.880   6.495 -0.5190  0.0696  0.2193
 3865ntf    sn219084   3.949   6.894   6.339 -0.1739  0.3506  0.2254
 3865ntf    cn119085   3.772   6.880   6.301 -0.0772  0.2586 -0.1861
 3865ntf    fn419086   4.037   6.529   6.625  0.2919 -0.2280  0.2880
 3865ntf    fn419087   3.865   6.637   6.678  0.5853  0.0503  0.0654
 3865ntf    fn419088   3.907   6.603   6.479 -0.0846  0.1707 -0.0293
 3865ntf    on519089   4.047   6.843   6.722 -0.4227 -0.0831 -0.3627
 3865ntf    on519090   4.186   6.776   6.534 -0.0480 -0.5208 -0.1785
 3865ntf    on519091   4.014   6.793   6.261 -0.6839 -0.1383  0.4260
 3865ntf    on519092   3.973   7.030   6.297 -0.1992  0.0454 -0.7885
 3865ntf    fn419093   3.697   6.965   6.368  0.1251 -0.2142  0.6514
 3865ntf    fn419094   3.746   6.896   6.172 -0.6090 -0.1040 -0.1293
 3865ntf    fn419095   3.716   6.765   6.336  0.6700 -0.0987 -0.1587
 3866ntf    cn119096   5.255   2.853   0.758  0.4706 -0.4381  0.3462
 3866ntf    sn219097   5.380   2.966   0.826 -0.2375  0.5252  0.0626
 3866ntf    nn319098   5.450   3.024   0.697  0.1139  0.8439  0.3960
 3866ntf    sn219099   5.593   3.016   0.632 -0.2215 -0.5203 -0.1949
 3866ntf    cn119100   5.658   3.159   0.723 -0.0648 -0.5792 -0.2145
 3866ntf    fn419101   5.175   2.800   0.848  0.0921 -0.1991  0.1495
 3866ntf    fn419102   5.176   2.902   0.664 -0.2051 -0.4647  0.8945
 3866ntf    fn419103   5.310   2.743   0.708  0.1045 -0.4795  0.0324
 3866ntf    on519104   5.303   3.067   0.894 -0.4591  0.4608 -0.0899
 3866ntf    on519105   5.469   2.895   0.914 -0.4410  0.2038  0.0112
 3866ntf    on519106   5.594   3.056   0.493  0.5649 -0.2852 -0.1222
 3866ntf    on519107   5.680   2.905   0.665  0.1147  0.0388  0.8268
 3866ntf    fn419108   5.702   3.127   0.844 -0.3726 -0.3119 -0.0282
 3866ntf    fn419109   5.768   3.195   0.659 -0.2579  0.2187 -0.1000
 3866ntf    fn419110   5.569   3.256   0.726  0.4573 -0.1119  0.3774
 3867ntf    cn119111   1.131   0.746   6.571  0.1671 -0.5483 -0.1922
 3867ntf    sn219112   1.166   0.651   6.722  0.0163 -0.2580  0.0278
 3867ntf    nn319113   1.244   0.757   6.806 -0.0678 -0.0079 -0.2074
 3867ntf    sn219114   1.237   0.762   6.963 -0.1761 -0.3259 -0.2008
 3867ntf    cn119115   1.391   0.672   6.997  0.2529  0.3401 -0.3578
 3867ntf    fn419116   1.026   0.826   6.583  0.6953  0.0619  0.4702
 3867ntf    fn419117   1.231   0.831   6.556 -0.2623 -0.0004  0.0011
 3867ntf    fn419118   1.120   0.675   6.460  0.2997 -1.0501  0.1138
 3867ntf    on519119   1.035   0.609   6.767  0.2279 -0.4792  0.4419
 3867ntf    on519120   1.255   0.546   6.678  0.2246  0.1437 -0.5127
 3867ntf    on519121   1.138   0.689   7.038 -0.0911 -0.4151 -0.1743
 3867ntf    on519122   1.270   0.895   7.008 -0.5307 -0.4493  0.4333
 3867ntf    fn419123   1.504   0.737   6.971  0.8405 -0.4974  0.0546
 3867ntf    fn419124   1.402   0.660   7.129  0.1790  0.6791 -0.3187
 3867ntf    fn419125   1.396   0.545   6.960 -0.6432  0.3915 -0.6669
 3868ntf    cn119126   0.111   2.881   1.411 -0.3029 -0.1783  0.3823
 3868ntf    sn219127   0.207   2.744   1.483  0.0604 -0.0162  0.2063
 3868ntf    nn319128   0.254   2.814   1.615  0.1967  0.3371 -0.0268
 3868ntf    sn219129   0.393   2.823   1.688  0.1379 -0.1149  0.1481
 3868ntf    cn119130   0.335   2.778   1.854 -0.4037  0.0674  0.0108
 3868ntf    fn419131   0.174   2.996   1.396 -0.7245  0.0007 -0.0410
 3868ntf    fn419132   0.064   2.844   1.293  0.0863 -0.0973  0.2031
 3868ntf    fn419133   0.013   2.914   1.494 -0.5041  0.1257  0.0286
 3868ntf    on519134   0.114   2.636   1.503  0.4101 -0.2273  0.7026
 3868ntf    on519135   0.307   2.724   1.381  0.2706 -0.3879  0.4853
 3868ntf    on519136   0.431   2.961   1.711 -0.4626  0.0231  0.3384
 3868ntf    on519137   0.494   2.725   1.658 -0.0821 -0.2576 -0.1312
 3868ntf    fn419138   0.281   2.657   1.845 -0.0566 -0.0606 -0.3468
 3868ntf    fn419139   0.434   2.776   1.942 -0.3267 -0.9228 -0.0835
 3868ntf    fn419140   0.232   2.844   1.904 -0.4546 -0.0265  0.0309
 3869ntf    cn119141   1.433   1.520   4.569 -0.1806  0.1269 -0.0015
 3869ntf    sn219142   1.290   1.520   4.457 -0.1299  0.3140 -0.0666
 3869ntf    nn319143   1.271   1.669   4.412  0.8247  0.6458  0.6035
 3869ntf    sn219144   1.199   1.788   4.484 -0.3232  0.0889  0.4000
 3869ntf    cn119145   1.037   1.777   4.402  0.1778 -0.4276 -0.5383
 3869ntf    fn419146   1.451   1.402   4.626  0.3510  0.1736 -0.0704
 3869ntf    fn419147   1.543   1.538   4.499 -0.1398  0.1055  0.0575
 3869ntf    fn419148   1.427   1.611   4.665  0.1190  0.1650 -0.0178
 3869ntf    on519149   1.320   1.446   4.337 -0.2795  0.6466 -0.3106
 3869ntf    on519150   1.177   1.475   4.535 -0.3531  0.2751 -0.4096
 3869ntf    on519151   1.252   1.913   4.436  0.7634 -0.5918 -0.2171
 3869ntf    on519152   1.179   1.775   4.626  0.0232  0.6315  0.4993
 3869ntf    fn419153   0.964   1.697   4.479  0.0390  0.0777 -0.1447
 3869ntf    fn419154   0.975   1.894   4.395  0.3594 -0.2999 -0.0478
 3869ntf    fn419155   1.026   1.732   4.278  0.3039 -0.0338 -0.6911
 3870ntf    cn119156   4.113   0.524   0.549  0.1814  0.2627 -0.6001
 3870ntf    sn219157   4.291   0.553   0.567  0.0506  0.5863  0.1870
 3870ntf    nn319158   4.309   0.552   0.723 -0.5278  0.2406  0.2547
 3870ntf    sn219159   4.360   0.437   0.817  0.1281  0.1409 -0.2135
 3870ntf    cn119160   4.541   0.449   0.813  0.1500 -0.1933 -0.2240
 3870ntf    fn419161   4.051   0.615   0.622 -0.2241  0.0096 -0.6271
 3870ntf    fn419162   4.061   0.537   0.427 -0.1661  0.0371 -0.4768
 3870ntf    fn419163   4.076   0.406   0.595  0.5136  0.3036 -0.2264
 3870ntf    on519164   4.359   0.448   0.496 -0.0354  0.5461  0.1648
 3870ntf    on519165   4.315   0.682   0.507  0.2531  0.3086 -0.3360
 3870ntf    on519166   4.337   0.303   0.768  0.0177  0.1382 -0.1552
 3870ntf    on519167   4.330   0.454   0.957  0.7126 -0.6062  0.0085
 3870ntf    fn419168   4.603   0.354   0.883 -0.3446 -0.3994 -0.0614
 3870ntf    fn419169   4.583   0.424   0.690  0.2007  0.0593 -0.2573
 3870ntf    fn419170   4.584   0.564   0.862 -0.2907 -0.0938 -0.0669
 3871ntf    cn119171   6.741   3.684   4.585  0.1878  0.2770 -0.1146
 3871ntf    sn219172   6.669   3.733   4.745  0.2497 -0.1118  0.0323
 3871ntf    nn319173   6.735   3.627   4.840  0.1844 -0.0299  0.1695
 3871ntf    sn219174   6.854   3.647   4.941  0.1843  0.2117  0.1222
 3871ntf    cn119175   6.807   3.543   5.082  0.6136 -0.2918 -0.1023
 3871ntf    fn419176   6.863   3.637   4.602 -0.1713 -0.5105  0.3508
 3871ntf    fn419177   6.678   3.588   4.519  0.0713  0.4253 -0.2205
 3871ntf    fn419178   6.751   3.788   4.504  0.6301  0.1182 -0.2646
 3871ntf    on519179   6.721   3.867   4.755 -0.7973  0.3273 -0.3224
 3871ntf    on519180   6.526   3.722   4.730  0.2685 -0.1517 -0.1243
 3871ntf    on519181   6.854   3.780   4.995  0.4862  0.5968 -0.8028
 3871ntf    on519182   6.980   3.599   4.889  0.3760  0.8239  0.0150
 3871ntf    fn419183   6.713   3.591   5.162  0.5607 -0.6361  0.0477
 3871ntf    fn419184   6.762   3.423   5.050  0.1955 -0.0580 -0.3868
 3871ntf    fn419185   6.917   3.525   5.154  0.6258  0.0022 -0.0454
 3872ntf    cn119186   3.703   5.746   0.804 -0.5848 -0.1503  0.0234
 3872ntf    sn219187   3.718   5.564   0.810 -0.0888 -0.1177 -0.1346
 3872ntf    nn319188   3.750   5.537   0.961  0.3128  0.0800 -0.1813
 3872ntf    sn219189   3.856   5.441   1.026  0.0722  0.0343  0.1499
 3872ntf    cn119190   4.008   5.525   0.970  0.2011 -0.1677  0.1990
 3872ntf    fn419191   3.689   5.792   0.681  0.2450  0.0962  0.0170
 3872ntf    fn419192   3.599   5.788   0.874 -0.5944  0.0666 -0.1208
 3872ntf    fn419193   3.810   5.805   0.856 -0.5132 -0.1982 -0.0692
 3872ntf    on519194   3.586   5.530   0.764  0.0200  0.1579 -0.6582
 3872ntf    on519195   3.826   5.550   0.716 -0.1132 -0.4484 -0.1132
 3872ntf    on519196   3.859   5.312   0.961 -0.2764 -0.1952  0.5851
 3872ntf    on519197   3.861   5.454   1.169  0.4159  0.2011  0.1248
 3872ntf    fn419198   4.100   5.522   1.064  0.0187  0.2350  0.3929
 3872ntf    fn419199   4.051   5.466   0.859  0.3978  0.5976 -0.1349
 3872ntf    fn419200   3.992   5.652   0.940 -0.6989 -0.1323  0.7943
 3873ntf    cn119201   0.308   6.779   6.219  0.2548 -0.0563  0.0022
 3873ntf    sn219202   0.276   6.611   6.157 -0.3373  0.0575 -0.0053
 3873ntf    nn319203   0.184   6.647   6.035  0.0014  0.5149 -0.1300
 3873ntf    sn219204   0.042   6.592   5.998  0.1269  0.0721  0.0350
 3873ntf    cn119205  -0.048   6.718   6.094 -0.1556  0.0563 -0.2090
 3873ntf    fn419206   0.204   6.857   6.241  0.0664 -0.2457 -0.2229
 3873ntf    fn419207   0.380   6.760   6.329 -0.0215  0.1441  0.2187
 3873ntf    fn419208   0.386   6.853   6.142 -0.1410  0.5459  0.1807
 3873ntf    on519209   0.408   6.567   6.119 -0.4082 -0.2423  0.0921
 3873ntf    on519210   0.226   6.530   6.265 -0.3359  0.0505 -0.0099
 3873ntf    on519211   0.007   6.461   6.046  0.0728 -0.0657 -0.3789
 3873ntf    on519212   0.013   6.641   5.865 -0.0309  0.2338  0.1290
 3873ntf    fn419213  -0.011   6.844   6.077 -0.5237  0.3124  0.8304
 3873ntf    fn419214  -0.180   6.711   6.090 -0.1293 -0.6692  0.0528
 3873ntf    fn419215  -0.013   6.698   6.219  0.2491  0.4231 -0.2621
 3874ntf    cn119216   5.619   5.322   2.298  0.2422  0.2708  0.1473
 3874ntf    sn219217   5.675   5.158   2.243 -0.1662  0.1816 -0.0014
 3874ntf    nn319218   5.698   5.091   2.383 -0.4247  0.3120  0.1052
 3874ntf    sn219219   5.829   5.099   2.470 -0.2263 -0.1047 -0.1490
 3874ntf    cn119220   5.753   5.104   2.635 -0.1029  0.3746 -0.1032
 3874ntf    fn419221   5.488   5.323   2.309  0.2008  0.0967 -0.3410
 3874ntf    fn419222   5.668   5.363   2.414  0.1795 -0.0614  0.2933
 3874ntf    fn419223   5.651   5.417   2.212  0.3785  0.2349  0.1573
 3874ntf    on519224   5.564   5.104   2.167 -0.4923  0.6141  0.1635
 3874ntf    on519225   5.792   5.177   2.161 -0.2300 -0.8345 -0.3435
 3874ntf    on519226   5.902   5.223   2.463  0.1898 -0.2688  1.1117
 3874ntf    on519227   5.915   4.984   2.484 -0.0908  0.0859  0.6434
 3874ntf    fn419228   5.843   5.104   2.732 -0.4542 -0.1213  0.2308
 3874ntf    fn419229   5.686   5.216   2.655 -0.3080  0.4020 -0.8974
 3874ntf    fn419230   5.667   5.007   2.662  0.1228  0.2617  0.2204
 3875ntf    cn119231   6.391   4.150   6.399 -0.4029 -0.2668 -0.2659
 3875ntf    sn219232   6.332   4.005   6.306 -0.1049 -0.3780 -0.2836
 3875ntf    nn319233   6.388   3.892   6.399  0.3540  0.1583  0.1003
 3875ntf    sn219234   6.356   3.740   6.380  0.0257  0.2367  0.0139
 3875ntf    cn119235   6.297   3.700   6.547  0.1886 -0.2996 -0.0548
 3875ntf    fn419236   6.517   4.139   6.437 -0.4986 -0.0580  0.1084
 3875ntf    fn419237   6.388   4.260   6.326 -0.8801  0.2932  0.5855
 3875ntf    fn419238   6.321   4.169   6.510 -0.1443  0.2538 -0.1926
 3875ntf    on519239   6.188   4.012   6.303 -0.0998 -0.2875 -0.3565
 3875ntf    on519240   6.405   4.004   6.181  0.3663 -0.2170 -0.0094
 3875ntf    on519241   6.476   3.659   6.373 -0.1631 -0.1216  0.7446
 3875ntf    on519242   6.247   3.710   6.291  0.0881  0.3330 -0.0937
 3875ntf    fn419243   6.287   3.569   6.568  0.2428 -0.3091 -0.0893
 3875ntf    fn419244   6.383   3.750   6.635  0.2400 -0.0064 -0.2751
 3875ntf    fn419245   6.182   3.756   6.580 -0.0004 -0.5248 -0.3324
 3876ntf    cn119246   0.689   6.858   2.934  0.1535  0.2085  0.6690
 3876ntf    sn219247   0.712   6.992   2.813  0.1413 -0.1592  0.2594
 3876ntf    nn319248   0.623   6.938   2.695 -0.0976  0.3668  0.1966
 3876ntf    sn219249   0.570   7.021   2.572 -0.2744  0.0219  0.0386
 3876ntf    cn119250   0.710   6.986   2.462  0.0567 -0.0319  0.4740
 3876ntf    fn419251   0.698   6.737   2.882  0.0656  0.2433  0.5721
 3876ntf    fn419252   0.779   6.855   3.030  0.3267 -0.2545  0.4926
 3876ntf    fn419253   0.572   6.873   2.993 -0.0546  0.0760  0.2924
 3876ntf    on519254   0.659   7.102   2.888  0.0502  0.6973 -1.0224
 3876ntf    on519255   0.854   6.984   2.791  0.1725  0.1996  0.3390
 3876ntf    on519256   0.567   7.163   2.598  0.9366  0.1129 -0.2396
 3876ntf    on519257   0.452   6.960   2.517 -0.5127  0.5673 -0.0592
 3876ntf    fn419258   0.717   7.074   2.364 -0.2343  0.0863  0.5586
 3876ntf    fn419259   0.819   6.986   2.538  0.1886 -0.3443  0.2893
 3876ntf    fn419260   0.691   6.868   2.405  0.4340  0.2784 -0.3161
 3877ntf    cn119261   2.799   6.117   6.511  0.0916 -0.4482 -0.1727
 3877ntf    sn219262   2.662   6.084   6.397 -0.0644 -0.3148 -0.0246
 3877ntf    nn319263   2.555   6.013   6.488  0.0676 -0.3074  0.1363
 3877ntf    sn219264   2.511   5.863   6.481 -0.2588 -0.2213  0.3177
 3877ntf    cn119265   2.562   5.806   6.646 -0.1697 -0.4538  0.2101
 3877ntf    fn419266   2.836   6.012   6.582 -0.7517 -0.1428  0.7345
 3877ntf    fn419267   2.907   6.155   6.444  0.1315  0.1022  0.1938
 3877ntf    fn419268   2.775   6.210   6.602  0.0463 -0.0782 -0.5595
 3877ntf    on519269   2.612   6.213   6.354  0.2373 -0.2020 -0.0343
 3877ntf    on519270   2.728   6.006   6.295  0.4121 -0.4332  0.3754
 3877ntf    on519271   2.578   5.771   6.392 -0.4132  0.4194 -0.4738
 3877ntf    on519272   2.367   5.863   6.475 -0.2272 -0.5997 -0.5594
 3877ntf    fn419273   2.513   5.883   6.742 -0.2878  0.3758 -0.5072
 3877ntf    fn419274   2.516   5.683   6.666 -0.0666 -0.5671 -0.2378
 3877ntf    fn419275   2.693   5.799   6.659 -0.1884 -0.1931  0.5544
 3878ntf    cn119276   2.433   5.475   4.491 -0.2164  0.1061  0.0315
 3878ntf    sn219277   2.565   5.580   4.422 -0.2060  0.0551 -0.0241
 3878ntf    nn319278   2.553   5.694   4.529  0.4814  0.4030 -0.3129
 3878ntf    sn219279   2.476   5.830   4.511  0.0700  0.1788 -0.2767
 3878ntf    cn119280   2.422   5.860   4.682 -0.0281 -0.1421 -0.2514
 3878ntf    fn419281   2.424   5.357   4.432  0.0622 -0.1642  0.5215
 3878ntf    fn419282   2.459   5.448   4.618  0.5356 -0.3203 -0.2100
 3878ntf    fn419283   2.314   5.533   4.478 -0.2183  0.0748 -0.0871
 3878ntf    on519284   2.687   5.503   4.431 -0.1288  0.1343 -0.3927
 3878ntf    on519285   2.520   5.621   4.292 -0.1475  0.7443  0.1714
 3878ntf    on519286   2.348   5.811   4.448 -0.1950  0.4028  0.1855
 3878ntf    on519287   2.566   5.937   4.472  0.7106 -0.0839  0.4394
 3878ntf    fn419288   2.356   5.975   4.690 -0.2767 -0.3105  0.1578
 3878ntf    fn419289   2.330   5.778   4.730 -0.2389 -0.2677 -0.8666
 3878ntf    fn419290   2.523   5.866   4.768 -0.2691 -0.0250  0.0279
 3879ntf    cn119291   2.415   3.372   5.499 -0.2337 -0.0748 -0.4424
 3879ntf    sn219292   2.523   3.381   5.354  0.4204  0.1586  0.0546
 3879ntf    nn319293   2.612   3.255   5.380  0.2474  0.0026 -0.1057
 3879ntf    sn219294   2.648   3.136   5.284  0.3890 -0.0052 -0.0424
 3879ntf    cn119295   2.542   3.007   5.357 -0.0821  0.1889 -0.3784
 3879ntf    fn419296   2.367   3.251   5.525  0.2262 -0.1633  0.0239
 3879ntf    fn419297   2.488   3.414   5.601 -0.5998  0.1419 -0.2655
 3879ntf    fn419298   2.319   3.463   5.490 -0.1035  0.0973 -0.1013
 3879ntf    on519299   2.420   3.366   5.254  0.3389  0.2827  0.1185
 3879ntf    on519300   2.596   3.505   5.368  0.2689  0.2963 -0.3489
 3879ntf    on519301   2.784   3.093   5.308  0.3213 -0.3947 -0.3428
 3879ntf    on519302   2.612   3.155   5.146 -0.4462  0.0730  0.1819
 3879ntf    fn419303   2.587   2.887   5.322  0.5393  0.1196  0.6188
 3879ntf    fn419304   2.528   3.005   5.488  0.8707  0.3941 -0.2619
 3879ntf    fn419305   2.417   3.023   5.316 -0.2942 -0.1183  0.1484
 3880ntf    cn119306   6.180   6.004   5.930  0.0514 -0.1041  0.0078
 3880ntf    sn219307   6.121   5.864   5.830 -0.0195  0.0211 -0.1256
 3880ntf    nn319308   6.001   5.843   5.929  0.1615 -0.2187  0.0475
 3880ntf    sn219309   5.848   5.835   5.892  0.0698  0.0739  0.3548
 3880ntf    cn119310   5.795   6.008   5.910  0.3349  0.1982 -0.0341
 3880ntf    fn419311   6.076   6.081   5.959  0.0582  0.1326 -0.5847
 3880ntf    fn419312   6.228   5.967   6.048 -0.1785 -0.3906  0.0115
 3880ntf    fn419313   6.275   6.077   5.873 -0.1360 -0.5743 -0.9278
 3880ntf    on519314   6.098   5.917   5.698 -0.0744  0.2537 -0.0237
 3880ntf    on519315   6.221   5.761   5.848  0.7398  0.8528  0.5299
 3880ntf    on519316   5.771   5.773   5.997  0.3709  0.6724  0.9369
 3880ntf    on519317   5.808   5.791   5.761  0.0065 -0.2668  0.4875
 3880ntf    fn419318   5.815   6.051   6.033 -0.4966  0.3558  0.0573
 3880ntf    fn419319   5.840   6.093   5.819  1.0100 -0.0030  0.1116
 3880ntf    fn419320   5.663   6.024   5.901  0.2755  0.0906  0.6212
 3881ntf    cn119321   4.102   5.976   6.569 -0.0749 -0.3451  0.0340
 3881ntf    sn219322   4.003   5.932   6.423 -0.1538 -0.0452 -0.0036
 3881ntf    nn319323   4.032   6.057   6.332  0.6848  0.0695  0.4079
 3881ntf    sn219324   3.937   6.181   6.312  0.6599 -0.0397 -0.1611
 3881ntf    cn119325   4.048   6.295   6.225  0.2688  0.2806 -0.2466
 3881ntf    fn419326   4.219   6.025   6.535 -0.2315  0.0023 -0.0069
 3881ntf    fn419327   4.047   6.069   6.645 -0.2678 -0.2809 -0.1819
 3881ntf    fn419328   4.130   5.873   6.647  0.2346 -0.1368  0.1995
 3881ntf    on519329   4.067   5.810   6.379 -0.3862 -0.1455 -0.0658
 3881ntf    on519330   3.868   5.916   6.470  0.0078 -0.1840  0.4166
 3881ntf    on519331   3.908   6.262   6.428 -0.3439 -0.5853 -0.0109
 3881ntf    on519332   3.828   6.155   6.221  0.3842  0.1937  0.0966
 3881ntf    fn419333   4.144   6.338   6.305  0.4840  0.3362 -0.5335
 3881ntf    fn419334   4.098   6.239   6.116  0.0695  0.2635 -0.3296
 3881ntf    fn419335   3.989   6.404   6.181 -0.5954 -0.2098 -0.3169
 3882ntf    cn119336   6.567   5.263   5.064 -0.2739 -0.2019 -0.1352
 3882ntf    sn219337   6.404   5.210   5.126 -0.2892 -0.0451 -0.0406
 3882ntf    nn319338   6.382   5.092   5.025  0.1191  0.3103 -0.5539
 3882ntf    sn219339   6.393   5.104   4.869  0.0596 -0.0206 -0.5846
 3882ntf    cn119340   6.248   5.021   4.798 -0.1482 -0.3058  0.1636
 3882ntf    fn419341   6.638   5.302   5.169  0.0648 -0.6798 -0.1807
 3882ntf    fn419342   6.646   5.171   5.011 -0.4923 -0.6364  0.2877
 3882ntf    fn419343   6.562   5.369   4.986  0.0988  0.0784  0.2153
 3882ntf    on519344   6.432   5.184   5.265 -0.7106  0.7871  0.2027
 3882ntf    on519345   6.318   5.322   5.096  0.2431  0.4631  0.3099
 3882ntf    on519346   6.511   5.036   4.821  0.2195 -0.0116 -0.2044
 3882ntf    on519347   6.390   5.239   4.821 -0.1665 -0.0441 -0.6362
 3882ntf    fn419348   6.141   5.095   4.820 -0.2378 -0.5894  0.7077
 3882ntf    fn419349   6.257   4.999   4.668 -0.1767 -0.0120  0.1104
 3882ntf    fn419350   6.214   4.904   4.851 -0.0488 -0.3886  0.0439
 3883ntf    cn119351   6.209   5.936   1.725 -0.1925  0.1003 -0.0142
 3883ntf    sn219352   6.047   6.014   1.697  0.0865  0.7454  0.1493
 3883ntf    nn319353   6.086   6.102   1.574 -0.0804 -0.0086 -0.4492
 3883ntf    sn219354   6.091   6.258   1.552 -0.1987  0.0308 -0.1950
 3883ntf    cn119355   6.269   6.291   1.567 -0.2550  0.2972 -0.1168
 3883ntf    fn419356   6.308   6.021   1.744  0.0610 -0.3455  0.7004
 3883ntf    fn419357   6.204   5.860   1.833 -0.1147 -0.0431 -0.1120
 3883ntf    fn419358   6.237   5.857   1.622 -0.5501  0.1577 -0.1574
 3883ntf    on519359   5.956   5.908   1.662  0.7264  0.2690 -0.0845
 3883ntf    on519360   6.019   6.088   1.818  0.0472  0.6977  0.1695
 3883ntf    on519361   6.050   6.347   1.657  0.0333  0.1791 -0.2305
 3883ntf    on519362   6.067   6.298   1.416 -0.2348  0.2330 -0.1287
 3883ntf    fn419363   6.333   6.253   1.457 -0.1180 -0.0163  0.0681
 3883ntf    fn419364   6.286   6.422   1.579  0.5398  0.1873  0.0166
 3883ntf    fn419365   6.325   6.235   1.673 -0.6259 -0.0762 -0.1173
 3884ntf    cn119366   5.482   6.431   4.761  0.0885  0.0657  0.5855
 3884ntf    sn219367   5.458   6.576   4.654 -0.0018 -0.1891  0.2578
 3884ntf    nn319368   5.470   6.690   4.760  0.0884  0.1303 -0.0960
 3884ntf    sn219369   5.457   6.845   4.737  0.2819  0.1515 -0.0654
 3884ntf    cn119370   5.628   6.906   4.749  0.5381 -0.5424 -0.1743
 3884ntf    fn419371   5.583   6.428   4.846  1.1026  0.4174 -0.5735
 3884ntf    fn419372   5.379   6.439   4.844 -0.6703 -0.2206 -0.3015
 3884ntf    fn419373   5.469   6.309   4.711  0.3623  0.0315  0.5967
 3884ntf    on519374   5.566   6.570   4.559 -0.5317  0.1686 -0.3738
 3884ntf    on519375   5.324   6.552   4.605  0.1615  0.2350 -0.4013
 3884ntf    on519376   5.388   6.902   4.850 -0.0191 -0.3448  0.0041
 3884ntf    on519377   5.406   6.889   4.609  0.8975  0.2370 -0.2895
 3884ntf    fn419378   5.710   6.850   4.661  0.2598 -0.0472 -0.7522
 3884ntf    fn419379   5.637   7.036   4.731  0.5447 -0.5305 -0.0843
 3884ntf    fn419380   5.682   6.873   4.865 -0.0909 -0.3696  0.1685
 3885ntf    cn119381   6.364   3.662   3.973  0.0736 -0.2973  0.0596
 3885ntf    sn219382   6.528   3.740   3.970 -0.0388 -0.0434  0.4139
 3885ntf    nn319383   6.577   3.686   3.831 -0.0720  0.2762  0.2786
 3885ntf    sn219384   6.686   3.581   3.792 -0.1826  0.2836 -0.0565
 3885ntf    cn119385   6.679   3.568   3.611 -0.3111 -0.0331 -0.0296
 3885ntf    fn419386   6.352   3.533   4.002 -0.2347 -0.2685  0.0687
 3885ntf    fn419387   6.286   3.733   4.054  0.4746  0.4690 -0.2277
 3885ntf    fn419388   6.297   3.681   3.861 -0.2150 -0.3758  0.2171
 3885ntf    on519389   6.515   3.883   3.980 -0.1274 -0.0157 -0.0688
 3885ntf    on519390   6.589   3.674   4.082  0.0776  0.2433  0.5201
 3885ntf    on519391   6.641   3.448   3.824  0.4561 -0.0533 -0.5131
 3885ntf    on519392   6.825   3.609   3.821 -0.1465 -0.0706  0.1224
 3885ntf    fn419393   6.639   3.679   3.551 -0.1945 -0.1503 -0.3260
 3885ntf    fn419394   6.801   3.534   3.571 -0.1736  0.1938  0.1959
 3885ntf    fn419395   6.610   3.467   3.559  0.4639 -0.2780 -0.6164
 3886ntf    cn119396   2.099   0.823   7.020 -0.0470  0.0643  0.0618
 3886ntf    sn219397   1.950   0.723   7.048  0.0630 -0.1402 -0.0845
 3886ntf    nn319398   1.929   0.666   6.903 -0.6543  0.2059 -0.1163
 3886ntf    sn219399   1.846   0.722   6.782 -0.4127  0.2922 -0.2405
 3886ntf    cn119400   1.921   0.620   6.650 -0.4062  0.2745 -0.2236
 3886ntf    fn419401   2.125   0.897   7.127 -0.7116 -0.1161  0.3466
 3886ntf    fn419402   2.208   0.758   6.983 -0.4784 -0.7465  0.2028
 3886ntf    fn419403   2.072   0.904   6.919  0.3872 -0.0416 -0.1431
 3886ntf    on519404   2.005   0.626   7.139  0.5806 -0.0067 -0.2482
 3886ntf    on519405   1.849   0.816   7.090  0.2437  0.1534 -0.2938
 3886ntf    on519406   1.901   0.847   6.736 -0.0555 -0.1475 -1.0518
 3886ntf    on519407   1.705   0.693   6.782 -0.3730  0.0480  0.9370
 3886ntf    fn419408   1.835   0.618   6.549 -0.3170  0.2415 -0.2981
 3886ntf    fn419409   2.037   0.667   6.608 -0.1588 -0.1552 -0.0282
 3886ntf    fn419410   1.947   0.494   6.682  0.4102  0.5663  0.2851
 3887ntf    cn119411   1.132   5.544   6.887 -0.1547 -0.4462  0.3681
 3887ntf    sn219412   1.036   5.391   6.910 -0.5039 -0.2651  0.1303
 3887ntf    nn319413   0.931   5.431   6.800 -0.4008  0.1046  0.1656
 3887ntf    sn219414   0.775   5.422   6.810 -0.3821 -0.2302  0.1669
 3887ntf    cn119415   0.750   5.583   6.890  0.4948  0.0255 -0.0664
 3887ntf    fn419416   1.214   5.547   6.783 -0.1167  0.0947  0.4114
 3887ntf    fn419417   1.051   5.647   6.870  0.6553  0.1212 -0.1262
 3887ntf    fn419418   1.218   5.564   6.985 -0.4890 -0.2517  0.6248
 3887ntf    on519419   1.123   5.284   6.870 -0.3091 -0.1474  0.2355
 3887ntf    on519420   0.997   5.403   7.048  0.9349  0.3386  0.5046
 3887ntf    on519421   0.718   5.323   6.898 -0.4129 -0.2477  0.1278
 3887ntf    on519422   0.704   5.444   6.686 -0.0816 -0.7365 -0.0964
 3887ntf    fn419423   0.749   5.686   6.806 -0.5723  0.2651  0.2280
 3887ntf    fn419424   0.627   5.584   6.938  0.4322  0.4489 -0.2244
 3887ntf    fn419425   0.836   5.607   6.988  0.5883  0.0018 -0.1430
 3888ntf    cn119426   6.217   4.722   6.229 -0.1635 -0.5840 -0.3311
 3888ntf    sn219427   6.061   4.708   6.136 -0.2108 -0.0488 -0.3376
 3888ntf    nn319428   6.111   4.620   6.017  0.2775  0.3980 -0.4685
 3888ntf    sn219429   6.019   4.510   5.952  0.2902  0.0434  0.1083
 3888ntf    cn119430   6.074   4.365   6.047  0.1574 -0.1297 -0.0765
 3888ntf    fn419431   6.197   4.807   6.329  0.5458 -0.3896 -0.3489
 3888ntf    fn419432   6.250   4.603   6.275 -0.0086 -0.3390  0.2051
 3888ntf    fn419433   6.314   4.769   6.152  0.3577 -0.6760  0.2621
 3888ntf    on519434   5.984   4.649   6.243  0.1204  0.2265  0.0564
 3888ntf    on519435   6.035   4.843   6.093  0.6988  0.0793 -0.5028
 3888ntf    on519436   6.054   4.480   5.815  0.1361  0.0207  0.0750
 3888ntf    on519437   5.877   4.532   5.961  0.2917  0.1560 -0.1107
 3888ntf    fn419438   6.089   4.394   6.176  0.0223  0.3206 -0.1593
 3888ntf    fn419439   5.996   4.260   6.031 -0.1814  0.1843 -0.5107
 3888ntf    fn419440   6.191   4.316   6.007  0.1372 -0.3007  0.0710
 3889ntf    cn119441   7.241   0.409   3.051  0.1868 -0.1131 -0.1992
 3889ntf    sn219442   7.278   0.537   2.928 -0.0501  0.0462 -0.1059
 3889ntf    nn319443   7.389   0.466   2.843  0.0110  0.0138  0.0005
 3889ntf    sn219444   7.528   0.525   2.802 -0.0565  0.2824  0.1569
 3889ntf    cn119445   7.620   0.453   2.942  0.0940  0.5352  0.1888
 3889ntf    fn419446   7.164   0.452   3.150  0.6906  0.4895 -0.0664
 3889ntf    fn419447   7.174   0.307   2.998  0.3355 -0.1314 -0.3528
 3889ntf    fn419448   7.354   0.366   3.103  0.1841 -0.2826 -0.3304
 3889ntf    on519449   7.156   0.558   2.854 -0.1232  0.2399  0.0690
 3889ntf    on519450   7.327   0.638   3.018 -0.2866 -0.0273  0.1054
 3889ntf    on519451   7.558   0.666   2.814  0.4511  0.2225 -0.3293
 3889ntf    on519452   7.576   0.455   2.685  0.5567  0.2546  0.4168
 3889ntf    fn419453   7.735   0.510   2.973  0.0861  0.4044  0.4538
 3889ntf    fn419454   7.550   0.448   3.054 -0.1747  0.4688  0.0200
 3889ntf    fn419455   7.652   0.329   2.911 -0.3731  0.6064 -0.6284
 3890ntf    cn119456   4.997   2.692   7.103 -0.0289 -0.0263 -0.0946
 3890ntf    sn219457   5.158   2.608   7.105  0.1383  0.2981  0.0464
 3890ntf    nn319458   5.177   2.598   7.261 -0.2369  0.9884  0.1416
 3890ntf    sn219459   5.312   2.624   7.336  0.0508  0.4508 -0.1786
 3890ntf    cn119460   5.357   2.459   7.399 -0.0975  0.4102 -0.1791
 3890ntf    fn419461   5.011   2.822   7.087 -0.0659 -0.0274 -0.1364
 3890ntf    fn419462   4.917   2.642   7.010  0.2293 -0.1127 -0.2721
 3890ntf    fn419463   4.931   2.676   7.217  0.2891 -0.6022  0.0113
 3890ntf    on519464   5.135   2.476   7.053  0.4298  0.0907  0.4388
 3890ntf    on519465   5.253   2.691   7.035  0.1956  0.3968  0.2399
 3890ntf    on519466   5.305   2.702   7.457  0.6872  0.6186 -0.2470
 3890ntf    on519467   5.429   2.647   7.255  0.1853  0.5401  0.0407
 3890ntf    fn419468   5.472   2.449   7.462  0.0500  0.4006 -0.4481
 3890ntf    fn419469   5.260   2.416   7.478  0.5333  0.0932  0.4220
 3890ntf    fn419470   5.370   2.373   7.300 -0.4756  0.6941 -0.4836
 3891ntf    cn119471   3.553   6.380   0.389  0.3129 -0.3418  0.0950
 3891ntf    sn219472   3.641   6.383   0.230  0.0256 -0.1274 -0.0601
 3891ntf    nn319473   3.779   6.320   0.270  0.2876  0.4746 -0.0004
 3891ntf    sn219474   3.923   6.345   0.212  0.5082 -0.3929  0.1504
 3891ntf    cn119475   4.003   6.406   0.364  0.2838  0.1845  0.0421
 3891ntf    fn419476   3.508   6.257   0.407  0.0657 -0.4035 -0.8972
 3891ntf    fn419477   3.625   6.412   0.496  0.3572 -0.6024  0.1431
 3891ntf    fn419478   3.447   6.458   0.406  0.9263  0.4011  0.6072
 3891ntf    on519479   3.568   6.293   0.144  0.3012 -0.3203 -0.0912
 3891ntf    on519480   3.638   6.525   0.204  0.3884 -0.1796 -0.4020
 3891ntf    on519481   3.920   6.448   0.111 -0.2321 -0.4171  0.1434
 3891ntf    on519482   3.989   6.222   0.176  0.7096 -0.4809  0.8052
 3891ntf    fn419483   3.941   6.516   0.403 -0.1026  0.1882 -0.5638
 3891ntf    fn419484   3.988   6.316   0.460  0.2001 -0.1929 -0.3216
 3891ntf    fn419485   4.130   6.436   0.345  0.3566  0.0382  0.2933
 3892ntf    cn119486   0.774   4.608   2.086  0.3386  0.1214  0.3516
 3892ntf    sn219487   0.762   4.437   2.026  0.0540  0.2295  0.0933
 3892ntf    nn319488   0.761   4.365   2.165 -0.1711  0.3804  0.1700
 3892ntf    sn219489   0.886   4.297   2.232 -0.1328  0.0436 -0.2431
 3892ntf    cn119490   0.887   4.143   2.136  0.0376 -0.1025 -0.0088
 3892ntf    fn419491   0.689   4.631   2.185  0.2746 -0.6179  0.4667
 3892ntf    fn419492   0.896   4.629   2.132  0.3269  0.0139  0.4316
 3892ntf    fn419493   0.741   4.701   1.997 -0.1505 -0.3177  0.0669
 3892ntf    on519494   0.631   4.434   1.966  0.1793  0.2666 -0.1843
 3892ntf    on519495   0.881   4.413   1.947 -0.1731 -0.3122 -0.0852
 3892ntf    on519496   0.853   4.249   2.364  0.2099  0.4538 -0.0077
 3892ntf    on519497   1.009   4.371   2.223 -0.0132 -0.0611  0.4616
 3892ntf    fn419498   0.981   4.056   2.171  0.3468  0.3360  0.2602
 3892ntf    fn419499   0.773   4.076   2.147  0.2077 -0.3340  0.3694
 3892ntf    fn419500   0.901   4.168   2.007 -0.2658  0.0248 -0.0172
 3893ntf    cn119501   5.115   3.557   2.187  0.0840 -0.3110  0.0125
 3893ntf    sn219502   5.270   3.606   2.269 -0.0298  0.2323 -0.0948
 3893ntf    nn319503   5.244   3.529   2.403  0.1445 -0.1677 -0.2911
 3893ntf    sn219504   5.331   3.444   2.502  0.1553  0.1465 -0.0316
 3893ntf    cn119505   5.342   3.547   2.652 -0.4015 -0.2870  0.3093
 3893ntf    fn419506   5.108   3.587   2.059  0.1720 -0.0885  0.0578
 3893ntf    fn419507   5.099   3.426   2.197 -0.4526 -0.2225  0.3609
 3893ntf    fn419508   5.010   3.614   2.245  0.0931 -0.2806 -0.0004
 3893ntf    on519509   5.373   3.551   2.184 -0.0532 -0.0822  0.0781
 3893ntf    on519510   5.267   3.750   2.286 -0.0922  0.2702 -0.4224
 3893ntf    on519511   5.467   3.418   2.460 -0.0110  0.0050 -0.4888
 3893ntf    on519512   5.260   3.328   2.549  0.4216  0.0626  0.1644
 3893ntf    fn419513   5.423   3.490   2.739 -0.3138 -0.2616  0.2453
 3893ntf    fn419514   5.390   3.667   2.623 -0.0167 -0.4993  0.0561
 3893ntf    fn419515   5.223   3.562   2.707 -0.5185 -0.7302  0.1829
 3894ntf    cn119516   6.479   2.749   1.246  0.0263 -0.3121 -0.2737
 3894ntf    sn219517   6.556   2.908   1.288 -0.1456 -0.3326  0.1206
 3894ntf    nn319518   6.444   3.008   1.239  0.2073  0.0560  0.0963
 3894ntf    sn219519   6.382   3.130   1.315  0.1485 -0.1979  0.4549
 3894ntf    cn119520   6.206   3.097   1.282  0.2763 -0.2792 -0.1530
 3894ntf    fn419521   6.470   2.745   1.114  0.1199  0.3124 -0.3009
 3894ntf    fn419522   6.553   2.644   1.279  0.4246  0.0463 -0.0182
 3894ntf    fn419523   6.360   2.741   1.304  0.0357 -0.4217 -0.2714
 3894ntf    on519524   6.577   2.899   1.430 -0.3795  0.0475  0.1829
 3894ntf    on519525   6.670   2.926   1.201 -0.4011 -0.0386 -0.1606
 3894ntf    on519526   6.413   3.252   1.246  0.1277 -0.0941  0.6290
 3894ntf    on519527   6.389   3.126   1.459 -0.5035 -0.3672  0.4880
 3894ntf    fn419528   6.177   3.081   1.154  0.6836  0.1754 -0.3075
 3894ntf    fn419529   6.157   2.995   1.351  0.3686  0.0446  0.4000
 3894ntf    fn419530   6.126   3.198   1.311  0.0811 -0.3706 -0.3645
 3895ntf    cn119531   5.505   4.315   4.168 -0.1564 -0.0117  0.0331
 3895ntf    sn219532   5.681   4.272   4.185 -0.1160  0.1413  0.0185
 3895ntf    nn319533   5.692   4.313   4.336  0.5742 -0.0068  0.0127
 3895ntf    sn219534   5.727   4.459   4.384  0.2149  0.1114 -0.0778
 3895ntf    cn119535   5.908   4.462   4.392  0.2071  0.4269 -0.0002
 3895ntf    fn419536   5.444   4.235   4.083  0.2134 -0.0348 -0.2128
 3895ntf    fn419537   5.430   4.301   4.276  0.0276 -0.0769  0.1528
 3895ntf    fn419538   5.495   4.440   4.124 -0.3644  0.0745  0.3198
 3895ntf    on519539   5.678   4.129   4.167  0.0069  0.2538 -0.9023
 3895ntf    on519540   5.749   4.350   4.085  0.4483  0.0545  0.3327
 3895ntf    on519541   5.693   4.480   4.522 -0.7029 -0.6473 -0.1730
 3895ntf    on519542   5.689   4.566   4.295 -0.0327  0.1961  0.1277
 3895ntf    fn419543   5.954   4.586   4.391  0.4892  0.3219 -0.5286
 3895ntf    fn419544   5.955   4.391   4.494  0.1695 -0.1190 -0.3621
 3895ntf    fn419545   5.957   4.412   4.280 -0.2785  0.2142 -0.1176
 3896ntf    cn119546   2.034   2.813   2.745  0.3617  0.3223 -0.0230
 3896ntf    sn219547   1.976   2.934   2.623 -0.3900 -0.0927 -0.0862
 3896ntf    nn319548   2.101   3.028   2.607 -0.1922 -0.2456  0.5245
 3896ntf    sn219549   2.193   3.084   2.721  0.0185  0.2455  0.1166
 3896ntf    cn119550   2.170   3.261   2.685 -0.0893  0.2413  0.1623
 3896ntf    fn419551   1.957   2.705   2.742  0.3984  0.2989 -0.1610
 3896ntf    fn419552   2.157   2.763   2.739  0.1726 -0.1448 -0.0908
 3896ntf    fn419553   2.018   2.857   2.868  0.1411 -0.4319  0.2286
 3896ntf    on519554   1.955   2.854   2.506 -0.2643  0.2962 -0.3782
 3896ntf    on519555   1.858   2.994   2.682 -0.1428  0.6425 -0.3188
 3896ntf    on519556   2.336   3.065   2.712  0.0354  0.0648  0.6929
 3896ntf    on519557   2.144   3.081   2.857  0.6902 -0.1492  0.3552
 3896ntf    fn419558   2.245   3.346   2.754 -0.1949  0.4902 -0.0303
 3896ntf    fn419559   2.191   3.284   2.556 -0.0646 -0.0186  0.1196
 3896ntf    fn419560   2.045   3.301   2.700 -0.3721 -0.4235 -0.3414
 3897ntf    cn119561   7.218   1.369   1.093  0.1520 -0.1497  0.0856
 3897ntf    sn219562   7.337   1.410   0.962  0.1753  0.0028  0.1546
 3897ntf    nn319563   7.426   1.517   1.035 -0.3818  0.0964  0.7041
 3897ntf    sn219564   7.418   1.674   1.046 -0.5354  0.1322  0.0853
 3897ntf    cn119565   7.534   1.732   0.918 -0.0550 -0.3278  0.3117
 3897ntf    fn419566   7.112   1.302   1.051  0.6352 -0.7557 -0.1913
 3897ntf    fn419567   7.273   1.293   1.187  0.5265 -0.2223 -0.1888
 3897ntf    fn419568   7.170   1.473   1.159  0.0837  0.0250 -0.2400
 3897ntf    on519569   7.403   1.283   0.943  0.1326  0.1457 -1.0216
 3897ntf    on519570   7.259   1.455   0.850  0.0931 -0.1020  0.1702
 3897ntf    on519571   7.473   1.729   1.167 -0.2900  0.3027 -0.1034
 3897ntf    on519572   7.289   1.720   0.998 -0.4249 -0.0122 -0.3592
 3897ntf    fn419573   7.521   1.863   0.911 -0.1985 -0.3603 -0.0167
 3897ntf    fn419574   7.661   1.704   0.945  0.1994 -0.6352 -1.1383
 3897ntf    fn419575   7.517   1.683   0.797  0.2678 -0.3805  0.2862
 3898ntf    cn119576   6.540   4.351   1.544 -0.5042 -0.1083 -0.0941
 3898ntf    sn219577   6.519   4.298   1.371  0.0065 -0.1861 -0.1347
 3898ntf    nn319578   6.460   4.425   1.300  0.5047 -0.0444 -0.2976
 3898ntf    sn219579   6.526   4.530   1.203  0.1889  0.3725 -0.0669
 3898ntf    cn119580   6.494   4.443   1.047 -0.2889  0.1327  0.1638
 3898ntf    fn419581   6.668   4.364   1.572 -0.6930  0.7874  0.3645
 3898ntf    fn419582   6.480   4.467   1.566  0.3928  0.3744 -0.1449
 3898ntf    fn419583   6.503   4.269   1.642 -0.3328 -0.1740 -0.0841
 3898ntf    on519584   6.651   4.260   1.330  0.1451  0.3899 -0.2406
 3898ntf    on519585   6.417   4.198   1.390  0.2812 -0.3739  0.3682
 3898ntf    on519586   6.670   4.537   1.205  0.2010  0.0818  0.2427
 3898ntf    on519587   6.467   4.661   1.198 -0.4904  0.0653 -0.2162
 3898ntf    fn419588   6.367   4.409   1.029 -0.2357  0.0413 -0.0479
 3898ntf    fn419589   6.520   4.513   0.938  0.5387 -0.2307  0.1250
 3898ntf    fn419590   6.562   4.331   1.029 -0.1599  0.1917  0.2938
 3899ntf    cn119591   0.060   1.239   4.258  0.7481 -0.0181  0.3105
 3899ntf    sn219592   0.052   1.118   4.123  0.2652  0.1312  0.2068
 3899ntf    nn319593   0.164   1.019   4.171  0.2154 -0.1007 -0.1542
 3899ntf    sn219594   0.290   0.976   4.088  0.3431 -0.1801  0.0811
 3899ntf    cn119595   0.338   0.834   4.191 -0.0475 -0.2054  0.2306
 3899ntf    fn419596   0.178   1.298   4.271  0.7964  0.1953 -0.9966
 3899ntf    fn419597  -0.033   1.332   4.250 -0.0145 -0.7986  0.0132
 3899ntf    fn419598   0.037   1.176   4.373  0.1097  0.1634  0.2810
 3899ntf    on519599  -0.082   1.066   4.135  0.4097 -0.2324  0.2723
 3899ntf    on519600   0.087   1.189   4.002  0.1024 -0.1769 -0.0232
 3899ntf    on519601   0.393   1.076   4.102  0.1662  0.0340 -0.1409
 3899ntf    on519602   0.260   0.923   3.957 -0.3872  1.1229 -0.2926
 3899ntf    fn419603   0.239   0.751   4.217 -0.0173 -0.4436 -0.3948
 3899ntf    fn419604   0.426   0.757   4.130 -0.0731 -0.7244  0.8419
 3899ntf    fn419605   0.392   0.874   4.305  0.4647  0.2605 -0.1668
 3900ntf    cn119606   3.478   0.566   1.678 -0.1570  0.2608 -0.1337
 3900ntf    sn219607   3.314   0.632   1.721 -0.2098 -0.0118  0.0863
 3900ntf    nn319608   3.248   0.598   1.583  0.6652 -0.2879 -0.2739
 3900ntf    sn219609   3.191   0.687   1.468 -0.0800  0.0475  0.3426
 3900ntf    cn119610   3.019   0.710   1.521 -0.2891  0.0590 -0.3237
 3900ntf    fn419611   3.476   0.438   1.646 -0.1355  0.1931  0.1343
 3900ntf    fn419612   3.539   0.626   1.577  0.2323  0.1351  0.0228
 3900ntf    fn419613   3.568   0.579   1.775  0.0984  0.4706 -0.3976
 3900ntf    on519614   3.268   0.545   1.827  0.0149 -0.3379 -0.0809
 3900ntf    on519615   3.333   0.769   1.764  0.6709 -0.1779  0.2606
 3900ntf    on519616   3.181   0.624   1.338  0.0391  0.1711  0.2727
 3900ntf    on519617   3.243   0.821   1.459 -0.1478  0.0315 -0.4200
 3900ntf    fn419618   2.936   0.763   1.432 -0.5307 -0.2949 -0.3078
 3900ntf    fn419619   2.950   0.607   1.568  0.0380 -0.2185 -0.4546
 3900ntf    fn419620   3.026   0.804   1.614  0.2544 -0.3078  0.0072
 3901ntf    cn119621   0.729   1.513   6.470 -0.0213  0.0560  0.2326
 3901ntf    sn219622   0.764   1.535   6.647 -0.1510  0.1150  0.2504
 3901ntf    nn319623   0.627   1.493   6.712 -0.2528 -0.4272 -0.3120
 3901ntf    sn219624   0.583   1.531   6.857  0.4645 -0.1182 -0.1728
 3901ntf    cn119625   0.442   1.639   6.817 -0.2905 -0.8821  0.3984
 3901ntf    fn419626   0.615   1.563   6.424 -0.0305 -0.4039 -0.2417
 3901ntf    fn419627   0.829   1.555   6.394 -0.2994  0.1129 -0.1023
 3901ntf    fn419628   0.719   1.384   6.445  0.8025  0.1476 -0.5891
 3901ntf    on519629   0.871   1.441   6.664 -0.1574  0.0403 -0.1230
 3901ntf    on519630   0.802   1.674   6.659  0.0845  0.0386  0.4009
 3901ntf    on519631   0.671   1.617   6.934  0.3276  0.5116 -0.7112
 3901ntf    on519632   0.528   1.416   6.925  0.1656 -0.0437 -0.2906
 3901ntf    fn419633   0.392   1.709   6.917 -0.2576 -0.2283 -0.0398
 3901ntf    fn419634   0.475   1.722   6.720  0.3003 -0.7294  0.7249
 3901ntf    fn419635   0.338   1.569   6.776 -0.2179 -0.3103 -0.8031
 3902ntf    cn119636   5.509   0.415   1.758  0.0662  0.2054 -0.2013
 3902ntf    sn219637   5.488   0.524   1.613  0.1538  0.2099 -0.2109
 3902ntf    nn319638   5.625   0.499   1.541  0.0199  0.4628 -0.5538
 3902ntf    sn219639   5.766   0.563   1.560  0.1889 -0.0086 -0.1929
 3902ntf    cn119640   5.778   0.628   1.390  0.4762  0.2415 -0.0801
 3902ntf    fn419641   5.494   0.286   1.736 -0.3168  0.2269 -0.0739
 3902ntf    fn419642   5.629   0.418   1.813  0.0476 -0.7063 -0.1092
 3902ntf    fn419643   5.420   0.457   1.846  0.1465  0.4666 -0.2411
 3902ntf    on519644   5.384   0.451   1.544 -0.3821  0.8230 -0.0584
 3902ntf    on519645   5.449   0.649   1.673 -0.3787 -0.1677  0.2430
 3902ntf    on519646   5.877   0.471   1.552  0.2206  0.0295 -0.1893
 3902ntf    on519647   5.779   0.673   1.653  0.3078 -0.1783 -0.0076
 3902ntf    fn419648   5.683   0.716   1.363 -0.4611 -0.7744 -0.1700
 3902ntf    fn419649   5.892   0.692   1.371  0.6835  0.0008  0.3371
 3902ntf    fn419650   5.765   0.533   1.299  0.8443  0.2430 -0.1343
 3903ntf    cn119651   0.042   5.665   0.285  0.0599 -0.4608 -0.1250
 3903ntf    sn219652   0.089   5.512   0.200 -0.1534 -0.4966 -0.1816
 3903ntf    nn319653   0.207   5.469   0.295  0.0988 -0.0343 -0.2840
 3903ntf    sn219654   0.343   5.406   0.249 -0.0310 -0.6906  0.2230
 3903ntf    cn119655   0.364   5.269   0.366  0.0991 -0.8123  0.0572
 3903ntf    fn419656  -0.016   5.663   0.404  0.5508  0.3371  0.1366
 3903ntf    fn419657   0.147   5.740   0.312 -0.2230 -0.1953  0.2508
 3903ntf    fn419658  -0.030   5.740   0.202  0.5859  0.1701 -0.0118
 3903ntf    on519659  -0.035   5.439   0.206 -0.7998  0.6313  0.4345
 3903ntf    on519660   0.126   5.555   0.067 -0.0678 -0.1041 -0.0296
 3903ntf    on519661   0.452   5.496   0.277  0.0373 -0.6913 -0.0364
 3903ntf    on519662   0.341   5.340   0.121 -0.3966 -0.1038 -0.0758
 3903ntf    fn419663   0.279   5.168   0.357 -0.4120 -0.3378 -0.5237
 3903ntf    fn419664   0.488   5.223   0.363  0.2420 -0.4286  0.0537
 3903ntf    fn419665   0.356   5.308   0.492  0.8847 -0.0665 -0.1178
 3904ntf    cn119666   4.875   2.978   1.533 -0.1846 -0.0528 -0.0455
 3904ntf    sn219667   4.717   3.066   1.509 -0.1482  0.0600  0.1284
 3904ntf    nn319668   4.764   3.216   1.507 -0.7051  0.2415  0.5639
 3904ntf    sn219669   4.792   3.310   1.629  0.1288  0.0389  0.5303
 3904ntf    cn119670   4.630   3.389   1.651  0.2865  0.4720  0.1438
 3904ntf    fn419671   4.943   3.017   1.639 -0.0039  0.5540 -0.3814
 3904ntf    fn419672   4.861   2.847   1.546 -0.0058 -0.0265  0.4395
 3904ntf    fn419673   4.952   2.991   1.427  0.0546  0.0529  0.1417
 3904ntf    on519674   4.670   3.028   1.378  0.1814  0.5316 -0.1305
 3904ntf    on519675   4.639   3.029   1.624  0.0424 -0.6616  0.0304
 3904ntf    on519676   4.877   3.423   1.597 -0.0129 -0.0754 -0.2676
 3904ntf    on519677   4.820   3.233   1.748 -0.9362 -0.1791  0.6479
 3904ntf    fn419678   4.599   3.470   1.551 -0.2627 -0.3701 -0.3713
 3904ntf    fn419679   4.531   3.302   1.650  0.1161  0.6656 -0.0344
 3904ntf    fn419680   4.611   3.460   1.761  0.3227  0.2935  0.2640
 3905ntf    cn119681   3.025   2.969   6.445 -0.0946 -0.3365  0.0683
 3905ntf    sn219682   3.131   2.920   6.306 -0.1116 -0.1894  0.0039
 3905ntf    nn319683   3.266   2.957   6.376  0.0966 -0.2812 -0.3493
 3905ntf    sn219684   3.363   2.868   6.461  0.0693  0.0077 -0.0164
 3905ntf    cn119685   3.393   2.973   6.607  0.1728 -0.2419  0.1427
 3905ntf    fn419686   2.899   2.934   6.421 -0.0483 -0.2094 -0.3641
 3905ntf    fn419687   3.066   2.923   6.563  0.0833 -0.3225  0.0125
 3905ntf    fn419688   3.020   3.100   6.458 -0.0542 -0.3075 -0.2115
 3905ntf    on519689   3.101   2.779   6.299 -0.1711 -0.1953  0.3752
 3905ntf    on519690   3.095   3.004   6.194  0.0695 -0.4675 -0.2658
 3905ntf    on519691   3.484   2.865   6.383  0.1872 -0.6640  0.1832
 3905ntf    on519692   3.306   2.746   6.511 -0.1953  0.3466  0.5202
 3905ntf    fn419693   3.494   2.929   6.680 -0.1225  0.2205  0.8430
 3905ntf    fn419694   3.419   3.099   6.575  0.9478 -0.4171  0.0633
 3905ntf    fn419695   3.289   2.988   6.688 -0.1576 -0.1515 -0.2932
 3906ntf    cn119696   0.323   0.104   1.546  0.3409  0.0352 -0.0042
 3906ntf    sn219697   0.181   0.148   1.441  0.3648  0.1502  0.0115
 3906ntf    nn319698   0.242   0.263   1.353  0.3838  0.0044 -0.1657
 3906ntf    sn219699   0.301   0.254   1.208  0.1437 -0.2670 -0.2490
 3906ntf    cn119700   0.177   0.353   1.119 -0.2071 -0.5535 -0.0763
 3906ntf    fn419701   0.431   0.083   1.472  0.6916  0.1731  0.4666
 3906ntf    fn419702   0.351   0.201   1.632  0.4092 -0.0414  0.0593
 3906ntf    fn419703   0.305  -0.007   1.616  0.1775  0.0011 -0.0994
 3906ntf    on519704   0.147   0.023   1.378 -0.3743 -0.0709  0.8276
 3906ntf    on519705   0.087   0.207   1.533  0.0751  0.0121 -0.1926
 3906ntf    on519706   0.290   0.128   1.138 -0.3425 -0.7976  0.7660
 3906ntf    on519707   0.423   0.330   1.193  0.0160  0.1158  0.6248
 3906ntf    fn419708   0.058   0.323   1.171 -0.4544  0.3571 -0.0929
 3906ntf    fn419709   0.191   0.484   1.125 -0.0325 -0.5759 -0.0027
 3906ntf    fn419710   0.174   0.334   0.989 -0.1884 -0.0396 -0.1542
 3907ntf    cn119711   6.390   4.174   0.226 -0.1532 -0.1680  0.0238
 3907ntf    sn219712   6.421   4.194   0.403  0.1431  0.3987 -0.0903
 3907ntf    nn319713   6.280   4.252   0.442  0.0517 -0.2923  0.6230
 3907ntf    sn219714   6.239   4.380   0.524 -0.4975  0.0118 -0.1185
 3907ntf    cn119715   6.209   4.298   0.683  0.0036 -0.0088 -0.0309
 3907ntf    fn419716   6.347   4.287   0.171  0.2976  0.0278  0.0748
 3907ntf    fn419717   6.495   4.130   0.158  0.2772  0.2954  0.3825
 3907ntf    fn419718   6.292   4.087   0.204  0.0542 -0.4015  0.0257
 3907ntf    on519719   6.431   4.055   0.438 -0.7566  0.5074  0.6415
 3907ntf    on519720   6.537   4.277   0.424  0.2728  0.1552  0.1709
 3907ntf    on519721   6.116   4.435   0.474 -0.6347 -0.1606  0.0280
 3907ntf    on519722   6.345   4.467   0.567 -0.4161  0.0391 -0.3701
 3907ntf    fn419723   6.118   4.202   0.681 -0.1454  0.1262  0.1903
 3907ntf    fn419724   6.318   4.236   0.724 -0.3781 -0.4899  0.2808
 3907ntf    fn419725   6.172   4.382   0.778  0.1164  0.2148 -0.1853
 3908ntf    cn119726   6.115   0.326   5.174 -0.2669  0.3683  0.4232
 3908ntf    sn219727   5.943   0.385   5.183 -0.3579  0.1324  0.2450
 3908ntf    nn319728   5.880   0.291   5.291 -0.7270 -0.1318 -0.2024
 3908ntf    sn219729   5.869   0.321   5.445  0.2696  0.2210 -0.1971
 3908ntf    cn119730   5.720   0.424   5.446  0.1853  0.0979  0.0587
 3908ntf    fn419731   6.196   0.406   5.108 -0.5239  0.4339  0.1855
 3908ntf    fn419732   6.157   0.300   5.297 -0.2514  0.4711  0.4390
 3908ntf    fn419733   6.121   0.211   5.109 -0.5785  0.2729  0.5581
 3908ntf    on519734   5.971   0.524   5.213 -0.9937  0.2908  0.1159
 3908ntf    on519735   5.894   0.357   5.051  0.1005 -0.3952  0.1829
 3908ntf    on519736   5.976   0.404   5.494  0.3870 -0.2791  0.4059
 3908ntf    on519737   5.832   0.211   5.530  0.2754  0.0966 -0.3557
 3908ntf    fn419738   5.684   0.467   5.566  0.3100 -0.4152  0.2811
 3908ntf    fn419739   5.732   0.523   5.359  0.2883 -0.5179 -0.6387
 3908ntf    fn419740   5.615   0.362   5.395  0.0335  0.6149 -0.2684
 3909ntf    cn119741   5.817   2.010   5.560  0.1102  0.2005 -0.0068
 3909ntf    sn219742   5.670   2.057   5.656  0.0120  0.1316 -0.1236
 3909ntf    nn319743   5.589   1.923   5.641 -0.7669  0.5874 -0.0745
 3909ntf    sn219744   5.455   1.889   5.567 -0.4253 -0.2999 -0.2972
 3909ntf    cn119745   5.362   1.803   5.697 -0.0442  0.0429  0.2083
 3909ntf    fn419746   5.904   2.110   5.565 -0.1250  0.3714  0.9305
 3909ntf    fn419747   5.872   1.899   5.604  0.3747  0.1337 -0.5060
 3909ntf    fn419748   5.794   1.991   5.431  0.4738  0.1980 -0.0723
 3909ntf    on519749   5.725   2.075   5.788  0.3404 -0.5338 -0.1675
 3909ntf    on519750   5.616   2.173   5.590 -0.9630 -0.4063 -0.2893
 3909ntf    on519751   5.472   1.796   5.458 -0.6486 -0.0406 -0.5554
 3909ntf    on519752   5.375   2.007   5.547 -0.8312 -0.5773 -0.3274
 3909ntf    fn419753   5.421   1.693   5.740 -0.4687 -0.1131  0.4042
 3909ntf    fn419754   5.358   1.864   5.814  0.0471 -0.2349  0.3566
 3909ntf    fn419755   5.238   1.766   5.667  0.1901 -0.5681 -0.0161
 3910ntf    cn119756   2.361   6.848   5.229 -0.0915 -0.3885 -0.4076
 3910ntf    sn219757   2.537   6.813   5.200  0.0023  0.1534 -0.4921
 3910ntf    nn319758   2.604   6.942   5.259  0.1543 -0.1768  0.0643
 3910ntf    sn219759   2.607   7.088   5.201 -0.1315 -0.0968  0.2509
 3910ntf    cn119760   2.764   7.090   5.111 -0.4957  0.3107 -0.3827
 3910ntf    fn419761   2.326   6.963   5.175 -0.7208 -0.2199  0.3331
 3910ntf    fn419762   2.272   6.759   5.187 -0.3228 -0.2393 -0.2329
 3910ntf    fn419763   2.346   6.861   5.360  0.1734 -0.1476 -0.4022
 3910ntf    on519764   2.574   6.704   5.287 -0.1389  0.4825 -0.0164
 3910ntf    on519765   2.557   6.783   5.060 -0.3630  0.2160 -0.5616
 3910ntf    on519766   2.627   7.188   5.303 -0.3409 -0.1464  0.3421
 3910ntf    on519767   2.504   7.112   5.103 -0.1518 -0.6369  0.1398
 3910ntf    fn419768   2.786   6.979   5.043 -0.1698 -0.0036  0.2264
 3910ntf    fn419769   2.789   7.189   5.026  0.6164  0.2230 -0.1748
 3910ntf    fn419770   2.864   7.101   5.197 -0.1014  0.1023 -0.8028
 3911ntf    cn119771   7.243   1.668   5.576 -0.1289 -0.0196 -0.1049
 3911ntf    sn219772   7.065   1.644   5.544 -0.2206  0.1986  0.2336
 3911ntf    nn319773   7.001   1.776   5.600 -0.4571 -0.0208  0.4831
 3911ntf    sn219774   6.855   1.827   5.628 -0.4962  0.2680 -0.2202
 3911ntf    cn119775   6.870   1.982   5.534 -0.2237  0.0953 -0.4645
 3911ntf    fn419776   7.282   1.666   5.702 -0.3395 -0.1797 -0.0405
 3911ntf    fn419777   7.316   1.577   5.514  0.0557  0.0002  0.0833
 3911ntf    fn419778   7.288   1.782   5.526  0.1102 -0.1308 -0.1438
 3911ntf    on519779   7.065   1.640   5.400 -0.1181 -0.2575  0.2460
 3911ntf    on519780   7.039   1.525   5.621 -0.3544 -0.2065 -0.4338
 3911ntf    on519781   6.840   1.871   5.764  0.2439 -0.5850  0.1509
 3911ntf    on519782   6.745   1.766   5.558 -0.5934  0.4266 -0.2048
 3911ntf    fn419783   6.753   2.043   5.530 -0.3469 -0.0872  0.2940
 3911ntf    fn419784   6.953   2.077   5.573 -0.3665  0.3035 -0.6617
 3911ntf    fn419785   6.900   1.958   5.407 -0.4806 -0.1562 -0.4796
 3912ntf    cn119786   7.080   0.285   6.023  0.4323  0.0660 -0.2493
 3912ntf    sn219787   7.145   0.425   6.120 -0.0720  0.0873  0.0596
 3912ntf    nn319788   7.123   0.366   6.265  0.3995  0.2030  0.1807
 3912ntf    sn219789   6.998   0.377   6.359  0.3768 -0.0738  0.1824
 3912ntf    cn119790   7.065   0.509   6.465  0.0614  0.0053  0.2856
 3912ntf    fn419791   7.068   0.318   5.895  0.0323 -0.0738 -0.2495
 3912ntf    fn419792   7.152   0.174   6.016 -0.3850 -0.4690 -0.2927
 3912ntf    fn419793   6.962   0.234   6.055  0.8362 -1.0554 -0.5007
 3912ntf    on519794   7.283   0.420   6.078 -0.2885 -1.1855 -0.5411
 3912ntf    on519795   7.070   0.543   6.088 -0.5260 -0.1689  0.1668
 3912ntf    on519796   6.993   0.264   6.449  0.4166 -0.2721 -0.0639
 3912ntf    on519797   6.873   0.428   6.308 -0.0932 -0.3075  1.0805
 3912ntf    fn419798   7.186   0.478   6.508  0.2072 -0.4551 -0.4382
 3912ntf    fn419799   7.082   0.622   6.398  0.3231  0.1274  0.5558
 3912ntf    fn419800   6.992   0.541   6.570 -0.6061  0.3331 -0.2742
 3913ntf    cn119801   1.885   5.387   2.631 -0.2488  0.3064  0.1912
 3913ntf    sn219802   2.054   5.325   2.657 -0.4479 -0.4061 -0.1710
 3913ntf    nn319803   2.030   5.171   2.676  0.0039 -0.4132  0.4005
 3913ntf    sn219804   2.129   5.052   2.700  0.1401 -0.3637  0.0926
 3913ntf    cn119805   2.091   5.011   2.873  0.0264 -0.1191  0.1271
 3913ntf    fn419806   1.825   5.327   2.530  0.0055 -0.1511  0.3053
 3913ntf    fn419807   1.803   5.354   2.729  0.2658 -0.8263  0.2618
 3913ntf    fn419808   1.879   5.518   2.619 -0.0812  0.3282  0.3356
 3913ntf    on519809   2.116   5.369   2.534 -0.6687 -0.1459 -0.1905
 3913ntf    on519810   2.098   5.393   2.777 -0.2638 -0.1115 -0.4040
 3913ntf    on519811   2.271   5.078   2.696  0.0515  0.1980  0.4262
 3913ntf    on519812   2.096   4.936   2.622 -0.5643 -0.0636 -0.0645
 3913ntf    fn419813   2.129   5.101   2.962 -0.5033  0.2718 -0.0367
 3913ntf    fn419814   1.959   5.018   2.878  0.0389  0.5186 -0.3477
 3913ntf    fn419815   2.126   4.889   2.913 -1.3567 -0.5420  0.0961
 3914ntf    cn119816   3.705   0.312   5.829  0.1782  0.2728  0.0701
 3914ntf    sn219817   3.556   0.416   5.835  0.1385  0.2110  0.1538
 3914ntf    nn319818   3.470   0.346   5.724  0.3917 -1.0681  0.7520
 3914ntf    sn219819   3.493   0.324   5.570 -0.0239  0.2388  0.4908
 3914ntf    cn119820   3.390   0.458   5.504 -0.0381 -0.0250 -0.0292
 3914ntf    fn419821   3.743   0.276   5.950  0.0527 -0.2643 -0.0498
 3914ntf    fn419822   3.675   0.200   5.766 -0.1023  0.1919  0.3430
 3914ntf    fn419823   3.803   0.371   5.764 -0.2408  0.6821 -0.2018
 3914ntf    on519824   3.497   0.391   5.965 -0.6953  0.2276 -0.2127
 3914ntf    on519825   3.606   0.548   5.807 -0.4675  0.3227 -0.4315
 3914ntf    on519826   3.440   0.201   5.517  0.0739  0.3735  0.0786
 3914ntf    on519827   3.623   0.363   5.522  0.0845 -0.0146  0.5770
 3914ntf    fn419828   3.261   0.428   5.511 -0.0876  0.2190  0.1347
 3914ntf    fn419829   3.400   0.567   5.579 -0.0158 -0.0010 -0.0677
 3914ntf    fn419830   3.414   0.486   5.377 -0.2011  0.7103  0.0948
 3915ntf    cn119831   0.837   6.489   1.033 -0.2537  0.2915 -0.2747
 3915ntf    sn219832   0.693   6.422   0.945 -0.0186 -0.0665 -0.3862
 3915ntf    nn319833   0.693   6.272   0.991  0.0598  0.0388 -0.0364
 3915ntf    sn219834   0.783   6.157   0.932  0.2294  0.3495 -0.3891
 3915ntf    cn119835   0.879   6.109   1.079 -0.2530  0.3631 -0.0692
 3915ntf    fn419836   0.847   6.621   1.041 -0.6330  0.3257 -0.3653
 3915ntf    fn419837   0.848   6.448   1.158 -0.1164 -0.2101 -0.4502
 3915ntf    fn419838   0.947   6.444   0.976 -0.0598  0.1024  0.2390
 3915ntf    on519839   0.580   6.489   1.003  0.1492  0.2029 -0.3688
 3915ntf    on519840   0.717   6.445   0.804  0.1280  0.3583 -0.2935
 3915ntf    on519841   0.890   6.179   0.838  0.3357  0.2820 -0.2847
 3915ntf    on519842   0.703   6.040   0.909  0.5687  0.1087 -0.3511
 3915ntf    fn419843   0.942   6.208   1.140  0.4442 -0.2734  0.2564
 3915ntf    fn419844   0.801   6.055   1.171 -0.1121 -0.3249 -0.3516
 3915ntf    fn419845   0.971   6.018   1.051 -0.1808  0.5180 -0.3345
 3916ntf    cn119846   6.878   1.799   2.847 -0.0166  0.0613  0.4394
 3916ntf    sn219847   6.879   1.618   2.827  0.4799  0.1241 -0.1078
 3916ntf    nn319848   6.968   1.601   2.698  0.3529 -0.0510 -0.1714
 3916ntf    sn219849   7.049   1.471   2.664  0.0470 -0.2327 -0.2102
 3916ntf    cn119850   7.003   1.449   2.489 -0.2227  0.0213 -0.1729
 3916ntf    fn419851   6.997   1.850   2.874  0.1089 -0.1017  0.1974
 3916ntf    fn419852   6.834   1.855   2.736  0.4588  0.1531  0.2965
 3916ntf    fn419853   6.796   1.835   2.945  0.0000  0.0220  0.4683
 3916ntf    on519854   6.935   1.572   2.952 -0.4545  0.3398  0.3964
 3916ntf    on519855   6.742   1.581   2.803  0.4807  0.3140 -0.4110
 3916ntf    on519856   7.007   1.348   2.729  0.2926 -0.1187  0.1658
 3916ntf    on519857   7.189   1.503   2.653  0.0806 -0.1340  0.4539
 3916ntf    fn419858   6.895   1.373   2.475 -0.1261 -0.2244  0.3825
 3916ntf    fn419859   6.992   1.558   2.415  0.5625  0.1502 -0.1099
 3916ntf    fn419860   7.091   1.379   2.419  0.0926  0.0329  0.2035
 3917ntf    cn119861   2.174   3.468   1.640 -0.0611  0.5265 -0.0880
 3917ntf    sn219862   2.075   3.397   1.775 -0.0344  0.2470 -0.2162
 3917ntf    nn319863   2.166   3.440   1.896  0.0635  0.5740 -0.4050
 3917ntf    sn219864   2.155   3.556   2.000  0.0991  0.1628  0.0606
 3917ntf    cn119865   2.085   3.462   2.139  0.2981  0.0750  0.1024
 3917ntf    fn419866   2.294   3.412   1.635 -0.4723 -0.3511 -0.3083
 3917ntf    fn419867   2.123   3.468   1.518 -0.2333 -0.1879 -0.0191
 3917ntf    fn419868   2.203   3.596   1.661 -0.0154  0.3916  0.6983
 3917ntf    on519869   1.948   3.463   1.755 -0.0144  0.2118 -0.4602
 3917ntf    on519870   2.076   3.254   1.757 -0.2361  0.1790  0.2907
 3917ntf    on519871   2.058   3.655   1.961 -0.2413 -0.0089  0.4690
 3917ntf    on519872   2.282   3.607   2.046  0.0062  0.1382  0.3469
 3917ntf    fn419873   1.972   3.401   2.104  0.1243  0.3694  0.1441
 3917ntf    fn419874   2.158   3.366   2.192  0.5472  0.3006  0.1664
 3917ntf    fn419875   2.044   3.540   2.237  0.0399 -0.6736  0.6030
 3918ntf    cn119876   6.727   0.313   3.991  0.4112  0.0105 -0.0369
 3918ntf    sn219877   6.548   0.327   3.962  0.3677  0.0334  0.2428
 3918ntf    nn319878   6.483   0.259   4.088  0.0202 -0.1167 -0.0178
 3918ntf    sn219879   6.458   0.321   4.230  0.1148  0.1181 -0.1034
 3918ntf    cn119880   6.289   0.387   4.222  0.2361  0.4300 -0.1016
 3918ntf    fn419881   6.799   0.366   3.893  0.6823 -0.1229  0.0883
 3918ntf    fn419882   6.772   0.366   4.103 -0.2872  0.2201  0.1468
 3918ntf    fn419883   6.766   0.186   3.987  0.1369 -0.0870  0.2995
 3918ntf    on519884   6.525   0.469   3.959  0.3316  0.0193 -0.1082
 3918ntf    on519885   6.514   0.253   3.843  0.2506  0.0021  0.2958
 3918ntf    on519886   6.532   0.441   4.261  0.5211 -0.0853 -0.2760
 3918ntf    on519887   6.451   0.208   4.320  0.3056  0.0535 -0.1697
 3918ntf    fn419888   6.199   0.293   4.243  0.2974  0.3614 -0.1476
 3918ntf    fn419889   6.278   0.483   4.312  0.4637 -0.1985  0.6061
 3918ntf    fn419890   6.258   0.424   4.098 -0.4459 -0.4154 -0.1915
 3919ntf    cn119891   6.179   4.518   1.743  0.0308 -0.6886  0.3956
 3919ntf    sn219892   6.171   4.640   1.877  0.1569 -0.0591 -0.1635
 3919ntf    nn319893   6.258   4.755   1.815  0.1003  0.1674  0.1714
 3919ntf    sn219894   6.247   4.912   1.821 -0.2931  0.1547 -0.1820
 3919ntf    cn119895   6.407   4.952   1.895 -0.3202  0.0388 -0.0599
 3919ntf    fn419896   6.289   4.447   1.762  0.7847  0.2566 -0.3254
 3919ntf    fn419897   6.083   4.427   1.748 -0.2124 -0.4313  0.4178
 3919ntf    fn419898   6.187   4.575   1.624 -0.3027 -0.3373  0.5423
 3919ntf    on519899   6.031   4.670   1.892  0.1594  0.0293 -0.3080
 3919ntf    on519900   6.244   4.580   1.986 -0.0258  0.1688  0.0868
 3919ntf    on519901   6.145   4.963   1.909 -0.1432 -0.2407  0.2251
 3919ntf    on519902   6.263   4.971   1.690 -0.0872 -0.2904 -0.3602
 3919ntf    fn419903   6.447   4.893   2.006  0.2923 -0.1152 -0.3588
 3919ntf    fn419904   6.499   4.929   1.803 -0.5353  0.5623 -0.4069
 3919ntf    fn419905   6.404   5.082   1.921  0.1580 -0.0105  0.2564
 3920ntf    cn119906   3.791   6.866   0.815  0.3377 -0.1975  0.2339
 3920ntf    sn219907   3.893   7.011   0.774  0.2332 -0.1699  0.0697
 3920ntf    nn319908   3.830   7.123   0.864 -0.3839 -0.1639 -0.3587
 3920ntf    sn219909   3.714   7.226   0.842 -0.3044  0.0161  0.0531
 3920ntf    cn119910   3.804   7.380   0.806 -0.1182 -0.0707  0.1439
 3920ntf    fn419911   3.762   6.867   0.944  0.3920 -0.7850  0.2531
 3920ntf    fn419912   3.680   6.876   0.742  0.4095 -0.1399  0.1325
 3920ntf    fn419913   3.840   6.748   0.780  0.0926 -0.3558  0.4205
 3920ntf    on519914   4.026   6.970   0.813  0.5153  0.1750 -0.5222
 3920ntf    on519915   3.877   7.034   0.633 -0.9095  0.0859  0.2286
 3920ntf    on519916   3.648   7.260   0.966 -0.5409 -0.6716  0.1188
 3920ntf    on519917   3.632   7.214   0.724 -0.4053 -0.8281  0.2043
 3920ntf    fn419918   3.897   7.402   0.897 -0.4852 -0.1127  0.5346
 3920ntf    fn419919   3.866   7.358   0.691  0.6393  0.1665  0.5005
 3920ntf    fn419920   3.726   7.486   0.795 -0.1328 -0.0208  0.7195
 3921ntf    cn119921   0.196   5.100   3.989  0.4381 -0.3644  0.1969
 3921ntf    sn219922   0.214   5.170   4.156 -0.2421  0.1177  0.0750
 3921ntf    nn319923   0.112   5.288   4.147  0.0358  0.3777  0.3158
 3921ntf    sn219924  -0.044   5.276   4.132  0.0853  0.1739 -0.0508
 3921ntf    cn119925  -0.102   5.371   4.276 -0.2509 -0.5367  0.2904
 3921ntf    fn419926   0.177   5.195   3.899  0.0542 -0.3292  0.3158
 3921ntf    fn419927   0.309   5.042   3.952  0.2148 -1.0695  0.6246
 3921ntf    fn419928   0.096   5.015   3.979  0.3094 -0.2341  0.3874
 3921ntf    on519929   0.192   5.060   4.246 -0.0714  0.3839  0.4428
 3921ntf    on519930   0.350   5.217   4.163 -0.2940  0.2261  0.3546
 3921ntf    on519931  -0.102   5.145   4.149  0.3935  0.0584  0.1154
 3921ntf    on519932  -0.089   5.355   4.020 -1.0651  0.2926  0.4798
 3921ntf    fn419933  -0.038   5.331   4.385  0.0618 -0.0204  0.2997
 3921ntf    fn419934  -0.074   5.500   4.266 -0.1548 -0.5481  0.4020
 3921ntf    fn419935  -0.230   5.345   4.292 -0.3651 -0.0751  0.1391
 3922ntf    cn119936   0.372   7.194   6.579 -0.1567  0.2932 -0.3313
 3922ntf    sn219937   0.381   7.157   6.757  0.4495  0.2273 -0.3734
 3922ntf    nn319938   0.498   7.255   6.794  0.5956  0.1616 -0.6575
 3922ntf    sn219939   0.647   7.208   6.812  0.5034 -0.0291 -0.3920
 3922ntf    cn119940   0.626   7.149   6.983 -0.7401 -0.0853 -0.5514
 3922ntf    fn419941   0.470   7.144   6.505 -0.0774  0.3324 -0.2526
 3922ntf    fn419942   0.260   7.153   6.523 -0.2952  0.5277 -0.2256
 3922ntf    fn419943   0.380   7.323   6.551  0.3656  0.2331 -0.4865
 3922ntf    on519944   0.250   7.202   6.795  0.3662 -0.2467 -0.0993
 3922ntf    on519945   0.399   7.014   6.761  0.2847  0.2093 -0.2516
 3922ntf    on519946   0.734   7.322   6.822 -0.0998  0.3820  0.2518
 3922ntf    on519947   0.691   7.091   6.739 -0.2595 -0.5657 -0.0151
 3922ntf    fn419948   0.600   7.255   7.057 -0.5659 -0.4764  0.0773
 3922ntf    fn419949   0.536   7.060   7.020 -0.3680 -0.1235  0.3017
 3922ntf    fn419950   0.743   7.103   7.027 -0.6874  0.2336 -0.3561
 3923ntf    cn119951   4.390   5.533   7.259  0.1221  0.3636 -0.0661
 3923ntf    sn219952   4.356   5.656   7.388 -0.3850  0.0915  0.0601
 3923ntf    nn319953   4.503   5.709   7.403 -0.3255 -0.0126 -0.1638
 3923ntf    sn219954   4.557   5.854   7.428  0.0932 -0.1460 -0.2836
 3923ntf    cn119955   4.601   5.904   7.259  0.2692 -0.5931 -0.3712
 3923ntf    fn419956   4.289   5.450   7.240  0.1008  0.3290  0.1919
 3923ntf    fn419957   4.417   5.595   7.146  0.1388  0.1869 -0.1602
 3923ntf    fn419958   4.489   5.451   7.292 -0.2167  0.0996  0.2984
 3923ntf    on519959   4.260   5.741   7.322 -0.1042  0.2594 -0.1307
 3923ntf    on519960   4.319   5.573   7.500  0.2513  0.1861  0.3461
 3923ntf    on519961   4.679   5.851   7.505  0.2453  0.5017 -0.4910
 3923ntf    on519962   4.459   5.951   7.468  0.3395 -0.0405  0.0689
 3923ntf    fn419963   4.703   5.844   7.200  0.8572  0.5640 -0.5586
 3923ntf    fn419964   4.495   5.884   7.182  0.0478 -0.2529 -0.1536
 3923ntf    fn419965   4.630   6.032   7.240  0.2281 -0.5839 -0.3720
 3924ntf    cn119966   0.221   6.256   3.407 -0.2088 -0.2557  0.1571
 3924ntf    sn219967   0.260   6.084   3.364  0.9729  0.0362  0.0255
 3924ntf    nn319968   0.132   6.014   3.422  0.6262 -0.1027 -0.8824
 3924ntf    sn219969  -0.010   5.973   3.369  0.3185  0.2738 -0.3647
 3924ntf    cn119970   0.014   5.793   3.372 -0.2956  0.1961  0.0074
 3924ntf    fn419971   0.310   6.338   3.354 -0.4040 -0.1667 -0.0330
 3924ntf    fn419972   0.099   6.276   3.359 -0.1918 -0.1274  0.1687
 3924ntf    fn419973   0.215   6.260   3.539 -0.4701 -0.5354  0.1551
 3924ntf    on519974   0.275   6.086   3.220 -0.0813  0.1029 -0.0973
 3924ntf    on519975   0.372   6.056   3.450  1.0055 -0.3553 -0.1420
 3924ntf    on519976  -0.037   6.005   3.231 -0.5938  0.5807 -0.1240
 3924ntf    on519977  -0.115   5.992   3.466  0.1660  0.1606 -0.5066
 3924ntf    fn419978  -0.099   5.724   3.367  0.0738 -0.3962 -0.2649
 3924ntf    fn419979   0.094   5.743   3.279  0.1881  0.4099  0.3048
 3924ntf    fn419980   0.076   5.758   3.483  0.0903 -0.0554 -0.2866
 3925ntf    cn119981   1.601   2.540   1.613  0.3077  0.1037 -0.3166
 3925ntf    sn219982   1.737   2.431   1.560  0.1478 -0.2296 -0.0452
 3925ntf    nn319983   1.650   2.302   1.540 -0.0514 -0.1141  0.0650
 3925ntf    sn219984   1.688   2.154   1.574  0.2409 -0.0960 -0.1724
 3925ntf    cn119985   1.639   2.144   1.749  0.2980  0.3163 -0.1332
 3925ntf    fn419986   1.547   2.507   1.729  0.5997  0.8699  0.0447
 3925ntf    fn419987   1.633   2.668   1.623  0.0833  0.1446 -0.1077
 3925ntf    fn419988   1.502   2.542   1.525  0.0278 -0.9590 -0.0422
 3925ntf    on519989   1.779   2.486   1.434 -0.5500  0.5239  0.0388
 3925ntf    on519990   1.824   2.431   1.674 -0.0548 -0.4078  0.1112
 3925ntf    on519991   1.828   2.124   1.563  0.1666 -0.3300 -0.4988
 3925ntf    on519992   1.598   2.060   1.511  0.2088  0.1477 -0.4909
 3925ntf    fn419993   1.508   2.146   1.767  0.3031 -0.7247  0.0715
 3925ntf    fn419994   1.680   2.032   1.806  0.0400  0.1341 -0.3043
 3925ntf    fn419995   1.693   2.245   1.815  0.7465  0.0788 -0.1357
 3926ntf    cn119996   3.988   5.719   2.242  0.0853  0.0843  0.1201
 3926ntf    sn219997   4.013   5.542   2.207  0.2339  0.1004  0.1418
 3926ntf    nn319998   3.868   5.502   2.161  0.1753 -0.0598  0.4636
 3926ntf    sn219999   3.836   5.365   2.091  0.1766  0.1771 -0.0108
 3926ntf    cn120000   3.810   5.264   2.240 -0.2117  0.1069 -0.1266
 3926ntf    fn420001   4.089   5.781   2.299  0.2253  0.1001 -0.1410
 3926ntf    fn420002   3.967   5.784   2.128 -0.7592  0.2738  0.3744
 3926ntf    fn420003   3.881   5.750   2.313  0.2435  0.6528  0.1134
 3926ntf    on520004   4.108   5.541   2.098  0.2844  0.2749  0.1846
 3926ntf    on520005   4.053   5.485   2.332  0.2202 -1.1235 -0.3977
 3926ntf    on520006   3.949   5.295   2.035  0.1500  0.3452 -0.2753
 3926ntf    on520007   3.705   5.362   2.032 -0.1091  0.0845  0.6241
 3926ntf    fn420008   3.916   5.247   2.317  0.2286 -0.1187 -0.7800
 3926ntf    fn420009   3.721   5.318   2.323 -0.3152  0.3495 -0.3939
 3926ntf    fn420010   3.759   5.146   2.212  0.0062 -0.0590  0.1723
 3927ntf    cn120011   3.901   4.773   5.426 -0.1234  0.6323  0.1752
 3927ntf    sn220012   3.856   4.673   5.571 -0.1198  0.2981 -0.0545
 3927ntf    nn320013   3.915   4.762   5.685 -0.0106  0.9340 -0.6042
 3927ntf    sn220014   3.837   4.871   5.767 -0.2969  0.2641  0.0265
 3927ntf    cn120015   3.970   4.935   5.873 -0.0629  0.1119 -0.1730
 3927ntf    fn420016   4.030   4.774   5.397 -0.1821  0.0703 -0.1072
 3927ntf    fn420017   3.845   4.722   5.318 -0.5172  0.6374  0.3723
 3927ntf    fn420018   3.853   4.895   5.442  0.0677  0.7145  0.1230
 3927ntf    on520019   3.713   4.654   5.576 -0.1121  0.1351 -0.4117
 3927ntf    on520020   3.937   4.558   5.538  0.0431  0.3222  0.2580
 3927ntf    on520021   3.741   4.811   5.856  0.3564 -0.8410  0.0057
 3927ntf    on520022   3.795   4.988   5.693  0.0780  0.0897 -0.4681
 3927ntf    fn420023   3.933   5.030   5.957  0.0425 -0.3000  0.3481
 3927ntf    fn420024   4.019   4.835   5.945  0.2605  0.3608 -0.0502
 3927ntf    fn420025   4.069   4.989   5.805 -0.1525  0.3618 -0.1049
 3928ntf    cn120026   6.606   4.523   5.459 -0.4957 -0.4053  0.1941
 3928ntf    sn220027   6.720   4.405   5.536 -0.2801 -0.0544  0.4164
 3928ntf    nn320028   6.630   4.342   5.648 -0.4227  0.1953  0.4435
 3928ntf    sn220029   6.635   4.197   5.708  0.0641  0.1710  0.3530
 3928ntf    cn120030   6.477   4.139   5.639  0.0881  0.2310  0.2488
 3928ntf    fn420031   6.538   4.595   5.547 -0.0263 -0.1358  0.3397
 3928ntf    fn420032   6.676   4.598   5.375  0.0038 -0.3342  0.6693
 3928ntf    fn420033   6.509   4.465   5.390 -0.4105  0.1053 -0.3688
 3928ntf    on520034   6.758   4.314   5.430 -0.1396  0.3569  0.1113
 3928ntf    on520035   6.827   4.485   5.590  0.0162  0.0452 -0.3078
 3928ntf    on520036   6.618   4.202   5.851 -0.0472  0.8555  0.3193
 3928ntf    on520037   6.742   4.113   5.661  0.0958  0.1176  0.5174
 3928ntf    fn420038   6.480   4.122   5.508 -0.1930 -0.1175  0.2874
 3928ntf    fn420039   6.427   4.023   5.678  0.3378  0.1289  0.2665
 3928ntf    fn420040   6.377   4.226   5.654 -0.7254 -0.6584  0.0674
 3929ntf    cn120041   4.675   1.267   6.787  0.3487  0.1377 -0.1752
 3929ntf    sn220042   4.639   1.109   6.705 -0.0228 -0.0371  0.3242
 3929ntf    nn320043   4.497   1.073   6.762 -0.1556 -0.1529 -0.0764
 3929ntf    sn220044   4.446   1.039   6.907 -0.2041  0.0350 -0.0493
 3929ntf    cn120045   4.298   0.940   6.868 -0.2756  0.0137  0.2717
 3929ntf    fn420046   4.799   1.309   6.769  0.3592  0.4168  0.5091
 3929ntf    fn420047   4.593   1.359   6.739 -0.1180 -0.0923  0.1766
 3929ntf    fn420048   4.655   1.251   6.917 -0.0075  0.0524 -0.2403
 3929ntf    on520049   4.640   1.135   6.564 -0.8326 -0.3844  0.2478
 3929ntf    on520050   4.739   1.017   6.755  0.2180 -0.0204 -0.1270
 3929ntf    on520051   4.386   1.156   6.965  0.2518  0.4301 -0.3708
 3929ntf    on520052   4.527   0.951   6.988 -0.1489  0.0569 -0.0805
 3929ntf    fn420053   4.244   0.873   6.968  0.0084 -0.5118  0.0747
 3929ntf    fn420054   4.196   1.012   6.825 -0.1278  0.3186  0.4269
 3929ntf    fn420055   4.309   0.861   6.762  1.0035  0.3075  0.1660
 3930ntf    cn120056   4.872   5.423   5.721 -0.5699 -0.2146 -0.3171
 3930ntf    sn220057   4.935   5.253   5.714  0.0280 -0.0247  0.3743
 3930ntf    nn320058   4.827   5.167   5.787 -0.5925  0.3120 -0.1296
 3930ntf    sn220059   4.759   5.186   5.928 -0.1995  0.1249  0.0877
 3930ntf    cn120060   4.834   5.043   6.011 -0.1477  0.1782  0.1328
 3930ntf    fn420061   4.923   5.500   5.626  0.0145  0.4891  0.5540
 3930ntf    fn420062   4.741   5.435   5.705 -0.6932 -0.0312  0.7741
 3930ntf    fn420063   4.902   5.485   5.834 -0.1961 -0.3842 -0.3235
 3930ntf    on520064   4.937   5.231   5.571  0.4223  0.4010  0.3103
 3930ntf    on520065   5.066   5.239   5.773  0.2985 -0.2237 -0.2656
 3930ntf    on520066   4.617   5.166   5.921 -0.1460  0.1105 -1.2032
 3930ntf    on520067   4.806   5.296   6.009 -0.0349  0.2922 -0.2316
 3930ntf    fn420068   4.798   5.025   6.137 -0.1494  0.3127  0.1509
 3930ntf    fn420069   4.804   4.931   5.947 -0.1599  0.5319 -0.4948
 3930ntf    fn420070   4.966   5.044   6.017 -0.1460 -0.3092  0.2548
 3931ntf    cn120071   2.936   6.742   3.934 -0.0420 -0.1420 -0.1232
 3931ntf    sn220072   2.805   6.617   3.922 -0.2501  0.0516  0.0971
 3931ntf    nn320073   2.721   6.654   4.049 -0.0006  0.2662  0.1988
 3931ntf    sn220074   2.688   6.565   4.174 -0.2500 -0.0056 -0.0592
 3931ntf    cn120075   2.713   6.691   4.304 -0.3966  0.1674 -0.1988
 3931ntf    fn420076   3.019   6.741   4.037 -0.2961 -0.3094  0.0828
 3931ntf    fn420077   3.012   6.744   3.826  0.0541  0.6906 -0.0514
 3931ntf    fn420078   2.890   6.866   3.942  0.3676  0.0420 -0.5595
 3931ntf    on520079   2.733   6.654   3.802 -0.4631  0.2687  0.2909
 3931ntf    on520080   2.885   6.497   3.920 -0.3100  0.0150 -0.2141
 3931ntf    on520081   2.783   6.470   4.224  0.0960  0.4196  0.0976
 3931ntf    on520082   2.547   6.535   4.180 -0.2582 -0.0908 -0.6979
 3931ntf    fn420083   2.618   6.784   4.303 -0.4157  0.1536  0.2193
 3931ntf    fn420084   2.726   6.647   4.428 -0.3244  0.0765 -0.2382
 3931ntf    fn420085   2.825   6.757   4.280 -0.2648 -0.1536 -0.4794
 3932ntf    cn120086   2.120   0.117   0.300  0.3959 -0.2494 -0.5874
 3932ntf    sn220087   2.273   0.216   0.298  0.0638  0.2767 -0.1006
 3932ntf    nn320088   2.378   0.100   0.291 -0.1291  0.0436  0.8030
 3932ntf    sn220089   2.479   0.037   0.394  0.3211 -0.2094  0.2107
 3932ntf    cn120090   2.393  -0.123   0.409 -0.2344  0.0920  0.2867
 3932ntf    fn420091   2.127   0.019   0.388 -0.1094  0.1463 -0.1010
 3932ntf    fn420092   2.020   0.197   0.332  1.0584  0.2480  0.2716
 3932ntf    fn420093   2.084   0.061   0.185 -0.1916 -0.3204 -0.3718
 3932ntf    on520094   2.260   0.288   0.173  0.2583  0.7067  0.1256
 3932ntf    on520095   2.282   0.287   0.423  0.0634 -0.1305  0.1326
 3932ntf    on520096   2.480   0.089   0.528 -0.3391 -0.4883  0.3305
 3932ntf    on520097   2.602   0.014   0.322  0.0412 -0.6443 -0.1402
 3932ntf    fn420098   2.475  -0.219   0.450 -0.0613  0.2008  0.1969
 3932ntf    fn420099   2.288  -0.127   0.489 -0.0143 -0.4275  0.5534
 3932ntf    fn420100   2.356  -0.154   0.285  0.5131  0.1041  0.0569
 3933ntf    cn120101   6.282   3.776   5.326  0.3975  0.0305 -0.2178
 3933ntf    sn220102   6.239   3.680   5.178 -0.0101 -0.1284  0.0040
 3933ntf    nn320103   6.275   3.538   5.235  0.6355 -0.0637 -0.2345
 3933ntf    sn220104   6.194   3.407   5.205  0.1538  0.1028  0.3096
 3933ntf    cn120105   6.223   3.327   5.366  0.3628 -0.1139  0.1656
 3933ntf    fn420106   6.215   3.739   5.433 -0.0232  0.8446 -0.1900
 3933ntf    fn420107   6.409   3.784   5.361  0.3801  0.3737 -0.2288
 3933ntf    fn420108   6.247   3.902   5.305 -0.1983 -0.0378  0.3565
 3933ntf    on520109   6.100   3.703   5.145  0.1816  0.1019 -0.6683
 3933ntf    on520110   6.338   3.721   5.081 -0.1299  0.2309  0.0312
 3933ntf    on520111   6.264   3.319   5.115 -0.3419  0.0313 -0.0058
 3933ntf    on520112   6.050   3.412   5.197  0.1592  0.0685  0.1946
 3933ntf    fn420113   6.350   3.303   5.392  0.5023 -0.0472 -0.4480
 3933ntf    fn420114   6.178   3.409   5.459  0.0856  0.2231 -0.2595
 3933ntf    fn420115   6.153   3.215   5.377 -0.3631  0.3199  0.0703
 3934ntf    cn120116   5.392   5.470   5.251  0.2571 -0.1060  0.2102
 3934ntf    sn220117   5.402   5.292   5.219  0.2077 -0.0958  0.1394
 3934ntf    nn320118   5.547   5.256   5.266  0.4890  0.2559 -0.4472
 3934ntf    sn220119   5.611   5.117   5.302  0.0305  0.0674 -0.3552
 3934ntf    cn120120   5.599   5.141   5.481 -0.3143  0.1366 -0.3857
 3934ntf    fn420121   5.472   5.534   5.167 -0.1499  0.2922  0.1183
 3934ntf    fn420122   5.275   5.531   5.250  0.0887 -0.4296 -0.6727
 3934ntf    fn420123   5.433   5.494   5.375 -0.2478  0.6073  0.2473
 3934ntf    on520124   5.295   5.244   5.303  0.5344  0.2898  0.7749
 3934ntf    on520125   5.379   5.278   5.077  0.1400 -0.2057  0.1612
 3934ntf    on520126   5.750   5.107   5.264  0.2626 -0.3737  0.5871
 3934ntf    on520127   5.531   4.999   5.277 -0.8722  0.5413  0.2395
 3934ntf    fn420128   5.691   5.227   5.522 -0.2328  0.0344 -0.3544
 3934ntf    fn420129   5.479   5.183   5.518 -0.2476 -0.3994  0.4690
 3934ntf    fn420130   5.629   5.027   5.542 -0.0398  0.4787  0.1292
 3935ntf    cn120131   0.824   6.421   3.565 -0.2162  0.4915  0.0481
 3935ntf    sn220132   0.823   6.578   3.474  0.1487  0.4453 -0.0387
 3935ntf    nn320133   0.730   6.532   3.356  0.3287  0.2082 -0.0885
 3935ntf    sn220134   0.771   6.471   3.217  0.0588 -0.0385 -0.0605
 3935ntf    cn120135   0.638   6.552   3.123 -0.2433 -0.3950  0.0556
 3935ntf    fn420136   0.891   6.430   3.679 -0.1418 -0.8551  0.1257
 3935ntf    fn420137   0.707   6.368   3.597  0.0993 -0.1066  0.2218
 3935ntf    fn420138   0.882   6.335   3.483 -0.5084 -0.4576  0.8191
 3935ntf    on520139   0.769   6.667   3.574  0.6889  0.2943  0.3886
 3935ntf    on520140   0.960   6.603   3.436  0.3878 -0.1268  0.4437
 3935ntf    on520141   0.740   6.331   3.203 -0.5227  0.0301  0.4428
 3935ntf    on520142   0.891   6.526   3.160  0.2358 -0.2258  0.1301
 3935ntf    fn420143   0.616   6.681   3.147 -0.6235 -0.4885  0.2186
 3935ntf    fn420144   0.665   6.538   2.995  0.2072 -0.9298  0.2067
 3935ntf    fn420145   0.516   6.503   3.132 -0.4821  0.1277 -0.2918
 3936ntf    cn120146   3.551   2.504   7.198  0.2792 -0.2756  0.0404
 3936ntf    sn220147   3.635   2.451   7.350  0.5192 -0.2166 -0.0706
 3936ntf    nn320148   3.688   2.311   7.304  0.1601 -0.3361 -0.1270
 3936ntf    sn220149   3.761   2.196   7.382 -0.1910 -0.2327  0.3560
 3936ntf    cn120150   3.674   2.054   7.310  0.1633 -0.3537  0.1666
 3936ntf    fn420151   3.625   2.480   7.091 -0.1377 -0.0495 -0.3046
 3936ntf    fn420152   3.433   2.445   7.184 -0.0701  0.2367  0.7759
 3936ntf    fn420153   3.514   2.631   7.192 -0.2592 -0.4121  0.4246
 3936ntf    on520154   3.740   2.548   7.372 -0.1231  0.4205  0.2435
 3936ntf    on520155   3.526   2.441   7.445  0.1470  0.2901 -0.4346
 3936ntf    on520156   3.721   2.188   7.520  0.0855  0.7249  0.5045
 3936ntf    on520157   3.898   2.184   7.337 -0.4043  0.0639 -0.3952
 3936ntf    fn420158   3.553   2.056   7.362  0.0625 -0.1966 -0.0738
 3936ntf    fn420159   3.661   2.068   7.179 -0.1518 -0.4588  0.1877
 3936ntf    fn420160   3.739   1.941   7.334  0.1841 -0.3560  0.1005
 3937ntf    cn120161   6.600   1.335   6.472  0.0615 -0.2164  0.1205
 3937ntf    sn220162   6.701   1.219   6.568 -0.0252 -0.2087  0.2201
 3937ntf    nn320163   6.593   1.124   6.632 -0.0640  0.0235  0.5051
 3937ntf    sn220164   6.550   0.982   6.581 -0.1931  0.2088  0.0880
 3937ntf    cn120165   6.685   0.879   6.647 -0.0938 -0.1798 -0.7113
 3937ntf    fn420166   6.671   1.426   6.407  0.3856 -0.6704 -0.1583
 3937ntf    fn420167   6.523   1.278   6.380 -0.3161  0.1547  0.1998
 3937ntf    fn420168   6.519   1.396   6.557  0.1411  0.2461 -0.1294
 3937ntf    on520169   6.803   1.164   6.484 -0.3557  0.0674 -0.3667
 3937ntf    on520170   6.744   1.303   6.677  0.2732  0.3095 -0.2940
 3937ntf    on520171   6.558   0.955   6.440  0.8249  0.2580  0.1238
 3937ntf    on520172   6.431   0.938   6.650 -0.0924 -0.2515 -0.0295
 3937ntf    fn420173   6.646   0.754   6.666 -0.0559  0.0036  0.7020
 3937ntf    fn420174   6.785   0.884   6.560  0.1119  0.0335 -0.4636
 3937ntf    fn420175   6.720   0.930   6.764 -0.2757 -0.2933 -0.6072
 3938ntf    cn120176   5.188   3.539   0.525 -0.5983  0.0763 -0.2721
 3938ntf    sn220177   5.022   3.614   0.535 -0.4698  0.3122  0.1480
 3938ntf    nn320178   5.047   3.734   0.437  0.5252 -0.0253 -0.0266
 3938ntf    sn220179   5.133   3.861   0.471  0.2096  0.0794  0.3884
 3938ntf    cn120180   5.084   3.956   0.324  0.2505 -0.0964  0.2612
 3938ntf    fn420181   5.240   3.524   0.405 -0.6426 -0.3390 -0.2384
 3938ntf    fn420182   5.274   3.612   0.595 -0.3152  0.0188 -0.5588
 3938ntf    fn420183   5.191   3.421   0.584 -0.3003  0.1500 -0.1393
 3938ntf    on520184   4.932   3.516   0.479 -0.0941 -0.1510  0.3516
 3938ntf    on520185   4.999   3.645   0.674 -0.0115  0.6117  0.1586
 3938ntf    on520186   5.277   3.851   0.460  0.2024  0.0543  0.3207
 3938ntf    on520187   5.074   3.938   0.578 -0.6812  0.0381 -0.0677
 3938ntf    fn420188   5.116   3.903   0.208  0.5866  0.3574  0.1456
 3938ntf    fn420189   4.958   3.997   0.325  0.1680 -0.3343 -0.0701
 3938ntf    fn420190   5.154   4.068   0.328  0.1843 -0.0594  0.4037
 3939ntf    cn120191   4.020   4.550   3.407  0.1694 -0.0510 -0.2336
 3939ntf    sn220192   3.920   4.412   3.344  0.3729 -0.3297  0.0503
 3939ntf    nn320193   4.033   4.338   3.265 -0.0178 -0.5625 -0.2901
 3939ntf    sn220194   4.129   4.226   3.318  0.4919 -0.1118 -0.2593
 3939ntf    cn120195   4.123   4.138   3.159 -0.0458 -0.3550 -0.1070
 3939ntf    fn420196   4.111   4.502   3.490  0.0476  0.1461  0.0158
 3939ntf    fn420197   4.089   4.612   3.313 -0.0166  0.0396 -0.3111
 3939ntf    fn420198   3.950   4.646   3.466  0.3111 -0.0491 -0.0674
 3939ntf    on520199   3.873   4.351   3.466  0.1449  0.8764  0.5837
 3939ntf    on520200   3.821   4.479   3.263  0.7557  0.1685 -0.0143
 3939ntf    on520201   4.086   4.131   3.418 -0.2210  0.0426 -0.4198
 3939ntf    on520202   4.266   4.270   3.336  0.2815  0.5762 -0.3106
 3939ntf    fn420203   4.198   4.029   3.154  0.3974 -0.0625  0.0131
 3939ntf    fn420204   3.998   4.099   3.143 -0.1926 -0.1738  0.5651
 3939ntf    fn420205   4.150   4.219   3.058 -0.0823 -0.3917 -0.1466
 3940ntf    cn120206   7.102   3.832   2.930  0.7006  0.2219  0.3935
 3940ntf    sn220207   7.034   3.667   2.966 -0.0109  0.2939 -0.5789
 3940ntf    nn320208   7.084   3.583   2.844  0.0514 -0.1776 -0.2317
 3940ntf    sn220209   7.023   3.564   2.701 -0.0797  0.0382 -0.2051
 3940ntf    cn120210   6.904   3.430   2.732 -0.2449  0.1679 -0.2779
 3940ntf    fn420211   7.234   3.832   2.927  0.6815  0.3228 -0.5251
 3940ntf    fn420212   7.077   3.885   2.812 -0.8647 -0.6273  0.3106
 3940ntf    fn420213   7.067   3.926   3.016 -0.6590  0.5708 -0.5129
 3940ntf    on520214   7.105   3.625   3.084  0.0849 -0.6086 -0.9521
 3940ntf    on520215   6.893   3.697   2.972 -0.1054 -0.2714  0.2621
 3940ntf    on520216   7.120   3.506   2.611 -0.0495 -0.1390 -0.0585
 3940ntf    on520217   6.944   3.671   2.645 -0.0792  0.1285 -0.0323
 3940ntf    fn420218   6.803   3.470   2.808 -0.4775 -0.3327 -0.3207
 3940ntf    fn420219   6.858   3.386   2.616  0.1414 -0.3566 -0.2340
 3940ntf    fn420220   6.945   3.326   2.803  0.3572  0.5041 -0.1278
 3941ntf    cn120221   2.140   0.771   2.535  0.0381  0.3791 -0.0489
 3941ntf    sn220222   2.133   0.610   2.452 -0.1416  0.4275 -0.1283
 3941ntf    nn320223   2.189   0.513   2.562 -0.3141  0.2234 -0.2193
 3941ntf    sn220224   2.116   0.420   2.666 -0.1254 -0.0460 -0.3279
 3941ntf    cn120225   2.157   0.499   2.824  0.0468 -0.1415 -0.3242
 3941ntf    fn420226   2.078   0.767   2.652 -0.0258  0.3573 -0.0838
 3941ntf    fn420227   2.259   0.824   2.560  0.2267  0.1997 -0.5655
 3941ntf    fn420228   2.077   0.866   2.468  0.3573  0.6962  0.0975
 3941ntf    on520229   1.995   0.588   2.415 -0.3230  0.9596  0.2286
 3941ntf    on520230   2.221   0.618   2.338  0.1241 -0.4635  0.0001
 3941ntf    on520231   2.180   0.292   2.684  0.1001  0.1437  0.2432
 3941ntf    on520232   1.973   0.418   2.653 -0.0847 -0.9243 -0.7421
 3941ntf    fn420233   2.284   0.531   2.844 -0.0472  0.0606 -0.0430
 3941ntf    fn420234   2.092   0.613   2.840  0.4434 -0.0566  0.8053
 3941ntf    fn420235   2.133   0.423   2.929  0.2786  0.4289  0.1542
 3942ntf    cn120236   7.071   1.054   2.983 -0.6439  0.4298 -0.6599
 3942ntf    sn220237   6.991   0.902   3.043  0.2679  0.0951 -0.2690
 3942ntf    nn320238   6.875   0.972   3.123  0.3912 -0.2189  0.1863
 3942ntf    sn220239   6.879   1.040   3.265  0.5263  0.0746  0.0416
 3942ntf    cn120240   6.813   0.905   3.367 -0.1600 -0.0065 -0.5008
 3942ntf    fn420241   7.113   1.143   3.072 -0.4186 -0.0073 -0.3261
 3942ntf    fn420242   7.182   1.022   2.918 -0.1026  0.3541  0.2684
 3942ntf    fn420243   6.998   1.118   2.894  0.0687 -0.0299 -1.5871
 3942ntf    on520244   6.943   0.822   2.934  0.1393 -0.3231  0.0893
 3942ntf    on520245   7.090   0.841   3.129 -0.2846 -0.3895  0.0275
 3942ntf    on520246   6.767   1.131   3.282  0.7850  0.3471  0.2836
 3942ntf    on520247   7.008   1.077   3.317  0.7117 -0.2000 -0.2223
 3942ntf    fn420248   6.681   0.895   3.369 -0.1871  0.4792  0.5420
 3942ntf    fn420249   6.863   0.792   3.320 -0.7340 -0.4749  0.0102
 3942ntf    fn420250   6.843   0.910   3.496 -0.0880 -0.5263 -0.4954
 3943ntf    cn120251   6.224   3.462   2.126 -0.3493  0.1402 -0.1125
 3943ntf    sn220252   6.098   3.406   2.008 -0.1572 -0.0981 -0.2048
 3943ntf    nn320253   6.187   3.301   1.933 -0.0061 -0.1659  0.0666
 3943ntf    sn220254   6.254   3.327   1.793  0.0757  0.0476  0.1452
 3943ntf    cn120255   6.129   3.282   1.669 -0.2343  0.4123  0.3244
 3943ntf    fn420256   6.171   3.544   2.216 -0.3452  0.6286 -0.5557
 3943ntf    fn420257   6.277   3.365   2.199 -0.3766  0.5959  0.5278
 3943ntf    fn420258   6.327   3.519   2.066 -0.1752  0.0372  0.0879
 3943ntf    on520259   5.993   3.342   2.084  0.0292  0.0629  0.1911
 3943ntf    on520260   6.052   3.522   1.935 -0.8574  0.0087  0.3896
 3943ntf    on520261   6.363   3.235   1.772  0.7104  0.8152  0.0517
 3943ntf    on520262   6.292   3.464   1.768 -0.0803  0.0722  0.0386
 3943ntf    fn420263   6.099   3.154   1.672 -0.3327  0.4339  0.2846
 3943ntf    fn420264   6.017   3.351   1.687 -0.5442 -0.1446  0.5617
 3943ntf    fn420265   6.167   3.310   1.545 -0.0584 -0.2703  0.2244
 3944ntf    cn120266   5.038   4.573   5.954 -0.4662 -0.2253 -0.1033
 3944ntf    sn220267   4.912   4.450   5.909 -0.3636 -0.3172 -0.1393
 3944ntf    nn320268   4.902   4.485   5.756  0.0696 -0.2577 -0.1543
 3944ntf    sn220269   4.874   4.394   5.631 -0.1397 -0.0543 -0.2559
 3944ntf    cn120270   4.718   4.474   5.583 -0.1069  0.0475 -0.1951
 3944ntf    fn420271   5.144   4.559   5.875 -0.4225  0.2496 -0.1288
 3944ntf    fn420272   5.000   4.698   5.933  0.0397 -0.0674 -0.0872
 3944ntf    fn420273   5.081   4.575   6.079  0.1209 -0.0912 -0.3064
 3944ntf    on520274   4.970   4.322   5.938  0.8389  0.1907 -0.2444
 3944ntf    on520275   4.799   4.491   5.988 -0.0934 -0.0041  0.0864
 3944ntf    on520276   4.833   4.258   5.655 -0.1324 -0.0632 -0.2951
 3944ntf    on520277   4.969   4.422   5.527 -0.1446 -0.4419 -0.3682
 3944ntf    fn420278   4.736   4.604   5.567 -0.5370  0.1504  0.1270
 3944ntf    fn420279   4.664   4.432   5.470 -0.1126 -0.2526 -0.0821
 3944ntf    fn420280   4.621   4.464   5.674  0.0990  0.7038  0.0996
 3945ntf    cn120281   2.018   1.311   2.739  0.2958  0.1519 -0.1810
 3945ntf    sn220282   1.955   1.225   2.592 -0.1013  0.0060  0.0715
 3945ntf    nn320283   1.800   1.213   2.610 -0.1167  0.2324  0.0850
 3945ntf    sn220284   1.712   1.097   2.669 -0.0976  0.3268  0.3001
 3945ntf    cn120285   1.706   0.997   2.517  0.0081  0.7627  0.0083
 3945ntf    fn420286   1.980   1.257   2.854 -0.0087  0.1339 -0.2891
 3945ntf    fn420287   2.150   1.305   2.751  0.2906  0.2222 -0.0904
 3945ntf    fn420288   1.987   1.440   2.736  0.2847  0.1375 -0.9937
 3945ntf    on520289   1.977   1.310   2.477  0.4522  0.0861  0.2302
 3945ntf    on520290   2.031   1.102   2.593 -0.2728 -0.1003  0.1735
 3945ntf    on520291   1.574   1.137   2.680 -0.0882  0.5344 -0.2834
 3945ntf    on520292   1.773   1.017   2.772  0.3773 -0.0941 -0.3015
 3945ntf    fn420293   1.823   0.947   2.480 -0.4641 -0.1408 -0.2961
 3945ntf    fn420294   1.615   0.901   2.518  0.3730  0.4007 -0.6042
 3945ntf    fn420295   1.660   1.062   2.411 -0.5988  0.2648 -0.0339
 3946ntf    cn120296   0.853   6.808   2.125 -0.4589 -0.0318 -0.1834
 3946ntf    sn220297   0.797   6.701   1.989  0.0677 -0.4194 -0.1001
 3946ntf    nn320298   0.828   6.795   1.867 -0.1105  0.0677  0.2270
 3946ntf    sn220299   0.737   6.878   1.770 -0.1803 -0.4557 -0.1551
 3946ntf    cn120300   0.703   6.766   1.631 -0.6098  0.0155 -0.4316
 3946ntf    fn420301   0.986   6.807   2.120 -0.4472  0.4795 -0.0222
 3946ntf    fn420302   0.821   6.936   2.121  0.0020  0.0983  0.1521
 3946ntf    fn420303   0.816   6.761   2.243 -0.4229  0.3389 -0.0223
 3946ntf    on520304   0.890   6.591   1.997  0.6742  0.1285  0.4596
 3946ntf    on520305   0.656   6.680   2.014 -0.2215  0.7877 -0.6304
 3946ntf    on520306   0.824   6.979   1.715 -0.1863 -0.1855  0.3270
 3946ntf    on520307   0.605   6.920   1.809 -0.1748 -0.1585 -0.4499
 3946ntf    fn420308   0.631   6.806   1.527 -0.6940  0.2059 -0.2995
 3946ntf    fn420309   0.819   6.725   1.581 -0.6330 -0.6412  0.0334
 3946ntf    fn420310   0.648   6.655   1.676 -0.1256 -0.0601 -0.0207
 3947ntf    cn120311   1.251   6.001   1.161 -0.0952 -0.0752  0.1399
 3947ntf    sn220312   1.381   5.949   1.277  0.3062  0.3462 -0.1136
 3947ntf    nn320313   1.285   5.889   1.386  0.2447  0.2843 -0.2021
 3947ntf    sn220314   1.254   5.927   1.535  0.1875 -0.1722 -0.0961
 3947ntf    cn120315   1.243   5.756   1.596 -0.0333 -0.1517 -0.0765
 3947ntf    fn420316   1.164   6.081   1.221 -0.0940  0.1369 -0.1370
 3947ntf    fn420317   1.295   6.074   1.059 -0.4746  0.1450  0.1323
 3947ntf    fn420318   1.181   5.904   1.104  0.4705 -0.2749 -0.2311
 3947ntf    on520319   1.449   5.849   1.199  0.9092  0.5047  0.2031
 3947ntf    on520320   1.454   6.070   1.305 -0.0193  0.6893 -0.7097
 3947ntf    on520321   1.119   5.974   1.554  0.3017 -0.1118  0.5856
 3947ntf    on520322   1.369   5.984   1.601  0.1785 -0.3086  0.0385
 3947ntf    fn420323   1.162   5.687   1.516 -0.1422  0.0355 -0.1295
 3947ntf    fn420324   1.362   5.699   1.609 -0.0806 -0.2580 -0.1036
 3947ntf    fn420325   1.186   5.735   1.713  0.0988  0.5492  0.1165
 3948ntf    cn120326   1.353   5.310   4.519 -0.1672  0.2856 -0.1766
 3948ntf    sn220327   1.406   5.373   4.356  0.0285 -0.0510 -0.2437
 3948ntf    nn320328   1.400   5.526   4.390  0.4744  0.0938 -0.8132
 3948ntf    sn220329   1.347   5.649   4.308 -0.1566  0.2344 -0.2064
 3948ntf    cn120330   1.182   5.670   4.381 -0.1510 -0.1009 -0.0948
 3948ntf    fn420331   1.223   5.330   4.539 -0.3036 -0.1050 -0.6450
 3948ntf    fn420332   1.356   5.178   4.523 -0.4525  0.2740 -0.2807
 3948ntf    fn420333   1.421   5.369   4.615  0.2532 -0.3259 -0.0965
 3948ntf    on520334   1.542   5.327   4.349 -0.0588 -0.3370 -0.0852
 3948ntf    on520335   1.303   5.318   4.271  0.3230 -0.5403 -0.2875
 3948ntf    on520336   1.318   5.624   4.169 -0.0417 -0.1974 -0.1529
 3948ntf    on520337   1.431   5.764   4.332 -0.0067  0.0828 -0.0084
 3948ntf    fn420338   1.108   5.777   4.353 -0.2292 -0.0303  0.3799
 3948ntf    fn420339   1.102   5.568   4.358 -0.6341  0.3226 -0.3191
 3948ntf    fn420340   1.191   5.666   4.513  0.0147  0.1467 -0.0971
 3949ntf    cn120341   1.672   0.081   1.242 -0.0811 -0.1091 -0.1864
 3949ntf    sn220342   1.770   0.046   1.391 -0.2633  0.0276 -0.0344
 3949ntf    nn320343   1.889  -0.015   1.308 -0.0706  0.1192  0.1737
 3949ntf    sn220344   1.920  -0.166   1.279  0.0947  0.1746  0.0589
 3949ntf    cn120345   2.101  -0.160   1.272  0.0906  0.1632 -0.0504
 3949ntf    fn420346   1.656  -0.031   1.174 -0.2201 -0.0727 -0.2145
 3949ntf    fn420347   1.552   0.134   1.257  0.1103  0.1411  0.5259
 3949ntf    fn420348   1.728   0.164   1.156 -0.0032 -0.0685 -0.0966
 3949ntf    on520349   1.788   0.178   1.446 -0.0002 -0.2736  0.6088
 3949ntf    on520350   1.683  -0.042   1.465 -0.1417 -0.0421  0.0269
 3949ntf    on520351   1.886  -0.205   1.145 -0.4175  0.6603  0.0439
 3949ntf    on520352   1.880  -0.255   1.386  0.4205  0.0308  0.0613
 3949ntf    fn420353   2.158  -0.098   1.170  0.6194  0.3819  0.3722
 3949ntf    fn420354   2.150  -0.089   1.373 -0.2918  0.5132 -0.1117
 3949ntf    fn420355   2.158  -0.280   1.269 -0.0520  0.1005 -0.3017
 3950ntf    cn120356   1.529   3.585   6.082 -0.1592 -0.1581 -0.4903
 3950ntf    sn220357   1.593   3.599   6.251 -0.1383 -0.3441 -0.4818
 3950ntf    nn320358   1.749   3.607   6.232 -0.0859 -0.2799 -0.0491
 3950ntf    sn220359   1.858   3.495   6.243  0.1901 -0.0484 -0.4029
 3950ntf    cn120360   1.933   3.546   6.401  0.1814  0.0854 -0.4418
 3950ntf    fn420361   1.558   3.695   6.014  0.0286  0.1937  0.1525
 3950ntf    fn420362   1.580   3.487   6.009  0.0444 -0.6871  0.3520
 3950ntf    fn420363   1.398   3.572   6.083 -0.1316 -0.4487  0.4254
 3950ntf    on520364   1.534   3.722   6.300  0.0339 -0.5255  0.1961
 3950ntf    on520365   1.548   3.475   6.308  0.9177 -0.2279  0.6555
 3950ntf    on520366   1.962   3.530   6.149  0.0389 -0.2167 -0.6347
 3950ntf    on520367   1.820   3.356   6.254  0.5135 -0.0638  0.6756
 3950ntf    fn420368   2.033   3.468   6.436 -0.0239 -0.2974 -0.7003
 3950ntf    fn420369   1.962   3.675   6.402 -0.3726  0.2147 -0.4019
 3950ntf    fn420370   1.845   3.525   6.497 -0.1561  0.5402 -0.6447
 3951ntf    cn120371   7.217   2.803   4.782 -0.3713  0.3325  0.0134
 3951ntf    sn220372   7.139   2.884   4.640 -0.2052 -0.0156 -0.2773
 3951ntf    nn320373   7.232   3.009   4.617 -0.3537  0.1695  0.1279
 3951ntf    sn220374   7.196   3.149   4.557  0.1533  0.1543 -0.2176
 3951ntf    cn120375   7.329   3.167   4.435  0.2997 -0.7538 -0.1969
 3951ntf    fn420376   7.138   2.708   4.831 -0.0910 -0.2246 -0.5950
 3951ntf    fn420377   7.330   2.742   4.752 -0.3621  0.4733 -0.2401
 3951ntf    fn420378   7.257   2.886   4.877 -0.1510 -0.2751  0.4594
 3951ntf    on520379   7.152   2.783   4.538 -0.2675 -0.9125  0.5937
 3951ntf    on520380   7.003   2.909   4.681  0.0715  0.8696  0.1208
 3951ntf    on520381   7.219   3.263   4.642  0.0974 -0.2889  0.3968
 3951ntf    on520382   7.074   3.144   4.479 -0.0262 -0.4340  0.0994
 3951ntf    fn420383   7.446   3.168   4.497  0.3094 -0.3738 -0.2169
 3951ntf    fn420384   7.325   3.073   4.342 -0.5094 -0.8005 -0.1248
 3951ntf    fn420385   7.321   3.281   4.368 -0.5510 -0.4642  0.3838
 3952ntf    cn120386   7.061   1.544   0.065 -0.3533  0.2867 -0.0049
 3952ntf    sn220387   7.157   1.458   0.193 -0.1628  0.3819 -0.0841
 3952ntf    nn320388   7.045   1.390   0.279 -0.0575  0.3217  0.0071
 3952ntf    sn220389   6.972   1.454   0.403 -0.1870 -0.0030  0.1010
 3952ntf    cn120390   6.798   1.426   0.361 -0.0589 -0.1440 -0.3452
 3952ntf    fn420391   7.034   1.477  -0.046 -0.1993 -0.1611  0.2263
 3952ntf    fn420392   6.938   1.567   0.110 -0.5917 -0.1551 -0.4115
 3952ntf    fn420393   7.110   1.663   0.038  0.3923 -0.0319 -0.0858
 3952ntf    on520394   7.238   1.365   0.118  0.7427  0.5958  0.6156
 3952ntf    on520395   7.238   1.562   0.251  0.5424 -0.1182 -0.1519
 3952ntf    on520396   6.987   1.597   0.415 -0.1688  0.0491 -0.4769
 3952ntf    on520397   6.996   1.374   0.520 -0.3739  0.2314  0.2999
 3952ntf    fn420398   6.771   1.484   0.245  0.1714 -0.1938 -0.4244
 3952ntf    fn420399   6.767   1.299   0.342 -0.4743 -0.0607 -0.2527
 3952ntf    fn420400   6.719   1.478   0.453  0.6914  0.0529  0.1917
 3953ntf    cn120401   6.566   2.097   2.068  0.2920  0.1022  0.4493
 3953ntf    sn220402   6.600   2.184   2.224  0.0908  0.4396  0.3060
 3953ntf    nn320403   6.756   2.168   2.226  0.0760  0.3014  0.3589
 3953ntf    sn220404   6.853   2.101   2.330  0.1955 -0.1320 -0.0268
 3953ntf    cn120405   6.832   1.926   2.286  0.1283 -0.1063 -0.0948
 3953ntf    fn420406   6.573   1.965   2.075 -0.7650  0.0233  0.1518
 3953ntf    fn420407   6.442   2.117   2.028  0.3017 -0.3885  0.1627
 3953ntf    fn420408   6.663   2.124   1.982 -0.3511 -0.5571 -0.5091
 3953ntf    on520409   6.562   2.319   2.190  0.1585  0.3404 -0.1657
 3953ntf    on520410   6.517   2.110   2.315 -0.1712 -0.1842 -0.4274
 3953ntf    on520411   6.823   2.111   2.471 -0.1868 -0.4430 -0.0865
 3953ntf    on520412   6.990   2.126   2.292  0.2757 -0.6624 -0.0855
 3953ntf    fn420413   6.874   1.906   2.162 -0.4232 -0.6033 -0.2087
 3953ntf    fn420414   6.905   1.840   2.355 -0.2241 -0.3951 -0.0784
 3953ntf    fn420415   6.707   1.881   2.289  0.0518  0.1048 -0.0504
 3954ntf    cn120416   6.964   3.023   5.708 -0.4677 -0.0780 -0.1866
 3954ntf    sn220417   7.050   3.093   5.852 -0.0234 -0.3609 -0.3127
 3954ntf    nn320418   7.101   3.230   5.796  0.0630 -0.2642  0.0039
 3954ntf    sn220419   7.192   3.275   5.676  0.3324 -0.0500  0.2849
 3954ntf    cn120420   7.361   3.228   5.723  0.3499 -0.3266 -0.0499
 3954ntf    fn420421   6.867   2.936   5.731 -0.8993  0.5577  0.4292
 3954ntf    fn420422   6.910   3.119   5.635  0.2442  0.2579 -0.2871
 3954ntf    fn420423   7.049   2.959   5.629  0.3190  0.2704  0.3660
 3954ntf    on520424   6.937   3.100   5.941  0.3353 -0.0749  0.1274
 3954ntf    on520425   7.148   2.998   5.900 -0.0156 -0.2990 -0.2071
 3954ntf    on520426   7.206   3.418   5.663 -0.1789 -0.0389 -0.2224
 3954ntf    on520427   7.165   3.206   5.552  1.1400  0.8939 -0.4337
 3954ntf    fn420428   7.388   3.102   5.695  0.3077 -0.3713  0.1105
 3954ntf    fn420429   7.445   3.315   5.669  0.0861 -0.4460 -0.6634
 3954ntf    fn420430   7.374   3.249   5.853 -0.4006  0.6646 -0.1182
 3955ntf    cn120431   2.690   5.381   5.015  0.3090 -0.3180  0.1295
 3955ntf    sn220432   2.783   5.273   5.129  0.1763 -0.2063  0.3453
 3955ntf    nn320433   2.797   5.144   5.040  0.1846  0.1472 -0.1728
 3955ntf    sn220434   2.915   5.097   4.948  0.2357 -0.1838  0.0590
 3955ntf    cn120435   2.943   4.937   5.028  0.0864 -0.1168  0.2475
 3955ntf    fn420436   2.718   5.356   4.889 -0.0561 -0.0058 -0.0149
 3955ntf    fn420437   2.558   5.366   5.018  0.2285  0.4276  0.3066
 3955ntf    fn420438   2.705   5.511   5.029 -1.1266 -0.1800  0.5570
 3955ntf    on520439   2.909   5.341   5.148 -0.0756  0.2491  0.4026
 3955ntf    on520440   2.697   5.254   5.242  0.2548 -1.1820  0.2509
 3955ntf    on520441   3.044   5.159   4.962  0.2541 -0.2847  0.3212
 3955ntf    on520442   2.875   5.063   4.813  0.4021  0.2412 -0.0990
 3955ntf    fn420443   3.024   4.857   4.959  0.1679  0.0867  0.1069
 3955ntf    fn420444   2.998   4.945   5.148  0.0690  0.0487  0.2455
 3955ntf    fn420445   2.828   4.872   5.028 -0.0111  0.0388 -1.0057
 3956ntf    cn120446   1.005   3.783   1.835  0.1804 -0.0560 -0.2507
 3956ntf    sn220447   1.044   3.643   1.726  0.0632 -0.2069 -0.1006
 3956ntf    nn320448   1.160   3.701   1.637  0.3726 -0.3155  0.2309
 3956ntf    sn220449   1.316   3.700   1.658  0.3836  0.6186  0.2147
 3956ntf    cn120450   1.374   3.692   1.486 -0.2338 -0.0215  0.0290
 3956ntf    fn420451   0.895   3.770   1.908  0.7044  0.7326  0.7151
 3956ntf    fn420452   1.106   3.817   1.913  0.2924  0.9077 -0.7992
 3956ntf    fn420453   0.983   3.888   1.758  0.2368  0.3090  0.2255
 3956ntf    on520454   1.075   3.534   1.815 -0.2771 -0.2629 -0.0507
 3956ntf    on520455   0.930   3.631   1.638 -0.1116  0.9540 -0.0444
 3956ntf    on520456   1.381   3.587   1.718 -0.0065  0.1047 -0.3246
 3956ntf    on520457   1.356   3.825   1.717 -0.5200  0.9434  0.1628
 3956ntf    fn420458   1.288   3.744   1.400 -0.5415  0.3818  0.5727
 3956ntf    fn420459   1.487   3.758   1.464 -0.0784 -0.0432  0.7470
 3956ntf    fn420460   1.394   3.566   1.453  0.2157  0.1285 -0.2929
 3957ntf    cn120461   5.846   5.519   1.234  0.6673 -0.4764  0.3062
 3957ntf    sn220462   5.838   5.448   1.067  0.0094  0.4717 -0.0770
 3957ntf    nn320463   5.868   5.564   0.965 -0.0226  0.3126 -0.2685
 3957ntf    sn220464   5.984   5.580   0.860  0.1659  0.1597 -0.0837
 3957ntf    cn120465   5.898   5.671   0.729 -0.0647 -0.1653 -0.1608
 3957ntf    fn420466   5.968   5.560   1.265  0.4520  0.5349 -0.1486
 3957ntf    fn420467   5.770   5.627   1.251  0.9296 -0.2717  0.1883
 3957ntf    fn420468   5.813   5.433   1.329  0.0602 -0.4950  0.0836
 3957ntf    on520469   5.935   5.342   1.071 -0.5881 -0.0759  0.1374
 3957ntf    on520470   5.701   5.403   1.053  0.3028 -0.4714  0.0042
 3957ntf    on520471   6.035   5.462   0.794 -0.3716 -0.0502 -0.1294
 3957ntf    on520472   6.085   5.672   0.907 -0.2773  0.4607  0.2888
 3957ntf    fn420473   5.880   5.799   0.758  0.6303  0.0549 -0.6974
 3957ntf    fn420474   5.961   5.679   0.613  0.5088  0.1481  0.1723
 3957ntf    fn420475   5.779   5.616   0.708 -0.0020 -0.4038  0.0980
 3958ntf    cn120476   2.509   0.161   1.514  0.4756 -0.0204 -0.0910
 3958ntf    sn220477   2.444   0.322   1.564  0.0934 -0.2302  0.0892
 3958ntf    nn320478   2.457   0.411   1.435  0.2417 -0.6588 -0.1904
 3958ntf    sn220479   2.348   0.507   1.375  0.1098 -0.6118  0.1234
 3958ntf    cn120480   2.445   0.660   1.373 -0.2231 -0.4042 -0.2347
 3958ntf    fn420481   2.521   0.089   1.624  0.2053  0.2197  0.0964
 3958ntf    fn420482   2.430   0.097   1.428  0.4070  0.1692 -0.1698
 3958ntf    fn420483   2.630   0.166   1.459  0.5535 -0.0085  0.0832
 3958ntf    on520484   2.312   0.269   1.591  0.1919 -0.2162  0.6189
 3958ntf    on520485   2.529   0.352   1.677 -0.4093  0.5742  0.2649
 3958ntf    on520486   2.233   0.540   1.456  0.0143  0.0195 -0.2702
 3958ntf    on520487   2.325   0.476   1.236 -0.0818 -0.1356  0.0487
 3958ntf    fn420488   2.520   0.648   1.265 -0.1604 -0.4086 -0.1902
 3958ntf    fn420489   2.383   0.777   1.367  0.1814 -0.1985 -0.4204
 3958ntf    fn420490   2.519   0.674   1.482  0.2368 -0.4608 -0.5385
 3959ntf    cn120491   7.074   5.320   0.469 -0.3800  0.0401 -0.1320
 3959ntf    sn220492   7.052   5.140   0.476 -0.3669  0.0485  0.1209
 3959ntf    nn320493   6.901   5.126   0.439 -0.3052 -0.3092  0.0044
 3959ntf    sn220494   6.830   5.098   0.302 -0.0562 -0.0083 -0.1858
 3959ntf    cn120495   6.820   4.917   0.293 -0.1565 -0.0085 -0.0828
 3959ntf    fn420496   7.042   5.373   0.352  0.0977 -0.3402 -0.4367
 3959ntf    fn420497   7.002   5.381   0.562 -0.1276  0.4314 -0.1885
 3959ntf    fn420498   7.201   5.349   0.489 -0.2865 -0.3154 -0.2084
 3959ntf    on520499   7.147   5.077   0.388 -0.1187 -0.0044  0.4211
 3959ntf    on520500   7.070   5.117   0.618 -0.0412 -0.7493 -0.0448
 3959ntf    on520501   6.913   5.141   0.192 -0.1125 -0.1997 -0.3040
 3959ntf    on520502   6.691   5.139   0.303  0.0648  0.3885  0.6899
 3959ntf    fn420503   6.941   4.866   0.307  0.2212  0.8227 -0.2888
 3959ntf    fn420504   6.749   4.869   0.394 -0.3747  0.4000 -0.0409
 3959ntf    fn420505   6.771   4.867   0.181 -0.4251 -0.2046  0.1208
 3960ntf    cn120506   6.464   0.001   1.807 -0.0495 -0.3413 -0.0522
 3960ntf    sn220507   6.455   0.151   1.909  0.1642 -0.2737 -0.1331
 3960ntf    nn320508   6.412   0.092   2.049  0.1492 -0.2028 -0.1083
 3960ntf    sn220509   6.498   0.089   2.180 -0.1299  0.0847  0.0838
 3960ntf    cn120510   6.432   0.237   2.263  0.3408  0.3629 -0.0351
 3960ntf    fn420511   6.453   0.033   1.679 -0.3162  0.0864  0.0744
 3960ntf    fn420512   6.574  -0.069   1.826  0.5146  0.6696  0.4854
 3960ntf    fn420513   6.360  -0.074   1.840 -0.3395 -0.2158 -0.6688
 3960ntf    on520514   6.590   0.203   1.906 -0.0968  0.4265  0.1818
 3960ntf    on520515   6.351   0.232   1.851  0.1078 -0.1277  0.1702
 3960ntf    on520516   6.639   0.121   2.172 -0.1192 -0.1959 -1.0245
 3960ntf    on520517   6.459  -0.014   2.272  0.0710  0.5389  0.6814
 3960ntf    fn420518   6.457   0.349   2.196  0.4509  0.1158 -0.4134
 3960ntf    fn420519   6.300   0.229   2.261  0.3459  0.1415  0.5393
 3960ntf    fn420520   6.473   0.257   2.387  0.2804  0.2002  0.0120
 3961ntf    cn120521   3.410   2.947   0.818 -0.0254 -0.0443  0.0031
 3961ntf    sn220522   3.546   2.986   0.703 -0.1099  0.2539  0.0015
 3961ntf    nn320523   3.664   2.953   0.802 -0.2876  0.2106  0.2009
 3961ntf    sn220524   3.777   2.844   0.790 -0.2169  0.3080 -0.0177
 3961ntf    cn120525   3.903   2.924   0.893 -0.1487  0.2577 -0.0626
 3961ntf    fn420526   3.294   2.945   0.754 -0.0061 -0.4864 -0.0219
 3961ntf    fn420527   3.414   2.824   0.866 -0.0558 -0.1828 -0.3487
 3961ntf    fn420528   3.404   3.033   0.918  0.7591 -0.4189  0.3812
 3961ntf    on520529   3.529   2.891   0.596 -0.3710 -0.0270  0.2897
 3961ntf    on520530   3.547   3.126   0.672  0.5893  0.2879  0.1492
 3961ntf    on520531   3.848   2.838   0.664  0.2029  0.0731  0.2286
 3961ntf    on520532   3.748   2.718   0.854 -0.3256  0.3143 -0.0531
 3961ntf    fn420533   3.882   2.901   1.021 -0.1233  0.0114 -0.1022
 3961ntf    fn420534   4.024   2.880   0.860 -0.4242 -0.7553  0.2458
 3961ntf    fn420535   3.896   3.055   0.879 -0.3869  0.1919 -0.5887
 3962ntf    cn120536   7.155   4.841   3.552  0.1188 -0.2085  0.0472
 3962ntf    sn220537   7.113   4.728   3.416  0.1516  0.1031 -0.2221
 3962ntf    nn320538   6.976   4.789   3.369  0.1699  0.3543  0.0490
 3962ntf    sn220539   6.830   4.749   3.410  0.0827  0.4628 -0.1508
 3962ntf    cn120540   6.758   4.909   3.457 -0.3575  0.1139  0.3724
 3962ntf    fn420541   7.073   4.846   3.656 -0.3961  0.6993 -0.3970
 3962ntf    fn420542   7.268   4.795   3.604  0.2050  0.0530  0.0928
 3962ntf    fn420543   7.185   4.964   3.515 -0.3287  0.0142  0.4180
 3962ntf    on520544   7.216   4.751   3.318  0.5799 -0.0819  0.1783
 3962ntf    on520545   7.105   4.600   3.482  0.1016  0.1297 -0.1763
 3962ntf    on520546   6.822   4.669   3.530 -0.0452 -0.0341 -0.4863
 3962ntf    on520547   6.753   4.704   3.297  0.1839  0.1298 -0.0866
 3962ntf    fn420548   6.846   4.980   3.526  0.3848 -0.0215 -0.4259
 3962ntf    fn420549   6.726   4.987   3.355 -0.2426 -0.1618  0.1258
 3962ntf    fn420550   6.648   4.904   3.531 -0.4352  0.5045  0.2887
 3963ntf    cn120551   4.958   4.137   1.705 -0.2140 -0.0782  0.4639
 3963ntf    sn220552   4.790   4.086   1.657 -0.1089 -0.1250  0.1385
 3963ntf    nn320553   4.788   3.950   1.736  0.7784 -0.0934  0.2316
 3963ntf    sn220554   4.747   3.902   1.879  0.1231  0.2033  0.1476
 3963ntf    cn120555   4.674   3.743   1.829  0.1828  0.2735 -0.1636
 3963ntf    fn420556   4.975   4.104   1.832 -0.0727  0.2521  0.5315
 3963ntf    fn420557   5.050   4.068   1.640 -0.4581  0.0619 -0.0350
 3963ntf    fn420558   4.978   4.266   1.684 -0.1435 -0.1833 -0.1529
 3963ntf    on520559   4.710   4.191   1.714 -0.5502 -0.2325 -0.2818
 3963ntf    on520560   4.802   4.081   1.514  0.1660  0.0053  0.1560
 3963ntf    on520561   4.632   3.962   1.944 -0.4016  0.4509 -0.9887
 3963ntf    on520562   4.858   3.864   1.963  0.0012 -0.2845  0.0917
 3963ntf    fn420563   4.747   3.687   1.734  0.1878  0.3863 -0.2267
 3963ntf    fn420564   4.671   3.652   1.926 -0.3241  0.3698 -0.0837
 3963ntf    fn420565   4.554   3.747   1.775  0.1485 -0.2289 -0.1300
 3964ntf    cn120566   4.837   0.761   2.655  1.0281 -0.3562  0.0373
 3964ntf    sn220567   4.839   0.894   2.778  0.3908 -0.1974 -0.1189
 3964ntf    nn320568   4.992   0.930   2.781  0.4661 -0.5429  0.3086
 3964ntf    sn220569   5.062   1.063   2.825  0.0283 -0.1697 -0.1024
 3964ntf    cn120570   5.206   1.002   2.920  0.1817 -0.0650 -0.2674
 3964ntf    fn420571   4.711   0.724   2.636  0.8144  0.4018 -0.0585
 3964ntf    fn420572   4.885   0.804   2.540  0.0737  0.1021 -0.2002
 3964ntf    fn420573   4.910   0.660   2.700  0.1199 -1.0146  0.0535
 3964ntf    on520574   4.748   0.991   2.723  0.2647 -0.3986 -0.2647
 3964ntf    on520575   4.798   0.825   2.898 -0.5234 -0.2325 -0.4463
 3964ntf    on520576   4.984   1.145   2.914 -0.2190 -0.3826 -0.1228
 3964ntf    on520577   5.124   1.132   2.715  0.4179  0.0341  0.2377
 3964ntf    fn420578   5.181   0.930   3.028 -0.4566 -0.2401 -0.5258
 3964ntf    fn420579   5.275   0.922   2.841  0.1568 -0.7748  0.4178
 3964ntf    fn420580   5.295   1.094   2.951  0.1151 -0.0578 -0.0962
 3965ntf    cn120581   3.440   1.795   1.915  0.0802 -0.1196 -0.0368
 3965ntf    sn220582   3.365   1.841   2.074 -0.0480 -0.3127 -0.0409
 3965ntf    nn320583   3.409   1.714   2.156  0.6141  0.4139  0.7461
 3965ntf    sn220584   3.334   1.655   2.281  0.1268 -0.1271  0.2059
 3965ntf    cn120585   3.217   1.533   2.215  0.4109 -0.2863 -0.0041
 3965ntf    fn420586   3.572   1.797   1.916  0.0794 -0.1513  0.4155
 3965ntf    fn420587   3.405   1.679   1.862 -0.6483  0.0413  0.0820
 3965ntf    fn420588   3.409   1.892   1.832  0.2757  0.3213  0.4017
 3965ntf    on520589   3.436   1.960   2.114  0.3289 -0.3216 -0.6726
 3965ntf    on520590   3.223   1.853   2.054 -0.0189 -0.6421 -0.4748
 3965ntf    on520591   3.241   1.740   2.352  0.1617  0.3670 -0.3322
 3965ntf    on520592   3.415   1.563   2.357 -0.3151 -0.2444  0.5354
 3965ntf    fn420593   3.270   1.459   2.118  0.0964 -0.2378 -0.2173
 3965ntf    fn420594   3.170   1.457   2.312 -0.2281  0.5837  0.3844
 3965ntf    fn420595   3.105   1.583   2.164  0.4950  0.1884  0.2799
 3966ntf    cn120596   2.232   2.690   4.346  0.4218 -0.3861  0.0582
 3966ntf    sn220597   2.296   2.801   4.476 -0.2052 -0.1773  0.1913
 3966ntf    nn320598   2.428   2.733   4.527 -0.1705  0.0203  0.3640
 3966ntf    sn220599   2.514   2.780   4.650 -0.0927  0.0756  0.2891
 3966ntf    cn120600   2.657   2.858   4.570 -0.2209 -0.2340 -0.2490
 3966ntf    fn420601   2.323   2.633   4.268 -0.0201 -0.0183 -0.7326
 3966ntf    fn420602   2.158   2.591   4.393 -0.2941  0.2120  0.2019
 3966ntf    fn420603   2.154   2.752   4.260  0.3024 -0.3729  0.1746
 3966ntf    on520604   2.319   2.921   4.400  1.0843 -0.2255  0.4899
 3966ntf    on520605   2.186   2.812   4.568  0.2114  0.7986  0.5898
 3966ntf    on520606   2.569   2.670   4.724 -0.0686  0.1540  0.3887
 3966ntf    on520607   2.448   2.878   4.734 -0.3345 -0.4199  0.6857
 3966ntf    fn420608   2.636   2.965   4.496  0.6592  0.0523 -0.1008
 3966ntf    fn420609   2.747   2.898   4.659  0.3817 -0.2319 -0.8540
 3966ntf    fn420610   2.733   2.776   4.499  0.0215 -0.1853 -0.0490
 3967ntf    cn120611   3.074   1.318   2.686 -0.5623 -0.1560 -0.0215
 3967ntf    sn220612   2.948   1.355   2.812 -0.4347  0.1835  0.0067
 3967ntf    nn320613   2.914   1.209   2.859  0.0664 -0.1499 -0.6442
 3967ntf    sn220614   2.773   1.151   2.899  0.0869  0.3689  0.1846
 3967ntf    cn120615   2.730   1.055   2.751 -0.0151  0.0703  0.4073
 3967ntf    fn420616   3.042   1.221   2.601  0.3098 -0.1649 -0.3463
 3967ntf    fn420617   3.116   1.421   2.614  0.0042 -0.1807  0.2690
 3967ntf    fn420618   3.190   1.277   2.734 -0.2101  0.9087  0.0438
 3967ntf    on520619   3.016   1.430   2.915 -0.6687 -0.3787  0.5771
 3967ntf    on520620   2.859   1.437   2.734  0.3719  0.4979 -0.6060
 3967ntf    on520621   2.671   1.248   2.932 -0.0731  0.2740 -0.0351
 3967ntf    on520622   2.786   1.037   2.985 -0.4737  0.3985  0.3087
 3967ntf    fn420623   2.816   0.955   2.744 -0.0571  0.0713 -0.1589
 3967ntf    fn420624   2.610   1.003   2.769  0.1591 -0.3792  0.2669
 3967ntf    fn420625   2.737   1.114   2.633 -0.2551  0.5905  0.6488
 3968ntf    cn120626   6.490   1.312   3.940  0.4030 -0.2209  0.1109
 3968ntf    sn220627   6.569   1.291   3.778  0.3548 -0.2306  0.0888
 3968ntf    nn320628   6.698   1.210   3.816  0.5042  0.0026  0.0769
 3968ntf    sn220629   6.850   1.249   3.817  0.4683  0.1472  0.0510
 3968ntf    cn120630   6.922   1.151   3.682 -0.2988 -0.0883 -0.1921
 3968ntf    fn420631   6.562   1.398   4.011 -0.1532 -0.0721  0.5045
 3968ntf    fn420632   6.368   1.363   3.940  0.1670 -0.7795  0.2565
 3968ntf    fn420633   6.483   1.198   4.008 -0.3716 -0.2202  0.0304
 3968ntf    on520634   6.471   1.214   3.706 -0.2068  0.5367  0.0176
 3968ntf    on520635   6.588   1.424   3.724  0.5442 -0.4076 -0.2854
 3968ntf    on520636   6.923   1.200   3.932 -0.0230  0.2981  0.4284
 3968ntf    on520637   6.876   1.387   3.785  0.0368  0.3159  0.4165
 3968ntf    fn420638   6.957   1.033   3.729  0.4500  0.2548  0.1354
 3968ntf    fn420639   6.843   1.126   3.580 -0.2384  0.1207 -0.2914
 3968ntf    fn420640   7.035   1.195   3.628 -0.2337 -0.4996 -0.3891
 3969ntf    cn120641   5.456   4.315   3.228  0.2988 -0.2144 -0.1209
 3969ntf    sn220642   5.552   4.443   3.142  0.1312 -0.0857 -0.1181
 3969ntf    nn320643   5.444   4.540   3.083  0.0259 -0.1699 -0.0641
 3969ntf    sn220644   5.477   4.679   3.018  0.2183 -0.0472  0.2943
 3969ntf    cn120645   5.448   4.781   3.166 -0.2620  0.2973 -0.0333
 3969ntf    fn420646   5.527   4.210   3.266 -0.2991 -0.5776  0.0029
 3969ntf    fn420647   5.400   4.373   3.332  0.1419 -0.6505  0.0368
 3969ntf    fn420648   5.353   4.277   3.154 -0.0739 -0.1964  0.3843
 3969ntf    on520649   5.632   4.501   3.247 -0.3677  0.4255 -0.0159
 3969ntf    on520650   5.626   4.369   3.043 -0.1113 -0.3936 -0.0672
 3969ntf    on520651   5.371   4.723   2.930  0.4007 -0.9871 -0.4058
 3969ntf    on520652   5.617   4.696   2.987  0.1759 -0.3797 -0.0747
 3969ntf    fn420653   5.325   4.753   3.208 -0.0088  0.1350  0.5978
 3969ntf    fn420654   5.532   4.751   3.264  0.1656  0.3202 -0.3901
 3969ntf    fn420655   5.463   4.911   3.148 -0.1067  0.2692 -0.1054
 3970ntf    cn120656   2.820   2.253   5.056 -0.0080  0.3026 -0.1797
 3970ntf    sn220657   2.731   2.348   4.929 -0.3051  0.0423 -0.1676
 3970ntf    nn320658   2.591   2.357   5.000  0.0033  0.0854  0.4422
 3970ntf    sn220659   2.459   2.276   4.973  0.0108  0.3156 -0.3056
 3970ntf    cn120660   2.383   2.384   4.848 -0.3492  0.0752 -0.2938
 3970ntf    fn420661   2.753   2.148   5.100  0.1708  0.2033 -0.1441
 3970ntf    fn420662   2.939   2.211   5.014  0.0493 -0.0229  0.3003
 3970ntf    fn420663   2.847   2.328   5.161  0.0296 -0.0953  0.0962
 3970ntf    on520664   2.808   2.470   4.925 -0.3659  0.1103  0.5396
 3970ntf    on520665   2.731   2.267   4.810 -0.3724  0.0289 -0.1586
 3970ntf    on520666   2.364   2.290   5.081  0.1332  0.0891 -0.1684
 3970ntf    on520667   2.465   2.149   4.905  0.3190  0.0753  0.1652
 3970ntf    fn420668   2.443   2.375   4.731  0.2175 -0.1475  0.0091
 3970ntf    fn420669   2.259   2.339   4.830 -0.0579 -0.9436  0.1648
 3970ntf    fn420670   2.383   2.515   4.868  0.3147  0.0731 -0.2772
 3971ntf    cn120671   5.984   1.760   6.544 -0.1634 -0.3296 -0.2627
 3971ntf    sn220672   5.936   1.701   6.709 -0.0319 -0.2036 -0.1786
 3971ntf    nn320673   5.803   1.626   6.672 -0.0001 -0.2543 -0.1884
 3971ntf    sn220674   5.734   1.495   6.724  0.5354 -0.3934  0.1797
 3971ntf    cn120675   5.743   1.391   6.575 -0.4174 -0.5688  0.2336
 3971ntf    fn420676   6.089   1.837   6.565 -0.6512  0.2571  0.0599
 3971ntf    fn420677   6.016   1.665   6.458  0.9031  0.2978 -0.5833
 3971ntf    fn420678   5.897   1.838   6.481  0.3814  0.1172 -0.4674
 3971ntf    on520679   6.039   1.605   6.740 -0.4095 -0.5491  0.0329
 3971ntf    on520680   5.914   1.819   6.789 -0.3210 -0.2118 -0.2424
 3971ntf    on520681   5.592   1.507   6.747  0.4459  0.0355 -0.5744
 3971ntf    on520682   5.813   1.422   6.819  0.5074 -0.4423  0.1659
 3971ntf    fn420683   5.654   1.424   6.483 -0.2024  0.0934  0.2550
 3971ntf    fn420684   5.864   1.393   6.520 -0.5264  0.1903  0.0118
 3971ntf    fn420685   5.717   1.265   6.602 -0.5026 -0.5342  0.3130
 3972ntf    cn120686   6.993   0.092   5.659  0.1095 -0.3281  0.1695
 3972ntf    sn220687   6.813   0.075   5.644  0.1083 -0.1014 -0.0866
 3972ntf    nn320688   6.797  -0.075   5.691 -0.0918 -0.0000  0.1772
 3972ntf    sn220689   6.803  -0.212   5.614  0.2162  0.1305 -0.0387
 3972ntf    cn120690   6.640  -0.193   5.536  0.1037 -0.3167  0.0892
 3972ntf    fn420691   7.065   0.002   5.595  0.2243  0.0453 -0.2310
 3972ntf    fn420692   7.026   0.214   5.621 -0.1764 -0.2290  0.2310
 3972ntf    fn420693   7.035   0.093   5.785  0.4256 -0.3598  0.0641
 3972ntf    on520694   6.757   0.165   5.742  0.1008  0.0906 -0.2674
 3972ntf    on520695   6.788   0.107   5.506 -0.2763 -0.0975 -0.0198
 3972ntf    on520696   6.785  -0.327   5.699 -0.5404  0.5920  0.4445
 3972ntf    on520697   6.901  -0.221   5.509  0.4686 -0.0872  0.2182
 3972ntf    fn420698   6.654  -0.118   5.428  0.0822 -0.0144  0.2977
 3972ntf    fn420699   6.590  -0.310   5.498  0.1691 -0.2625 -0.1652
 3972ntf    fn420700   6.548  -0.137   5.612  0.0349 -0.2963 -0.0078
 3973ntf    cn120701   5.626   2.284   6.457 -0.0866 -0.0958  0.0271
 3973ntf    sn220702   5.806   2.270   6.437 -0.0698 -0.1469  0.2138
 3973ntf    nn320703   5.845   2.422   6.433  0.1421 -0.2018  0.1824
 3973ntf    sn220704   5.898   2.506   6.555 -0.0087  0.0276  0.0892
 3973ntf    cn120705   5.975   2.647   6.470  0.1371 -0.2826 -0.2955
 3973ntf    fn420706   5.571   2.392   6.511  0.7240  0.5890 -0.4942
 3973ntf    fn420707   5.572   2.277   6.336  0.1928 -0.3224 -0.0849
 3973ntf    fn420708   5.597   2.176   6.527  0.4786 -0.2854 -0.0315
 3973ntf    on520709   5.849   2.195   6.552  0.0079 -0.1562  0.1791
 3973ntf    on520710   5.826   2.199   6.313 -0.3073 -0.4247  0.3336
 3973ntf    on520711   6.007   2.456   6.635 -0.1153 -0.3866 -0.0218
 3973ntf    on520712   5.787   2.571   6.621  0.0295  0.3227 -0.1309
 3973ntf    fn420713   5.901   2.697   6.372  0.0089 -0.7507 -0.4381
 3973ntf    fn420714   6.002   2.749   6.551 -0.1703 -0.1840 -0.3141
 3973ntf    fn420715   6.084   2.604   6.409 -0.0495 -0.6781 -0.3551
 3974ntf    cn120716   4.605   5.981   6.850 -0.1444 -0.2186  0.3129
 3974ntf    sn220717   4.644   6.150   6.797 -0.3872 -0.2430  0.0551
 3974ntf    nn320718   4.780   6.171   6.873 -0.5389  0.2449  0.1954
 3974ntf    sn220719   4.843   6.311   6.907 -0.2904  0.2479 -0.2734
 3974ntf    cn120720   4.809   6.308   7.086  0.1484 -0.2097 -0.1912
 3974ntf    fn420721   4.688   5.884   6.814  0.1004  0.2114 -0.2923
 3974ntf    fn420722   4.597   5.970   6.982  0.3126  0.4722  0.4072
 3974ntf    fn420723   4.484   5.950   6.807  0.0539  0.1396 -0.5155
 3974ntf    on520724   4.651   6.134   6.654  0.6345 -0.3371  0.1095
 3974ntf    on520725   4.538   6.226   6.859 -0.4352 -0.4128  0.1808
 3974ntf    on520726   4.766   6.415   6.844 -0.4907  0.1825 -0.1368
 3974ntf    on520727   4.987   6.306   6.893 -0.3238  0.1439 -0.5791
 3974ntf    fn420728   4.820   6.188   7.140  0.1721  0.1540  0.6294
 3974ntf    fn420729   4.880   6.386   7.165 -0.1219  0.1359 -0.2816
 3974ntf    fn420730   4.681   6.336   7.106  0.2061 -0.3149  0.3296
 3975ntf    cn120731   2.067   4.158   2.104  0.5998 -0.0827 -0.0031
 3975ntf    sn220732   2.159   4.208   1.955  0.0254  0.1654 -0.2788
 3975ntf    nn320733   2.193   4.358   1.988 -0.1264  0.0895  0.2378
 3975ntf    sn220734   2.210   4.474   1.883 -0.2930  0.0751  0.1934
 3975ntf    cn120735   2.392   4.474   1.875 -0.2885 -0.0254  0.2863
 3975ntf    fn420736   1.970   4.247   2.120  0.8091  0.1863 -0.2148
 3975ntf    fn420737   2.008   4.040   2.109  0.0981  0.1456 -0.3345
 3975ntf    fn420738   2.150   4.163   2.207 -0.0403 -0.3644  0.5348
 3975ntf    on520739   2.277   4.126   1.960  0.3735  0.6799  0.0902
 3975ntf    on520740   2.059   4.192   1.853 -0.3246  0.2688  0.0445
 3975ntf    on520741   2.182   4.605   1.936 -0.2870  0.1453  0.0237
 3975ntf    on520742   2.165   4.446   1.749 -0.4910  0.1800  0.2385
 3975ntf    fn420743   2.439   4.362   1.822  0.1706  0.3495 -0.1104
 3975ntf    fn420744   2.451   4.571   1.808 -0.0156 -0.2742  0.1624
 3975ntf    fn420745   2.439   4.481   1.998 -0.2176 -0.5276  0.2890
 3976ntf    cn120746   6.753   2.369   5.368 -0.2578  0.5551  0.2121
 3976ntf    sn220747   6.647   2.515   5.344 -0.6366  0.2272 -0.1314
 3976ntf    nn320748   6.649   2.579   5.488  0.0489 -0.0289 -0.0234
 3976ntf    sn220749   6.542   2.686   5.527 -0.0051 -0.1319  0.1096
 3976ntf    cn120750   6.630   2.843   5.500  0.1234 -0.2088  0.0838
 3976ntf    fn420751   6.774   2.300   5.258 -0.7888  0.3664  0.2272
 3976ntf    fn420752   6.872   2.408   5.413  0.2020 -0.2193 -0.3162
 3976ntf    fn420753   6.702   2.281   5.452  0.5775  0.2444  0.4090
 3976ntf    on520754   6.718   2.595   5.247 -0.2104  0.1501  0.1099
 3976ntf    on520755   6.533   2.441   5.299 -0.1344 -0.6398  0.0052
 3976ntf    on520756   6.523   2.677   5.670 -1.0591 -0.2471 -0.0290
 3976ntf    on520757   6.420   2.689   5.451  0.3123 -0.0574 -0.3960
 3976ntf    fn420758   6.556   2.952   5.506 -0.3425 -0.4872 -0.4518
 3976ntf    fn420759   6.727   2.866   5.587  0.0101  0.4110  0.0483
 3976ntf    fn420760   6.691   2.842   5.382  0.2491  0.6711  0.1320
 3977ntf    cn120761   1.367   2.094   6.461 -0.1048 -0.1786 -0.2264
 3977ntf    sn220762   1.322   1.989   6.602 -0.1178 -0.1720 -0.2256
 3977ntf    nn320763   1.271   2.101   6.699  0.3656 -0.2006  0.0656
 3977ntf    sn220764   1.310   2.129   6.849 -0.2018  0.1669  0.1486
 3977ntf    cn120765   1.444   2.247   6.813 -0.2165  0.2053  0.2198
 3977ntf    fn420766   1.449   2.190   6.503 -0.3835  0.0915 -0.2944
 3977ntf    fn420767   1.422   2.028   6.360 -0.0955  0.0507 -0.3719
 3977ntf    fn420768   1.263   2.158   6.410 -0.3579 -0.1431  0.3311
 3977ntf    on520769   1.219   1.902   6.551  0.1260 -0.2200 -0.6402
 3977ntf    on520770   1.451   1.932   6.635 -0.0653  0.0700 -0.0113
 3977ntf    on520771   1.371   2.026   6.929  0.1280 -0.1767 -0.5272
 3977ntf    on520772   1.206   2.206   6.912 -0.5192  0.0044 -0.1730
 3977ntf    fn420773   1.534   2.188   6.736 -0.5351 -0.0020  0.0010
 3977ntf    fn420774   1.412   2.358   6.748  0.2385  0.0187 -0.3262
 3977ntf    fn420775   1.501   2.285   6.926  0.0818 -0.1680  0.1966
 3978ntf    cn120776   1.992   3.231   3.685 -0.1161 -0.1668  0.7801
 3978ntf    sn220777   2.035   3.320   3.532 -0.0646 -0.5884  0.5477
 3978ntf    nn320778   2.008   3.205   3.428  0.0621 -0.0410 -0.0942
 3978ntf    sn220779   1.871   3.175   3.357  0.0089  0.2625 -0.1227
 3978ntf    cn120780   1.864   3.299   3.225  0.2938 -0.0064 -0.3905
 3978ntf    fn420781   1.980   3.314   3.787  0.2165  0.4081  0.3531
 3978ntf    fn420782   1.870   3.180   3.677 -0.1559  0.0217  0.1422
 3978ntf    fn420783   2.076   3.133   3.715  0.1444 -0.1899  0.0175
 3978ntf    on520784   1.944   3.432   3.531  0.1446 -0.4205  0.0520
 3978ntf    on520785   2.177   3.345   3.535 -0.0683 -0.3544 -0.6572
 3978ntf    on520786   1.751   3.205   3.431 -0.0823 -0.3723 -0.0062
 3978ntf    on520787   1.875   3.055   3.278 -0.1967 -0.2602  0.6494
 3978ntf    fn420788   1.752   3.290   3.155 -0.1496 -0.0548  0.3184
 3978ntf    fn420789   1.859   3.422   3.275 -0.3560 -0.2967  0.2808
 3978ntf    fn420790   1.955   3.298   3.128  0.6751  0.1696 -0.0382
 3979ntf    cn120791   0.384   2.160   2.955 -0.1410 -0.1744 -0.1441
 3979ntf    sn220792   0.348   2.295   3.071  0.3679 -0.1113 -0.0587
 3979ntf    nn320793   0.490   2.336   3.123  0.2777 -0.2003  0.2598
 3979ntf    sn220794   0.581   2.452   3.069  0.0920 -0.2409 -0.1360
 3979ntf    cn120795   0.548   2.579   3.195  0.2578 -0.2197 -0.1142
 3979ntf    fn420796   0.470   2.200   2.863  0.4368 -0.1160  0.4137
 3979ntf    fn420797   0.426   2.054   3.020  0.0486  0.0924  0.1711
 3979ntf    fn420798   0.276   2.114   2.893 -0.1433  0.3403 -0.5375
 3979ntf    on520799   0.280   2.391   2.988  0.5826  0.2547  0.1861
 3979ntf    on520800   0.260   2.235   3.169 -0.1888  0.3150 -0.2893
 3979ntf    on520801   0.538   2.517   2.947 -0.4313  0.3620  0.3557
 3979ntf    on520802   0.723   2.433   3.083  0.0915 -0.1390  0.0122
 3979ntf    fn420803   0.627   2.682   3.171  0.1241 -0.1077 -0.0785
 3979ntf    fn420804   0.419   2.609   3.192  0.2689 -0.2126 -0.6000
 3979ntf    fn420805   0.571   2.542   3.320  0.3518 -0.0966 -0.0948
 3980ntf    cn120806   5.291   0.471   4.612 -0.5696  0.3613  0.0405
 3980ntf    sn220807   5.383   0.538   4.470 -0.1806 -0.1509  0.0464
 3980ntf    nn320808   5.268   0.609   4.390  0.2032 -0.1113 -0.4695
 3980ntf    sn220809   5.264   0.726   4.285  0.0556 -0.0093 -0.3503
 3980ntf    cn120810   5.251   0.875   4.388  0.0648 -0.1441 -0.1515
 3980ntf    fn420811   5.256   0.566   4.697 -0.2684  0.3035  0.2283
 3980ntf    fn420812   5.183   0.404   4.575 -0.1785 -0.0857 -0.3134
 3980ntf    fn420813   5.363   0.384   4.680 -1.0226 -0.2402 -0.2351
 3980ntf    on520814   5.473   0.632   4.533 -0.6155  0.3379 -0.0490
 3980ntf    on520815   5.428   0.419   4.403  0.2611 -0.0047  0.0776
 3980ntf    on520816   5.146   0.731   4.203  0.3692 -0.1244 -0.8085
 3980ntf    on520817   5.382   0.743   4.204  0.3098  0.6023  0.1377
 3980ntf    fn420818   5.283   0.980   4.313  0.0983 -0.0277  0.0259
 3980ntf    fn420819   5.129   0.897   4.434  0.1414 -0.4963  0.2228
 3980ntf    fn420820   5.329   0.869   4.495 -0.0511  0.7661 -0.0075
 3981ntf    cn120821   4.800   6.673   1.820 -0.2675 -0.2784 -0.2711
 3981ntf    sn220822   4.653   6.722   1.916 -0.1367 -0.3192 -0.0480
 3981ntf    nn320823   4.560   6.596   1.923 -1.1246  0.4026  0.0529
 3981ntf    sn220824   4.455   6.556   1.813 -0.2167  0.1878 -0.7495
 3981ntf    cn120825   4.301   6.617   1.888 -0.0475 -0.3319  0.0402
 3981ntf    fn420826   4.844   6.557   1.867  0.9507  0.3013  0.0551
 3981ntf    fn420827   4.766   6.660   1.693 -0.1482  0.3749 -0.3717
 3981ntf    fn420828   4.896   6.760   1.842 -0.1170 -0.3363 -0.6922
 3981ntf    on520829   4.719   6.744   2.042 -0.1635  0.1372 -0.1093
 3981ntf    on520830   4.611   6.839   1.841  0.1262 -0.1410  0.0803
 3981ntf    on520831   4.445   6.413   1.803  0.6488  0.0145  0.5093
 3981ntf    on520832   4.455   6.624   1.686 -0.2347  1.1650 -0.2351
 3981ntf    fn420833   4.194   6.587   1.815 -0.2342 -0.0557  0.1960
 3981ntf    fn420834   4.286   6.565   2.009 -0.4135 -0.1178  0.0892
 3981ntf    fn420835   4.300   6.748   1.901  0.5143 -0.2623 -0.5909
 3982ntf    cn120836   6.771   6.553   1.991  0.2827  0.2000  0.1719
 3982ntf    sn220837   6.720   6.574   1.817  0.2702  0.0850  0.1618
 3982ntf    nn320838   6.687   6.726   1.801  0.1897  0.0731  0.2124
 3982ntf    sn220839   6.782   6.835   1.739 -0.1356  0.0809 -0.2833
 3982ntf    cn120840   6.728   6.980   1.835 -0.2341 -0.1001 -0.0634
 3982ntf    fn420841   6.835   6.658   2.039  0.4800  0.1196  0.0829
 3982ntf    fn420842   6.668   6.538   2.073 -0.1699  0.1548 -0.3964
 3982ntf    fn420843   6.858   6.455   2.005  0.4903  0.2502 -0.6844
 3982ntf    on520844   6.834   6.523   1.744 -0.0064  0.0817 -0.2660
 3982ntf    on520845   6.603   6.491   1.804 -0.2066  0.7376  0.2692
 3982ntf    on520846   6.746   6.886   1.609 -0.2151  0.3053 -0.1738
 3982ntf    on520847   6.919   6.820   1.782 -0.2049  0.4051  0.0553
 3982ntf    fn420848   6.789   7.089   1.791 -0.3717  0.0333  0.0743
 3982ntf    fn420849   6.599   7.007   1.824 -0.1605 -0.0331 -0.8813
 3982ntf    fn420850   6.752   6.974   1.965 -0.2772 -0.0963 -0.0553
 3983ntf    cn120851   1.324   6.858   4.078  0.1297  0.1032 -0.1688
 3983ntf    sn220852   1.461   6.929   4.174  0.0809  0.1346 -0.1219
 3983ntf    nn320853   1.547   6.808   4.226 -0.1942  0.1822  0.4570
 3983ntf    sn220854   1.698   6.787   4.263 -0.0910 -0.1200 -0.1125
 3983ntf    cn120855   1.709   6.605   4.268 -0.0612 -0.1128  0.1045
 3983ntf    fn420856   1.229   6.944   4.043 -0.3029 -0.1985  0.2498
 3983ntf    fn420857   1.366   6.797   3.968  0.2376  0.2074 -0.1858
 3983ntf    fn420858   1.267   6.764   4.151 -0.1499  0.3327 -0.0865
 3983ntf    on520859   1.526   7.007   4.071 -0.3869  0.0429 -0.4862
 3983ntf    on520860   1.390   7.003   4.276 -0.5285 -0.2105 -0.2925
 3983ntf    on520861   1.721   6.825   4.401 -0.5061  0.0501 -0.0866
 3983ntf    on520862   1.791   6.834   4.164  0.5850 -0.6315  0.2680
 3983ntf    fn420863   1.700   6.537   4.155 -0.1457 -0.0219  0.0558
 3983ntf    fn420864   1.824   6.570   4.323  0.2507 -0.1353 -0.5611
 3983ntf    fn420865   1.608   6.557   4.338 -0.4892 -0.1266 -0.5138
 3984ntf    cn120866   6.412   0.531   6.693  0.2525  0.2676  0.5050
 3984ntf    sn220867   6.372   0.515   6.517  0.0021 -0.0233  0.5889
 3984ntf    nn320868   6.217   0.538   6.510 -0.0388 -0.4827 -0.1258
 3984ntf    sn220869   6.097   0.436   6.502 -0.3134 -0.1909  0.2335
 3984ntf    cn120870   5.979   0.506   6.621  0.0392  0.3414  0.2789
 3984ntf    fn420871   6.385   0.655   6.733  0.0529  0.4793 -0.2768
 3984ntf    fn420872   6.341   0.441   6.759 -0.3414  0.2368 -0.1688
 3984ntf    fn420873   6.542   0.516   6.713  0.3536  0.1546 -0.2401
 3984ntf    on520874   6.435   0.618   6.439 -0.8892  0.0329 -0.0797
 3984ntf    on520875   6.410   0.378   6.493 -0.0927  0.0227  0.1733
 3984ntf    on520876   6.121   0.311   6.568 -0.3000 -0.8112 -0.9296
 3984ntf    on520877   6.029   0.440   6.375  0.4860  0.6458 -0.1836
 3984ntf    fn420878   5.850   0.479   6.605  0.0962 -0.0740  0.4927
 3984ntf    fn420879   5.997   0.471   6.747 -0.5483 -0.3000  0.1939
 3984ntf    fn420880   5.995   0.637   6.626 -0.2154  0.3931 -0.1611
 3985ntf    cn120881   3.710   4.828   4.948 -0.0336  0.3000 -0.0720
 3985ntf    sn220882   3.573   4.806   4.829 -0.0211 -0.2685  0.0152
 3985ntf    nn320883   3.447   4.838   4.917  0.0803  0.7162 -0.1797
 3985ntf    sn220884   3.360   4.967   4.929 -0.2646  0.4650  0.0313
 3985ntf    cn120885   3.259   4.953   4.778  0.0666  0.0453 -0.1519
 3985ntf    fn420886   3.683   4.918   5.041  0.3822  0.0146  0.3290
 3985ntf    fn420887   3.727   4.709   5.003  0.0916  0.0543 -0.6367
 3985ntf    fn420888   3.827   4.862   4.898  0.1713  0.0254  0.2208
 3985ntf    on520889   3.597   4.901   4.723  0.2571  0.0100  0.3235
 3985ntf    on520890   3.569   4.669   4.784  0.2288 -0.2124 -0.1809
 3985ntf    on520891   3.430   5.093   4.926 -0.3172  0.4978  0.1953
 3985ntf    on520892   3.264   4.958   5.037  0.2785  0.2401  0.5000
 3985ntf    fn420893   3.204   4.834   4.788 -0.2055  0.1192 -0.7460
 3985ntf    fn420894   3.167   5.048   4.773  0.8235  0.8101  0.1467
 3985ntf    fn420895   3.321   4.961   4.661  0.7529  0.2103  0.2181
 3986ntf    cn120896   7.055   6.199   0.852  0.2723  0.3452 -0.2143
 3986ntf    sn220897   7.150   6.044   0.858 -0.0212  0.1727 -0.0017
 3986ntf    nn320898   7.148   5.995   0.708 -0.5242  0.0233  0.0516
 3986ntf    sn220899   7.036   5.914   0.634 -0.2337 -0.2971 -0.0385
 3986ntf    cn120900   7.085   5.746   0.685 -0.1847 -0.3229 -0.1712
 3986ntf    fn420901   6.964   6.203   0.756  0.0234  0.1272  0.0132
 3986ntf    fn420902   6.988   6.217   0.964 -0.0692 -0.1556 -0.3332
 3986ntf    fn420903   7.131   6.305   0.831  0.2189  0.5886  0.8161
 3986ntf    on520904   7.280   6.095   0.892  0.1884 -0.1921 -0.2498
 3986ntf    on520905   7.081   5.963   0.955 -0.1272  0.9207  0.5479
 3986ntf    on520906   7.066   5.928   0.494  0.6613  0.1567  0.1871
 3986ntf    on520907   6.898   5.932   0.672 -0.0613 -0.0133  0.4612
 3986ntf    fn420908   7.202   5.720   0.629 -0.2481 -0.1045 -0.4066
 3986ntf    fn420909   7.100   5.738   0.816 -0.1688  0.2528 -0.1342
 3986ntf    fn420910   7.004   5.646   0.656  0.8325 -1.2470  0.1119
 3987ntf    cn120911   3.699   0.505   4.799 -0.0030  0.1987 -0.1595
 3987ntf    sn220912   3.540   0.595   4.791 -0.0696  0.1249  0.3452
 3987ntf    nn320913   3.540   0.663   4.933  0.3141  0.2740  0.2751
 3987ntf    sn220914   3.483   0.603   5.066 -0.6577  0.1114 -0.2081
 3987ntf    cn120915   3.309   0.652   5.045 -0.7398 -0.0312  0.1319
 3987ntf    fn420916   3.698   0.407   4.887  0.2291 -0.1213 -0.5075
 3987ntf    fn420917   3.724   0.453   4.680 -0.5816 -0.1732 -0.1196
 3987ntf    fn420918   3.793   0.594   4.829 -0.7756  1.0188 -0.1063
 3987ntf    on520919   3.568   0.690   4.687 -0.3203 -0.5807 -0.3731
 3987ntf    on520920   3.443   0.493   4.760  0.2705 -0.1059  0.0281
 3987ntf    on520921   3.521   0.673   5.186  0.5972 -0.7952 -0.0558
 3987ntf    on520922   3.482   0.459   5.073  0.3270  0.1097 -0.0297
 3987ntf    fn420923   3.243   0.644   5.159 -0.3265 -0.0731  0.3690
 3987ntf    fn420924   3.281   0.771   4.994 -1.0672 -0.2115 -0.1179
 3987ntf    fn420925   3.252   0.561   4.968  0.0282  0.1071 -0.6215
 3988ntf    cn120926   4.586   3.811   5.219  0.1079  0.5988 -0.0974
 3988ntf    sn220927   4.562   3.877   5.387 -0.2585 -0.0514  0.1053
 3988ntf    nn320928   4.500   3.748   5.452 -0.2392 -0.3424 -0.4470
 3988ntf    sn220929   4.561   3.629   5.534  0.0090  0.1616  0.1102
 3988ntf    cn120930   4.578   3.729   5.685  0.4832  0.0916  0.1031
 3988ntf    fn420931   4.479   3.764   5.157  0.6768 -0.0776 -0.5796
 3988ntf    fn420932   4.642   3.898   5.136  1.0822  0.1214  0.0421
 3988ntf    fn420933   4.667   3.707   5.221  0.3166  0.7565 -0.2623
 3988ntf    on520934   4.696   3.906   5.432 -0.3597 -0.0791  0.4270
 3988ntf    on520935   4.463   3.980   5.371 -0.5557 -0.4295 -0.5280
 3988ntf    on520936   4.693   3.587   5.495 -0.0804 -0.1564  0.1451
 3988ntf    on520937   4.458   3.533   5.566 -0.1873  0.1924 -0.4134
 3988ntf    fn420938   4.470   3.750   5.759  0.4332 -0.1793  0.1114
 3988ntf    fn420939   4.648   3.664   5.777 -0.0624 -0.6414  0.0106
 3988ntf    fn420940   4.621   3.852   5.664  0.1770  0.1676 -0.0945
 3989ntf    cn120941   1.567   7.224   5.200 -0.2489  0.0448 -0.1997
 3989ntf    sn220942   1.395   7.253   5.151 -0.2718 -0.0489 -0.1751
 3989ntf    nn320943   1.423   7.311   5.008  0.3625  0.1939  0.0438
 3989ntf    sn220944   1.391   7.447   4.937 -0.1841  0.1176  0.1394
 3989ntf    cn120945   1.534   7.548   4.984 -0.0401 -0.0570  0.0766
 3989ntf    fn420946   1.593   7.209   5.329  0.4027 -0.0381 -0.3363
 3989ntf    fn420947   1.620   7.115   5.147  1.0763  0.5546  0.0360
 3989ntf    fn420948   1.651   7.314   5.150 -0.0352  0.5162  0.9684
 3989ntf    on520949   1.355   7.114   5.149  0.1265 -0.1602 -0.4101
 3989ntf    on520950   1.360   7.345   5.257 -0.1800  0.3265 -0.4692
 3989ntf    on520951   1.281   7.525   4.989 -0.1621  0.1561  0.1277
 3989ntf    on520952   1.410   7.442   4.794 -0.4076 -0.1769  0.1189
 3989ntf    fn420953   1.532   7.564   5.115  0.1088 -0.1298  0.0887
 3989ntf    fn420954   1.646   7.484   4.954 -0.2944 -0.2716 -0.4336
 3989ntf    fn420955   1.525   7.662   4.918 -0.1880 -0.1085  0.0084
 3990ntf    cn120956   2.474   4.992   0.097 -0.2102 -0.3491 -0.2737
 3990ntf    sn220957   2.623   5.076   0.035 -0.4445  0.3108  0.0464
 3990ntf    nn320958   2.707   5.093   0.166  0.5438  0.4405 -0.5938
 3990ntf    sn220959   2.808   4.990   0.228 -0.3305  0.0055  0.1200
 3990ntf    cn120960   2.838   5.066   0.391 -0.2442  0.2364 -0.0050
 3990ntf    fn420961   2.423   5.044   0.208  0.4141  0.2154 -0.2477
 3990ntf    fn420962   2.379   5.006   0.006  0.3556  0.0250 -0.8115
 3990ntf    fn420963   2.485   4.861   0.107  0.1120 -0.3323 -0.3840
 3990ntf    on520964   2.670   4.982  -0.064 -0.5999  0.2356  0.0426
 3990ntf    on520965   2.588   5.206  -0.017  0.6251  0.6252  0.0863
 3990ntf    on520966   2.938   4.991   0.168 -0.0915  0.7463  0.6443
 3990ntf    on520967   2.746   4.865   0.267 -0.1764  0.0381  0.4749
 3990ntf    fn420968   2.931   5.009   0.466 -0.2427  0.1882 -0.0433
 3990ntf    fn420969   2.884   5.189   0.376 -0.2044  0.1541 -0.6110
 3990ntf    fn420970   2.722   5.074   0.452 -0.2633 -0.0488 -0.0001
 3991ntf    cn120971   4.101   3.361   0.836  0.1393 -0.4513  0.2976
 3991ntf    sn220972   4.111   3.506   0.945 -0.0379 -0.2815  0.0865
 3991ntf    nn320973   3.960   3.532   0.979  0.0469  0.2884  0.0500
 3991ntf    sn220974   3.895   3.572   1.116 -0.0267  0.2419  0.0293
 3991ntf    cn120975   3.852   3.745   1.079  0.2973  0.1795 -0.6580
 3991ntf    fn420976   4.058   3.246   0.886 -0.0085 -0.7783 -0.5741
 3991ntf    fn420977   4.015   3.386   0.739  0.3869  0.1191  0.2261
 3991ntf    fn420978   4.215   3.324   0.781 -0.0922 -0.7994  0.0470
 3991ntf    on520979   4.185   3.448   1.053 -0.2047  0.1371  0.4291
 3991ntf    on520980   4.172   3.607   0.862 -0.3744 -0.5279 -0.4696
 3991ntf    on520981   3.975   3.587   1.236 -0.5675  0.0263  0.4198
 3991ntf    on520982   3.768   3.507   1.135  0.0260  0.0922 -0.1302
 3991ntf    fn420983   3.750   3.754   0.996 -0.3519 -0.1365  0.0914
 3991ntf    fn420984   3.820   3.813   1.188 -0.1634 -0.6827 -0.2362
 3991ntf    fn420985   3.948   3.815   1.021  1.0102 -0.1284  0.1333
 3992ntf    cn120986   2.867   5.293   2.345  0.1676  0.1949 -0.3626
 3992ntf    sn220987   3.023   5.386   2.343  0.2220  0.1270  0.3866
 3992ntf    nn320988   2.970   5.530   2.374  0.4911  0.3992 -0.3854
 3992ntf    sn220989   2.923   5.635   2.267 -0.2548  0.2699 -0.1906
 3992ntf    cn120990   3.077   5.724   2.232  0.0471 -0.3016 -0.3306
 3992ntf    fn420991   2.780   5.330   2.254 -0.2094  0.6780  0.1911
 3992ntf    fn420992   2.889   5.163   2.330 -0.1372  0.1675 -0.5700
 3992ntf    fn420993   2.803   5.311   2.459 -0.1542  0.1884 -0.5420
 3992ntf    on520994   3.095   5.334   2.457 -0.5150  0.4251  0.9992
 3992ntf    on520995   3.089   5.359   2.218 -0.5494  0.6919 -0.1447
 3992ntf    on520996   2.832   5.732   2.324 -0.0085  0.5203 -0.2233
 3992ntf    on520997   2.896   5.590   2.133  0.3736  0.3738 -0.3515
 3992ntf    fn420998   3.059   5.823   2.146  0.0982  0.2232  0.2569
 3992ntf    fn420999   3.132   5.763   2.346  0.2819 -0.1468 -0.4954
 3992ntf    fn421000   3.169   5.647   2.176  0.4552 -0.1692  0.1553
 3993ntf    cn121001   2.424   1.213   0.498  0.0500  0.0027 -0.2678
 3993ntf    sn221002   2.342   1.068   0.425  0.1230 -0.0849 -0.1747
 3993ntf    nn321003   2.190   1.095   0.451  0.0245 -0.8456  0.0693
 3993ntf    sn221004   2.084   1.126   0.339  0.4475  0.0609 -0.0838
 3993ntf    cn121005   1.929   1.155   0.429  0.2476  0.1269 -0.4477
 3993ntf    fn421006   2.367   1.265   0.606 -0.0994  0.3610 -0.5149
 3993ntf    fn421007   2.545   1.183   0.540 -0.1155 -0.0569  0.1694
 3993ntf    fn421008   2.426   1.310   0.408  0.0253  0.5346  0.3019
 3993ntf    on521009   2.398   1.075   0.292  0.2856 -0.0321 -0.1042
 3993ntf    on521010   2.387   0.959   0.509  0.3809 -0.2413 -0.5118
 3993ntf    on521011   2.055   1.006   0.266  0.0346 -0.0754  0.2992
 3993ntf    on521012   2.106   1.249   0.266  0.1078  0.0384 -0.2257
 3993ntf    fn421013   1.832   1.149   0.340 -0.3011  0.3808  0.1241
 3993ntf    fn421014   1.916   1.080   0.537  0.6076  0.9583  0.1874
 3993ntf    fn421015   1.950   1.278   0.473  0.5537 -0.0392 -0.1248
 3994ntf    cn121016   5.561   6.956   2.915 -0.1368  0.2164  0.3352
 3994ntf    sn221017   5.663   7.089   2.847 -0.0192  0.0241  0.1342
 3994ntf    nn321018   5.762   7.110   2.967 -0.1608  0.1739  0.2249
 3994ntf    sn221019   5.778   7.233   3.064 -0.1249  0.0856  0.3310
 3994ntf    cn121020   5.662   7.180   3.194 -0.2139  0.0198  0.2261
 3994ntf    fn421021   5.465   6.925   2.829  0.6530  0.1984 -0.5499
 3994ntf    fn421022   5.633   6.847   2.935 -0.0138  0.2295 -0.0342
 3994ntf    fn421023   5.494   6.988   3.025 -0.1398  0.1611  0.3500
 3994ntf    on521024   5.729   7.046   2.726  0.0287  0.1683  0.1079
 3994ntf    on521025   5.571   7.200   2.830  0.0201  0.0752  0.2573
 3994ntf    on521026   5.726   7.361   3.025 -0.4086 -0.0539  0.2453
 3994ntf    on521027   5.909   7.244   3.121  0.4198 -0.7425 -0.7186
 3994ntf    fn421028   5.549   7.156   3.131 -0.1253  0.0069  0.0713
 3994ntf    fn421029   5.702   7.064   3.245  0.1508  0.2307  0.4209
 3994ntf    fn421030   5.646   7.255   3.301 -0.2182  0.0002  0.2388
 3995ntf    cn121031   4.730   3.097   5.992  0.1203 -0.1090 -0.4099
 3995ntf    sn221032   4.577   3.187   6.029  0.2745 -0.0529  0.0969
 3995ntf    nn321033   4.635   3.314   6.100  0.0887 -0.0945  0.3281
 3995ntf    sn221034   4.594   3.408   6.219  0.3148  0.2920  0.1022
 3995ntf    cn121035   4.757   3.423   6.298  0.3896 -0.4519  0.0918
 3995ntf    fn421036   4.705   2.969   5.966 -0.3352 -0.1825  0.3562
 3995ntf    fn421037   4.782   3.141   5.879  0.4395  0.1078 -0.1794
 3995ntf    fn421038   4.821   3.105   6.087 -0.4085 -0.3908  0.1300
 3995ntf    on521039   4.521   3.224   5.902  0.4569 -0.2621 -0.0444
 3995ntf    on521040   4.501   3.097   6.114 -0.1176  0.0921 -0.0988
 3995ntf    on521041   4.507   3.349   6.317 -0.0994  0.2515 -0.2878
 3995ntf    on521042   4.577   3.542   6.167  0.1007  0.4002  0.4541
 3995ntf    fn421043   4.821   3.307   6.302  0.0908 -0.6059  0.6298
 3995ntf    fn421044   4.826   3.510   6.226  0.2548 -0.4372 -0.0190
 3995ntf    fn421045   4.742   3.465   6.423 -0.3481  0.5569 -0.3236
 3996ntf    cn121046   3.002   6.532   1.512 -0.3814  0.1841 -0.4203
 3996ntf    sn221047   2.850   6.432   1.512 -0.1422 -0.1832 -0.0692
 3996ntf    nn321048   2.812   6.408   1.663 -0.5325 -0.1960 -0.1684
 3996ntf    sn221049   2.785   6.278   1.747 -0.1948 -0.1705 -0.0203
 3996ntf    cn121050   2.947   6.251   1.825 -0.1649  0.3159  0.0896
 3996ntf    fn421051   3.048   6.538   1.388 -0.0454  0.1798 -0.2965
 3996ntf    fn421052   2.982   6.652   1.562  0.0376  0.1433 -0.1464
 3996ntf    fn421053   3.097   6.475   1.586  0.0633  1.0268 -0.3297
 3996ntf    on521054   2.761   6.531   1.458 -0.1063 -0.2644 -0.2760
 3996ntf    on521055   2.882   6.318   1.430 -0.1507 -0.1924 -0.0592
 3996ntf    on521056   2.757   6.161   1.668  0.4653 -0.2321 -0.1703
 3996ntf    on521057   2.687   6.301   1.850 -0.2403  0.0936 -0.1216
 3996ntf    fn421058   3.033   6.223   1.729 -0.4695  0.0636 -0.1101
 3996ntf    fn421059   2.996   6.353   1.894  0.0371  0.3613 -0.1172
 3996ntf    fn421060   2.954   6.143   1.901  0.5399  0.1540 -0.1941
 3997ntf    cn121061   1.019   3.437   5.871 -0.4646  0.5172 -0.4504
 3997ntf    sn221062   1.021   3.312   5.739 -0.2673 -0.2599  0.2836
 3997ntf    nn321063   1.161   3.244   5.755  0.2597  0.5992 -0.5970
 3997ntf    sn221064   1.195   3.101   5.698 -0.1532  0.2112  0.1210
 3997ntf    cn121065   1.369   3.119   5.648 -0.0615  0.0279  0.3724
 3997ntf    fn421066   1.029   3.393   5.995 -0.3302 -0.2131 -0.7143
 3997ntf    fn421067   1.130   3.509   5.865 -0.0795 -0.0085  0.2368
 3997ntf    fn421068   0.914   3.516   5.864 -0.6018  0.3537 -0.2417
 3997ntf    on521069   0.913   3.222   5.773 -0.3580 -0.1669  0.2402
 3997ntf    on521070   0.993   3.386   5.618  0.2451 -0.4683  0.0342
 3997ntf    on521071   1.132   3.077   5.571 -0.1307  0.0626  0.1371
 3997ntf    on521072   1.190   3.001   5.802  0.0188 -0.0151 -0.0868
 3997ntf    fn421073   1.453   3.164   5.740  0.1614  0.0945  0.1361
 3997ntf    fn421074   1.416   3.001   5.609 -0.3288 -0.0868  0.3937
 3997ntf    fn421075   1.379   3.202   5.546 -0.6080  0.0453  0.3306
 3998ntf    cn121076   2.694   1.448   5.179 -0.1480 -0.1840 -0.0496
 3998ntf    sn221077   2.806   1.368   5.297  0.0021  0.0364 -0.0426
 3998ntf    nn321078   2.902   1.485   5.341  0.4215 -0.5469  0.6241
 3998ntf    sn221079   3.058   1.503   5.333  0.3625 -0.1723  0.2614
 3998ntf    cn121080   3.055   1.603   5.182  0.1039  0.1671  0.4900
 3998ntf    fn421081   2.655   1.372   5.078 -0.8870  0.1565 -0.0326
 3998ntf    fn421082   2.581   1.483   5.239  0.1557  0.4472  0.1618
 3998ntf    fn421083   2.750   1.562   5.141 -0.1708 -0.0399  0.3405
 3998ntf    on521084   2.720   1.338   5.409 -0.8130  0.8761 -0.4281
 3998ntf    on521085   2.864   1.260   5.220  0.6127  0.4278 -0.1355
 3998ntf    on521086   3.130   1.381   5.306 -0.4565 -0.5377 -0.3222
 3998ntf    on521087   3.116   1.583   5.437  0.3187 -0.1434  0.2638
 3998ntf    fn421088   3.049   1.520   5.079 -0.1375  0.0852  0.5700
 3998ntf    fn421089   2.943   1.673   5.174 -0.0745 -0.1596  0.0683
 3998ntf    fn421090   3.161   1.680   5.159  0.2625 -0.1854  0.0218
 3999ntf    cn121091   3.278   1.296   4.750 -0.0850  0.2255 -0.0620
 3999ntf    sn221092   3.433   1.202   4.737  0.1052  0.5255  0.0022
 3999ntf    nn321093   3.429   1.159   4.585  0.1491  0.3472  0.0512
 3999ntf    sn221094   3.554   1.145   4.492 -0.1864  0.4716 -0.4219
 3999ntf    cn121095   3.494   1.013   4.382 -0.4462 -0.1077  0.4034
 3999ntf    fn421096   3.252   1.316   4.878  0.3006 -0.0333  0.0593
 3999ntf    fn421097   3.287   1.421   4.707 -0.4662  0.0707 -0.5913
 3999ntf    fn421098   3.172   1.243   4.692  0.0227  0.2724 -0.3009
 3999ntf    on521099   3.530   1.302   4.774  0.0820  0.4478  0.2737
 3999ntf    on521100   3.407   1.098   4.833  0.4038  0.2905 -0.1692
 3999ntf    on521101   3.665   1.078   4.555 -0.3380  0.5161 -0.1033
 3999ntf    on521102   3.582   1.247   4.394 -0.3762  0.5020 -0.4445
 3999ntf    fn421103   3.387   1.051   4.314 -0.1099  0.6058  0.2657
 3999ntf    fn421104   3.588   0.983   4.293  0.0177  0.3264  0.7384
 3999ntf    fn421105   3.468   0.899   4.443 -0.3117 -0.3347  0.0393
 4000ntf    cn121106   6.543   6.513   3.246 -0.0016 -0.1467 -0.3071
 4000ntf    sn221107   6.488   6.666   3.327  0.2990 -0.0981 -0.1963
 4000ntf    nn321108   6.336   6.631   3.346  0.3018 -0.3065 -0.5573
 4000ntf    sn221109   6.215   6.684   3.261 -0.0682  0.4332  0.4151
 4000ntf    cn121110   6.174   6.538   3.161  0.1743  0.7426 -0.1386
 4000ntf    fn421111   6.502   6.510   3.121  0.5550  0.3389 -0.5039
 4000ntf    fn421112   6.674   6.494   3.241 -0.0635 -0.7892  0.2626
 4000ntf    fn421113   6.493   6.405   3.306  0.6214 -0.2074  0.1165
 4000ntf    on521114   6.551   6.677   3.456 -0.9244  0.1864  0.3944
 4000ntf    on521115   6.524   6.769   3.233 -0.3828 -0.2929 -0.6757
 4000ntf    on521116   6.241   6.797   3.175  0.2170  0.0808  0.0345
 4000ntf    on521117   6.101   6.689   3.349 -0.2271 -0.2745  0.2604
 4000ntf    fn421118   6.081   6.566   3.071  0.2162 -0.0435 -0.4330
 4000ntf    fn421119   6.275   6.477   3.101  0.1639  0.9149 -0.3333
 4000ntf    fn421120   6.123   6.440   3.234  0.1095  0.4259 -0.5977
 4001ntf    cn121121   7.155   2.580   7.301 -0.3308 -0.1126 -0.1624
 4001ntf    sn221122   7.147   2.730   7.404  0.0221 -0.1311 -0.1078
 4001ntf    nn321123   7.233   2.696   7.531 -0.2979 -0.2024  0.0926
 4001ntf    sn221124   7.388   2.715   7.546 -0.2665 -0.3924  0.0240
 4001ntf    cn121125   7.396   2.880   7.622  0.1148 -0.5094  0.2422
 4001ntf    fn421126   7.087   2.478   7.353 -0.0530 -0.6170 -0.7824
 4001ntf    fn421127   7.107   2.591   7.179  0.7055 -1.0685 -0.6706
 4001ntf    fn421128   7.280   2.539   7.286 -0.2058  0.1288  0.2037
 4001ntf    on521129   7.197   2.832   7.316 -0.5844  0.4274  0.1893
 4001ntf    on521130   7.006   2.736   7.434 -0.1118 -0.1504 -0.7202
 4001ntf    on521131   7.464   2.728   7.424  0.4023 -0.5023  0.4176
 4001ntf    on521132   7.435   2.631   7.654 -0.4370 -0.0244  0.3883
 4001ntf    fn421133   7.316   2.970   7.567  0.4361 -0.1472  0.3667
 4001ntf    fn421134   7.371   2.876   7.752 -0.3715 -0.7976  0.1399
 4001ntf    fn421135   7.518   2.932   7.620  0.0675 -0.3916  0.3891
 4002ntf    cn121136   2.111   1.844   4.625 -0.2573 -0.1639 -0.0204
 4002ntf    sn221137   2.260   1.740   4.623 -0.0905  0.0735  0.0081
 4002ntf    nn321138   2.223   1.650   4.746  0.2858  0.0904  0.1356
 4002ntf    sn221139   2.196   1.495   4.741 -0.0181  0.1499 -0.0567
 4002ntf    cn121140   2.364   1.429   4.720  0.0035  0.1618  0.0812
 4002ntf    fn421141   2.120   1.945   4.540 -1.0700 -0.0062  0.0719
 4002ntf    fn421142   2.001   1.777   4.596 -0.0590 -0.2388 -0.5979
 4002ntf    fn421143   2.093   1.891   4.748  0.1411  0.4835 -0.2041
 4002ntf    on521144   2.244   1.685   4.491 -0.0185  0.7524 -0.2873
 4002ntf    on521145   2.361   1.840   4.645  0.0754  0.0850 -0.7920
 4002ntf    on521146   2.125   1.444   4.627 -0.1124  0.1061  0.0220
 4002ntf    on521147   2.143   1.454   4.868 -0.6209  0.7511 -0.1098
 4002ntf    fn421148   2.369   1.311   4.780  0.0744  0.0329 -0.1764
 4002ntf    fn421149   2.410   1.420   4.597 -0.0318  0.5177  0.0415
 4002ntf    fn421150   2.453   1.499   4.788  0.8491 -0.6253 -0.1972
 4003ntf    cn121151   5.946   2.804   3.492 -0.1758 -0.2641 -0.8468
 4003ntf    sn221152   6.077   2.919   3.543 -0.6727 -0.1683  0.2236
 4003ntf    nn321153   6.162   2.933   3.412 -0.0519 -0.0570  0.6344
 4003ntf    sn221154   6.314   2.972   3.404 -0.1766  0.3389  0.1385
 4003ntf    cn121155   6.336   2.939   3.226 -0.1179  0.2981  0.1531
 4003ntf    fn421156   5.892   2.844   3.378 -0.0233  0.2717 -0.7316
 4003ntf    fn421157   6.003   2.686   3.468  0.4784  0.0367 -0.8033
 4003ntf    fn421158   5.856   2.785   3.586  0.2499 -0.3033 -0.4432
 4003ntf    on521159   6.007   3.042   3.567 -0.4655  0.0249 -0.1628
 4003ntf    on521160   6.139   2.847   3.652 -0.0190  0.3064  0.1678
 4003ntf    on521161   6.406   2.875   3.459 -0.2208  0.2738  0.0970
 4003ntf    on521162   6.348   3.111   3.416 -0.8211  0.4817  0.3272
 4003ntf    fn421163   6.461   2.965   3.191 -0.1049 -0.2022 -0.1730
 4003ntf    fn421164   6.300   2.821   3.179  0.0587  0.4846 -0.4596
 4003ntf    fn421165   6.268   3.031   3.160 -0.0133  0.2072 -0.0815
 4004ntf    cn121166   5.591   6.672   3.884  0.1941  0.1599 -0.0958
 4004ntf    sn221167   5.735   6.717   3.783  0.3188  0.0949  0.0522
 4004ntf    nn321168   5.669   6.819   3.683  0.1314 -0.3317 -0.2639
 4004ntf    sn221169   5.556   6.792   3.578 -0.1880 -0.2882  0.0638
 4004ntf    cn121170   5.610   6.904   3.445 -0.1431  0.1726  0.4708
 4004ntf    fn421171   5.621   6.602   3.992 -0.0484  0.0805 -0.0773
 4004ntf    fn421172   5.522   6.777   3.926  0.0172  0.1877 -0.4497
 4004ntf    fn421173   5.500   6.607   3.813  0.0604  0.7430 -0.4675
 4004ntf    on521174   5.826   6.761   3.885  0.5875  0.1073 -0.1935
 4004ntf    on521175   5.776   6.593   3.721  0.0364  0.0273 -0.0026
 4004ntf    on521176   5.432   6.852   3.620 -0.3881 -0.4745 -0.2542
 4004ntf    on521177   5.553   6.666   3.508  0.2755 -0.0857 -0.3277
 4004ntf    fn421178   5.715   6.870   3.372 -0.6800  0.5038 -0.4753
 4004ntf    fn421179   5.515   6.926   3.356  0.0673 -0.1128  0.1747
 4004ntf    fn421180   5.644   7.021   3.499  0.1101  0.4884 -0.3594
 4005ntf    cn121181   1.263   4.922   6.717  0.1757  0.0465  0.3482
 4005ntf    sn221182   1.347   4.767   6.761  0.4346  0.1096  0.0812
 4005ntf    nn321183   1.487   4.818   6.811  0.1730  0.7433  0.1871
 4005ntf    sn221184   1.617   4.820   6.723  0.2484  0.1208  0.2803
 4005ntf    cn121185   1.656   4.643   6.704 -0.2737 -0.0153  0.4637
 4005ntf    fn421186   1.322   4.995   6.623  0.5364 -0.3897  0.2337
 4005ntf    fn421187   1.141   4.901   6.670  0.1320  0.8464  0.0825
 4005ntf    fn421188   1.243   4.999   6.823 -0.1232 -0.1156  0.4104
 4005ntf    on521189   1.271   4.723   6.875 -0.0069 -0.0619 -0.2791
 4005ntf    on521190   1.348   4.686   6.642 -0.2144 -0.6182  0.5586
 4005ntf    on521191   1.727   4.872   6.800  0.9294 -0.5514 -0.2095
 4005ntf    on521192   1.595   4.884   6.595  0.6179 -0.0877  0.1106
 4005ntf    fn421193   1.772   4.625   6.642 -0.1091  0.1802  0.7125
 4005ntf    fn421194   1.666   4.573   6.816  0.1023 -0.5125  0.1284
 4005ntf    fn421195   1.568   4.581   6.627  0.3106  0.2247 -0.4142
 4006ntf    cn121196   3.481   1.829   3.539  0.0889 -0.0223 -0.5870
 4006ntf    sn221197   3.530   1.655   3.562  0.1717  0.0856  0.0665
 4006ntf    nn321198   3.387   1.591   3.574  0.2488 -0.1139 -0.0808
 4006ntf    sn221199   3.338   1.449   3.621 -0.2819  0.0367 -0.1712
 4006ntf    cn121200   3.173   1.431   3.546 -0.4395  0.7459 -0.0049
 4006ntf    fn421201   3.394   1.838   3.440 -0.1709 -0.2568 -0.3822
 4006ntf    fn421202   3.419   1.871   3.648  0.4541 -0.6193 -0.1364
 4006ntf    fn421203   3.585   1.907   3.515 -0.3207  0.7746  0.1763
 4006ntf    on521204   3.602   1.626   3.441  0.2613  0.5810 -0.0019
 4006ntf    on521205   3.598   1.651   3.689  0.2203  0.2963  0.0472
 4006ntf    on521206   3.309   1.453   3.762  0.3923  0.0637 -0.0284
 4006ntf    on521207   3.411   1.333   3.577  0.5224  0.5604 -0.2479
 4006ntf    fn421208   3.184   1.416   3.415  0.2312  0.0636  0.1226
 4006ntf    fn421209   3.118   1.319   3.589 -0.2245  0.6632  0.0582
 4006ntf    fn421210   3.089   1.532   3.560 -0.1419  1.0742 -0.5443
 4007ntf    cn121211   3.244   2.707   4.297  0.3509  0.0916  0.5454
 4007ntf    sn221212   3.328   2.641   4.150  0.0562  0.2018  0.3262
 4007ntf    nn321213   3.277   2.493   4.160  0.2084  0.1168 -0.1048
 4007ntf    sn221214   3.331   2.372   4.244 -0.2055 -0.1988 -0.2912
 4007ntf    cn121215   3.454   2.291   4.138  0.0838 -0.1109 -0.0219
 4007ntf    fn421216   3.239   2.631   4.405 -0.1225 -0.1406  0.3632
 4007ntf    fn421217   3.300   2.822   4.333 -0.2077  0.5262  0.0470
 4007ntf    fn421218   3.119   2.741   4.270  0.2106 -0.5629  0.3558
 4007ntf    on521219   3.267   2.705   4.036 -0.9466 -0.1624  0.6491
 4007ntf    on521220   3.471   2.657   4.167  0.0765  0.0741  0.2764
 4007ntf    on521221   3.235   2.267   4.265  0.0886 -0.3829  0.1485
 4007ntf    on521222   3.407   2.407   4.361  0.0315 -0.3264 -0.4054
 4007ntf    fn421223   3.408   2.264   4.017 -0.6502 -0.2895  0.2933
 4007ntf    fn421224   3.562   2.365   4.116  0.4740 -0.5536  0.3743
 4007ntf    fn421225   3.492   2.179   4.198 -0.2864 -0.1131  0.2068
 4008ntf    cn121226   5.470   2.911   4.988  0.0870 -0.1702 -0.3291
 4008ntf    sn221227   5.389   3.073   5.002 -0.1831 -0.3304 -0.0127
 4008ntf    nn321228   5.515   3.161   5.032 -0.4223  0.0292 -0.0605
 4008ntf    sn221229   5.544   3.245   5.162 -0.0118 -0.3551  0.0976
 4008ntf    cn121230   5.705   3.174   5.207  0.0917 -0.2967 -0.1805
 4008ntf    fn421231   5.562   2.914   4.894  0.4690 -0.3000  0.0378
 4008ntf    fn421232   5.522   2.871   5.103  0.2545  0.5547 -0.1533
 4008ntf    fn421233   5.385   2.815   4.954  0.0066 -0.0090 -0.5781
 4008ntf    on521234   5.352   3.090   4.864  0.0708  0.0284 -0.0367
 4008ntf    on521235   5.296   3.053   5.110 -0.4553 -0.0698 -0.1982
 4008ntf    on521236   5.465   3.222   5.281  0.4706 -0.4963  0.3901
 4008ntf    on521237   5.592   3.377   5.130 -0.8176  0.0431  0.4839
 4008ntf    fn421238   5.685   3.051   5.251  0.0747 -0.1520  0.2125
 4008ntf    fn421239   5.788   3.171   5.104  0.2278  0.4298 -0.1006
 4008ntf    fn421240   5.763   3.241   5.305  0.1923 -0.4133 -0.1603
 4009ntf    cn121241   4.081   3.912   4.154 -0.4263  0.2631  0.2161
 4009ntf    sn221242   4.245   3.836   4.147 -0.3992  0.3508 -0.1041
 4009ntf    nn321243   4.209   3.687   4.182 -0.1553  0.3598  0.2000
 4009ntf    sn221244   4.277   3.590   4.285  0.2896  0.0277 -0.4026
 4009ntf    cn121245   4.159   3.612   4.422  0.0384  0.3207 -0.6632
 4009ntf    fn421246   4.080   4.044   4.162  0.3461  0.3006 -0.2398
 4009ntf    fn421247   4.010   3.878   4.048  0.3367  0.0978 -0.2447
 4009ntf    fn421248   4.010   3.872   4.259  0.0130 -0.3536  0.2815
 4009ntf    on521249   4.281   3.857   4.009  0.0188 -0.2891 -0.0991
 4009ntf    on521250   4.318   3.916   4.243 -0.2979  0.7587 -0.5174
 4009ntf    on521251   4.401   3.622   4.351 -0.1320  0.2217  0.3033
 4009ntf    on521252   4.245   3.454   4.250 -0.5044  0.0538  0.1795
 4009ntf    fn421253   4.216   3.557   4.528 -0.3294  0.7357 -0.2489
 4009ntf    fn421254   4.134   3.738   4.452 -0.2984  0.2407 -0.6122
 4009ntf    fn421255   4.049   3.541   4.403 -0.1079  0.3638  0.0021
 4010ntf    cn121256   6.760   0.870   2.087  0.0850  0.4736  0.1867
 4010ntf    sn221257   6.708   0.799   2.246 -0.1557 -0.0095 -0.1060
 4010ntf    nn321258   6.608   0.909   2.298 -0.0782 -0.2627  0.5736
 4010ntf    sn221259   6.617   1.020   2.409  0.4078  0.0139  0.2589
 4010ntf    cn121260   6.682   1.161   2.314 -0.0342  0.0535  0.0116
 4010ntf    fn421261   6.818   0.783   2.006 -0.5244  0.1438  0.1004
 4010ntf    fn421262   6.646   0.905   2.031 -0.2648 -0.7968  0.0890
 4010ntf    fn421263   6.834   0.979   2.106  0.3005  0.3771 -0.0933
 4010ntf    on521264   6.647   0.676   2.203 -0.4384  0.3117 -0.6459
 4010ntf    on521265   6.832   0.790   2.319  0.0107  0.2671 -0.3505
 4010ntf    on521266   6.713   1.007   2.515  0.3292 -0.0113  0.3269
 4010ntf    on521267   6.488   1.071   2.449  0.1151 -0.5066 -0.0052
 4010ntf    fn421268   6.684   1.270   2.389  0.3180  0.2238 -0.2415
 4010ntf    fn421269   6.810   1.152   2.280  0.1029  0.2901  0.4609
 4010ntf    fn421270   6.626   1.181   2.196 -0.8474  0.1209  0.4019
 4011ntf    cn121271   4.692   6.288   3.643 -0.5097  0.1858 -0.4454
 4011ntf    sn221272   4.838   6.321   3.540  0.0989  0.1575  0.4048
 4011ntf    nn321273   4.913   6.430   3.624 -0.2722  0.7467 -0.0242
 4011ntf    sn221274   5.008   6.409   3.748  0.0808  0.3414 -0.3580
 4011ntf    cn121275   5.160   6.473   3.671  0.0997  0.1167 -0.5091
 4011ntf    fn421276   4.716   6.225   3.756 -0.3096  0.0693 -0.5523
 4011ntf    fn421277   4.638   6.403   3.680 -0.1014  0.0275  0.6674
 4011ntf    fn421278   4.601   6.217   3.577 -0.1191 -0.4490 -0.3093
 4011ntf    on521279   4.903   6.192   3.528 -0.1754  0.0719 -0.1754
 4011ntf    on521280   4.789   6.382   3.420 -0.1233 -0.2937  0.2624
 4011ntf    on521281   5.037   6.275   3.792 -0.8957  0.0016 -0.7064
 4011ntf    on521282   4.990   6.503   3.855 -0.3612 -0.4255  0.2542
 4011ntf    fn421283   5.211   6.402   3.572  0.4193 -0.1256 -0.1769
 4011ntf    fn421284   5.146   6.598   3.631 -0.4379  0.1892 -0.1073
 4011ntf    fn421285   5.257   6.476   3.761 -0.3462  0.1316 -0.0234
 4012ntf    cn121286   0.443   1.189   5.719  0.1314  0.1547  0.2645
 4012ntf    sn221287   0.420   1.239   5.892 -0.2684  0.1207  0.2220
 4012ntf    nn321288   0.289   1.324   5.875 -0.0616  0.4533  0.2790
 4012ntf    sn221289   0.142   1.278   5.908  0.0589 -0.0227  0.1598
 4012ntf    cn121290   0.067   1.316   5.748  0.2526 -0.1987  0.0258
 4012ntf    fn421291   0.565   1.153   5.684  0.1962  0.1221  0.5275
 4012ntf    fn421292   0.359   1.095   5.679  0.1034  0.0799  0.5029
 4012ntf    fn421293   0.413   1.293   5.641  0.1369  0.1992  0.3223
 4012ntf    on521294   0.422   1.116   5.968 -0.0024 -0.2180 -0.3217
 4012ntf    on521295   0.534   1.324   5.915 -0.1300  0.0959 -0.3471
 4012ntf    on521296   0.074   1.361   6.004 -0.3248 -0.2265  0.0675
 4012ntf    on521297   0.117   1.137   5.927  0.8108 -0.2544 -0.5236
 4012ntf    fn421298  -0.057   1.268   5.746  0.3700 -0.5109  0.1945
 4012ntf    fn421299   0.049   1.444   5.721  0.5472 -0.1643 -0.0055
 4012ntf    fn421300   0.137   1.270   5.646  0.1136 -0.6821  0.1481
 4013ntf    cn121301   1.907   4.043   2.417 -0.0942  0.1453  0.2499
 4013ntf    sn221302   1.765   4.128   2.492 -0.0724  0.4783 -0.0859
 4013ntf    nn321303   1.691   4.003   2.554  0.0579  0.4094 -0.0695
 4013ntf    sn221304   1.661   3.971   2.704  0.0501  0.0202 -0.1545
 4013ntf    cn121305   1.523   3.853   2.693  0.0809 -0.0038 -0.2815
 4013ntf    fn421306   1.869   3.951   2.330  0.2677  0.1940  0.0427
 4013ntf    fn421307   1.984   4.127   2.350  0.1810  0.2399  0.6814
 4013ntf    fn421308   1.975   3.979   2.511  0.5100 -0.3378 -0.5065
 4013ntf    on521309   1.831   4.214   2.587  0.3326 -0.5476  0.5708
 4013ntf    on521310   1.701   4.189   2.378 -0.2821  0.0520 -0.2003
 4013ntf    on521311   1.599   4.075   2.782 -0.2601 -0.0772 -0.2694
 4013ntf    on521312   1.762   3.897   2.777 -0.4370 -0.7168 -0.2143
 4013ntf    fn421313   1.414   3.884   2.626  0.1893  0.4207 -0.2610
 4013ntf    fn421314   1.563   3.745   2.626 -0.0444 -0.4818  0.4041
 4013ntf    fn421315   1.487   3.802   2.810 -0.2273  0.4320 -0.1838
 4014ntf    cn121316   4.256   1.076   1.556  0.4531 -0.2387 -0.1295
 4014ntf    sn221317   4.088   1.108   1.618  0.2401 -0.4162 -0.6070
 4014ntf    nn321318   4.020   0.968   1.599  0.1853 -0.3636 -0.8086
 4014ntf    sn221319   3.887   0.924   1.528 -0.3402 -0.0928 -0.0082
 4014ntf    cn121320   3.927   0.985   1.362 -0.1934 -0.3180 -0.0563
 4014ntf    fn421321   4.329   1.186   1.561  0.1203 -0.0381  0.2458
 4014ntf    fn421322   4.315   0.983   1.629  0.5294  0.0775  0.2093
 4014ntf    fn421323   4.252   1.034   1.430 -0.3291  0.0693 -0.2115
 4014ntf    on521324   4.117   1.145   1.754 -0.5810  0.0048 -0.5373
 4014ntf    on521325   4.032   1.218   1.543 -0.8413 -0.2470  0.4284
 4014ntf    on521326   3.766   0.996   1.559 -0.4746 -0.3298  0.0213
 4014ntf    on521327   3.872   0.782   1.505 -0.3448 -0.0914 -0.0129
 4014ntf    fn421328   3.900   1.114   1.358 -0.5565 -0.3896  0.1052
 4014ntf    fn421329   4.054   0.965   1.330 -0.2033 -0.5346  0.0388
 4014ntf    fn421330   3.851   0.926   1.271  0.5334 -1.0280 -0.2171
 4015ntf    cn121331   5.118   6.501   0.735  0.3247  0.3030 -0.4413
 4015ntf    sn221332   5.283   6.425   0.730  0.3433  0.3196 -0.1057
 4015ntf    nn321333   5.252   6.292   0.653 -0.0916  0.1084  0.4245
 4015ntf    sn221334   5.268   6.144   0.704  0.0993 -0.0008  0.0555
 4015ntf    cn121335   5.449   6.139   0.719  0.0962  0.1714  0.1668
 4015ntf    fn421336   5.131   6.616   0.800  0.5816  0.1294 -0.1776
 4015ntf    fn421337   5.070   6.519   0.614 -0.2452  0.0433 -0.2582
 4015ntf    fn421338   5.037   6.419   0.800  0.4327  0.5082 -0.0389
 4015ntf    on521339   5.351   6.519   0.645  0.5134 -0.4205 -0.8044
 4015ntf    on521340   5.325   6.422   0.868  0.4013 -0.3625 -0.1317
 4015ntf    on521341   5.228   6.045   0.607 -0.2909 -0.3844  0.6024
 4015ntf    on521342   5.209   6.124   0.834  0.2574 -0.0419  0.1204
 4015ntf    fn421343   5.496   6.226   0.806  0.4517  0.1336  0.0161
 4015ntf    fn421344   5.488   6.018   0.755  0.0144  0.2370  0.4770
 4015ntf    fn421345   5.518   6.157   0.607  0.1916  0.7599  0.3193
 4016ntf    cn121346   0.583   0.301   3.467  0.2454 -0.0133  0.3317
 4016ntf    sn221347   0.477   0.344   3.608 -0.0230  0.3087  0.0334
 4016ntf    nn321348   0.593   0.393   3.700  0.3807  0.0077 -0.3135
 4016ntf    sn221349   0.663   0.312   3.815  0.3190  0.2097 -0.1331
 4016ntf    cn121350   0.729   0.446   3.919  0.2891  0.0966  0.0330
 4016ntf    fn421351   0.643   0.183   3.469 -0.1087 -0.1994  0.1760
 4016ntf    fn421352   0.513   0.297   3.355 -0.0272 -0.5223  0.5170
 4016ntf    fn421353   0.679   0.391   3.453 -0.1540  0.3210 -0.3364
 4016ntf    on521354   0.398   0.454   3.556 -0.0433  0.1038 -0.3785
 4016ntf    on521355   0.406   0.224   3.646  0.8436 -0.2977 -0.2451
 4016ntf    on521356   0.776   0.237   3.765  0.3631  0.0272  0.2317
 4016ntf    on521357   0.573   0.248   3.907  0.6368  0.2339  0.2012
 4016ntf    fn421358   0.788   0.412   4.032  0.3161  0.3347  0.0914
 4016ntf    fn421359   0.814   0.513   3.843  0.2576 -0.1954 -0.2623
 4016ntf    fn421360   0.639   0.536   3.958 -0.0753 -0.4034  0.3508
 4017ntf    cn121361   3.012   1.835   6.484  0.4292  0.0258  0.0126
 4017ntf    sn221362   3.023   1.852   6.304  0.2160  0.4118  0.0353
 4017ntf    nn321363   2.878   1.895   6.260  0.1621  0.3338  0.1386
 4017ntf    sn221364   2.828   1.925   6.115 -0.1040 -0.2034  0.1165
 4017ntf    cn121365   2.708   1.791   6.091 -0.2188 -0.1574  0.4274
 4017ntf    fn421366   2.940   1.733   6.526 -0.2511  0.4570 -0.0914
 4017ntf    fn421367   3.134   1.832   6.536  0.5331 -0.2431 -0.2468
 4017ntf    fn421368   2.955   1.943   6.536  0.1902  0.1388 -0.4803
 4017ntf    on521369   3.125   1.953   6.292  0.4898  0.1399  0.0779
 4017ntf    on521370   3.056   1.717   6.265 -0.1994  0.4068 -0.3189
 4017ntf    on521371   2.929   1.920   6.012 -0.2370 -0.0551 -0.0232
 4017ntf    on521372   2.751   2.047   6.115  0.0228 -0.1214 -0.0408
 4017ntf    fn421373   2.649   1.814   5.975  0.2481 -0.6097  0.0959
 4017ntf    fn421374   2.751   1.665   6.085 -0.1660 -0.1003 -0.6590
 4017ntf    fn421375   2.623   1.791   6.192 -0.0373  0.1911  0.5780
 4018ntf    cn121376   0.483   2.185   5.793  0.0481 -0.3444 -0.2388
 4018ntf    sn221377   0.613   2.145   5.913 -0.1937  0.2039  0.2128
 4018ntf    nn321378   0.585   1.991   5.933 -0.0019  0.0799 -0.4411
 4018ntf    sn221379   0.702   1.894   5.972 -0.0910  0.0401 -0.2700
 4018ntf    cn121380   0.785   1.980   6.109 -0.5208  0.2962 -0.1693
 4018ntf    fn421381   0.498   2.304   5.738 -0.1542 -0.2143 -0.0183
 4018ntf    fn421382   0.477   2.094   5.697 -0.2640 -0.0867 -0.4647
 4018ntf    fn421383   0.363   2.188   5.850 -0.0340  0.2713 -0.4385
 4018ntf    on521384   0.726   2.196   5.839 -0.3791  0.6396  0.2281
 4018ntf    on521385   0.579   2.216   6.034 -0.0112  0.0916  0.3309
 4018ntf    on521386   0.795   1.890   5.862  0.2191  0.0966 -0.0134
 4018ntf    on521387   0.668   1.772   6.041  0.3317  0.1192  0.0848
 4018ntf    fn421388   0.699   1.999   6.208 -0.2186  0.0649  0.1400
 4018ntf    fn421389   0.889   1.915   6.158 -0.5098  0.1259 -0.4167
 4018ntf    fn421390   0.828   2.101   6.076  0.2038  0.0916  0.0046
 4019ntf    cn121391   1.036   5.632   3.432  0.3759 -0.1424 -0.1415
 4019ntf    sn221392   1.026   5.516   3.292 -0.0124  0.0027 -0.2367
 4019ntf    nn321393   1.165   5.548   3.227 -0.0485 -0.0432 -0.3369
 4019ntf    sn221394   1.304   5.481   3.259  0.0305  0.2996  0.0483
 4019ntf    cn121395   1.315   5.368   3.117 -0.1602  0.0815  0.2070
 4019ntf    fn421396   1.154   5.625   3.490  0.1987 -0.7851  0.1440
 4019ntf    fn421397   1.023   5.754   3.380  0.0552 -0.0108  0.2407
 4019ntf    fn421398   0.939   5.619   3.520  0.0853 -0.7624 -0.5439
 4019ntf    on521399   1.005   5.384   3.347  0.2824 -0.2501 -0.7282
 4019ntf    on521400   0.917   5.569   3.215  0.1519  0.3075 -0.2615
 4019ntf    on521401   1.298   5.397   3.376  0.5857 -0.1112 -0.2152
 4019ntf    on521402   1.416   5.572   3.253 -0.1011  0.4555 -0.0696
 4019ntf    fn421403   1.230   5.266   3.122  0.0959 -0.1832 -0.7335
 4019ntf    fn421404   1.292   5.423   2.999 -0.0400  0.4638  0.3611
 4019ntf    fn421405   1.431   5.307   3.103 -0.1429  0.2608 -0.4212
 4020ntf    cn121406   5.021   1.748   1.514  0.0294 -0.3841 -0.4679
 4020ntf    sn221407   5.144   1.629   1.575 -0.0989 -0.0378  0.4887
 4020ntf    nn321408   5.228   1.714   1.677 -0.2762  0.6238  0.0858
 4020ntf    sn221409   5.240   1.713   1.834  0.1078 -0.0446  0.0535
 4020ntf    cn121410   5.336   1.559   1.851  0.3585  0.0767 -0.2437
 4020ntf    fn421411   5.090   1.850   1.465  0.0825 -0.2561 -0.1319
 4020ntf    fn421412   4.932   1.706   1.426 -0.3769  0.0160 -0.2541
 4020ntf    fn421413   4.956   1.800   1.617  0.6744  0.5196 -0.5061
 4020ntf    on521414   5.060   1.526   1.631 -0.2971  0.2925  0.8072
 4020ntf    on521415   5.221   1.598   1.457 -0.7816  0.1762 -0.0192
 4020ntf    on521416   5.117   1.688   1.903 -0.1869  0.5837 -0.2336
 4020ntf    on521417   5.335   1.814   1.876  0.5466 -0.6657  0.5740
 4020ntf    fn421418   5.363   1.527   1.976 -0.4373  0.4318  0.0314
 4020ntf    fn421419   5.262   1.461   1.802 -0.5169  0.5794  0.0390
 4020ntf    fn421420   5.447   1.553   1.780  0.2491 -0.5148 -0.3698
 4021ntf    cn121421   3.104   2.701   5.868 -0.0182  0.1388 -0.6915
 4021ntf    sn221422   2.951   2.610   5.836 -0.0053 -0.1846  0.1338
 4021ntf    nn321423   3.012   2.470   5.798  0.2854 -0.0944  0.2676
 4021ntf    sn221424   3.028   2.401   5.658  0.0382  0.0620  0.1601
 4021ntf    cn121425   2.936   2.250   5.697  0.1863 -0.0097  0.2319
 4021ntf    fn421426   3.150   2.681   5.991 -0.1451  0.7197 -0.5422
 4021ntf    fn421427   3.196   2.677   5.776  0.3432 -0.5840 -0.1525
 4021ntf    fn421428   3.077   2.831   5.860 -0.1246  0.1637  0.0104
 4021ntf    on521429   2.875   2.605   5.959 -0.3603 -0.2739 -0.0867
 4021ntf    on521430   2.891   2.682   5.726  0.5154  0.1803  0.0889
 4021ntf    on521431   3.166   2.362   5.636  0.0227 -0.1361  0.4193
 4021ntf    on521432   2.972   2.481   5.552 -0.0908 -0.1828  0.0447
 4021ntf    fn421433   2.945   2.168   5.593 -0.0273  0.4346 -0.1389
 4021ntf    fn421434   2.979   2.185   5.805  0.1838 -0.3594  0.0253
 4021ntf    fn421435   2.806   2.269   5.711  0.0473 -0.6330 -0.1861
 4022ntf    cn121436   3.637   4.118   6.409 -0.2064 -0.2711 -0.2349
 4022ntf    sn221437   3.528   4.255   6.358  0.0014  0.0396  0.1458
 4022ntf    nn321438   3.392   4.177   6.343  0.0896 -0.0628 -0.1285
 4022ntf    sn221439   3.334   4.112   6.212 -0.1269 -0.1217 -0.0041
 4022ntf    cn121440   3.263   3.951   6.258 -0.0423 -0.2704 -0.3967
 4022ntf    fn421441   3.577   4.050   6.505 -0.8294  0.4928 -0.0744
 4022ntf    fn421442   3.650   4.037   6.305  1.1525 -0.2728 -0.0774
 4022ntf    fn421443   3.759   4.157   6.441 -0.5982  0.6158  0.2174
 4022ntf    on521444   3.535   4.353   6.463  0.2524  0.1274  0.0454
 4022ntf    on521445   3.591   4.303   6.238 -0.1711 -0.4312 -0.1359
 4022ntf    on521446   3.432   4.078   6.112 -0.6549 -0.3330 -0.4511
 4022ntf    on521447   3.220   4.187   6.167  0.6238  0.9593 -0.1521
 4022ntf    fn421448   3.188   3.953   6.367  0.4266 -0.3696 -0.0698
 4022ntf    fn421449   3.188   3.917   6.154  0.0871 -0.9499 -0.2708
 4022ntf    fn421450   3.348   3.852   6.277 -0.4712 -0.4471  0.6284
 4023ntf    cn121451   1.439   2.475   0.302  0.2556  0.1287  0.0820
 4023ntf    sn221452   1.382   2.600   0.183 -0.1302 -0.3989 -0.2924
 4023ntf    nn321453   1.288   2.512   0.093 -0.2377 -0.3904 -0.1886
 4023ntf    sn221454   1.253   2.539  -0.058  0.0277  0.4728 -0.1021
 4023ntf    cn121455   1.399   2.474  -0.144 -0.2676  0.5873 -0.6943
 4023ntf    fn421456   1.530   2.522   0.385 -0.1093  0.3077  0.3834
 4023ntf    fn421457   1.349   2.431   0.388 -0.1694  0.2491 -0.2927
 4023ntf    fn421458   1.483   2.367   0.239 -0.8765 -0.2680 -0.0459
 4023ntf    on521459   1.312   2.698   0.262 -0.2470 -0.0064 -0.8712
 4023ntf    on521460   1.502   2.644   0.117  0.3419 -0.1291  0.7286
 4023ntf    on521461   1.240   2.679  -0.089  0.5365  0.4836 -0.2642
 4023ntf    on521462   1.141   2.458  -0.100 -0.1177  0.3312  0.5447
 4023ntf    fn421463   1.416   2.344  -0.131  0.5659  0.7389 -0.1567
 4023ntf    fn421464   1.401   2.493  -0.275  0.1579  0.9945 -0.6295
 4023ntf    fn421465   1.509   2.538  -0.106 -0.0288 -0.3023  0.1446
 4024ntf    cn121466   7.227   3.118   2.722  0.1986  0.0678  0.0892
 4024ntf    sn221467   7.203   2.938   2.714 -0.0011  0.0992 -0.0117
 4024ntf    nn321468   7.247   2.906   2.566  0.2550  0.0369  0.0767
 4024ntf    sn221469   7.389   2.851   2.528  0.0685 -0.1290 -0.3839
 4024ntf    cn121470   7.356   2.782   2.363 -0.1334 -0.6979 -0.1094
 4024ntf    fn421471   7.358   3.141   2.723  0.1792  0.1693  0.3121
 4024ntf    fn421472   7.165   3.180   2.623  0.5514 -0.0286 -0.1959
 4024ntf    fn421473   7.178   3.179   2.828 -0.1125  0.2100 -0.1339
 4024ntf    on521474   7.293   2.892   2.817 -0.0093 -0.2913 -0.1765
 4024ntf    on521475   7.062   2.920   2.732  0.0619 -0.0679  0.3090
 4024ntf    on521476   7.436   2.738   2.604  0.1871  0.6311  0.6965
 4024ntf    on521477   7.492   2.949   2.502  0.0883 -0.2185 -0.6499
 4024ntf    fn421478   7.461   2.709   2.331  0.1358 -0.1398 -0.5264
 4024ntf    fn421479   7.248   2.705   2.360 -0.3133 -0.4457 -0.1817
 4024ntf    fn421480   7.341   2.870   2.265  0.4435 -0.3286  0.1283
 4025ntf    cn121481   0.331   3.384   5.073  0.4471 -0.4711 -0.3411
 4025ntf    sn221482   0.503   3.351   5.123  0.4001  0.1830  0.2614
 4025ntf    nn321483   0.497   3.391   5.275  0.2036  0.4635  0.1799
 4025ntf    sn221484   0.517   3.535   5.334 -0.0383  0.5984 -0.0636
 4025ntf    cn121485   0.369   3.536   5.440  0.2926 -0.3555  0.4158
 4025ntf    fn421486   0.249   3.312   5.147  0.4343 -0.5292 -0.4113
 4025ntf    fn421487   0.296   3.511   5.083  0.8150 -0.3992  0.0511
 4025ntf    fn421488   0.311   3.352   4.946 -0.0421  0.0619 -0.4017
 4025ntf    on521489   0.503   3.207   5.117  0.0896  0.1971 -0.1227
 4025ntf    on521490   0.589   3.421   5.032  0.5743 -0.1278  0.1851
 4025ntf    on521491   0.501   3.643   5.240 -0.0290  0.2798 -0.4342
 4025ntf    on521492   0.624   3.537   5.431  0.0878 -0.1869 -0.1829
 4025ntf    fn421493   0.370   3.641   5.520  0.6622  0.2546 -0.3810
 4025ntf    fn421494   0.262   3.553   5.364 -0.0600 -0.4536  0.8857
 4025ntf    fn421495   0.345   3.428   5.513  0.1361 -0.5850  0.0325
 4026ntf    cn121496   2.312   6.532   3.107  0.2538 -0.2985 -0.1741
 4026ntf    sn221497   2.482   6.520   3.044  0.2569 -0.0455 -0.2121
 4026ntf    nn321498   2.462   6.532   2.889  0.4963  0.0346 -0.2376
 4026ntf    sn221499   2.392   6.429   2.793  0.0951 -0.2056  0.3065
 4026ntf    cn121500   2.527   6.319   2.740  0.1900  0.1890 -0.2784
 4026ntf    fn421501   2.244   6.418   3.114  0.1745 -0.2461 -0.0824
 4026ntf    fn421502   2.315   6.578   3.231  0.1413 -0.8855  0.0542
 4026ntf    fn421503   2.236   6.622   3.047  0.1046 -0.3988 -0.1379
 4026ntf    on521504   2.554   6.631   3.103  0.2257 -0.1625  0.0480
 4026ntf    on521505   2.515   6.388   3.093  0.1044 -0.0343 -0.0790
 4026ntf    on521506   2.359   6.501   2.673  0.1867 -0.2730  0.2408
 4026ntf    on521507   2.281   6.359   2.853 -0.1238  0.2683  0.4565
 4026ntf    fn421508   2.541   6.233   2.840  0.2868  0.1204 -0.3510
 4026ntf    fn421509   2.514   6.258   2.624 -0.0718 -0.0434 -0.1288
 4026ntf    fn421510   2.638   6.389   2.727 -0.0067  0.5499 -0.0435
 4027ntf    cn121511   2.986   3.484   0.287 -0.2424 -0.3081  0.0260
 4027ntf    sn221512   2.887   3.578   0.407 -0.1686 -0.0796 -0.0906
 4027ntf    nn321513   2.928   3.725   0.370 -0.3577  0.1434  0.5615
 4027ntf    sn221514   3.033   3.822   0.435  0.1535 -0.2549  0.3333
 4027ntf    cn121515   2.934   3.911   0.558 -0.3049 -0.3417  0.0302
 4027ntf    fn421516   2.955   3.505   0.160  0.2368 -0.5070 -0.1256
 4027ntf    fn421517   3.117   3.481   0.308 -0.2594 -0.3081  0.1346
 4027ntf    fn421518   2.952   3.358   0.305  0.1318 -0.4391 -0.1703
 4027ntf    on521519   2.748   3.553   0.378 -0.2986  0.5865 -0.0631
 4027ntf    on521520   2.931   3.526   0.535  0.0417 -0.1104 -0.1745
 4027ntf    on521521   3.074   3.929   0.347  0.1231 -0.3228  0.2353
 4027ntf    on521522   3.135   3.754   0.510  0.4318 -0.2025  0.0042
 4027ntf    fn421523   2.995   3.998   0.637 -0.3741 -0.2734  0.0090
 4027ntf    fn421524   2.838   3.971   0.489 -0.0328  0.2395  0.1505
 4027ntf    fn421525   2.869   3.822   0.631  0.0824 -0.3734  0.3416
 4028ntf    cn121526   2.152   2.512   1.763 -0.4474 -0.0180 -0.0181
 4028ntf    sn221527   2.254   2.386   1.681 -0.3569  0.2577 -0.3300
 4028ntf    nn321528   2.389   2.397   1.760 -0.5361  0.5167 -0.0593
 4028ntf    sn221529   2.521   2.467   1.713 -0.3648  0.1720 -0.0902
 4028ntf    cn121530   2.592   2.364   1.581 -0.3970 -0.1698  0.1561
 4028ntf    fn421531   2.223   2.594   1.839  0.1113 -0.4962 -0.0146
 4028ntf    fn421532   2.064   2.572   1.684 -0.4736 -0.1442 -0.0857
 4028ntf    fn421533   2.082   2.456   1.861 -0.1748  0.4830  0.4684
 4028ntf    on521534   2.182   2.263   1.702 -0.0807  0.1751  0.1388
 4028ntf    on521535   2.260   2.413   1.539  0.9579 -0.4015 -0.4158
 4028ntf    on521536   2.624   2.463   1.815 -0.1387  0.2933 -0.3133
 4028ntf    on521537   2.511   2.592   1.644 -0.0739  0.1531 -0.1709
 4028ntf    fn421538   2.635   2.249   1.631  0.2016  0.1120  0.3026
 4028ntf    fn421539   2.514   2.332   1.479 -0.3321  0.6150 -0.1451
 4028ntf    fn421540   2.696   2.428   1.529 -0.3717  0.1204  0.5601
 4029ntf    cn121541   6.265   6.851   6.785  0.3239 -0.3245  0.1983
 4029ntf    sn221542   6.201   6.718   6.679  0.0893 -0.1135  0.0743
 4029ntf    nn321543   6.260   6.759   6.540 -0.1946 -0.5058 -0.1666
 4029ntf    sn221544   6.177   6.761   6.407  0.0716  0.1544 -0.3310
 4029ntf    cn121545   6.074   6.911   6.417 -0.3920 -0.1892  0.1401
 4029ntf    fn421546   6.241   6.845   6.915 -0.0513  0.0327  0.1464
 4029ntf    fn421547   6.395   6.867   6.774  0.2273  0.5584  0.2820
 4029ntf    fn421548   6.209   6.965   6.748  0.5837 -0.1566  0.3213
 4029ntf    on521549   6.264   6.598   6.728 -0.9114 -0.7759 -0.2040
 4029ntf    on521550   6.058   6.728   6.695  0.0794  0.3458 -0.2831
 4029ntf    on521551   6.092   6.644   6.408  0.0751  0.1512 -0.3980
 4029ntf    on521552   6.260   6.787   6.292 -0.0845  0.6683 -0.3275
 4029ntf    fn421553   6.152   7.005   6.467 -0.5710  0.2432 -0.3905
 4029ntf    fn421554   6.026   6.947   6.299 -0.3816  0.4251  0.3246
 4029ntf    fn421555   5.974   6.895   6.502 -0.1158 -0.3196  0.4431
 4030ntf    cn121556   2.805   4.749   1.883  0.1932 -0.0438 -0.3210
 4030ntf    sn221557   2.748   4.890   1.782  0.0616  0.0699 -0.0903
 4030ntf    nn321558   2.873   4.986   1.782  0.3358 -0.2806  0.4150
 4030ntf    sn221559   2.919   5.076   1.902  0.0378  0.3550  0.0550
 4030ntf    cn121560   2.842   5.235   1.857 -0.0514  0.2100 -0.3097
 4030ntf    fn421561   2.777   4.770   2.011  0.6990  0.0004 -0.2150
 4030ntf    fn421562   2.746   4.640   1.836 -0.4265  0.4693 -0.7654
 4030ntf    fn421563   2.935   4.730   1.878  0.2629  0.3505 -0.0745
 4030ntf    on521564   2.727   4.836   1.650  0.2048  0.6521 -0.3546
 4030ntf    on521565   2.626   4.938   1.840 -0.1830 -1.1303  0.4076
 4030ntf    on521566   3.060   5.103   1.890  0.1949 -0.4682  0.0213
 4030ntf    on521567   2.878   5.032   2.033  0.2598 -0.1139 -0.0308
 4030ntf    fn421568   2.853   5.317   1.960  0.1207 -0.2982  0.0854
 4030ntf    fn421569   2.915   5.291   1.762  0.1183  0.4417 -0.0440
 4030ntf    fn421570   2.714   5.221   1.826 -0.1911  0.1155  0.2907
 4031ntf    cn121571   3.765   3.895   0.015 -0.1289 -0.0623  0.0402
 4031ntf    sn221572   3.782   4.073   0.043  0.1306 -0.0725 -0.0509
 4031ntf    nn321573   3.687   4.114   0.161 -0.0012 -0.7248  0.0704
 4031ntf    sn221574   3.724   4.103   0.313 -0.1273  0.1764  0.1731
 4031ntf    cn121575   3.578   4.014   0.376  0.2086 -0.4909  0.0236
 4031ntf    fn421576   3.794   3.824   0.122 -0.4572  0.5118  0.5123
 4031ntf    fn421577   3.644   3.863  -0.029  0.0054  0.3428 -0.6469
 4031ntf    fn421578   3.841   3.848  -0.083 -0.1300  0.4742 -0.2234
 4031ntf    on521579   3.922   4.093   0.074  0.0309  0.7600 -0.0954
 4031ntf    on521580   3.738   4.128  -0.083 -0.0671 -0.2699 -0.0678
 4031ntf    on521581   3.734   4.230   0.380  0.0446  0.1944  0.1125
 4031ntf    on521582   3.823   4.001   0.338 -0.8081 -0.5470 -0.0462
 4031ntf    fn421583   3.532   3.924   0.290 -0.2973  0.2783 -0.5330
 4031ntf    fn421584   3.605   3.954   0.490 -0.0609  0.1322  0.4183
 4031ntf    fn421585   3.481   4.102   0.396 -0.0002 -0.5140 -0.8353
 4032ntf    cn121586   4.574   6.973   5.929  0.3070 -0.1652 -0.2432
 4032ntf    sn221587   4.550   7.116   5.820 -0.2824 -0.0497  0.0379
 4032ntf    nn321588   4.403   7.083   5.773 -0.3184  0.1158  0.0324
 4032ntf    sn221589   4.291   7.185   5.732 -0.4233  0.0426  0.1382
 4032ntf    cn121590   4.213   7.223   5.892 -0.0630  0.1341  0.2934
 4032ntf    fn421591   4.677   6.979   6.011 -0.2033 -0.0740  0.3945
 4032ntf    fn421592   4.473   6.969   6.014  0.3059  0.3351 -0.2229
 4032ntf    fn421593   4.557   6.854   5.872 -0.2756 -0.1307 -0.1434
 4032ntf    on521594   4.557   7.224   5.915 -0.2692 -0.1568  0.1585
 4032ntf    on521595   4.649   7.111   5.715 -0.0523  0.1482  0.2458
 4032ntf    on521596   4.176   7.139   5.657 -0.6220  0.1012  0.4053
 4032ntf    on521597   4.346   7.312   5.693  0.2509 -0.1962  0.3026
 4032ntf    fn421598   4.126   7.133   5.937  0.5192 -0.4887  0.1906
 4032ntf    fn421599   4.299   7.240   5.990  0.2145  0.1291  0.0511
 4032ntf    fn421600   4.143   7.335   5.883 -0.0701  0.1098  0.0307
 4033ntf    cn121601   3.734   1.634   0.079 -0.0779  0.2859 -0.4568
 4033ntf    sn221602   3.782   1.609  -0.095  0.1933 -0.3401 -0.2963
 4033ntf    nn321603   3.926   1.552  -0.070  0.3524  0.1906  0.0235
 4033ntf    sn221604   4.061   1.631  -0.077  0.4334  0.0587  0.0838
 4033ntf    cn121605   4.073   1.614  -0.257  0.4200 -0.0985  0.0975
 4033ntf    fn421606   3.617   1.696   0.084 -0.3106 -0.2126  0.5056
 4033ntf    fn421607   3.725   1.517   0.139  0.0522  0.4426 -0.1338
 4033ntf    fn421608   3.823   1.704   0.147  0.1715 -0.1988 -0.2781
 4033ntf    on521609   3.715   1.487  -0.132  0.0208 -0.2020 -0.4427
 4033ntf    on521610   3.756   1.734  -0.163  0.2410 -0.0363  0.2392
 4033ntf    on521611   4.169   1.553  -0.023  0.2699 -0.4415 -0.3031
 4033ntf    on521612   4.068   1.771  -0.045  0.5603  0.1201 -0.2155
 4033ntf    fn421613   4.179   1.669  -0.315  0.3874 -0.2188 -0.0771
 4033ntf    fn421614   4.070   1.486  -0.288 -0.2828 -0.1954  0.5442
 4033ntf    fn421615   3.967   1.666  -0.317  0.3332  0.0466  0.3734
 4034ntf    cn121616   3.117   2.760   0.123  0.4827 -0.1549  0.1491
 4034ntf    sn221617   3.149   2.819   0.291 -0.2267  0.2574  0.1460
 4034ntf    nn321618   3.098   2.966   0.270 -0.2119  0.1818 -0.4402
 4034ntf    sn221619   3.182   3.095   0.241  0.3550  0.0147  0.4142
 4034ntf    cn121620   3.175   3.165   0.408 -0.1597 -0.2485  0.5045
 4034ntf    fn421621   2.990   2.760   0.085  0.3922  0.1868  0.4494
 4034ntf    fn421622   3.185   2.829   0.033  0.0414  0.2733  0.1374
 4034ntf    fn421623   3.144   2.631   0.114  0.0799 -0.2272 -0.0722
 4034ntf    on521624   3.053   2.744   0.368  0.1018  0.0476  0.3546
 4034ntf    on521625   3.286   2.781   0.318 -0.3073  0.1354  0.3832
 4034ntf    on521626   3.113   3.187   0.155  0.6591  0.1451  0.3062
 4034ntf    on521627   3.321   3.063   0.218  0.3863 -0.1848  0.8861
 4034ntf    fn421628   3.240   3.281   0.409 -0.0589 -0.2898 -0.4034
 4034ntf    fn421629   3.050   3.187   0.445 -0.4111  0.2094 -0.5931
 4034ntf    fn421630   3.241   3.084   0.490  0.2870  0.1719  0.5663
 4035ntf    cn121631   0.381   1.919   1.735 -0.2374  0.2998 -0.1769
 4035ntf    sn221632   0.388   1.803   1.595  0.2512  0.3950 -0.2340
 4035ntf    nn321633   0.236   1.787   1.558  0.2912 -0.1039 -0.1935
 4035ntf    sn221634   0.129   1.715   1.648  0.2596  0.1099 -0.0595
 4035ntf    cn121635   0.122   1.565   1.546 -0.0717  0.2025 -0.1723
 4035ntf    fn421636   0.501   1.964   1.769 -0.2437  0.1934 -0.0143
 4035ntf    fn421637   0.308   2.026   1.705  0.1053  0.7366  0.5250
 4035ntf    fn421638   0.331   1.860   1.842 -0.7546  0.2211 -0.4583
 4035ntf    on521639   0.459   1.885   1.500 -0.3730  0.1302 -0.9412
 4035ntf    on521640   0.452   1.684   1.644  0.8923  0.7886 -0.1110
 4035ntf    on521641  -0.005   1.766   1.631  0.2998  0.1126 -0.3751
 4035ntf    on521642   0.163   1.673   1.782  0.0762  0.0076 -0.0461
 4035ntf    fn421643   0.238   1.502   1.545 -0.1422  0.0734 -0.2267
 4035ntf    fn421644   0.036   1.477   1.594 -0.3427  0.3310 -0.4176
 4035ntf    fn421645   0.094   1.583   1.418 -0.9760  0.0387 -0.0041
 4036ntf    cn121646   1.190   3.992   5.895 -0.6286  0.0757  0.2097
 4036ntf    sn221647   1.260   4.074   5.749 -0.0480 -0.1488  0.3616
 4036ntf    nn321648   1.126   4.080   5.668  0.5069 -0.0846 -0.5629
 4036ntf    sn221649   1.086   4.007   5.535  0.1031 -0.0806 -0.4462
 4036ntf    cn121650   0.989   4.145   5.468 -0.4838 -0.3189 -0.0875
 4036ntf    fn421651   1.091   4.061   5.949 -0.5542  0.2549  0.1164
 4036ntf    fn421652   1.144   3.870   5.871  0.4229 -0.2025 -0.4454
 4036ntf    fn421653   1.279   3.977   5.992 -0.2098 -0.2982 -0.2272
 4036ntf    on521654   1.302   4.204   5.794 -0.1458  0.2198 -0.5936
 4036ntf    on521655   1.365   3.984   5.708 -0.0019 -0.0658  0.2981
 4036ntf    on521656   0.987   3.902   5.537 -0.2513  0.2558 -0.2590
 4036ntf    on521657   1.201   3.994   5.448  0.1172  0.2591 -0.4806
 4036ntf    fn421658   1.058   4.258   5.471 -0.4299 -0.3323 -0.6834
 4036ntf    fn421659   0.945   4.122   5.345  0.0926 -0.2500 -0.3064
 4036ntf    fn421660   0.884   4.164   5.546 -0.0987  0.0307  0.3459
 4037ntf    cn121661   4.306   2.961   7.054  0.2972 -0.0978  0.2160
 4037ntf    sn221662   4.185   2.826   7.064  0.2360 -0.0196  0.5115
 4037ntf    nn321663   4.072   2.886   6.972  0.5611 -0.2402 -0.0335
 4037ntf    sn221664   4.004   2.846   6.837  0.0321  0.0163  0.1554
 4037ntf    cn121665   3.835   2.893   6.885  0.0964  0.3502  0.0546
 4037ntf    fn421666   4.371   2.958   6.938  0.7102 -0.3450  0.4504
 4037ntf    fn421667   4.247   3.078   7.070 -0.0338 -0.1033 -0.8293
 4037ntf    fn421668   4.401   2.961   7.146  0.1136  0.5767  0.4086
 4037ntf    on521669   4.255   2.712   7.012  0.1881  0.0717  0.2475
 4037ntf    on521670   4.153   2.828   7.205 -0.1372  0.1733  0.4269
 4037ntf    on521671   3.986   2.707   6.803  0.1434  0.1428 -0.4399
 4037ntf    on521672   4.033   2.932   6.725  0.5751  0.0925  0.3544
 4037ntf    fn421673   3.787   2.806   6.972  0.1186  0.6718  0.3882
 4037ntf    fn421674   3.825   3.010   6.945  0.0654  0.0996  0.5398
 4037ntf    fn421675   3.747   2.900   6.786  0.3037 -0.3528 -0.1846
 4038ntf    cn121676   4.971   4.273   4.607 -0.2430  0.2644 -0.3289
 4038ntf    sn221677   4.831   4.388   4.599 -0.3708  0.1535  0.2503
 4038ntf    nn321678   4.729   4.317   4.694  0.1512 -0.2855  0.4912
 4038ntf    sn221679   4.595   4.246   4.652  0.0425  0.2611 -0.1117
 4038ntf    cn121680   4.663   4.084   4.605  0.0688  0.1503  0.2978
 4038ntf    fn421681   5.083   4.314   4.549  0.0179  0.6274  0.4155
 4038ntf    fn421682   5.003   4.251   4.734 -0.1120  0.6160 -0.3001
 4038ntf    fn421683   4.934   4.158   4.553  0.5943  0.2453 -0.8848
 4038ntf    on521684   4.880   4.504   4.669  0.9266 -0.2954  0.1232
 4038ntf    on521685   4.794   4.404   4.460  0.3288 -0.6017 -0.0296
 4038ntf    on521686   4.528   4.298   4.536  0.7069  0.6506 -0.3251
 4038ntf    on521687   4.507   4.205   4.759 -0.4801 -0.6105 -0.8639
 4038ntf    fn421688   4.714   4.089   4.483 -0.2492 -0.1753  0.1513
 4038ntf    fn421689   4.753   4.038   4.691  0.3871 -0.5956 -0.4118
 4038ntf    fn421690   4.569   3.992   4.590 -0.0922  0.2954  0.4168
 4039ntf    cn121691   1.213   3.755   3.565 -0.1948 -0.0124  0.6799
 4039ntf    sn221692   1.344   3.712   3.447 -0.4020 -0.0713  0.4716
 4039ntf    nn321693   1.300   3.581   3.373  0.4097 -0.0823 -0.0028
 4039ntf    sn221694   1.351   3.432   3.382  0.1385 -0.1703  0.0834
 4039ntf    cn121695   1.185   3.364   3.411 -0.0528  0.2210 -0.0859
 4039ntf    fn421696   1.248   3.827   3.671  0.3072  0.1624  0.3962
 4039ntf    fn421697   1.110   3.810   3.503  0.2506 -0.2678 -0.2998
 4039ntf    fn421698   1.157   3.642   3.607 -0.8207  0.1339  0.2579
 4039ntf    on521699   1.315   3.813   3.348  0.1546  0.0307  0.4084
 4039ntf    on521700   1.469   3.713   3.518 -0.0979 -0.3872 -0.0534
 4039ntf    on521701   1.428   3.389   3.495  0.0496 -0.8371 -0.1085
 4039ntf    on521702   1.380   3.376   3.252 -0.6908 -0.1572 -0.1166
 4039ntf    fn421703   1.188   3.232   3.420  0.3082  0.2309 -0.0567
 4039ntf    fn421704   1.139   3.407   3.528 -0.0369  0.2798 -0.1010
 4039ntf    fn421705   1.091   3.391   3.321  0.1285  0.0237 -0.3336
 4040ntf    cn121706   6.308   6.416   0.541  0.1265  0.0470 -0.0494
 4040ntf    sn221707   6.410   6.296   0.632  0.1024 -0.1224 -0.2477
 4040ntf    nn321708   6.508   6.399   0.697 -0.1933 -0.3469  0.5591
 4040ntf    sn221709   6.493   6.452   0.844  0.2132  0.1941  0.4087
 4040ntf    cn121710   6.593   6.347   0.954 -0.1474 -0.0839  0.4746
 4040ntf    fn421711   6.212   6.358   0.470  0.1618 -0.2235  0.1249
 4040ntf    fn421712   6.248   6.499   0.624  0.1198  0.2096 -0.2144
 4040ntf    fn421713   6.370   6.484   0.446 -0.1358 -0.3438 -0.5048
 4040ntf    on521714   6.319   6.225   0.718 -0.2883  0.6371 -0.0269
 4040ntf    on521715   6.469   6.212   0.530 -0.1743 -0.1816 -0.3621
 4040ntf    on521716   6.360   6.456   0.900 -0.0712  0.2579 -0.2592
 4040ntf    on521717   6.567   6.575   0.854 -0.3703  0.6034 -0.2189
 4040ntf    fn421718   6.559   6.359   1.081  0.1587  0.0815  0.5425
 4040ntf    fn421719   6.572   6.219   0.929 -0.1454  0.0553 -0.2489
 4040ntf    fn421720   6.724   6.364   0.948 -0.1557 -0.2256 -0.1498
 4041ntf    cn121721   0.954   4.321   4.915  0.1177 -0.2076  0.1156
 4041ntf    sn221722   0.784   4.302   4.853 -0.0066  0.1541  0.3499
 4041ntf    nn321723   0.709   4.352   4.982 -0.8463 -0.4966  0.1246
 4041ntf    sn221724   0.632   4.483   5.020  0.1171  0.1675 -0.1649
 4041ntf    cn121725   0.461   4.431   4.986 -0.0269  0.3075  0.3343
 4041ntf    fn421726   0.974   4.234   5.013 -0.4167 -0.7858 -0.2748
 4041ntf    fn421727   1.046   4.276   4.831  0.4024  0.9238 -0.1902
 4041ntf    fn421728   0.992   4.440   4.959 -0.0787 -0.2862  0.5000
 4041ntf    on521729   0.780   4.387   4.737 -0.2414  0.2549  0.4309
 4041ntf    on521730   0.748   4.163   4.839  0.0032  0.1885 -0.0245
 4041ntf    on521731   0.665   4.597   4.938 -0.1865  0.1855 -0.2640
 4041ntf    on521732   0.625   4.505   5.163  0.3231  0.0378 -0.1343
 4041ntf    fn421733   0.376   4.511   5.049 -0.5652 -0.2908  0.3749
 4041ntf    fn421734   0.430   4.439   4.858 -0.2786  0.5399  0.4076
 4041ntf    fn421735   0.437   4.306   5.021 -0.2437  0.3450  0.3227
 4042ntf    cn121736   5.208   6.988   1.872  0.3330  0.3056 -0.1194
 4042ntf    sn221737   5.133   7.121   1.971  0.1968  0.1096  0.0411
 4042ntf    nn321738   5.077   7.038   2.092  0.1507  0.0537 -0.0175
 4042ntf    sn221739   5.151   6.946   2.196  0.0161  0.0749  0.0972
 4042ntf    cn121740   5.131   7.046   2.346 -0.2622  0.0059  0.1066
 4042ntf    fn421741   5.320   6.935   1.917  0.1179 -0.2077 -0.1844
 4042ntf    fn421742   5.120   6.890   1.859  0.2337  0.3805 -0.0103
 4042ntf    fn421743   5.233   7.031   1.749 -0.7153  0.3695 -0.3208
 4042ntf    on521744   5.243   7.209   2.002  0.5719 -0.1213 -0.6038
 4042ntf    on521745   5.021   7.169   1.894  0.0899  1.0202  0.7543
 4042ntf    on521746   5.295   6.937   2.186  0.0880  0.7466  0.4230
 4042ntf    on521747   5.088   6.820   2.224  0.4103 -0.0911  0.2383
 4042ntf    fn421748   5.146   6.975   2.457  0.2512 -0.3304 -0.1802
 4042ntf    fn421749   5.225   7.140   2.344 -0.0335 -0.2151  0.3599
 4042ntf    fn421750   5.015   7.109   2.354 -0.3193 -0.1637  0.6727
 4043ntf    cn121751   3.862   3.930   1.527  0.8638 -0.0973 -0.1123
 4043ntf    sn221752   3.891   3.819   1.668  0.4106  0.0165  0.0747
 4043ntf    nn321753   4.035   3.764   1.636  0.1702 -0.3825 -0.3368
 4043ntf    sn221754   4.152   3.757   1.741 -0.1934  0.2167  0.1101
 4043ntf    cn121755   4.192   3.581   1.726 -0.3730  0.1853 -0.0107
 4043ntf    fn421756   3.733   3.959   1.534  0.9658  0.4040 -0.2548
 4043ntf    fn421757   3.925   4.046   1.537  0.2279  0.2401  0.0296
 4043ntf    fn421758   3.892   3.887   1.406 -0.2349 -0.4350 -0.2814
 4043ntf    on521759   3.883   3.913   1.777  0.0025  0.2537 -0.1575
 4043ntf    on521760   3.788   3.719   1.665  0.3526  0.0612  0.5389
 4043ntf    on521761   4.108   3.768   1.878  0.3355  0.0667  0.2912
 4043ntf    on521762   4.268   3.832   1.700 -0.1029 -0.2059 -0.4043
 4043ntf    fn421763   4.233   3.553   1.604  0.1178  0.3029  0.1240
 4043ntf    fn421764   4.293   3.550   1.806 -0.5578 -0.8731 -0.1769
 4043ntf    fn421765   4.091   3.503   1.761 -0.1457 -0.2836 -0.3869
 4044ntf    cn121766   3.551   2.504   2.603  0.7170  0.0701 -0.3700
 4044ntf    sn221767   3.523   2.329   2.563 -0.4911  0.1327  0.1556
 4044ntf    nn321768   3.491   2.273   2.707 -0.0821 -0.0289  0.1845
 4044ntf    sn221769   3.384   2.160   2.726 -0.1927  0.1097  0.3940
 4044ntf    cn121770   3.236   2.264   2.738 -0.2721  0.0969 -0.4359
 4044ntf    fn421771   3.439   2.555   2.652  0.6667 -0.3907  0.0010
 4044ntf    fn421772   3.651   2.518   2.688  0.6671 -0.4246 -0.2298
 4044ntf    fn421773   3.578   2.576   2.496 -0.0348 -0.1145 -0.6959
 4044ntf    on521774   3.410   2.329   2.473 -0.5065  0.8911  0.1632
 4044ntf    on521775   3.646   2.277   2.511 -0.4692 -0.2074  0.5419
 4044ntf    on521776   3.402   2.098   2.855 -0.3649 -0.2952  0.2280
 4044ntf    on521777   3.369   2.061   2.622  0.0255 -0.5176  0.9488
 4044ntf    fn421778   3.128   2.196   2.701 -0.1670 -0.0934 -0.3945
 4044ntf    fn421779   3.207   2.292   2.864 -0.2781 -0.1609 -0.3798
 4044ntf    fn421780   3.218   2.377   2.671 -0.0175  0.3857 -0.0144
 4045ntf    cn121781   5.078   5.341   6.762  0.4774 -0.3719  0.3278
 4045ntf    sn221782   5.118   5.478   6.874 -0.1264  0.1630 -0.1041
 4045ntf    nn321783   4.970   5.507   6.915  0.0271  0.4145  0.2781
 4045ntf    sn221784   4.869   5.614   6.860 -0.0572  0.1490 -0.0909
 4045ntf    cn121785   4.705   5.554   6.910 -0.0409  0.2613  0.0998
 4045ntf    fn421786   4.981   5.261   6.804  0.1919 -0.1717  0.0546
 4045ntf    fn421787   5.050   5.381   6.639  0.6849 -0.3783  0.2779
 4045ntf    fn421788   5.184   5.261   6.757  0.4662 -0.3583 -0.2800
 4045ntf    on521789   5.184   5.407   6.981  0.0065  0.2490 -0.1281
 4045ntf    on521790   5.190   5.571   6.790 -0.2493  0.5930  0.2625
 4045ntf    on521791   4.865   5.616   6.716 -0.7385  0.0011 -0.0780
 4045ntf    on521792   4.891   5.737   6.931  0.7319  0.3041 -0.5932
 4045ntf    fn421793   4.692   5.530   7.040 -0.0702  0.1308  0.0728
 4045ntf    fn421794   4.608   5.640   6.881  0.1911  0.5798  0.2611
 4045ntf    fn421795   4.676   5.436   6.859 -0.1031  0.6007 -0.6510
 4046ntf    cn121796   6.105   6.373   2.668 -0.0634 -0.0881 -0.0536
 4046ntf    sn221797   5.987   6.236   2.652  0.0590 -0.2191  0.1700
 4046ntf    nn321798   5.864   6.326   2.618  0.2381  0.1060  0.3723
 4046ntf    sn221799   5.735   6.347   2.705 -0.3334 -0.2509 -0.3707
 4046ntf    cn121800   5.768   6.518   2.758 -0.7092 -0.2783 -0.0450
 4046ntf    fn421801   6.227   6.331   2.696  0.2843  0.7994 -0.1909
 4046ntf    fn421802   6.106   6.445   2.557  0.0122  0.0345  0.0262
 4046ntf    fn421803   6.079   6.459   2.766 -0.6455 -0.1021 -0.1933
 4046ntf    on521804   6.032   6.161   2.537 -0.4754  0.4816 -0.5011
 4046ntf    on521805   5.997   6.180   2.785 -0.4165 -0.4584  0.1058
 4046ntf    on521806   5.717   6.264   2.822  0.4079  0.0590 -0.0285
 4046ntf    on521807   5.617   6.363   2.625 -0.0711 -0.0580 -0.7209
 4046ntf    fn421808   5.801   6.600   2.660 -0.6758 -0.3465 -0.0910
 4046ntf    fn421809   5.670   6.574   2.827  0.1331 -0.1567  1.0671
 4046ntf    fn421810   5.869   6.509   2.842 -0.4292 -0.3621 -0.3878
 4047ntf    cn121811   5.984   3.147   2.895 -0.1616  0.2266 -0.0190
 4047ntf    sn221812   5.823   3.206   2.833 -0.2685  0.1125  0.1490
 4047ntf    nn321813   5.763   3.256   2.970  0.1411  0.5179  0.1850
 4047ntf    sn221814   5.659   3.190   3.067 -0.0490  0.1352 -0.2739
 4047ntf    cn121815   5.507   3.243   2.981 -0.1106  0.1483 -0.1573
 4047ntf    fn421816   5.970   3.042   2.974 -0.2612  0.2965  0.0578
 4047ntf    fn421817   6.065   3.107   2.799 -0.5349 -0.0443 -0.2225
 4047ntf    fn421818   6.049   3.239   2.964  0.0056  0.0294  0.0867
 4047ntf    on521819   5.861   3.309   2.739  0.1983 -0.2043 -0.0107
 4047ntf    on521820   5.753   3.092   2.781 -0.7289  0.2107  0.5363
 4047ntf    on521821   5.661   3.270   3.187 -0.4168 -0.1613 -0.0667
 4047ntf    on521822   5.651   3.047   3.081 -0.0219  0.1100 -0.5143
 4047ntf    fn421823   5.405   3.207   3.057  0.3736 -0.1053  0.3850
 4047ntf    fn421824   5.494   3.374   2.971  1.0978  0.2926 -0.0794
 4047ntf    fn421825   5.493   3.200   2.857  0.6679 -0.3618 -0.0801
 4048ntf    cn121826   5.598   5.011   4.570 -0.2109 -0.0950  0.0166
 4048ntf    sn221827   5.454   5.115   4.530 -0.0135  0.1442 -0.0727
 4048ntf    nn321828   5.531   5.247   4.493 -0.0917  0.2809  0.2555
 4048ntf    sn221829   5.496   5.373   4.407 -0.0397  0.0095 -0.1650
 4048ntf    cn121830   5.513   5.496   4.540  0.1209 -0.1567 -0.0309
 4048ntf    fn421831   5.700   5.028   4.488  0.1782  0.0441  0.5280
 4048ntf    fn421832   5.645   5.045   4.689  0.2255  0.4005 -0.2940
 4048ntf    fn421833   5.567   4.882   4.562 -0.0987 -0.1233  0.0299
 4048ntf    on521834   5.402   5.060   4.407 -0.4234 -0.2652  0.2828
 4048ntf    on521835   5.370   5.112   4.646 -0.1453 -0.8350 -0.1847
 4048ntf    on521836   5.358   5.386   4.367 -0.2674 -0.6983  0.3790
 4048ntf    on521837   5.592   5.401   4.303 -0.0634  0.1432 -0.1499
 4048ntf    fn421838   5.635   5.501   4.591  0.0010 -0.0533  0.2437
 4048ntf    fn421839   5.494   5.619   4.494  0.4443 -0.2188 -0.3328
 4048ntf    fn421840   5.430   5.471   4.639 -0.4588  0.4120 -0.3650
 4049ntf    cn121841   0.166   5.536   2.086  0.3337 -0.1500 -0.0457
 4049ntf    sn221842   0.256   5.686   2.136 -0.2787  0.1375  0.2027
 4049ntf    nn321843   0.400   5.627   2.152 -0.1643  0.4256  0.2405
 4049ntf    sn221844   0.480   5.575   2.276  0.1920  0.0547 -0.1413
 4049ntf    cn121845   0.604   5.460   2.210 -0.3017 -0.7607  0.3286
 4049ntf    fn421846   0.229   5.473   1.988  0.0880  0.3473 -0.5300
 4049ntf    fn421847   0.159   5.451   2.187  0.1320 -0.0160  0.0554
 4049ntf    fn421848   0.046   5.554   2.032  0.3302 -0.4040 -0.1250
 4049ntf    on521849   0.252   5.784   2.030 -0.2730 -0.0769  0.0049
 4049ntf    on521850   0.197   5.733   2.259 -0.1450  0.5290  0.1202
 4049ntf    on521851   0.395   5.494   2.360 -0.1313 -0.1655 -0.6753
 4049ntf    on521852   0.558   5.679   2.338  0.4411 -0.1041 -0.1862
 4049ntf    fn421853   0.550   5.352   2.156  0.2843 -0.9721  0.1462
 4049ntf    fn421854   0.686   5.517   2.123 -0.5602  0.3502  0.7947
 4049ntf    fn421855   0.685   5.404   2.299  0.2140  0.4066  0.6085
 4050ntf    cn121856   5.276   2.366   0.802 -0.1852 -0.0210  0.0156
 4050ntf    sn221857   5.113   2.295   0.763 -0.2467 -0.0055  0.2450
 4050ntf    nn321858   5.139   2.152   0.704  0.7938  0.2262  0.1313
 4050ntf    sn221859   5.119   2.098   0.558  0.4189  0.1884  0.1958
 4050ntf    cn121860   5.071   1.926   0.590  0.2084  0.2298  0.0997
 4050ntf    fn421861   5.358   2.379   0.699  0.6502  0.0708  0.6837
 4050ntf    fn421862   5.282   2.484   0.861 -0.0372 -0.0381  0.0350
 4050ntf    fn421863   5.340   2.285   0.884 -0.0125 -0.4132 -0.5000
 4050ntf    on521864   5.055   2.273   0.893  0.5379  0.6829  0.7266
 4050ntf    on521865   5.044   2.391   0.680  0.3987  0.7845  0.6004
 4050ntf    on521866   5.240   2.085   0.481  0.3206  0.2096  0.0383
 4050ntf    on521867   5.003   2.150   0.491  0.0053 -0.4789  0.3793
 4050ntf    fn421868   5.149   1.873   0.682  0.7921  0.0859 -0.4746
 4050ntf    fn421869   4.953   1.920   0.651 -0.0305 -0.3049 -0.4047
 4050ntf    fn421870   5.070   1.836   0.493 -0.2957 -0.0069  0.3169
 4051ntf    cn121871   4.667   1.035   0.831  0.6057  0.6447 -0.2084
 4051ntf    sn221872   4.520   1.132   0.878  0.3046  0.0752  0.0348
 4051ntf    nn321873   4.573   1.279   0.859  0.5396 -0.0461 -0.2597
 4051ntf    sn221874   4.541   1.375   0.739  0.1148  0.0702 -0.0565
 4051ntf    cn121875   4.372   1.436   0.763  0.1690  0.4144 -0.5375
 4051ntf    fn421876   4.695   1.053   0.703  0.1157  0.1999 -0.3806
 4051ntf    fn421877   4.780   1.072   0.890  0.8368 -0.3911  0.0157
 4051ntf    fn421878   4.646   0.905   0.842  0.1875  0.7066 -0.2429
 4051ntf    on521879   4.414   1.092   0.789  0.4593 -0.3944  0.0584
 4051ntf    on521880   4.506   1.082   1.013 -0.0523 -0.1288 -0.0766
 4051ntf    on521881   4.549   1.307   0.612 -0.5419 -0.3531  0.1227
 4051ntf    on521882   4.611   1.500   0.747  0.1290  0.0651 -0.0977
 4051ntf    fn421883   4.279   1.341   0.767  0.7645 -0.1872 -0.7267
 4051ntf    fn421884   4.351   1.507   0.872  0.0503 -0.3060 -0.0792
 4051ntf    fn421885   4.327   1.518   0.671  0.5887  0.3108 -0.8383
 4052ntf    cn121886   5.510   3.645   0.133 -0.4842  0.3950  0.0438
 4052ntf    sn221887   5.659   3.570   0.205 -0.2902  0.4079 -0.3424
 4052ntf    nn321888   5.657   3.631   0.350 -0.2146 -0.1832 -0.0925
 4052ntf    sn221889   5.774   3.625   0.454 -0.1926  0.1808 -0.0969
 4052ntf    cn121890   5.703   3.511   0.577  0.1100  0.0239 -0.0670
 4052ntf    fn421891   5.506   3.775   0.156 -0.5617  0.3553  0.2616
 4052ntf    fn421892   5.474   3.613   0.010  0.1121 -0.0475 -0.0173
 4052ntf    fn421893   5.410   3.606   0.211 -0.2912  0.1085  0.1478
 4052ntf    on521894   5.643   3.427   0.203 -0.7037  0.4477 -0.0253
 4052ntf    on521895   5.764   3.630   0.127  0.1287  0.3704  0.1881
 4052ntf    on521896   5.784   3.749   0.527  0.2869  0.3760 -0.4918
 4052ntf    on521897   5.893   3.553   0.417 -0.0132  0.5154 -0.1789
 4052ntf    fn421898   5.789   3.452   0.658 -0.2773 -0.0740  0.2730
 4052ntf    fn421899   5.605   3.562   0.649  0.2757  0.1444  0.0738
 4052ntf    fn421900   5.645   3.416   0.505  0.2666 -0.0268 -0.1273
 4053ntf    cn121901   4.827   0.358   5.092 -0.1936  0.2275 -0.1615
 4053ntf    sn221902   4.794   0.368   5.270  0.0312  0.0042 -0.1058
 4053ntf    nn321903   4.729   0.511   5.270 -0.2378 -0.1146  0.4683
 4053ntf    sn221904   4.577   0.548   5.258 -0.2064  0.0056  0.4433
 4053ntf    cn121905   4.578   0.729   5.234 -0.2051 -0.0400  0.0927
 4053ntf    fn421906   4.713   0.340   5.028 -0.6439  0.3100  0.6055
 4053ntf    fn421907   4.897   0.459   5.044  0.4011 -0.1089 -0.0161
 4053ntf    fn421908   4.899   0.248   5.077  0.1147  0.3825  0.1608
 4053ntf    on521909   4.718   0.253   5.311  0.0412 -0.0078 -0.1224
 4053ntf    on521910   4.927   0.378   5.326 -0.1853 -0.5475  0.5189
 4053ntf    on521911   4.506   0.521   5.380 -0.2860 -0.4736  0.2930
 4053ntf    on521912   4.523   0.497   5.134  0.4822  0.1593  0.0721
 4053ntf    fn421913   4.604   0.765   5.109 -0.1971 -0.0270  0.0977
 4053ntf    fn421914   4.458   0.778   5.261 -0.1651  0.0445  0.1144
 4053ntf    fn421915   4.664   0.794   5.310 -0.3889  0.3145 -0.0005
 4054ntf    cn121916   0.348   4.910   1.715  0.2339  0.2723 -0.1001
 4054ntf    sn221917   0.180   4.921   1.646  0.0736  0.4610  0.3172
 4054ntf    nn321918   0.216   4.882   1.498 -0.2262  0.4221  0.2531
 4054ntf    sn221919   0.133   4.813   1.385  0.4840 -0.1017  0.0411
 4054ntf    cn121920   0.224   4.657   1.405  0.0074 -0.4199 -0.2313
 4054ntf    fn421921   0.424   5.012   1.680  0.4405  0.2523  0.2826
 4054ntf    fn421922   0.355   4.915   1.847  0.0350  0.1156 -0.0828
 4054ntf    fn421923   0.416   4.801   1.683  0.2122  0.2336 -0.0143
 4054ntf    on521924   0.107   4.820   1.718  0.3226 -0.1587 -0.2849
 4054ntf    on521925   0.139   5.059   1.663 -0.6980  0.2402  0.2877
 4054ntf    on521926   0.160   4.861   1.251 -1.0794  0.3125 -0.1538
 4054ntf    on521927  -0.002   4.783   1.426  0.3660  0.0661 -0.2240
 4054ntf    fn421928   0.195   4.550   1.333 -0.0310 -0.5512 -0.0221
 4054ntf    fn421929   0.350   4.681   1.374 -0.1323  0.2429 -0.3051
 4054ntf    fn421930   0.228   4.620   1.532 -0.0526  0.2898 -0.0184
 4055ntf    cn121931   1.132   2.609   5.451 -0.4221 -0.1877 -0.0037
 4055ntf    sn221932   1.242   2.477   5.391 -0.4275 -0.1552 -0.0858
 4055ntf    nn321933   1.374   2.554   5.355 -0.3193 -0.2492  0.1065
 4055ntf    sn221934   1.466   2.535   5.229 -0.1854  0.1071  0.1504
 4055ntf    cn121935   1.590   2.663   5.267  0.2474 -0.1861 -0.2713
 4055ntf    fn421936   1.028   2.555   5.512  0.0274 -0.6290  0.3797
 4055ntf    fn421937   1.190   2.678   5.548 -0.1414 -0.6658  0.1729
 4055ntf    fn421938   1.089   2.695   5.360 -0.6584 -0.5638 -0.2482
 4055ntf    on521939   1.251   2.389   5.505 -0.2458  0.0758  0.0791
 4055ntf    on521940   1.181   2.430   5.269 -0.0175  0.4690 -0.5332
 4055ntf    on521941   1.405   2.570   5.103  0.0529 -0.0448 -0.0066
 4055ntf    on521942   1.539   2.411   5.232 -0.6186 -0.1617 -0.3770
 4055ntf    fn421943   1.696   2.669   5.188  0.1407  0.3280 -0.3819
 4055ntf    fn421944   1.543   2.786   5.279 -0.0007 -0.3404  0.3628
 4055ntf    fn421945   1.641   2.648   5.388  0.4406 -0.5327 -0.3939
 4056ntf    cn121946   3.398   7.020   6.073  0.2170 -0.1170 -0.0170
 4056ntf    sn221947   3.229   6.952   6.067 -0.0438  0.4958  0.2801
 4056ntf    nn321948   3.200   6.957   5.913  0.5849  0.1954  0.1475
 4056ntf    sn221949   3.114   7.054   5.824  0.3727 -0.1720 -0.0498
 4056ntf    cn121950   3.219   7.089   5.680 -0.1343  0.1132 -0.3518
 4056ntf    fn421951   3.425   7.060   6.196 -0.7761  0.2537  0.0938
 4056ntf    fn421952   3.489   6.933   6.034  0.2365 -0.0277 -0.1696
 4056ntf    fn421953   3.417   7.131   6.003  0.2155 -0.0363  0.1109
 4056ntf    on521954   3.244   6.820   6.122 -0.4591  0.2108 -0.2836
 4056ntf    on521955   3.155   7.048   6.146 -0.1931  0.3983  0.2588
 4056ntf    on521956   3.098   7.188   5.877  0.4041 -0.1983  0.0268
 4056ntf    on521957   2.994   6.995   5.770 -0.0245 -0.4164  1.0695
 4056ntf    fn421958   3.154   7.156   5.586  0.4009 -0.0567 -0.8434
 4056ntf    fn421959   3.325   7.163   5.703 -0.0287 -0.1074 -0.1278
 4056ntf    fn421960   3.272   6.977   5.635 -0.4144 -0.0846 -0.1930
 4057ntf    cn121961   5.646   4.080   4.706  0.2595 -0.1380  0.4460
 4057ntf    sn221962   5.814   4.017   4.677  0.2643  0.1151 -0.0847
 4057ntf    nn321963   5.875   4.056   4.816  0.0422  0.5233 -0.0989
 4057ntf    sn221964   5.904   3.971   4.944 -0.2741  0.3610 -0.1352
 4057ntf    cn121965   6.082   3.936   4.927 -0.3714 -0.0384 -0.3312
 4057ntf    fn421966   5.584   4.003   4.794 -0.4581 -0.3554 -0.2424
 4057ntf    fn421967   5.633   4.200   4.760  0.6200  0.1480 -0.0942
 4057ntf    fn421968   5.579   4.086   4.592 -0.2893  0.5876  0.7986
 4057ntf    on521969   5.799   3.875   4.657  0.1601  0.0703  0.3149
 4057ntf    on521970   5.879   4.086   4.568 -0.2155  0.3787 -0.2110
 4057ntf    on521971   5.841   3.841   4.949  0.1775  0.1611  0.6328
 4057ntf    on521972   5.901   4.047   5.067  0.7741  0.2400 -0.0231
 4057ntf    fn421973   6.148   4.030   4.863  0.6378 -0.3558  0.2190
 4057ntf    fn421974   6.151   3.930   5.039 -0.5017  0.0560 -0.2451
 4057ntf    fn421975   6.112   3.823   4.864  0.2741 -0.3205  0.4672
 4058ntf    cn121976   1.896   1.329   6.990 -0.1657 -0.0575  0.2190
 4058ntf    sn221977   2.037   1.432   7.041 -0.0245 -0.3658  0.4502
 4058ntf    nn321978   2.148   1.366   6.952 -0.1473 -0.2363  0.2010
 4058ntf    sn221979   2.298   1.411   6.938 -0.2706  0.2115  0.3096
 4058ntf    cn121980   2.375   1.306   7.064 -0.2345 -0.1996 -0.0531
 4058ntf    fn421981   1.877   1.333   6.859  0.4631 -0.7738  0.0947
 4058ntf    fn421982   1.925   1.204   7.022  0.1731 -0.0022  0.1421
 4058ntf    fn421983   1.780   1.352   7.048 -0.0797  0.5881  0.1393
 4058ntf    on521984   1.996   1.565   7.004  0.0244 -0.5045 -0.1139
 4058ntf    on521985   2.049   1.409   7.183 -0.3637 -0.2668  0.4952
 4058ntf    on521986   2.329   1.549   6.967 -0.1575  0.2149  0.1722
 4058ntf    on521987   2.360   1.370   6.815  0.0389 -0.2222  0.6058
 4058ntf    fn421988   2.341   1.349   7.185  0.0936 -0.1079  0.0083
 4058ntf    fn421989   2.336   1.180   7.053  0.0975 -0.3133  0.0513
 4058ntf    fn421990   2.508   1.310   7.066 -0.2480  0.2052  0.0809
 4059ntf    cn121991   1.806   2.567   5.874  0.1233  0.4096  0.2148
 4059ntf    sn221992   1.984   2.600   5.858  0.2088 -0.0739  0.1615
 4059ntf    nn321993   1.985   2.757   5.845  0.3050 -0.1114 -0.2931
 4059ntf    sn221994   2.009   2.841   5.715  0.0368  0.2490 -0.1092
 4059ntf    cn121995   2.186   2.814   5.687  0.0349  0.2245 -0.0968
 4059ntf    fn421996   1.756   2.657   5.957 -0.5168 -0.0138  0.2895
 4059ntf    fn421997   1.742   2.573   5.759 -0.3551 -0.1673  0.4497
 4059ntf    fn421998   1.779   2.447   5.921  0.2036  0.2977 -0.0262
 4059ntf    on521999   2.046   2.556   5.981  0.2818 -0.4417 -0.0061
 4059ntf    on522000   2.012   2.528   5.737 -0.3464  0.0891 -0.0641
 4059ntf    on522001   1.992   2.983   5.734  0.3038  0.2471  0.1321
 4059ntf    on522002   1.941   2.786   5.600 -0.0871 -0.7961  0.4540
 4059ntf    fn422003   2.214   2.694   5.637  0.3911  0.3401 -0.1812
 4059ntf    fn422004   2.240   2.899   5.602 -0.2398  0.1896 -0.3083
 4059ntf    fn422005   2.251   2.813   5.802 -0.1221 -1.2391  0.0042
 4060ntf    cn122006   5.546   1.204   7.254 -0.1083  0.2273 -0.4073
 4060ntf    sn222007   5.492   1.377   7.250 -0.2975  0.1746 -0.1295
 4060ntf    nn322008   5.377   1.362   7.144 -0.2197  0.8626 -0.3201
 4060ntf    sn222009   5.223   1.345   7.174 -0.1045  0.2149 -0.0731
 4060ntf    cn122010   5.187   1.511   7.238  0.0926  0.2852 -0.1414
 4060ntf    fn422011   5.669   1.189   7.301 -0.2166  0.4825 -0.0424
 4060ntf    fn422012   5.463   1.120   7.315 -0.2610  0.2832 -0.5377
 4060ntf    fn422013   5.563   1.150   7.134 -0.6798 -0.4421 -0.1931
 4060ntf    on522014   5.447   1.412   7.383 -0.4704  0.0687 -0.1588
 4060ntf    on522015   5.609   1.449   7.207 -0.1233 -0.2517 -0.3699
 4060ntf    on522016   5.197   1.249   7.278 -0.0777  0.1821 -0.0965
 4060ntf    on522017   5.143   1.330   7.055 -0.3946  0.2607  0.1175
 4060ntf    fn422018   5.273   1.606   7.204  0.1307  0.4605  0.4444
 4060ntf    fn422019   5.071   1.558   7.195 -0.1999 -0.2928  0.0012
 4060ntf    fn422020   5.177   1.502   7.369  0.0692 -0.3876 -0.1865
 4061ntf    cn122021   1.209   0.559   4.317 -0.3372 -0.2662  0.2081
 4061ntf    sn222022   1.083   0.527   4.190 -0.1584 -0.0955 -0.0157
 4061ntf    nn322023   0.991   0.652   4.212 -0.2137 -0.1701  0.1781
 4061ntf    sn222024   0.989   0.776   4.117 -0.0113 -0.0697  0.3055
 4061ntf    cn122025   0.825   0.847   4.152  0.0275  0.0422  0.2620
 4061ntf    fn422026   1.294   0.458   4.328  0.3877  0.3398  0.2757
 4061ntf    fn422027   1.273   0.673   4.294 -0.5830 -0.1283  0.2112
 4061ntf    fn422028   1.155   0.560   4.437 -0.1697 -0.0429  0.2808
 4061ntf    on522029   1.154   0.516   4.065 -0.0008 -0.7102  0.1267
 4061ntf    on522030   1.013   0.412   4.244  0.2822 -0.5565 -0.4171
 4061ntf    on522031   0.969   0.753   3.976 -0.5896  0.0243  0.3715
 4061ntf    on522032   1.089   0.875   4.150  0.3455 -0.1773 -0.4160
 4061ntf    fn422033   0.806   0.962   4.089 -0.4722  0.0824  0.4875
 4061ntf    fn422034   0.729   0.764   4.115  0.0086  0.1679  0.0274
 4061ntf    fn422035   0.807   0.865   4.282 -0.0247 -0.0381  0.2654
 4062ntf    cn122036   2.676   3.080   2.468 -0.1662 -0.1903 -0.4105
 4062ntf    sn222037   2.767   3.226   2.407 -0.0699 -0.1153 -0.0868
 4062ntf    nn322038   2.652   3.325   2.364  0.2978  0.3751  0.0555
 4062ntf    sn222039   2.600   3.457   2.430 -0.1437  0.2059  0.0466
 4062ntf    cn122040   2.436   3.395   2.480 -0.0767 -0.4356 -0.5194
 4062ntf    fn422041   2.754   2.973   2.472 -0.6220 -0.5144 -0.0576
 4062ntf    fn422042   2.632   3.098   2.591 -0.1380  0.2227 -0.4597
 4062ntf    fn422043   2.577   3.045   2.388  0.0558 -0.5669 -0.5267
 4062ntf    on522044   2.848   3.272   2.517 -0.4136  0.1762  0.0480
 4062ntf    on522045   2.833   3.175   2.290 -0.2447  0.4841 -0.4497
 4062ntf    on522046   2.569   3.559   2.333  0.2586 -0.1555 -0.4647
 4062ntf    on522047   2.665   3.497   2.552 -0.3903  0.1558  0.1957
 4062ntf    fn422048   2.438   3.358   2.607  0.2848  0.3260 -0.2939
 4062ntf    fn422049   2.341   3.487   2.468  0.2043 -0.0296  0.3061
 4062ntf    fn422050   2.391   3.296   2.405  0.4024 -0.7900 -0.3393
 4063ntf    cn122051   4.490   3.919   0.135 -0.3479  0.1953 -0.3220
 4063ntf    sn222052   4.386   3.772   0.109 -0.3161  0.0727  0.2355
 4063ntf    nn322053   4.466   3.659   0.183 -0.3550  0.2100  0.4902
 4063ntf    sn222054   4.416   3.512   0.205 -0.1615  0.0736  0.0413
 4063ntf    cn122055   4.523   3.428   0.085 -0.2794 -0.4375  0.2908
 4063ntf    fn422056   4.511   3.939   0.264 -0.2724 -0.3937 -0.2411
 4063ntf    fn422057   4.603   3.928   0.066 -0.3065 -0.2412 -0.3162
 4063ntf    fn422058   4.419   4.027   0.107  0.0345  0.3665 -0.6397
 4063ntf    on522059   4.261   3.807   0.173 -0.4196 -0.2735  0.2227
 4063ntf    on522060   4.385   3.752  -0.034 -0.3836  0.3407  0.1973
 4063ntf    on522061   4.280   3.486   0.164  0.0392  0.4564 -0.8794
 4063ntf    on522062   4.457   3.449   0.328  0.0406  0.1438  0.0103
 4063ntf    fn422063   4.512   3.296   0.083  0.3194 -0.4885  0.2492
 4063ntf    fn422064   4.494   3.467  -0.038  0.0370  0.0197  0.3610
 4063ntf    fn422065   4.648   3.457   0.114 -0.4940  0.3332  0.4498
 4064ntf    cn122066   3.273   1.275   1.256 -0.2236  0.2794 -0.1528
 4064ntf    sn222067   3.422   1.358   1.195 -0.0883  0.2018  0.0719
 4064ntf    nn322068   3.402   1.323   1.044 -0.4659 -0.4937  0.2781
 4064ntf    sn222069   3.330   1.411   0.936 -0.2057 -0.3175  0.2466
 4064ntf    cn122070   3.261   1.280   0.831  0.1616 -0.1135 -0.2594
 4064ntf    fn422071   3.268   1.143   1.253  0.5573  0.2370  0.2232
 4064ntf    fn422072   3.250   1.301   1.384 -0.7376 -0.2569 -0.1323
 4064ntf    fn422073   3.166   1.318   1.192 -0.2270  0.2166 -0.1886
 4064ntf    on522074   3.411   1.493   1.245 -0.2674  0.1918  0.0596
 4064ntf    on522075   3.509   1.270   1.269 -0.1440  0.5654  0.5752
 4064ntf    on522076   3.429   1.463   0.844 -0.2231 -0.0853  0.3577
 4064ntf    on522077   3.218   1.493   0.975  0.0933  0.2429 -0.0472
 4064ntf    fn422078   3.362   1.209   0.783  0.6068  0.3395  0.0003
 4064ntf    fn422079   3.187   1.201   0.909 -0.4319  0.3423 -0.3543
 4064ntf    fn422080   3.184   1.322   0.733  0.0294 -0.1618 -0.1774
 4065ntf    cn122081   6.962   4.285   4.656  0.2255  0.0682  0.2186
 4065ntf    sn222082   6.859   4.424   4.711  0.1493 -0.0684  0.4192
 4065ntf    nn322083   6.786   4.454   4.576  0.3313  0.4585  0.4360
 4065ntf    sn222084   6.765   4.592   4.504 -0.1266  0.1366 -0.0527
 4065ntf    cn122085   6.640   4.660   4.617 -0.3304  0.4004 -0.4357
 4065ntf    fn422086   7.048   4.318   4.561 -0.3472 -0.3238 -0.4529
 4065ntf    fn422087   7.028   4.236   4.760 -0.1022 -0.3399  0.2372
 4065ntf    fn422088   6.891   4.189   4.598  0.0054  0.3717 -0.0159
 4065ntf    on522089   6.776   4.364   4.814 -0.2083  0.0689  0.2123
 4065ntf    on522090   6.952   4.523   4.759 -0.2062  0.4847 -0.0218
 4065ntf    on522091   6.707   4.583   4.372  0.1712 -0.3435 -0.1539
 4065ntf    on522092   6.870   4.689   4.518 -0.0472  0.0518 -0.0579
 4065ntf    fn422093   6.517   4.620   4.589 -0.0782 -0.4354 -0.3864
 4065ntf    fn422094   6.664   4.643   4.745  0.2159  0.4320 -0.5336
 4065ntf    fn422095   6.626   4.791   4.599  0.0458  0.4976 -0.0418
 4066ntf    cn122096   2.049   4.377   6.799  0.2242 -0.0278  0.1931
 4066ntf    sn222097   2.105   4.249   6.683  0.0736 -0.0482  0.1423
 4066ntf    nn322098   2.249   4.285   6.633 -0.1068  0.1806 -0.2127
 4066ntf    sn222099   2.388   4.217   6.663 -0.3716 -0.3911 -0.2626
 4066ntf    cn122100   2.425   4.151   6.498 -0.2947 -0.3252 -0.2723
 4066ntf    fn422101   2.117   4.365   6.912 -0.2328  0.3719  0.5148
 4066ntf    fn422102   2.073   4.498   6.752  0.2670 -0.2402 -0.3388
 4066ntf    fn422103   1.920   4.371   6.827  0.0786 -0.0919 -0.4708
 4066ntf    on522104   2.089   4.128   6.760  0.1800  0.0443  0.3107
 4066ntf    on522105   2.012   4.260   6.574  0.2917 -0.0862 -0.0492
 4066ntf    on522106   2.392   4.104   6.752 -0.4381 -0.3551 -0.2136
 4066ntf    on522107   2.496   4.312   6.666 -0.4023 -0.3743  0.4074
 4066ntf    fn422108   2.537   4.080   6.501  0.1930  0.4412 -0.2213
 4066ntf    fn422109   2.331   4.068   6.455 -0.2255 -0.2430 -0.5911
 4066ntf    fn422110   2.429   4.244   6.404  0.4246  0.0395  0.1135
 4067ntf    cn122111   2.010   6.396   2.197 -0.1005  0.1164 -0.0759
 4067ntf    sn222112   2.143   6.512   2.156  0.0925 -0.0301  0.1365
 4067ntf    nn322113   2.171   6.585   2.293 -0.0664 -0.2626  0.2925
 4067ntf    sn222114   2.127   6.723   2.354  0.2759 -0.1642  0.3181
 4067ntf    cn122115   1.946   6.710   2.338  0.2922  0.1391 -0.1103
 4067ntf    fn422116   1.889   6.446   2.216 -0.2437 -0.4529  0.5725
 4067ntf    fn422117   1.991   6.299   2.109  0.3187  0.1112 -0.1629
 4067ntf    fn422118   2.029   6.340   2.316 -0.3708  0.1750 -0.0034
 4067ntf    on522119   2.258   6.436   2.114  0.4700  0.3768  0.4142
 4067ntf    on522120   2.089   6.600   2.055  0.3577  0.3449  0.3180
 4067ntf    on522121   2.169   6.836   2.276  0.4681 -0.4544 -0.0018
 4067ntf    on522122   2.148   6.734   2.496  0.4969 -0.0104  0.2737
 4067ntf    fn422123   1.909   6.719   2.211  0.3245  0.2334 -0.1129
 4067ntf    fn422124   1.906   6.591   2.378  0.8932 -0.0552 -0.0649
 4067ntf    fn422125   1.892   6.809   2.407  0.1602  0.1373 -0.2113
 4068ntf    cn122126   3.040   0.185   2.718  0.1181  0.0524 -0.1934
 4068ntf    sn222127   3.163   0.088   2.624  0.2565  0.1132 -0.0769
 4068ntf    nn322128   3.053   0.025   2.531  0.2564  0.3746 -0.2545
 4068ntf    sn222129   3.072  -0.040   2.389  0.4024 -0.0336 -0.0487
 4068ntf    cn122130   3.055   0.108   2.285 -0.2170 -0.0548  0.0160
 4068ntf    fn422131   3.044   0.309   2.673  0.4436  0.0432 -0.1939
 4068ntf    fn422132   2.914   0.152   2.695  0.2843 -0.4838 -0.3451
 4068ntf    fn422133   3.053   0.190   2.849  0.1675 -0.1459 -0.1899
 4068ntf    on522134   3.261   0.182   2.575  0.0324  0.3792 -0.0243
 4068ntf    on522135   3.211  -0.001   2.726  0.2488  0.1281 -0.0600
 4068ntf    on522136   2.954  -0.117   2.359  0.3598  0.0053  0.0173
 4068ntf    on522137   3.203  -0.089   2.354  0.4792  0.1921 -0.0773
 4068ntf    fn422138   3.060   0.083   2.155 -0.0471 -0.1449  0.0393
 4068ntf    fn422139   2.945   0.175   2.314 -0.3888 -0.1478 -0.4141
 4068ntf    fn422140   3.153   0.192   2.318 -0.4431  0.2072  0.0270
 4069ntf    cn122141   0.724   3.407   6.667 -0.1496 -0.2011 -0.0192
 4069ntf    sn222142   0.779   3.489   6.514  0.1528  0.1463  0.2764
 4069ntf    nn322143   0.769   3.373   6.410 -0.5468  0.3499  0.1118
 4069ntf    sn222144   0.649   3.342   6.313 -0.1481  0.1395 -0.3205
 4069ntf    cn122145   0.695   3.439   6.167 -0.1134  0.6649  0.0402
 4069ntf    fn422146   0.697   3.505   6.752 -0.1906 -0.2031 -0.0294
 4069ntf    fn422147   0.609   3.343   6.649 -0.1392 -0.1927 -0.1169
 4069ntf    fn422148   0.815   3.339   6.734 -0.1292 -0.2356 -0.0807
 4069ntf    on522149   0.691   3.603   6.502 -0.4841 -0.3568  0.1234
 4069ntf    on522150   0.919   3.517   6.535  0.1085  0.3430  0.3128
 4069ntf    on522151   0.524   3.407   6.345 -0.0943  0.0374  0.1099
 4069ntf    on522152   0.640   3.205   6.268 -0.2803  0.0193  0.0670
 4069ntf    fn422153   0.611   3.427   6.066 -0.3099  0.2693  0.2507
 4069ntf    fn422154   0.707   3.568   6.198  0.5354  0.5272  0.3845
 4069ntf    fn422155   0.816   3.402   6.127 -0.4016 -0.0739 -0.1525
 4070ntf    cn122156   2.863   5.544   6.889 -0.2252  0.4116 -0.3911
 4070ntf    sn222157   2.975   5.672   6.954  0.0921  0.1790 -0.4759
 4070ntf    nn322158   3.029   5.746   6.827 -0.1977  0.1378 -0.6247
 4070ntf    sn222159   3.164   5.727   6.750  0.1858  0.3420 -0.0094
 4070ntf    cn122160   3.113   5.770   6.581  0.2441  0.9788  0.1322
 4070ntf    fn422161   2.931   5.478   6.797 -0.1527  0.3209 -0.2723
 4070ntf    fn422162   2.810   5.464   6.981  0.5322 -0.3283 -0.5853
 4070ntf    fn422163   2.764   5.602   6.824  0.0385  0.3426 -0.8619
 4070ntf    on522164   2.879   5.749   7.030  0.0485 -0.2828 -0.0569
 4070ntf    on522165   3.069   5.601   7.038 -0.3680  0.1467  0.0228
 4070ntf    on522166   3.231   5.600   6.735  0.2776  0.3905 -0.0199
 4070ntf    on522167   3.259   5.832   6.777  0.0977  0.2678  0.5827
 4070ntf    fn422168   3.040   5.673   6.528  0.4157  0.7957  0.2325
 4070ntf    fn422169   3.047   5.884   6.567 -0.5186  0.6231  0.7039
 4070ntf    fn422170   3.216   5.788   6.500  0.3794  0.5534  0.2053
 4071ntf    cn122171   0.017   2.327   6.914  0.0667  0.0684 -0.1966
 4071ntf    sn222172  -0.016   2.337   6.736  0.0561 -0.1041 -0.2058
 4071ntf    nn322173   0.094   2.239   6.682  0.4676  0.2050  0.0651
 4071ntf    sn222174   0.082   2.085   6.653 -0.1068  0.1449  0.5911
 4071ntf    cn122175   0.218   2.035   6.762  0.3047  0.0111  0.0235
 4071ntf    fn422176  -0.025   2.212   6.966  0.3212  0.0417 -0.0454
 4071ntf    fn422177   0.147   2.337   6.940 -0.0483 -0.8928  0.8690
 4071ntf    fn422178  -0.044   2.421   6.984  0.2393  0.1327 -0.1319
 4071ntf    on522179  -0.153   2.300   6.710 -0.1856  0.5131  0.1568
 4071ntf    on522180   0.011   2.477   6.711  0.2436 -0.0122  0.4862
 4071ntf    on522181   0.136   2.055   6.522 -0.3267 -0.6684  0.6838
 4071ntf    on522182  -0.030   2.007   6.698 -0.1356 -0.0160  0.2468
 4071ntf    fn422183   0.332   2.076   6.709 -0.0564  0.6664 -0.2558
 4071ntf    fn422184   0.204   2.095   6.879  0.4536 -0.1292  0.1130
 4071ntf    fn422185   0.229   1.906   6.793 -0.4759  0.0204  0.3625
 4072ntf    cn122186   3.446   5.408   3.822  0.0879 -0.3940 -0.0650
 4072ntf    sn222187   3.477   5.244   3.892  0.1330 -0.3354  0.0526
 4072ntf    nn322188   3.367   5.246   4.005  0.2960  0.3615  0.2038
 4072ntf    sn222189   3.264   5.134   4.043  0.3941  0.2204  0.0621
 4072ntf    cn122190   3.114   5.201   3.965  0.3499  0.3085  0.2220
 4072ntf    fn422191   3.321   5.439   3.792  0.2329  0.1168 -0.1544
 4072ntf    fn422192   3.488   5.495   3.912  0.8860 -0.4837 -0.3438
 4072ntf    fn422193   3.511   5.417   3.707 -0.3369  0.6844 -0.2392
 4072ntf    on522194   3.457   5.155   3.781  0.4013 -0.1999 -0.1044
 4072ntf    on522195   3.611   5.242   3.945  0.0983 -0.2758  0.1438
 4072ntf    on522196   3.222   5.131   4.181  0.4970  0.2124  0.0930
 4072ntf    on522197   3.277   5.010   3.972 -0.9176  0.2440 -0.2434
 4072ntf    fn422198   3.128   5.231   3.837 -0.1619  0.0720  0.1075
 4072ntf    fn422199   3.012   5.117   3.974  0.7321 -0.1704  0.1234
 4072ntf    fn422200   3.071   5.313   4.021 -0.5630 -0.0021  0.1679
 4073ntf    cn122201   3.853   1.637   0.623 -0.0443  0.0761 -0.3381
 4073ntf    sn222202   4.027   1.590   0.600 -0.1792 -0.4179 -0.3634
 4073ntf    nn322203   4.085   1.648   0.734 -0.3538  0.1850 -0.5475
 4073ntf    sn222204   4.147   1.789   0.767  0.2693 -0.2722  0.2535
 4073ntf    cn122205   4.012   1.861   0.865 -0.3509 -0.5330 -0.3996
 4073ntf    fn422206   3.810   1.637   0.748 -0.3222  0.1572 -0.4328
 4073ntf    fn422207   3.835   1.764   0.590  0.1973  0.2097  0.0399
 4073ntf    fn422208   3.767   1.563   0.555  0.0724 -0.4896  0.1228
 4073ntf    on522209   3.999   1.449   0.597  0.4750 -0.5550 -0.1748
 4073ntf    on522210   4.073   1.649   0.477  0.0368  0.0383 -0.0689
 4073ntf    on522211   4.175   1.877   0.657  0.0071 -0.1345  0.2983
 4073ntf    on522212   4.254   1.776   0.863  0.0800 -0.1504  0.4810
 4073ntf    fn422213   3.904   1.863   0.789 -0.7898  0.0396  0.2217
 4073ntf    fn422214   3.988   1.794   0.977 -0.7923  0.0159 -0.1598
 4073ntf    fn422215   4.029   1.986   0.906  0.2491 -0.8214  0.2535
 4074ntf    cn122216   1.456   0.581   0.668  0.1781 -0.1136 -0.1096
 4074ntf    sn222217   1.283   0.637   0.666  0.2435  0.1176  0.4113
 4074ntf    nn322218   1.297   0.769   0.582 -0.3121 -0.0813 -0.0002
 4074ntf    sn222219   1.258   0.918   0.615 -0.1663  0.0525 -0.4234
 4074ntf    cn122220   1.087   0.939   0.557 -0.3098 -0.5421 -0.2305
 4074ntf    fn422221   1.501   0.567   0.545  0.7425  0.0882  0.0683
 4074ntf    fn422222   1.542   0.670   0.717 -0.2035  0.4008 -0.3637
 4074ntf    fn422223   1.461   0.467   0.736 -0.3202  0.0922  0.2841
 4074ntf    on522224   1.227   0.533   0.584 -0.2790  0.3364  0.4834
 4074ntf    on522225   1.233   0.644   0.801 -0.2080  0.1903  0.2407
 4074ntf    on522226   1.322   1.009   0.523  0.7383  0.2326  0.3706
 4074ntf    on522227   1.259   0.947   0.756  0.3538 -0.0509 -0.3996
 4074ntf    fn422228   1.051   1.066   0.564  0.4829 -0.3154 -0.0531
 4074ntf    fn422229   1.077   0.891   0.435 -0.5948 -0.2654 -0.3181
 4074ntf    fn422230   1.007   0.864   0.631 -0.0465 -0.3927  0.2144
 4075ntf    cn122231   5.708   7.115   6.458 -0.4564  0.3216  0.1662
 4075ntf    sn222232   5.597   7.062   6.592 -0.1347 -0.3329  0.1803
 4075ntf    nn322233   5.463   7.135   6.552 -0.0152  0.1893  0.7156
 4075ntf    sn222234   5.344   7.074   6.469  0.4181 -0.0445  0.2557
 4075ntf    cn122235   5.284   7.217   6.374  0.0403 -0.2428  0.1939
 4075ntf    fn422236   5.830   7.070   6.484 -0.3515  0.6227  0.1961
 4075ntf    fn422237   5.671   7.070   6.339 -0.2511 -0.1784  0.2890
 4075ntf    fn422238   5.724   7.246   6.451  0.5889  0.1663 -0.7528
 4075ntf    on522239   5.592   6.918   6.587  0.1008 -0.3256 -0.3586
 4075ntf    on522240   5.647   7.118   6.715  0.9565 -0.5742 -0.1482
 4075ntf    on522241   5.233   7.046   6.556 -0.2810  0.6173 -0.4072
 4075ntf    on522242   5.372   6.971   6.373 -0.0560  0.0237  0.0421
 4075ntf    fn422243   5.219   7.309   6.442 -0.1758 -0.1345 -0.1539
 4075ntf    fn422244   5.384   7.260   6.298 -0.0751  0.0988  0.2346
 4075ntf    fn422245   5.200   7.173   6.281  0.4927  0.5715 -0.6238
 4076ntf    cn122246   1.660   5.994   3.624  0.1827  0.3403  0.5152
 4076ntf    sn222247   1.722   6.074   3.775  0.3134  0.4706  0.3930
 4076ntf    nn322248   1.584   6.131   3.824  0.2722  0.8305 -0.1330
 4076ntf    sn222249   1.524   6.131   3.969  0.2459  0.3429 -0.1423
 4076ntf    cn122250   1.503   6.312   3.974 -0.1815  0.2803  0.3050
 4076ntf    fn422251   1.550   5.924   3.647  0.1450 -0.0649 -0.8170
 4076ntf    fn422252   1.611   6.084   3.540 -0.2003 -0.1762  0.1756
 4076ntf    fn422253   1.752   5.927   3.555 -0.0338  0.3930  0.1717
 4076ntf    on522254   1.790   5.965   3.841  0.2945  0.0475 -0.2710
 4076ntf    on522255   1.814   6.175   3.727  0.6760 -0.0754 -0.0815
 4076ntf    on522256   1.620   6.106   4.074 -0.7098  0.6289  0.8196
 4076ntf    on522257   1.392   6.076   3.983  0.1770  0.4006 -0.5456
 4076ntf    fn422258   1.614   6.374   3.939  0.1545 -0.4266  0.0984
 4076ntf    fn422259   1.408   6.356   3.893 -0.0530  0.0807  0.0420
 4076ntf    fn422260   1.471   6.347   4.097 -0.0922  0.7424  0.1968
 4077ntf    cn122261   1.628   0.900   5.926  0.3941  0.4347  0.4900
 4077ntf    sn222262   1.589   0.727   5.887 -0.1703  0.5897  0.3560
 4077ntf    nn322263   1.436   0.752   5.862 -0.3648 -0.3082  0.5880
 4077ntf    sn222264   1.343   0.663   5.773  0.0533  0.0429 -0.2134
 4077ntf    cn122265   1.185   0.714   5.847 -0.1011 -0.1228 -0.4267
 4077ntf    fn422266   1.570   0.976   5.834  0.2019  0.0266  0.2718
 4077ntf    fn422267   1.579   0.943   6.041  0.1758  0.1667  0.4972
 4077ntf    fn422268   1.758   0.924   5.915  0.3326  0.4887 -0.1979
 4077ntf    on522269   1.663   0.691   5.769  0.1551  0.6339  0.5443
 4077ntf    on522270   1.618   0.657   6.010 -0.0638 -0.0450 -0.0237
 4077ntf    on522271   1.335   0.521   5.801 -0.5760  0.1677  0.2712
 4077ntf    on522272   1.324   0.708   5.637  0.2594 -0.2043 -0.3250
 4077ntf    fn422273   1.085   0.638   5.808 -0.4105  0.3276 -0.5265
 4077ntf    fn422274   1.184   0.709   5.979 -0.0359 -0.3712 -0.4360
 4077ntf    fn422275   1.141   0.835   5.813 -0.2299 -0.2657 -0.7748
 4078ntf    cn122276   1.836   2.780   3.520  0.2513 -0.1081 -0.3226
 4078ntf    sn222277   1.695   2.673   3.478 -0.1234  0.3045 -0.1156
 4078ntf    nn322278   1.781   2.549   3.436 -0.3124  0.0388  0.2783
 4078ntf    sn222279   1.826   2.434   3.533  0.3496  0.0843  0.0325
 4078ntf    cn122280   1.688   2.317   3.512  0.1335  0.3736 -0.1608
 4078ntf    fn422281   1.908   2.733   3.621 -0.3105 -0.1582  0.0599
 4078ntf    fn422282   1.916   2.804   3.417  0.1420  0.6536 -0.2374
 4078ntf    fn422283   1.797   2.903   3.549 -0.1208 -0.4905  0.8366
 4078ntf    on522284   1.619   2.668   3.601  0.4320 -0.2102  0.2117
 4078ntf    on522285   1.623   2.733   3.368 -1.0581  0.0779  0.3601
 4078ntf    on522286   1.833   2.453   3.676 -0.6064  0.6426  0.0137
 4078ntf    on522287   1.934   2.357   3.478  0.1090 -0.1060 -0.1734
 4078ntf    fn422288   1.667   2.292   3.384  0.2354  0.5687 -0.2164
 4078ntf    fn422289   1.712   2.202   3.574 -0.1041  0.0467 -0.6719
 4078ntf    fn422290   1.575   2.366   3.561 -0.0254 -0.2685  0.1292
 4079ntf    cn122291   4.216   5.071   4.835 -0.2347  0.4630 -0.1824
 4079ntf    sn222292   4.397   5.070   4.811 -0.1781  0.1008  0.2266
 4079ntf    nn322293   4.433   5.082   4.963 -0.6596 -0.2792  0.3713
 4079ntf    sn222294   4.477   4.972   5.067 -0.2914 -0.5304 -0.0496
 4079ntf    cn122295   4.658   4.995   5.075 -0.3397 -0.1866  0.0651
 4079ntf    fn422296   4.165   5.182   4.886 -0.5576  0.0326  0.4567
 4079ntf    fn422297   4.153   5.051   4.721 -0.3594  0.3591 -0.0958
 4079ntf    fn422298   4.170   4.973   4.912 -0.6063  0.8981  0.1525
 4079ntf    on522299   4.426   4.943   4.751 -0.1872 -0.0673  0.5773
 4079ntf    on522300   4.427   5.190   4.737  0.5772 -0.2332 -0.0140
 4079ntf    on522301   4.458   4.839   5.016 -1.1122 -0.4473  0.0378
 4079ntf    on522302   4.422   4.993   5.198  0.3134  0.2205  0.0924
 4079ntf    fn422303   4.700   5.098   5.147 -0.5684  0.1011 -0.2049
 4079ntf    fn422304   4.719   4.895   5.135 -0.0257 -0.3637 -0.5361
 4079ntf    fn422305   4.703   5.013   4.952 -0.2121 -0.3451  0.0894
 4080ntf    cn122306   4.901   4.692   1.071  0.3052  0.0292  0.1351
 4080ntf    sn222307   4.739   4.622   1.111  0.2914 -0.0012  0.0224
 4080ntf    nn322308   4.751   4.580   1.261 -0.9406 -0.3000  0.0508
 4080ntf    sn222309   4.800   4.444   1.323  0.3480  0.1830  0.1288
 4080ntf    cn122310   4.940   4.485   1.432  0.4889 -0.4592  0.1920
 4080ntf    fn422311   5.006   4.614   1.092  0.3742  0.0716 -0.0512
 4080ntf    fn422312   4.903   4.733   0.945 -0.5997  0.5818  0.2912
 4080ntf    fn422313   4.922   4.796   1.151  0.7120  0.1942 -0.1804
 4080ntf    on522314   4.647   4.733   1.094  0.1946 -0.2005 -0.8030
 4080ntf    on522315   4.739   4.513   1.017  0.3975  0.1975 -0.2107
 4080ntf    on522316   4.858   4.348   1.233 -0.4078 -0.0270 -0.1457
 4080ntf    on522317   4.694   4.393   1.408  0.4401 -0.0661  0.0941
 4080ntf    fn422318   4.986   4.373   1.486  0.0175 -0.4943  0.5331
 4080ntf    fn422319   5.037   4.556   1.378  0.1505  0.0211  0.2119
 4080ntf    fn422320   4.906   4.560   1.535  0.1111  0.0843 -0.3161
 4081ntf    cn122321   4.436   1.349   5.122  0.1587  0.0493 -0.0785
 4081ntf    sn222322   4.288   1.369   5.019 -0.0190  0.2404  0.2103
 4081ntf    nn322323   4.322   1.508   4.954  0.2601 -0.2427 -0.6965
 4081ntf    sn222324   4.241   1.598   4.854 -0.2958 -0.0128 -0.0477
 4081ntf    cn122325   4.207   1.751   4.946 -0.5264 -0.1579  0.1089
 4081ntf    fn422326   4.431   1.254   5.213  0.2732  0.2987  0.1919
 4081ntf    fn422327   4.540   1.324   5.044 -0.0122 -0.3153 -0.1928
 4081ntf    fn422328   4.463   1.458   5.192 -0.2208 -0.0745  0.2637
 4081ntf    on522329   4.285   1.257   4.928 -0.5203  0.2234  0.2449
 4081ntf    on522330   4.175   1.375   5.108  0.0379  0.3271  0.2769
 4081ntf    on522331   4.114   1.547   4.808 -0.2399 -0.4198  0.2480
 4081ntf    on522332   4.321   1.659   4.750 -0.1845 -0.3865 -0.1810
 4081ntf    fn422333   4.314   1.818   4.985 -0.5657  0.0846 -0.1961
 4081ntf    fn422334   4.138   1.843   4.881 -0.0783  0.2008  0.1389
 4081ntf    fn422335   4.148   1.728   5.063 -0.8044 -0.3532 -0.0683
 4082ntf    cn122336   0.064   2.721   5.856 -0.1425  0.2590  0.1073
 4082ntf    sn222337   0.086   2.541   5.843 -0.0009  0.2798  0.0452
 4082ntf    nn322338  -0.061   2.507   5.800  0.2776  0.0824 -0.7754
 4082ntf    sn222339  -0.124   2.502   5.657 -0.6588  0.2972 -0.3785
 4082ntf    cn122340  -0.087   2.329   5.615 -0.0893  0.2892  0.1484
 4082ntf    fn422341   0.004   2.779   5.753 -0.1470 -0.2980 -0.2080
 4082ntf    fn422342  -0.018   2.746   5.956 -0.1458  0.3621  0.0784
 4082ntf    fn422343   0.180   2.784   5.869 -0.2270  0.4147  0.0998
 4082ntf    on522344   0.187   2.517   5.743 -0.2706 -0.3052 -0.0903
 4082ntf    on522345   0.121   2.501   5.977  0.2941  0.5244  0.0423
 4082ntf    on522346  -0.058   2.584   5.558  0.1071  0.3582  0.1764
 4082ntf    on522347  -0.268   2.510   5.654 -0.7481 -0.7543  0.6959
 4082ntf    fn422348   0.041   2.297   5.626  0.0020  0.6269  0.1110
 4082ntf    fn422349  -0.157   2.244   5.688 -0.0976  0.1633 -0.0049
 4082ntf    fn422350  -0.115   2.310   5.487 -0.8283  0.3625  0.2966
 4083ntf    cn122351   0.465   4.479   0.118  0.6185  0.2615  0.2894
 4083ntf    sn222352   0.360   4.598   0.030  0.3240 -0.0447  0.2238
 4083ntf    nn322353   0.254   4.646   0.135  0.5823 -0.1732  0.5465
 4083ntf    sn222354   0.218   4.792   0.181 -0.0904 -0.0956 -0.1997
 4083ntf    cn122355   0.305   4.781   0.340 -0.1785  0.0394 -0.1428
 4083ntf    fn422356   0.384   4.404   0.192 -0.1955  0.5217 -0.3268
 4083ntf    fn422357   0.539   4.395   0.047  0.8111  0.3019  0.4388
 4083ntf    fn422358   0.542   4.545   0.203 -0.0162  0.3742  0.7897
 4083ntf    on522359   0.453   4.699  -0.014  0.2879 -0.1022  0.0142
 4083ntf    on522360   0.305   4.512  -0.073 -0.1699 -0.0831  0.5192
 4083ntf    on522361   0.077   4.795   0.208 -0.0181 -0.1196  0.1846
 4083ntf    on522362   0.274   4.905   0.110 -0.2634  0.0501 -0.1051
 4083ntf    fn422363   0.286   4.663   0.396 -0.1166  0.0022 -0.2002
 4083ntf    fn422364   0.433   4.773   0.311 -0.2392 -0.6487 -0.2406
 4083ntf    fn422365   0.294   4.869   0.439 -0.0930 -0.1789  0.0626
 4084ntf    cn122366   6.593   2.002   4.236  0.1934 -0.0426  0.0418
 4084ntf    sn222367   6.718   2.023   4.106  0.0834  0.1026 -0.0407
 4084ntf    nn322368   6.635   1.963   3.988  0.2458 -0.0242 -0.0895
 4084ntf    sn222369   6.592   2.027   3.851 -0.2194 -0.1817 -0.0161
 4084ntf    cn122370   6.424   2.064   3.911 -0.2239 -0.1347 -0.0585
 4084ntf    fn422371   6.590   1.881   4.289 -0.2849 -0.1039 -0.1173
 4084ntf    fn422372   6.614   2.090   4.333 -0.0219  0.2190 -0.1441
 4084ntf    fn422373   6.470   2.028   4.192  0.1391 -0.1259  0.1424
 4084ntf    on522374   6.743   2.165   4.105  0.0350  0.1116 -0.0072
 4084ntf    on522375   6.829   1.941   4.150 -0.3452 -0.0596  0.7608
 4084ntf    on522376   6.574   1.925   3.751 -0.3178  0.3629 -0.5578
 4084ntf    on522377   6.655   2.151   3.817 -0.1496 -0.3888 -0.6535
 4084ntf    fn422378   6.339   2.096   3.814  0.0849 -0.2503 -0.3700
 4084ntf    fn422379   6.370   1.959   3.970  0.1560  0.0033  0.5508
 4084ntf    fn422380   6.433   2.158   4.004  0.1559  0.0064 -0.2342
 4085ntf    cn122381   1.282   3.719   0.995 -0.3556  0.4647 -0.2859
 4085ntf    sn222382   1.439   3.784   0.931  0.0070 -0.1036  0.0157
 4085ntf    nn322383   1.482   3.656   0.852  0.0544 -0.1273  0.0807
 4085ntf    sn222384   1.475   3.631   0.698 -0.1221  0.2258  0.0325
 4085ntf    cn122385   1.646   3.673   0.653 -0.0159 -0.2305  0.0040
 4085ntf    fn422386   1.218   3.804   1.073 -0.5162  0.3198 -0.2582
 4085ntf    fn422387   1.188   3.697   0.904 -0.5329  0.1844 -0.0364
 4085ntf    fn422388   1.298   3.604   1.059  0.1585  0.7219  0.0545
 4085ntf    on522389   1.410   3.896   0.845 -0.2390  0.4217  0.7694
 4085ntf    on522390   1.520   3.799   1.049 -0.1377  0.1670  0.0825
 4085ntf    on522391   1.393   3.714   0.613  0.3731  0.5657 -0.1158
 4085ntf    on522392   1.468   3.491   0.665  0.1522  0.4157 -0.8585
 4085ntf    fn422393   1.683   3.799   0.671 -0.3045 -0.1819  0.2676
 4085ntf    fn422394   1.730   3.596   0.720  0.7054  0.9384  0.4701
 4085ntf    fn422395   1.673   3.655   0.525 -0.5467 -0.0183 -0.1437
 4086ntf    cn122396   1.981   2.809   6.785  0.2760 -0.1009 -0.2144
 4086ntf    sn222397   1.962   2.629   6.768 -0.4356 -0.0793  0.2906
 4086ntf    nn322398   2.024   2.585   6.630 -0.1555 -0.0596  0.4098
 4086ntf    sn222399   1.952   2.574   6.491  0.2645 -0.3630  0.2141
 4086ntf    cn122400   1.929   2.394   6.502 -0.2378 -0.2915  0.3610
 4086ntf    fn422401   2.106   2.838   6.819  0.4346 -0.4552 -0.4918
 4086ntf    fn422402   1.957   2.877   6.674 -0.1581  0.4443  0.2050
 4086ntf    fn422403   1.905   2.853   6.884 -0.1625  0.1039 -0.6409
 4086ntf    on522404   2.047   2.580   6.873  0.2563 -0.2899 -0.3590
 4086ntf    on522405   1.821   2.601   6.779 -0.4805 -0.0209 -0.1147
 4086ntf    on522406   2.048   2.599   6.387 -0.5427  0.0272 -0.4470
 4086ntf    on522407   1.820   2.632   6.482  0.1745 -0.5189  0.4936
 4086ntf    fn422408   1.860   2.368   6.612 -0.1772 -0.2438  0.4104
 4086ntf    fn422409   1.853   2.349   6.404  0.1103 -0.1046  0.0058
 4086ntf    fn422410   2.040   2.323   6.509  0.0282  0.0235 -0.5768
 4087ntf    cn122411   2.751   6.132   5.585 -0.3153 -0.1010 -0.1661
 4087ntf    sn222412   2.704   5.956   5.593  0.2739 -0.2419  0.2903
 4087ntf    nn322413   2.742   5.892   5.455 -0.5121 -0.2527  0.0753
 4087ntf    sn222414   2.788   5.749   5.409  0.3656 -0.0747  0.3779
 4087ntf    cn122415   2.663   5.702   5.286  0.3512  0.5231  0.1635
 4087ntf    fn422416   2.778   6.182   5.705  0.0936  0.1763 -0.3735
 4087ntf    fn422417   2.866   6.141   5.520 -0.2813 -0.0157 -0.0950
 4087ntf    fn422418   2.674   6.218   5.521 -0.2674 -0.0426 -0.1465
 4087ntf    on522419   2.792   5.917   5.701  0.3740  0.4455  0.4675
 4087ntf    on522420   2.561   5.966   5.609  0.2814  0.0671  0.1730
 4087ntf    on522421   2.769   5.645   5.507 -0.2307 -0.0913  0.2503
 4087ntf    on522422   2.918   5.747   5.347  0.1625  0.0501 -0.0568
 4087ntf    fn422423   2.676   5.580   5.236 -0.8055  0.4215  0.0911
 4087ntf    fn422424   2.545   5.722   5.343  0.2862 -0.1018  0.2485
 4087ntf    fn422425   2.670   5.776   5.176  0.6081  0.3996  0.0954
 4088ntf    cn122426   0.666   4.668   3.452 -0.6378  0.0594  0.1930
 4088ntf    sn222427   0.490   4.689   3.491 -0.5946  0.0275  0.4084
 4088ntf    nn322428   0.464   4.841   3.461  0.1571  0.0954  0.0874
 4088ntf    sn222429   0.480   4.968   3.552 -0.0567  0.1699  0.0217
 4088ntf    cn122430   0.310   4.983   3.614  0.1253  0.1234  0.5385
 4088ntf    fn422431   0.686   4.634   3.326  0.2313 -0.7499  0.5339
 4088ntf    fn422432   0.720   4.787   3.468 -0.7318  0.1866 -0.4185
 4088ntf    fn422433   0.734   4.588   3.533  0.0542  0.4421 -0.0030
 4088ntf    on522434   0.421   4.609   3.392  0.0432 -0.5316  0.4083
 4088ntf    on522435   0.466   4.656   3.630 -0.2547 -0.0729  0.4423
 4088ntf    on522436   0.492   5.096   3.485  0.5074  0.1943  0.1644
 4088ntf    on522437   0.565   4.953   3.667 -0.4733  0.4741  0.3695
 4088ntf    fn422438   0.277   4.889   3.701  0.4022 -0.4881 -0.0078
 4088ntf    fn422439   0.290   5.099   3.674 -0.4400 -0.0549  0.6998
 4088ntf    fn422440   0.217   4.978   3.519  0.4468 -0.1912  0.2350
 4089ntf    cn122441   2.505   4.491   4.419  0.0628  0.3226 -0.1910
 4089ntf    sn222442   2.483   4.633   4.532 -0.3413  0.2509 -0.1758
 4089ntf    nn322443   2.473   4.747   4.425  0.5984  0.4979 -0.0107
 4089ntf    sn222444   2.368   4.854   4.380 -0.0117 -0.2500 -0.3866
 4089ntf    cn122445   2.422   4.988   4.490  0.0669 -0.3527 -0.3004
 4089ntf    fn422446   2.426   4.491   4.313 -0.1560  0.0163 -0.0288
 4089ntf    fn422447   2.631   4.485   4.380  0.1786 -0.4744  0.2965
 4089ntf    fn422448   2.490   4.373   4.476  0.3094  0.4631  0.1756
 4089ntf    on522449   2.367   4.617   4.616 -0.2220  0.4932  0.0355
 4089ntf    on522450   2.609   4.644   4.602 -0.4087 -0.3156  0.0463
 4089ntf    on522451   2.230   4.837   4.417  0.1143 -0.5582 -0.0557
 4089ntf    on522452   2.386   4.894   4.242 -0.0331 -0.4803 -0.4565
 4089ntf    fn422453   2.458   4.953   4.612 -0.2839  1.0047  0.2168
 4089ntf    fn422454   2.525   5.052   4.438  0.0285 -0.2241 -0.2191
 4089ntf    fn422455   2.325   5.078   4.498 -0.1902 -0.6617  0.1246
 4090ntf    cn122456   5.845   5.956   4.071  0.4603 -0.0888 -0.3405
 4090ntf    sn222457   5.827   6.039   3.910 -0.2471  0.1827 -0.1208
 4090ntf    nn322458   5.859   5.920   3.813 -0.4716  0.2042 -0.2215
 4090ntf    sn222459   5.934   5.923   3.675 -0.0602 -0.1143 -0.0042
 4090ntf    cn122460   6.095   5.848   3.715  0.1142  0.0283 -0.4325
 4090ntf    fn422461   5.778   5.843   4.086  1.0561 -0.4071 -0.0160
 4090ntf    fn422462   5.973   5.927   4.091  0.4386  0.1300  0.1263
 4090ntf    fn422463   5.818   6.032   4.175 -0.0913 -0.4357 -0.2277
 4090ntf    on522464   5.686   6.066   3.900 -0.2525  0.3118  0.2629
 4090ntf    on522465   5.920   6.149   3.909  0.4518 -0.4049 -0.0430
 4090ntf    on522466   5.957   6.049   3.610  0.3634 -0.1530  0.0628
 4090ntf    on522467   5.870   5.828   3.589 -0.6792  0.3552 -0.0687
 4090ntf    fn422468   6.123   5.852   3.845  0.4364  0.4021 -0.5103
 4090ntf    fn422469   6.098   5.716   3.703 -0.4568 -0.0157 -0.1364
 4090ntf    fn422470   6.199   5.908   3.660  0.2389 -0.1240 -0.3641
 4091ntf    cn122471   2.615   4.045   2.892  0.1752 -0.2618 -0.1580
 4091ntf    sn222472   2.618   3.888   2.983  0.3812 -0.0193  0.2523
 4091ntf    nn322473   2.465   3.871   3.011  0.3841 -0.1235  0.2073
 4091ntf    sn222474   2.357   3.803   2.920  0.1876  0.2535  0.1566
 4091ntf    cn122475   2.382   3.628   2.960 -0.0781  0.1796  0.0023
 4091ntf    fn422476   2.741   4.084   2.879 -0.0764  0.5055 -0.3591
 4091ntf    fn422477   2.565   4.050   2.769 -0.0452 -0.2204 -0.0674
 4091ntf    fn422478   2.543   4.139   2.950  0.0456 -0.6143  0.2546
 4091ntf    on522479   2.684   3.795   2.896 -0.0770 -0.0907 -0.0211
 4091ntf    on522480   2.685   3.933   3.103 -0.2311 -0.3338  0.7157
 4091ntf    on522481   2.382   3.815   2.778 -0.2763 -0.1950  0.0356
 4091ntf    on522482   2.222   3.834   2.961  0.1521  0.3977 -0.0633
 4091ntf    fn422483   2.502   3.579   2.932 -0.0787 -0.2984  0.8173
 4091ntf    fn422484   2.360   3.611   3.089 -0.4094  0.1983 -0.0503
 4091ntf    fn422485   2.292   3.555   2.895  0.2868 -0.5844  0.3465
 4092ntf    cn122486   4.088   0.252   7.135  0.1820  0.0167  0.1678
 4092ntf    sn222487   4.108   0.309   7.307  0.2997 -0.3572  0.2799
 4092ntf    nn322488   4.097   0.176   7.389  0.0757 -0.1555  0.5740
 4092ntf    sn222489   3.962   0.112   7.438 -0.2348 -0.1003 -0.1965
 4092ntf    cn122490   3.947   0.189   7.602  0.0729 -0.3279 -0.0605
 4092ntf    fn422491   4.052   0.349   7.053  0.5393  0.2364  0.2663
 4092ntf    fn422492   4.196   0.204   7.075  0.2656  0.4937 -0.0702
 4092ntf    fn422493   4.002   0.153   7.122  0.3865 -0.2278  0.6473
 4092ntf    on522494   4.240   0.366   7.322 -0.3245  1.2690 -0.1589
 4092ntf    on522495   4.003   0.404   7.331  0.4141 -0.1147 -0.1622
 4092ntf    on522496   3.974  -0.029   7.465 -0.6218 -0.1529 -0.2968
 4092ntf    on522497   3.853   0.145   7.350 -0.2257  0.9084  0.1591
 4092ntf    fn422498   3.850   0.134   7.674  0.0156  0.1201  0.2056
 4092ntf    fn422499   4.058   0.175   7.673  0.2189  0.5710 -0.1024
 4092ntf    fn422500   3.928   0.320   7.604  0.5348 -0.2579 -0.2724
 4093ntf    cn122501   6.002   0.567   3.874 -0.1949  0.0513 -0.2131
 4093ntf    sn222502   5.970   0.398   3.814 -0.2110  0.1973 -0.6177
 4093ntf    nn322503   5.933   0.439   3.667 -0.1758  0.5981 -0.5178
 4093ntf    sn222504   6.040   0.456   3.553  0.4988  0.0183  0.0163
 4093ntf    cn122505   6.027   0.284   3.494  0.0304  0.0689 -0.0324
 4093ntf    fn422506   6.070   0.635   3.783  0.1786 -0.4229 -0.2942
 4093ntf    fn422507   5.887   0.626   3.903 -0.1603 -0.1770  0.4138
 4093ntf    fn422508   6.076   0.571   3.983 -0.2612 -0.3798 -0.1519
 4093ntf    on522509   6.093   0.330   3.843 -0.3397  0.0376 -0.4471
 4093ntf    on522510   5.856   0.350   3.888 -0.1818  0.7910 -0.1776
 4093ntf    on522511   6.179   0.480   3.579  0.3132  0.5359  0.5478
 4093ntf    on522512   5.977   0.533   3.448  0.2159 -0.2993 -0.0490
 4093ntf    fn422513   6.132   0.251   3.420 -0.0254 -0.2195  0.0162
 4093ntf    fn422514   6.019   0.202   3.597  0.1755 -0.3017 -0.3145
 4093ntf    fn422515   5.924   0.265   3.413 -0.2386  0.7901  0.1294
 4094ntf    cn122516   3.438   1.291   6.173 -0.2650  0.4072  0.2491
 4094ntf    sn222517   3.569   1.374   6.078  0.0005 -0.2668  0.0277
 4094ntf    nn322518   3.519   1.359   5.930 -0.8025 -0.3990  0.3093
 4094ntf    sn222519   3.560   1.260   5.815 -0.0299  0.1314  0.1285
 4094ntf    cn122520   3.649   1.379   5.709 -0.0739  0.2621  0.2366
 4094ntf    fn422521   3.364   1.207   6.102  0.1330  0.2760 -0.0100
 4094ntf    fn422522   3.480   1.236   6.285  0.1471  0.4553  0.1187
 4094ntf    fn422523   3.351   1.381   6.216 -0.5205  0.3722 -0.1866
 4094ntf    on522524   3.552   1.511   6.118 -0.1252 -0.4397  0.5740
 4094ntf    on522525   3.691   1.303   6.110  0.1402  0.0563  0.2093
 4094ntf    on522526   3.450   1.227   5.728 -0.1942  0.6974  0.1127
 4094ntf    on522527   3.660   1.164   5.854  0.2805  0.2837 -0.2821
 4094ntf    fn422528   3.571   1.473   5.657 -0.2992 -0.3356 -0.5372
 4094ntf    fn422529   3.743   1.446   5.773  0.0546  0.1622  0.1526
 4094ntf    fn422530   3.699   1.314   5.605 -0.5637 -0.7183  0.5961
 4095ntf    cn122531   1.655   0.878   1.369 -0.0495  0.0957  0.1602
 4095ntf    sn222532   1.694   0.902   1.545 -0.0582 -0.1115  0.1912
 4095ntf    nn322533   1.769   0.766   1.567  0.9563  0.4615  0.3171
 4095ntf    sn222534   1.752   0.655   1.677  0.2208  0.4991  0.2407
 4095ntf    cn122535   1.630   0.555   1.587  0.3435  0.1009  0.5182
 4095ntf    fn422536   1.647   0.747   1.348  1.0855  0.0594 -0.1368
 4095ntf    fn422537   1.542   0.941   1.345 -0.4047 -0.4986  0.2554
 4095ntf    fn422538   1.755   0.923   1.295  0.1487 -0.2801  0.1974
 4095ntf    on522539   1.793   1.006   1.560  0.6672 -0.8114  0.3403
 4095ntf    on522540   1.567   0.916   1.612 -0.2756 -0.1685 -0.2072
 4095ntf    on522541   1.689   0.695   1.800 -0.0398 -0.2968  0.3713
 4095ntf    on522542   1.859   0.561   1.695  0.2244  0.4532 -0.0146
 4095ntf    fn422543   1.665   0.530   1.462 -0.6202 -0.2054  0.2973
 4095ntf    fn422544   1.626   0.435   1.644  0.2407 -0.1640 -0.0388
 4095ntf    fn422545   1.508   0.606   1.584  0.2292 -0.1881  0.2354
 4096ntf    cn122546   2.364   6.684   0.542  0.4447 -0.3079  0.1824
 4096ntf    sn222547   2.464   6.630   0.683  0.0353 -0.1649  0.5288
 4096ntf    nn322548   2.362   6.622   0.802 -0.0960 -0.1057  0.4198
 4096ntf    sn222549   2.313   6.750   0.879  0.2155  0.2543  0.0260
 4096ntf    cn122550   2.379   6.728   1.047  0.6434  0.0408 -0.1674
 4096ntf    fn422551   2.434   6.685   0.429 -0.5419  0.3431 -0.4433
 4096ntf    fn422552   2.244   6.630   0.533  0.1537  0.3551  0.0823
 4096ntf    fn422553   2.333   6.811   0.562  0.0972 -0.2371 -0.7494
 4096ntf    on522554   2.485   6.492   0.647  0.0456 -0.0062 -0.0696
 4096ntf    on522555   2.577   6.719   0.695  0.1419 -0.1688 -0.3946
 4096ntf    on522556   2.170   6.739   0.894  0.1668 -0.2012 -0.7062
 4096ntf    on522557   2.361   6.880   0.840  0.1742  0.2551 -0.0219
 4096ntf    fn422558   2.341   6.830   1.123 -0.1403 -0.3792  0.0219
 4096ntf    fn422559   2.331   6.618   1.103 -0.0366  0.2467 -0.3295
 4096ntf    fn422560   2.510   6.723   1.062  0.6074  0.1917  0.2242
 4097ntf    cn122561   0.930   6.729   5.495 -0.0181 -0.1489 -0.1148
 4097ntf    sn222562   0.920   6.908   5.467 -0.3072 -0.1388  0.0525
 4097ntf    nn322563   0.908   6.953   5.617  0.1198 -0.5274  0.2067
 4097ntf    sn222564   0.810   7.048   5.695  0.2905 -0.1106 -0.0825
 4097ntf    cn122565   0.906   7.201   5.716 -0.0516  0.1354 -0.3149
 4097ntf    fn422566   0.834   6.693   5.578  0.0989  0.1373  0.1481
 4097ntf    fn422567   0.913   6.671   5.377 -0.5550 -1.2878  0.5044
 4097ntf    fn422568   1.047   6.685   5.539 -0.0470 -0.3712 -0.2593
 4097ntf    on522569   1.043   6.951   5.405 -0.2611  0.0574  0.2779
 4097ntf    on522570   0.801   6.925   5.387 -0.4855 -0.0324  0.3377
 4097ntf    on522571   0.805   7.004   5.833  0.3254  0.1609  0.0056
 4097ntf    on522572   0.691   7.099   5.632  0.3967  0.2039 -0.0314
 4097ntf    fn422573   0.981   7.205   5.824 -0.1849 -0.1365 -0.2113
 4097ntf    fn422574   0.980   7.229   5.610  0.3946  0.4384  0.0778
 4097ntf    fn422575   0.827   7.306   5.733  0.1398  0.2015  0.1794
 4098ntf    cn122576   1.142   3.149   2.147 -0.2394  0.3347  0.2904
 4098ntf    sn222577   1.310   3.094   2.106 -0.3831  0.2467 -0.1896
 4098ntf    nn322578   1.312   3.088   1.949 -0.1131 -0.6443 -0.1581
 4098ntf    sn222579   1.294   2.965   1.853  0.2783 -0.5714 -0.3251
 4098ntf    cn122580   1.464   2.900   1.849  0.5285  0.0675 -0.2159
 4098ntf    fn422581   1.057   3.069   2.085 -0.0469  0.3426  0.0136
 4098ntf    fn422582   1.110   3.153   2.275  0.1991  0.8555  0.3898
 4098ntf    fn422583   1.114   3.269   2.097 -0.1273  0.2533  0.0299
 4098ntf    on522584   1.387   3.210   2.146  0.4211 -0.3314 -0.0334
 4098ntf    on522585   1.338   2.974   2.180 -0.0846  0.1340 -0.4832
 4098ntf    on522586   1.278   3.011   1.717 -0.3740 -0.0989 -0.0948
 4098ntf    on522587   1.201   2.863   1.892 -0.0198 -0.3473 -0.4473
 4098ntf    fn422588   1.549   2.990   1.803 -0.0782  0.5327 -0.4484
 4098ntf    fn422589   1.506   2.857   1.966 -0.3280  0.2310  0.1631
 4098ntf    fn422590   1.472   2.795   1.769  0.0349  0.0208 -0.2105
 4099ntf    cn122591   3.777   4.386   1.881  0.2771  0.1464  0.0179
 4099ntf    sn222592   3.639   4.323   1.982  0.2192 -0.1346 -0.2351
 4099ntf    nn322593   3.604   4.451   2.066 -0.2102 -0.0231 -0.5792
 4099ntf    sn222594   3.682   4.489   2.197 -0.4352 -0.1695 -0.4016
 4099ntf    cn122595   3.574   4.403   2.315 -0.1963  0.2464  0.1242
 4099ntf    fn422596   3.870   4.437   1.959  0.0205  0.5968  0.0313
 4099ntf    fn422597   3.843   4.292   1.815  0.3084  0.3586 -0.2510
 4099ntf    fn422598   3.742   4.481   1.796  0.2593 -0.0017 -0.1412
 4099ntf    on522599   3.540   4.306   1.879 -0.1840 -0.3064  0.1802
 4099ntf    on522600   3.706   4.209   2.040  0.4717  0.0418 -0.1800
 4099ntf    on522601   3.671   4.630   2.227  0.3830 -0.2584  0.3402
 4099ntf    on522602   3.810   4.428   2.219 -0.3864  0.1466  0.1935
 4099ntf    fn422603   3.619   4.424   2.438  0.0193  0.1240  0.0677
 4099ntf    fn422604   3.451   4.450   2.306 -0.4400 -0.4629 -0.3024
 4099ntf    fn422605   3.568   4.272   2.298  0.0376  0.2085  0.3330
 4100ntf    cn122606   0.709   5.180   2.522  0.0028  0.2068  0.0663
 4100ntf    sn222607   0.690   5.171   2.703 -0.1816  0.1078  0.0417
 4100ntf    nn322608   0.705   5.321   2.747  0.1850  0.3209 -0.7828
 4100ntf    sn222609   0.830   5.384   2.819  0.1401 -0.1337 -0.3048
 4100ntf    cn122610   0.759   5.527   2.906 -0.2623 -0.3268 -0.3090
 4100ntf    fn422611   0.617   5.247   2.455  0.1120  0.2267 -0.0647
 4100ntf    fn422612   0.826   5.226   2.481 -0.0144 -0.0002 -0.2213
 4100ntf    fn422613   0.713   5.061   2.463 -0.3080  0.0368  0.3896
 4100ntf    on522614   0.553   5.131   2.718 -0.0102 -0.2776  0.5859
 4100ntf    on522615   0.797   5.082   2.743 -0.2946 -0.0344  0.0294
 4100ntf    on522616   0.915   5.449   2.723 -0.7663  0.5404 -0.6698
 4100ntf    on522617   0.887   5.314   2.932  0.2943  0.7551  0.1751
 4100ntf    fn422618   0.664   5.595   2.845 -0.2995 -0.2016 -0.1100
 4100ntf    fn422619   0.701   5.491   3.019 -0.0261  0.1940 -0.0158
 4100ntf    fn422620   0.839   5.627   2.939 -0.8372  0.1811 -0.4310
 4101ntf    cn122621   1.819   1.136   4.734  0.0078  0.1939  0.4377
 4101ntf    sn222622   1.737   1.022   4.849  0.1856  0.0940  0.4662
 4101ntf    nn322623   1.837   0.901   4.855  0.1691  0.0259 -0.4708
 4101ntf    sn222624   1.961   0.886   4.951  0.0135 -0.3263 -0.3230
 4101ntf    cn122625   2.094   0.860   4.830  0.5357 -0.0452  0.1854
 4101ntf    fn422626   1.943   1.160   4.773  0.0386 -0.1736  0.5743
 4101ntf    fn422627   1.824   1.089   4.610 -0.3807 -0.0614  0.5169
 4101ntf    fn422628   1.761   1.254   4.722 -0.7213 -0.1908  0.1231
 4101ntf    on522629   1.724   1.098   4.971  0.6390  0.1433  0.4854
 4101ntf    on522630   1.616   0.986   4.780  0.2591  0.0680  0.3501
 4101ntf    on522631   1.959   0.760   5.020 -0.4110 -0.0354  0.2109
 4101ntf    on522632   2.006   1.003   5.021 -0.2811 -0.7819  0.6374
 4101ntf    fn422633   2.093   0.948   4.730 -0.1174 -0.2233  0.0274
 4101ntf    fn422634   2.214   0.852   4.885  0.8241  0.8653 -0.2749
 4101ntf    fn422635   2.070   0.748   4.765  0.0537  0.2135 -0.0885
 4102ntf    cn122636   1.653   4.911   4.238  0.0217  0.0858  0.0166
 4102ntf    sn222637   1.733   4.788   4.132  0.0925  0.0064  0.1620
 4102ntf    nn322638   1.614   4.768   4.032  0.0722 -0.0943  0.2066
 4102ntf    sn222639   1.562   4.638   3.961 -0.1395  0.0076  0.1749
 4102ntf    cn122640   1.589   4.671   3.784  0.1166  0.4112  0.2880
 4102ntf    fn422641   1.623   5.017   4.164  0.7229  0.1736 -0.1471
 4102ntf    fn422642   1.552   4.865   4.310 -0.3652  0.7328 -0.1064
 4102ntf    fn422643   1.732   4.964   4.329  0.1867  0.4305 -0.3251
 4102ntf    on522644   1.839   4.862   4.068  0.4270 -0.4569  0.1745
 4102ntf    on522645   1.766   4.680   4.222  0.2331 -0.1652 -0.0927
 4102ntf    on522646   1.422   4.605   3.974 -0.0397 -0.2344  0.6487
 4102ntf    on522647   1.652   4.527   3.978  0.2610  0.3389  0.2223
 4102ntf    fn422648   1.528   4.577   3.714 -0.4160  1.0467 -0.1093
 4102ntf    fn422649   1.525   4.782   3.754 -0.3866  0.0658  0.0562
 4102ntf    fn422650   1.716   4.687   3.754  0.0876  0.0680 -0.0256
 4103ntf    cn122651   1.525   4.499   7.124  0.0437  0.1752 -0.3349
 4103ntf    sn222652   1.586   4.351   7.210  0.2992  0.3403 -0.2267
 4103ntf    nn322653   1.608   4.414   7.352 -0.4068 -0.3708  0.2088
 4103ntf    sn222654   1.515   4.413   7.478 -0.4705  0.3052  0.1683
 4103ntf    cn122655   1.546   4.246   7.545 -0.2473  0.1985 -0.1983
 4103ntf    fn422656   1.438   4.570   7.192 -0.2600 -0.0349 -0.5029
 4103ntf    fn422657   1.623   4.579   7.085 -0.0589  0.4872  0.0437
 4103ntf    fn422658   1.461   4.474   7.011 -0.3227  0.0616 -0.1033
 4103ntf    on522659   1.476   4.257   7.203  0.2883  0.3834 -0.7000
 4103ntf    on522660   1.704   4.319   7.133  0.2374  0.0650 -0.2083
 4103ntf    on522661   1.375   4.426   7.449 -0.5288  0.5806  0.5562
 4103ntf    on522662   1.558   4.500   7.585 -0.1711  0.7264 -0.2907
 4103ntf    fn422663   1.466   4.207   7.642  0.4614 -0.4918  0.1084
 4103ntf    fn422664   1.535   4.150   7.455 -0.3393  0.4142 -0.4229
 4103ntf    fn422665   1.664   4.237   7.603 -0.2463 -0.0730 -0.2411
 4104ntf    cn122666   4.396   7.229   4.484 -0.0974  0.2926  0.2578
 4104ntf    sn222667   4.530   7.133   4.409 -0.2156  0.1642  0.2112
 4104ntf    nn322668   4.474   6.986   4.415 -0.2196  0.1642  0.1901
 4104ntf    sn222669   4.541   6.849   4.451  0.0407  0.2786  0.1404
 4104ntf    cn122670   4.501   6.863   4.628  0.0686  0.6494  0.1194
 4104ntf    fn422671   4.378   7.195   4.610 -0.5856  0.2101  0.1669
 4104ntf    fn422672   4.421   7.359   4.493  0.4701  0.2213 -0.2324
 4104ntf    fn422673   4.280   7.212   4.422  0.1776  0.3481 -0.2786
 4104ntf    on522674   4.535   7.196   4.279  0.2580  0.1445  0.2191
 4104ntf    on522675   4.646   7.152   4.493 -0.0106 -0.6942  0.1415
 4104ntf    on522676   4.684   6.849   4.431  0.0437  0.1605  0.1649
 4104ntf    on522677   4.464   6.734   4.411  0.2752  0.1647  0.0112
 4104ntf    fn422678   4.379   6.834   4.669  0.4795 -0.2723  0.7209
 4104ntf    fn422679   4.585   6.795   4.704  0.1736  0.6244 -0.0188
 4104ntf    fn422680   4.518   6.987   4.671 -0.1410  0.7347 -0.0390
 4105ntf    cn122681   3.793   3.580   2.605 -0.1685  0.2866  0.0214
 4105ntf    sn222682   3.904   3.710   2.544  0.0025  0.0702 -0.1313
 4105ntf    nn322683   3.821   3.842   2.564  0.0054  0.0932 -0.2726
 4105ntf    sn222684   3.729   3.921   2.464 -0.5223  0.2509  0.3339
 4105ntf    cn122685   3.658   4.041   2.581 -0.7573  0.1265  0.3201
 4105ntf    fn422686   3.862   3.468   2.592  0.5428  0.6831  0.3080
 4105ntf    fn422687   3.754   3.578   2.732  0.4811  0.1918  0.2225
 4105ntf    fn422688   3.680   3.576   2.537 -0.3726 -0.0336  0.3709
 4105ntf    on522689   4.014   3.706   2.637 -0.0081  0.8168 -0.0806
 4105ntf    on522690   3.931   3.681   2.406 -0.2963 -0.0687 -0.1619
 4105ntf    on522691   3.616   3.846   2.415 -0.1145 -0.1555  0.0126
 4105ntf    on522692   3.801   4.001   2.369  0.4334  0.5989  1.3337
 4105ntf    fn422693   3.741   4.079   2.677 -0.5755  0.5421  0.0035
 4105ntf    fn422694   3.622   4.155   2.524 -0.0933  0.2459  0.1360
 4105ntf    fn422695   3.551   3.996   2.645 -0.6237 -0.5096  0.1024
 4106ntf    cn122696   4.601   2.538   6.158  0.7353 -0.1963 -0.0385
 4106ntf    sn222697   4.650   2.546   6.333  0.2021  0.1340  0.0999
 4106ntf    nn322698   4.581   2.683   6.366 -0.3147 -0.1011  0.0019
 4106ntf    sn222699   4.502   2.733   6.492  0.0206  0.2452  0.0764
 4106ntf    cn122700   4.644   2.794   6.587 -0.0446  0.0961  0.2699
 4106ntf    fn422701   4.507   2.628   6.131  0.5075 -0.4408 -0.0601
 4106ntf    fn422702   4.697   2.567   6.072  0.4206  0.8985 -0.0466
 4106ntf    fn422703   4.545   2.423   6.125  0.4209 -0.0940  0.1368
 4106ntf    on522704   4.592   2.424   6.384  0.6069 -0.0941  0.0199
 4106ntf    on522705   4.794   2.551   6.337  0.1926  0.7313 -0.2330
 4106ntf    on522706   4.440   2.634   6.576 -0.7673 -0.4007 -1.2244
 4106ntf    on522707   4.421   2.850   6.466 -0.8163 -0.2843  0.2727
 4106ntf    fn422708   4.721   2.697   6.634 -0.3048 -0.1680  0.1527
 4106ntf    fn422709   4.713   2.878   6.511  0.0087 -0.1060  0.0942
 4106ntf    fn422710   4.613   2.872   6.689 -0.0857  0.2168  0.1658
 4107ntf    cn122711   6.968   5.554   1.929  0.3870 -0.2225 -0.0550
 4107ntf    sn222712   6.985   5.373   1.933  0.0212 -0.2529  0.2911
 4107ntf    nn322713   6.841   5.331   1.885 -0.1336  0.1574  0.3945
 4107ntf    sn222714   6.723   5.284   1.977 -0.1463  0.0540  0.3248
 4107ntf    cn122715   6.588   5.326   1.864  0.3139 -0.0062 -0.2494
 4107ntf    fn422716   7.076   5.621   1.966  0.2219 -0.2262  0.4440
 4107ntf    fn422717   6.937   5.595   1.807 -0.2558 -0.4613  0.0234
 4107ntf    fn422718   6.871   5.606   2.003  0.4290  0.1100 -0.2312
 4107ntf    on522719   7.090   5.362   1.834 -0.2376  0.6172 -0.0891
 4107ntf    on522720   7.019   5.342   2.069  0.0366  0.1402  0.3784
 4107ntf    on522721   6.696   5.372   2.088 -0.3801  0.8171 -0.3309
 4107ntf    on522722   6.720   5.140   1.990 -0.1185 -0.0356 -0.6528
 4107ntf    fn422723   6.574   5.458   1.854 -0.7980 -0.0823  0.1588
 4107ntf    fn422724   6.613   5.292   1.738  0.0217  0.0733 -0.3305
 4107ntf    fn422725   6.472   5.280   1.908  0.1618  0.0842 -0.5471
 4108ntf    cn122726   0.612   4.177   1.082 -0.0466 -0.0913  0.0239
 4108ntf    sn222727   0.441   4.223   1.037  0.0527  0.4045  0.1395
 4108ntf    nn322728   0.361   4.109   1.109  0.2093 -0.3226 -0.8155
 4108ntf    sn222729   0.206   4.094   1.134  0.2687 -0.2167 -0.3850
 4108ntf    cn122730   0.190   4.137   1.310  0.2799 -0.2579 -0.3740
 4108ntf    fn422731   0.618   4.138   1.208 -0.1519 -0.5479 -0.1131
 4108ntf    fn422732   0.658   4.080   1.006 -0.0966 -0.6879  0.7470
 4108ntf    fn422733   0.697   4.278   1.068  0.0250 -0.1540  0.0108
 4108ntf    on522734   0.435   4.358   1.087  0.4508  0.3266  0.4133
 4108ntf    on522735   0.455   4.201   0.895  0.2241 -0.3242  0.2605
 4108ntf    on522736   0.168   3.955   1.135 -0.1428 -0.1023  0.4183
 4108ntf    on522737   0.121   4.186   1.063 -0.1075  0.0963  0.4561
 4108ntf    fn422738   0.232   4.256   1.350  0.5666 -0.4746 -0.0182
 4108ntf    fn422739   0.062   4.133   1.343  0.3460 -0.1615 -0.0971
 4108ntf    fn422740   0.263   4.059   1.388 -0.3627 -0.0100  0.4876
 4109ntf    cn122741   6.321   6.908   0.684 -0.0056  0.1795  0.0933
 4109ntf    sn222742   6.411   7.009   0.805 -0.0778  0.1010  0.2134
 4109ntf    nn322743   6.554   6.980   0.747  0.1433  0.3897  0.6073
 4109ntf    sn222744   6.628   7.069   0.642 -0.1119 -0.2299 -0.1043
 4109ntf    cn122745   6.747   7.168   0.737 -0.1389 -0.5685  0.2829
 4109ntf    fn422746   6.351   6.779   0.688 -0.3721  0.0937  0.1552
 4109ntf    fn422747   6.192   6.920   0.708 -0.1363 -0.0351 -0.4933
 4109ntf    fn422748   6.339   6.956   0.562  0.6926  0.2479  0.2192
 4109ntf    on522749   6.356   7.142   0.795 -0.2512  0.0505  0.4739
 4109ntf    on522750   6.387   6.946   0.933 -0.4055 -0.0235  0.0924
 4109ntf    on522751   6.555   7.169   0.568  0.0088 -0.7386 -0.9351
 4109ntf    on522752   6.714   6.994   0.554  0.2935 -0.0383  0.1260
 4109ntf    fn422753   6.770   7.282   0.674  0.4313 -0.4512  0.6946
 4109ntf    fn422754   6.698   7.210   0.853 -0.2428  0.4108 -0.1057
 4109ntf    fn422755   6.860   7.105   0.765  0.4201  0.0753 -0.4891
 4110ntf    cn122756   6.528   5.904   4.194 -0.0530  0.0016 -0.0358
 4110ntf    sn222757   6.465   5.739   4.237  0.1267 -0.0668 -0.0370
 4110ntf    nn322758   6.570   5.671   4.332  0.0956  0.0510  0.0816
 4110ntf    sn222759   6.684   5.567   4.305  0.0601  0.0400 -0.0241
 4110ntf    cn122760   6.760   5.545   4.469 -0.4928 -0.3568  0.1836
 4110ntf    fn422761   6.501   5.996   4.286  0.8326 -0.3357  0.5754
 4110ntf    fn422762   6.659   5.895   4.176 -0.0399  0.4023 -0.1562
 4110ntf    fn422763   6.471   5.945   4.082 -0.4663 -0.2067  0.0964
 4110ntf    on522764   6.346   5.769   4.312  0.1932  0.3868 -0.1062
 4110ntf    on522765   6.457   5.673   4.109 -0.7566 -0.1509  0.0589
 4110ntf    on522766   6.807   5.609   4.241 -0.0119 -0.4066 -0.4600
 4110ntf    on522767   6.624   5.439   4.277  0.1373 -0.0096  0.0345
 4110ntf    fn422768   6.833   5.648   4.509 -0.4146 -0.3627  0.0585
 4110ntf    fn422769   6.672   5.538   4.567  0.2005 -0.0822  0.8353
 4110ntf    fn422770   6.834   5.436   4.472 -0.0553 -0.0680  0.0252
 4111ntf    cn122771   4.424   3.450   3.415 -0.2121 -0.1638  0.2510
 4111ntf    sn222772   4.434   3.549   3.567  0.4124  0.1195  0.0295
 4111ntf    nn322773   4.445   3.446   3.686  0.0624 -0.2658 -0.2707
 4111ntf    sn222774   4.569   3.403   3.771 -0.1398  0.0279  0.1755
 4111ntf    cn122775   4.561   3.520   3.910 -0.4447  0.2559 -0.0347
 4111ntf    fn422776   4.304   3.396   3.406 -0.1320 -0.2217 -0.5065
 4111ntf    fn422777   4.440   3.522   3.305 -0.1214 -0.2675  0.1964
 4111ntf    fn422778   4.524   3.364   3.406 -0.2300 -0.1406 -0.2215
 4111ntf    on522779   4.547   3.634   3.537  0.0769  0.4033 -0.4364
 4111ntf    on522780   4.304   3.610   3.563  0.1526 -0.4536 -0.3104
 4111ntf    on522781   4.694   3.429   3.704  0.0497  0.3763  0.6605
 4111ntf    on522782   4.554   3.273   3.833 -0.0420  0.0132  0.1691
 4111ntf    fn422783   4.456   3.495   3.986  0.0207 -0.2509  0.4443
 4111ntf    fn422784   4.675   3.517   3.977 -0.0423 -0.1013 -0.7196
 4111ntf    fn422785   4.546   3.638   3.852 -0.0364  0.0090 -0.6512
 4112ntf    cn122786   1.465   7.164   0.717  0.3015  0.0282 -0.4378
 4112ntf    sn222787   1.405   7.034   0.605 -0.3747  0.0234 -0.0777
 4112ntf    nn322788   1.528   6.937   0.618 -0.5378 -0.2120 -0.2825
 4112ntf    sn222789   1.641   6.925   0.510 -0.2175 -0.1461  0.0460
 4112ntf    cn122790   1.554   6.859   0.365 -0.1238 -0.2028  0.0153
 4112ntf    fn422791   1.570   7.224   0.665  0.3157 -0.0435 -0.4928
 4112ntf    fn422792   1.375   7.254   0.752  0.6893  0.1138  0.3667
 4112ntf    fn422793   1.510   7.110   0.829 -0.4271 -0.1105 -0.2013
 4112ntf    on522794   1.295   6.966   0.668 -0.5310 -0.3044 -0.6920
 4112ntf    on522795   1.365   7.106   0.487 -0.3875  1.0403  0.5349
 4112ntf    on522796   1.724   6.813   0.548  0.1137  0.1455  0.1881
 4112ntf    on522797   1.698   7.051   0.469  0.3294 -0.3527  0.1507
 4112ntf    fn422798   1.481   6.755   0.405 -0.6203  0.0367 -0.2580
 4112ntf    fn422799   1.474   6.949   0.310 -0.2823 -0.4047 -0.0858
 4112ntf    fn422800   1.633   6.811   0.271 -0.0043 -0.0288  0.0281
 4113ntf    cn122801   2.871   1.164   3.938  0.3402 -0.2172  0.0891
 4113ntf    sn222802   2.821   1.289   4.061  0.0055 -0.3616  0.1035
 4113ntf    nn322803   2.883   1.223   4.189 -0.1771 -0.2260  0.2615
 4113ntf    sn222804   3.010   1.273   4.266 -0.2063  0.0367  0.1427
 4113ntf    cn122805   2.945   1.418   4.353 -0.5906  0.0622 -0.1853
 4113ntf    fn422806   2.798   1.055   3.959  0.1734 -0.1039  0.1066
 4113ntf    fn422807   2.845   1.205   3.815  0.4886  0.4943  0.2881
 4113ntf    fn422808   2.999   1.136   3.949  0.4444  0.4470  0.6475
 4113ntf    on522809   2.871   1.417   4.017 -0.3455 -0.0954  0.4685
 4113ntf    on522810   2.678   1.283   4.075  0.0008 -0.3570  0.0585
 4113ntf    on522811   3.117   1.325   4.185 -0.4108  0.6760  0.2774
 4113ntf    on522812   3.050   1.184   4.373 -0.0277  0.1003  0.1295
 4113ntf    fn422813   3.040   1.468   4.431 -0.6656 -0.2216  0.0899
 4113ntf    fn422814   2.917   1.517   4.270  0.4481  0.1508 -0.4416
 4113ntf    fn422815   2.839   1.389   4.427 -0.2692 -0.6312  0.0081
 4114ntf    cn122816   1.252   0.592   1.923 -0.0735  0.0916  0.1418
 4114ntf    sn222817   1.238   0.414   1.954  0.1520  0.0851  0.2102
 4114ntf    nn322818   1.347   0.384   2.063  0.3831  1.1842  0.2901
 4114ntf    sn222819   1.333   0.357   2.217 -0.1063 -0.0198  0.0482
 4114ntf    cn122820   1.306   0.178   2.218  0.4520 -0.1056  0.4270
 4114ntf    fn422821   1.372   0.613   1.872 -0.0697 -0.0493  0.0948
 4114ntf    fn422822   1.158   0.644   1.846 -0.4414  0.0076  0.5260
 4114ntf    fn422823   1.235   0.672   2.027  0.2352  0.1528  0.1473
 4114ntf    on522824   1.102   0.395   1.999  0.0645 -0.1387 -0.1383
 4114ntf    on522825   1.283   0.345   1.835 -0.4848  0.1729 -0.0875
 4114ntf    on522826   1.224   0.416   2.291 -0.6048 -0.8454 -0.0228
 4114ntf    on522827   1.461   0.363   2.283  0.0389 -0.2189 -0.2106
 4114ntf    fn422828   1.183   0.141   2.185  0.3466  0.0870  0.6038
 4114ntf    fn422829   1.388   0.116   2.135 -0.0461 -0.0544 -0.1144
 4114ntf    fn422830   1.326   0.136   2.342  0.0048 -0.4337  0.3937
 4115ntf    cn122831   4.836   0.580   3.625 -0.1138 -0.0620 -0.0631
 4115ntf    sn222832   4.701   0.699   3.650  0.1579  0.2607 -0.1309
 4115ntf    nn322833   4.604   0.609   3.734  0.5449  0.1500  0.1979
 4115ntf    sn222834   4.640   0.513   3.854 -0.3097 -0.1526  0.2159
 4115ntf    cn122835   4.468   0.486   3.908 -0.4369  0.0279 -0.0919
 4115ntf    fn422836   4.884   0.540   3.741  0.4316  0.3432 -0.1422
 4115ntf    fn422837   4.787   0.478   3.556  0.1714 -0.1676 -0.1094
 4115ntf    fn422838   4.934   0.616   3.543  0.1799 -0.4612  0.1080
 4115ntf    on522839   4.764   0.806   3.724 -0.0871  0.2765  0.0550
 4115ntf    on522840   4.653   0.724   3.516 -0.0476  0.7990  0.0383
 4115ntf    on522841   4.708   0.581   3.961  0.3281  0.1447 -0.3725
 4115ntf    on522842   4.686   0.384   3.808 -0.0464  0.0071  0.0309
 4115ntf    fn422843   4.438   0.581   3.994 -0.1785  0.2966 -0.2963
 4115ntf    fn422844   4.379   0.492   3.810 -0.2149 -0.2386 -0.3160
 4115ntf    fn422845   4.453   0.379   3.984  0.0627  0.1893  0.2419
 4116ntf    cn122846   2.362   1.460   5.965 -0.2732 -0.1508 -0.0028
 4116ntf    sn222847   2.207   1.368   5.992 -0.2161 -0.1751  0.2409
 4116ntf    nn322848   2.102   1.443   5.903 -0.2069 -0.3928  0.0482
 4116ntf    sn222849   2.034   1.579   5.941  0.2944 -0.0780 -0.1648
 4116ntf    cn122850   1.891   1.514   6.033  0.2516  0.0481 -0.1426
 4116ntf    fn422851   2.404   1.441   5.841  0.6590 -0.3381  0.3302
 4116ntf    fn422852   2.352   1.585   6.006 -0.4058 -0.0083 -0.4694
 4116ntf    fn422853   2.458   1.397   6.031 -0.6594 -0.1909  0.5327
 4116ntf    on522854   2.239   1.240   5.934  0.1556 -0.0180  0.0941
 4116ntf    on522855   2.163   1.361   6.129 -0.6733 -0.4661  0.0800
 4116ntf    on522856   1.970   1.635   5.825  0.2377 -0.1006 -0.1451
 4116ntf    on522857   2.110   1.666   6.027  0.5856 -0.0941 -0.4074
 4116ntf    fn422858   1.803   1.444   5.963 -0.5230  0.4264  0.4276
 4116ntf    fn422859   1.917   1.442   6.140  0.1546 -0.1438 -0.2478
 4116ntf    fn422860   1.812   1.611   6.078 -0.1494 -0.4990  0.3490
 4117ntf    cn122861   3.971   5.836   3.158 -0.2890  0.5135  0.2219
 4117ntf    sn222862   3.831   5.791   3.265 -0.0722 -0.2141  0.2047
 4117ntf    nn322863   3.725   5.886   3.199 -0.0846 -0.6721 -0.4509
 4117ntf    sn222864   3.575   5.862   3.161 -0.2873 -0.1438 -0.0056
 4117ntf    cn122865   3.514   6.031   3.188 -0.1874 -0.1830  0.4671
 4117ntf    fn422866   4.072   5.753   3.178 -0.4569  0.2213 -0.1143
 4117ntf    fn422867   3.944   5.832   3.028  0.3091 -0.4019  0.1174
 4117ntf    fn422868   4.006   5.961   3.184  0.0710  0.4968 -0.1771
 4117ntf    on522869   3.828   5.647   3.250 -0.6712 -0.0853 -1.0888
 4117ntf    on522870   3.875   5.845   3.391  0.4882 -0.2599  0.0332
 4117ntf    on522871   3.495   5.782   3.250  0.3023 -0.0872  0.5884
 4117ntf    on522872   3.546   5.848   3.020  0.3529  0.3105 -0.1875
 4117ntf    fn422873   3.572   6.109   3.098 -0.2165 -0.8451 -0.1325
 4117ntf    fn422874   3.385   6.044   3.166 -0.1586 -0.7819 -0.0834
 4117ntf    fn422875   3.534   6.070   3.313 -0.0591  0.1772  0.3350
 4118ntf    cn122876   0.337   5.361   4.616 -0.0166 -0.0304 -0.0640
 4118ntf    sn222877   0.354   5.217   4.725  0.1106 -0.0977 -0.1706
 4118ntf    nn322878   0.505   5.216   4.769  0.0279  0.0653  0.1205
 4118ntf    sn222879   0.564   5.129   4.885  0.2846  0.1313  0.0402
 4118ntf    cn122880   0.743   5.156   4.873  0.4036 -0.4817  0.3994
 4118ntf    fn422881   0.231   5.350   4.537 -0.0974 -0.2234  0.0736
 4118ntf    fn422882   0.319   5.481   4.669 -0.7054 -0.0670 -0.2145
 4118ntf    fn422883   0.443   5.375   4.537  0.1246 -0.1819  0.1004
 4118ntf    on522884   0.263   5.252   4.832  0.1031  0.7022 -0.4318
 4118ntf    on522885   0.308   5.115   4.634  0.2263 -0.4158  0.1266
 4118ntf    on522886   0.552   4.986   4.871  0.2673  0.1062  0.3051
 4118ntf    on522887   0.546   5.187   5.016 -0.4934 -0.5076  0.2222
 4118ntf    fn422888   0.785   5.117   4.754  0.0075 -0.3471  0.2134
 4118ntf    fn422889   0.776   5.283   4.889 -0.0981 -0.3843  0.6684
 4118ntf    fn422890   0.804   5.086   4.967  0.0621 -0.7899  0.3936
 4119ntf    cn122891   5.506   1.281   3.095 -0.4170 -0.1069 -0.0759
 4119ntf    sn222892   5.547   1.456   3.127 -0.0652 -0.0868 -0.6203
 4119ntf    nn322893   5.438   1.533   3.044 -0.1501  0.0882 -0.3466
 4119ntf    sn222894   5.298   1.594   3.079 -0.0642  0.2223 -0.2344
 4119ntf    cn122895   5.360   1.762   3.113 -0.0792  0.1457  0.1851
 4119ntf    fn422896   5.375   1.272   3.107 -0.3566  0.0433  0.7943
 4119ntf    fn422897   5.529   1.241   2.971 -0.3310 -0.1270 -0.0538
 4119ntf    fn422898   5.568   1.201   3.181  0.0933  0.0637 -0.2785
 4119ntf    on522899   5.547   1.473   3.270 -0.0872  0.5070 -0.6919
 4119ntf    on522900   5.677   1.472   3.067  0.2431  0.3600  0.1607
 4119ntf    on522901   5.243   1.549   3.204 -0.8888 -0.0084 -0.6744
 4119ntf    on522902   5.213   1.596   2.963 -0.0345 -0.6133 -0.2709
 4119ntf    fn422903   5.491   1.779   3.120  0.0370 -0.7357  0.2207
 4119ntf    fn422904   5.327   1.847   3.017  0.2894  0.3755  0.2575
 4119ntf    fn422905   5.318   1.814   3.227  0.6115  1.0253  0.0540
 4120ntf    cn122906   0.149   0.754   0.884 -0.0290 -0.1019 -0.1455
 4120ntf    sn222907   0.234   0.632   0.780  0.1680 -0.1088  0.0238
 4120ntf    nn322908   0.119   0.536   0.733  0.1234 -0.0840  0.0807
 4120ntf    sn222909   0.038   0.508   0.601  0.0620  0.0546  0.0887
 4120ntf    cn122910   0.046   0.326   0.608  0.0027  0.0405 -0.2038
 4120ntf    fn422911   0.106   0.697   0.996  0.4715 -0.2681 -0.0371
 4120ntf    fn422912   0.223   0.862   0.905 -0.2542  0.0257 -0.0038
 4120ntf    fn422913   0.042   0.798   0.819  0.1393 -0.1679 -0.4684
 4120ntf    on522914   0.287   0.723   0.682  0.1390  0.2950  0.3808
 4120ntf    on522915   0.329   0.566   0.867  0.1864  0.0482  0.1223
 4120ntf    on522916   0.106   0.548   0.480 -0.3401  0.6263  0.0488
 4120ntf    on522917  -0.100   0.545   0.618 -0.1083 -0.2325 -0.6399
 4120ntf    fn422918   0.016   0.278   0.728 -0.2726 -0.0712 -0.3159
 4120ntf    fn422919  -0.033   0.276   0.514 -0.3320  0.2541 -0.0398
 4120ntf    fn422920   0.169   0.284   0.587  0.0793  0.3891 -0.4643
 4121ntf    cn122921   6.357   1.920   6.359 -0.1804 -0.1485 -0.0708
 4121ntf    sn222922   6.303   1.943   6.187  0.1980  0.0095 -0.1708
 4121ntf    nn322923   6.333   1.814   6.102  0.1102 -0.4498  0.4860
 4121ntf    sn222924   6.467   1.733   6.090  0.2784 -0.1108  0.0338
 4121ntf    cn122925   6.492   1.719   5.911 -0.1192 -0.1019 -0.0246
 4121ntf    fn422926   6.314   1.807   6.413 -0.1940 -0.0948  0.0315
 4121ntf    fn422927   6.489   1.926   6.367 -0.1990  0.2412 -0.0718
 4121ntf    fn422928   6.317   2.017   6.438 -0.0981  0.0125 -0.2272
 4121ntf    on522929   6.161   1.965   6.191  0.1505 -0.3858  0.4197
 4121ntf    on522930   6.370   2.059   6.136 -0.8256  0.5155 -0.3857
 4121ntf    on522931   6.450   1.595   6.130 -0.0247 -0.3135 -0.7765
 4121ntf    on522932   6.584   1.801   6.138  0.2121  0.0212  0.0081
 4121ntf    fn422933   6.599   1.643   5.894  0.0020  0.0205  0.1949
 4121ntf    fn422934   6.393   1.660   5.846  0.1095 -0.2702 -0.2226
 4121ntf    fn422935   6.516   1.834   5.850 -0.2844  0.1667  0.4141
 4122ntf    cn122936   3.373   3.163   2.568 -0.1547 -0.1841  0.1792
 4122ntf    sn222937   3.305   3.180   2.736 -0.1019  0.1886  0.1628
 4122ntf    nn322938   3.398   3.086   2.820 -0.4974  0.0953  0.4972
 4122ntf    sn222939   3.407   2.930   2.840 -0.0548  0.0528 -0.0242
 4122ntf    cn122940   3.588   2.913   2.841 -0.0216  0.4069  0.1170
 4122ntf    fn422941   3.352   3.043   2.517 -0.0422 -0.0014 -0.3047
 4122ntf    fn422942   3.312   3.246   2.485  0.1213 -0.2854 -0.1277
 4122ntf    fn422943   3.504   3.183   2.567 -0.2021  0.1317 -0.0688
 4122ntf    on522944   3.334   3.319   2.764  0.3739  0.1331 -0.0391
 4122ntf    on522945   3.166   3.145   2.722  0.1933 -0.7650 -0.4513
 4122ntf    on522946   3.367   2.858   2.722 -0.6030  0.3280 -0.0067
 4122ntf    on522947   3.375   2.886   2.973 -0.0285 -0.1826 -0.0951
 4122ntf    fn422948   3.641   2.978   2.739  0.6521 -0.1708  0.0870
 4122ntf    fn422949   3.647   2.963   2.949 -0.1840 -0.0251  0.4073
 4122ntf    fn422950   3.626   2.787   2.826  0.0168  0.4705 -0.3230
 4123ntf    cn122951   0.459   0.936   4.670  0.2317  0.2230 -0.3427
 4123ntf    sn222952   0.489   0.825   4.811  0.1913  0.1381 -0.4012
 4123ntf    nn322953   0.646   0.831   4.806  0.1921  0.1147 -0.4081
 4123ntf    sn222954   0.750   0.769   4.905 -0.2391 -0.1770 -0.1324
 4123ntf    cn122955   0.792   0.916   5.002 -0.5431  0.1302 -0.4656
 4123ntf    fn422956   0.510   0.890   4.556  0.3072 -0.2963 -0.1018
 4123ntf    fn422957   0.330   0.952   4.646  0.2713  0.8626 -0.1282
 4123ntf    fn422958   0.507   1.057   4.690  0.3482  0.1312 -0.0650
 4123ntf    on522959   0.433   0.887   4.928 -0.2261  0.1010 -0.5774
 4123ntf    on522960   0.448   0.694   4.764 -0.1811 -0.2562  0.9807
 4123ntf    on522961   0.875   0.747   4.835 -0.2847  0.4481 -0.4135
 4123ntf    on522962   0.704   0.664   4.993 -0.1351 -0.1187 -0.0070
 4123ntf    fn422963   0.851   1.008   4.927  0.4754  0.0548  0.2244
 4123ntf    fn422964   0.687   0.978   5.053 -0.5073 -0.2024  0.0218
 4123ntf    fn422965   0.877   0.878   5.096 -0.4253  0.3452 -0.4825
 4124ntf    cn122966   2.630   0.146   4.847 -0.1197 -0.1281 -0.1004
 4124ntf    sn222967   2.728   0.222   4.715 -0.0075  0.3785  0.2720
 4124ntf    nn322968   2.628   0.214   4.594  0.0801 -0.4590  0.2502
 4124ntf    sn222969   2.666   0.230   4.442 -0.2096  0.2663  0.2487
 4124ntf    cn122970   2.606   0.396   4.401  0.0846  0.2840 -0.1124
 4124ntf    fn422971   2.589   0.025   4.811 -0.4394 -0.0085 -0.1408
 4124ntf    fn422972   2.700   0.129   4.958 -0.0765 -0.1279 -0.1276
 4124ntf    fn422973   2.521   0.214   4.878 -0.2046 -0.4054  0.2263
 4124ntf    on522974   2.761   0.357   4.754 -0.1053  0.5804 -0.3301
 4124ntf    on522975   2.832   0.122   4.708 -0.2303  0.1517  0.1807
 4124ntf    on522976   2.593   0.134   4.364  0.1481 -0.3909  0.7054
 4124ntf    on522977   2.806   0.232   4.406 -0.1493 -0.6839  0.3852
 4124ntf    fn422978   2.635   0.488   4.493  1.0713  0.0006 -0.1267
 4124ntf    fn422979   2.658   0.440   4.287  0.4684  0.5092  0.1455
 4124ntf    fn422980   2.475   0.393   4.388  0.0461  0.2691  0.2726
 4125ntf    cn122981   6.444   0.664   4.529  0.0416 -0.2115  0.1186
 4125ntf    sn222982   6.587   0.711   4.631  0.0564 -0.4031  0.1874
 4125ntf    nn322983   6.576   0.868   4.638 -0.2956 -0.4516  0.7309
 4125ntf    sn222984   6.684   0.979   4.659 -0.3264 -0.3563  0.3802
 4125ntf    cn122985   6.707   1.042   4.489 -0.9698  0.2717  0.5220
 4125ntf    fn422986   6.437   0.533   4.515 -0.4667 -0.1795  0.0438
 4125ntf    fn422987   6.325   0.691   4.582  0.1577 -0.4269  0.4972
 4125ntf    fn422988   6.441   0.717   4.408  0.6051 -0.7594 -0.1409
 4125ntf    on522989   6.559   0.662   4.763  0.3280  0.0248  0.4084
 4125ntf    on522990   6.702   0.655   4.565  0.6599  0.5100  0.4478
 4125ntf    on522991   6.815   0.937   4.702 -0.4005 -0.8605  0.1212
 4125ntf    on522992   6.629   1.097   4.720 -0.4627 -0.1310 -0.1709
 4125ntf    fn422993   6.809   1.127   4.485 -0.7412 -0.0548 -0.7153
 4125ntf    fn422994   6.747   0.954   4.399 -0.1390  0.9679  0.1995
 4125ntf    fn422995   6.597   1.105   4.454 -0.4993  0.6345 -0.3112
 4126ntf    cn122996   3.072   7.292   1.764  0.4848  0.1387  0.1000
 4126ntf    sn222997   3.041   7.118   1.724 -0.1233  0.2720 -0.0306
 4126ntf    nn322998   2.948   7.128   1.598  0.0073 -0.2435 -0.1702
 4126ntf    sn222999   2.793   7.109   1.579 -0.0014 -0.3617  0.0221
 4126ntf    cn123000   2.763   7.225   1.442 -0.0179 -0.1171  0.2316
 4126ntf    fn423001   3.092   7.361   1.653  0.7440  0.2220  0.1990
 4126ntf    fn423002   2.971   7.345   1.831 -0.0575 -0.2383 -0.4078
 4126ntf    fn423003   3.178   7.310   1.841  0.3087 -0.2148  0.4277
 4126ntf    on523004   3.171   7.059   1.703 -0.0086  0.4812  0.0987
 4126ntf    on523005   2.973   7.069   1.841  0.2800 -0.0235  0.0845
 4126ntf    on523006   2.714   7.160   1.689  0.4117  0.4500 -0.0507
 4126ntf    on523007   2.755   6.984   1.519  0.2289  0.0981 -1.0999
 4126ntf    fn423008   2.820   7.341   1.469 -0.2137 -0.0830  0.5101
 4126ntf    fn423009   2.808   7.180   1.326 -0.1599  0.0369  0.1162
 4126ntf    fn423010   2.635   7.258   1.436  0.0205 -0.0731 -0.3413
 4127ntf    cn123011   3.284   0.174   4.027  0.2454  0.2659 -0.1370
 4127ntf    sn223012   3.118   0.108   4.062  0.3267  0.1294 -0.0089
 4127ntf    nn323013   3.119  -0.023   3.976  0.0658  0.2480 -0.1932
 4127ntf    sn223014   3.141  -0.031   3.820  0.6432 -0.1818 -0.0952
 4127ntf    cn123015   3.028  -0.171   3.790  0.0600  0.3445 -0.3842
 4127ntf    fn423016   3.307   0.203   3.900 -0.2890 -0.7461 -0.4730
 4127ntf    fn423017   3.303   0.279   4.107 -0.4860  0.3191 -0.0223
 4127ntf    fn423018   3.377   0.089   4.067  0.4547  0.4096 -0.3187
 4127ntf    on523019   3.115   0.086   4.205  0.1676 -0.3871 -0.0879
 4127ntf    on523020   3.024   0.210   4.024 -0.4052 -0.4299  0.2603
 4127ntf    on523021   3.272  -0.073   3.778  1.0289  0.6650  0.2322
 4127ntf    on523022   3.084   0.077   3.744 -0.0001 -0.3606  0.1249
 4127ntf    fn423023   3.065  -0.253   3.694 -0.0218 -0.4267  0.2312
 4127ntf    fn423024   3.009  -0.232   3.906  0.2739  0.3335 -0.3540
 4127ntf    fn423025   2.908  -0.132   3.751 -0.5462 -0.5024  0.5629
 4128ntf    cn123026   4.687   6.857   0.278  0.2146  0.3481  0.1725
 4128ntf    sn223027   4.628   6.892   0.110 -0.1085 -0.3347  0.1410
 4128ntf    nn323028   4.711   6.785   0.029 -0.4196 -0.1131 -0.4732
 4128ntf    sn223029   4.673   6.651  -0.042 -0.2427 -0.4342  0.0355
 4128ntf    cn123030   4.744   6.532   0.076 -0.0963  0.0137  0.4002
 4128ntf    fn423031   4.818   6.869   0.291  0.1776  0.1852  0.7164
 4128ntf    fn423032   4.630   6.940   0.363  0.2975  0.2960  0.2797
 4128ntf    fn423033   4.661   6.731   0.311 -0.1793  0.3390 -0.1761
 4128ntf    on523034   4.485   6.876   0.116 -0.2094  0.5065  0.0116
 4128ntf    on523035   4.679   7.024   0.084 -0.0126 -0.4017 -0.0184
 4128ntf    on523036   4.758   6.628  -0.156 -0.0715  0.3291  0.0103
 4128ntf    on523037   4.531   6.626  -0.046 -0.2334 -0.5121  0.1731
 4128ntf    fn423038   4.861   6.485   0.035 -0.2232  0.5005 -0.5678
 4128ntf    fn423039   4.758   6.585   0.196  0.4118  0.3040  0.2159
 4128ntf    fn423040   4.670   6.424   0.089  0.1452 -0.2561 -0.3658
 4129ntf    cn123041   3.870   2.135   6.270 -0.2246 -0.1606  0.4971
 4129ntf    sn223042   3.751   2.003   6.308 -0.4969 -0.0010  0.1997
 4129ntf    nn323043   3.859   1.892   6.329 -0.4315  0.0562  0.1671
 4129ntf    sn223044   3.921   1.780   6.239 -0.0832  0.1799  0.2490
 4129ntf    cn123045   4.090   1.842   6.214 -0.1465  0.3469  0.2375
 4129ntf    fn423046   3.925   2.118   6.151 -0.1492 -0.2578  0.5457
 4129ntf    fn423047   3.805   2.249   6.252 -0.1776 -0.1327  0.5020
 4129ntf    fn423048   3.961   2.161   6.363  0.3811 -0.6430  0.0471
 4129ntf    on523049   3.701   2.039   6.439 -0.6608 -0.2618  0.2090
 4129ntf    on523050   3.663   1.994   6.194  0.3223  0.0000 -0.4351
 4129ntf    on523051   3.863   1.783   6.107  0.5168  0.4307 -0.0122
 4129ntf    on523052   3.941   1.658   6.314 -0.1789  0.1315  0.1965
 4129ntf    fn423053   4.154   1.856   6.328  0.4570 -0.8475  0.0609
 4129ntf    fn423054   4.166   1.771   6.132 -0.0534  0.2774  0.3830
 4129ntf    fn423055   4.084   1.968   6.173  0.3293  0.2744 -0.0616
 4130ntf    cn123056   5.254   3.167   2.180  0.3014 -0.4479 -0.0215
 4130ntf    sn223057   5.244   3.069   2.028  0.2310  0.0205 -0.3202
 4130ntf    nn323058   5.146   2.956   2.073 -0.1527  0.3610 -0.2951
 4130ntf    sn223059   5.160   2.803   2.037  0.3315  0.2113  0.5152
 4130ntf    cn123060   5.284   2.737   2.153  0.3877 -0.1878  0.2284
 4130ntf    fn423061   5.294   3.107   2.291 -0.1022 -0.0027  0.3693
 4130ntf    fn423062   5.337   3.269   2.163  0.1953 -0.2556  0.5805
 4130ntf    fn423063   5.137   3.217   2.217  0.5869  0.0242  0.2620
 4130ntf    on523064   5.180   3.158   1.934  0.7305 -0.0497 -0.7329
 4130ntf    on523065   5.379   3.024   2.001  0.2299  0.1087 -0.4779
 4130ntf    on523066   5.209   2.765   1.907  0.2085  0.1593  0.4847
 4130ntf    on523067   5.043   2.729   2.073  0.2032  0.2392  0.1607
 4130ntf    fn423068   5.247   2.777   2.273  0.0044 -0.8547  0.3364
 4130ntf    fn423069   5.291   2.605   2.153 -0.0842 -0.2142  0.5960
 4130ntf    fn423070   5.410   2.775   2.137  0.1421  0.6240  0.1451
 4131ntf    cn123071   0.565   1.831   5.561 -0.2835  0.3070  0.4651
 4131ntf    sn223072   0.617   1.797   5.390  0.0774  0.1467  0.6063
 4131ntf    nn323073   0.495   1.704   5.354 -0.2121  0.6615  0.2478
 4131ntf    sn223074   0.362   1.736   5.277  0.1381  0.4194 -0.4667
 4131ntf    cn123075   0.251   1.635   5.379  0.4651  0.0955 -0.4319
 4131ntf    fn423076   0.440   1.874   5.559 -0.3340  0.1505 -0.2329
 4131ntf    fn423077   0.575   1.720   5.633 -0.0794  0.3725  0.5366
 4131ntf    fn423078   0.641   1.917   5.626  0.1800  0.1152  0.1839
 4131ntf    on523079   0.621   1.928   5.330  0.4645 -0.3649 -0.5091
 4131ntf    on523080   0.744   1.734   5.416 -0.0401 -0.3123  0.1060
 4131ntf    on523081   0.361   1.681   5.144  0.3393 -0.4545 -0.1088
 4131ntf    on523082   0.314   1.872   5.289 -0.7135  0.0980 -0.1622
 4131ntf    fn423083   0.236   1.679   5.503 -0.1904 -0.1146 -0.4311
 4131ntf    fn423084   0.136   1.629   5.315  0.0536 -0.3127  0.3260
 4131ntf    fn423085   0.294   1.510   5.389 -0.1427 -0.0515  0.5078
 4132ntf    cn123086   2.480   3.817   0.353 -0.0387 -0.1318 -0.4619
 4132ntf    sn223087   2.309   3.878   0.348  0.0008  0.0227  0.1284
 4132ntf    nn323088   2.224   3.759   0.292  0.2399 -0.1462  0.1242
 4132ntf    sn223089   2.245   3.672   0.163  0.2453  0.0919 -0.0377
 4132ntf    cn123090   2.072   3.651   0.110  0.0901  0.6838  0.2279
 4132ntf    fn423091   2.562   3.914   0.389 -0.6526  0.0839  0.3732
 4132ntf    fn423092   2.482   3.712   0.433  0.3459  0.2118 -0.0202
 4132ntf    fn423093   2.524   3.779   0.234 -0.6630 -0.3060 -0.6428
 4132ntf    on523094   2.279   3.896   0.488 -0.2013 -0.1054  0.1014
 4132ntf    on523095   2.316   3.997   0.266  0.6599 -0.2268 -0.1794
 4132ntf    on523096   2.289   3.540   0.203 -0.0727 -0.0675 -0.2066
 4132ntf    on523097   2.301   3.748   0.054  0.6986  0.5468  0.5083
 4132ntf    fn423098   2.049   3.549   0.030  0.0384  0.8432  0.0400
 4132ntf    fn423099   2.003   3.613   0.217  0.1293 -0.0196  0.0063
 4132ntf    fn423100   2.017   3.762   0.065  0.0053  0.7099  0.3924
 4133ntf    cn123101   4.119   2.095   4.594  0.3073  0.2935 -0.0510
 4133ntf    sn223102   4.154   2.271   4.623  0.0196  0.3367  0.0385
 4133ntf    nn323103   4.166   2.277   4.780 -0.9977 -0.2154  0.1505
 4133ntf    sn223104   4.224   2.169   4.879 -0.4298  0.0309  0.0924
 4133ntf    cn123105   4.272   2.295   5.000 -0.6102  0.3022 -0.1154
 4133ntf    fn423106   4.010   2.061   4.662  0.2152  0.6547 -0.0156
 4133ntf    fn423107   4.093   2.068   4.467  0.2590 -0.4591  0.1100
 4133ntf    fn423108   4.215   2.012   4.631 -0.1938 -0.1336  0.3209
 4133ntf    on523109   4.282   2.290   4.561  0.0303  0.5608  0.1303
 4133ntf    on523110   4.041   2.337   4.564 -0.2360 -0.3088 -0.2093
 4133ntf    on523111   4.348   2.104   4.845 -0.4983 -0.0841  0.0616
 4133ntf    on523112   4.129   2.081   4.942 -0.7030  0.1828 -0.1037
 4133ntf    fn423113   4.168   2.358   5.053 -0.4627  0.3165  0.1600
 4133ntf    fn423114   4.339   2.251   5.105 -0.0077 -0.0827 -0.6599
 4133ntf    fn423115   4.349   2.394   4.958  0.1517  0.0199  0.5694
 4134ntf    cn123116   0.407   4.966   5.806  0.2981  0.0465  0.2480
 4134ntf    sn223117   0.584   5.006   5.794  0.3336 -0.2238 -0.1389
 4134ntf    nn323118   0.646   4.862   5.808  0.1580 -0.2829  0.0260
 4134ntf    sn223119   0.730   4.804   5.927  0.1722  0.1075  0.2101
 4134ntf    cn123120   0.680   4.631   5.901 -0.0839  0.2104  0.0249
 4134ntf    fn423121   0.357   4.900   5.703 -0.0737  0.6086  0.0664
 4134ntf    fn423122   0.387   4.889   5.912  0.2791  0.2842  0.4162
 4134ntf    fn423123   0.322   5.066   5.818 -0.1036 -0.2211 -0.3300
 4134ntf    on523124   0.604   5.063   5.663  0.1420 -0.3742 -0.2340
 4134ntf    on523125   0.609   5.086   5.911 -0.3955 -0.5131  0.2206
 4134ntf    on523126   0.689   4.831   6.062  0.2699  0.2595  0.2100
 4134ntf    on523127   0.874   4.806   5.910  0.1554  0.3740  0.1038
 4134ntf    fn423128   0.770   4.538   5.928 -0.5248 -0.0346  0.6754
 4134ntf    fn423129   0.581   4.598   5.982  0.3676  0.0093  0.5002
 4134ntf    fn423130   0.640   4.597   5.779 -0.1975  0.3978  0.0089
 4135ntf    cn123131   5.546   2.269   2.075 -0.0504  0.1890  0.2891
 4135ntf    sn223132   5.638   2.234   2.228  0.0126  0.3617  0.2912
 4135ntf    nn323133   5.663   2.371   2.300  0.2640  0.1411  0.6257
 4135ntf    sn223134   5.782   2.469   2.270  0.3263 -0.0509  0.2283
 4135ntf    cn123135   5.699   2.629   2.249  0.1601 -0.2163 -0.3790
 4135ntf    fn423136   5.426   2.319   2.099  0.0796  0.5078  0.2731
 4135ntf    fn423137   5.618   2.357   2.007 -0.3607 -0.0870 -0.4028
 4135ntf    fn423138   5.527   2.157   2.006  0.5045  0.1227  0.2423
 4135ntf    on523139   5.550   2.151   2.307 -0.3571  0.3979 -0.0760
 4135ntf    on523140   5.757   2.165   2.184 -0.2481  0.0014  0.1416
 4135ntf    on523141   5.857   2.450   2.148 -0.1205 -0.6054  0.0400
 4135ntf    on523142   5.862   2.498   2.387  0.6947  0.2089 -0.0867
 4135ntf    fn423143   5.632   2.638   2.135 -0.3221 -1.1352 -0.1747
 4135ntf    fn423144   5.606   2.657   2.339  0.4208 -0.4838 -0.0266
 4135ntf    fn423145   5.779   2.734   2.262 -0.3344  0.1250 -0.0477
 4136ntf    cn123146   0.078   0.948   5.047 -0.4621  0.2561  0.2796
 4136ntf    sn223147  -0.009   0.789   5.059 -0.4689  0.2244 -0.1627
 4136ntf    nn323148  -0.072   0.792   5.203 -0.2432 -0.2390 -0.0503
 4136ntf    sn223149  -0.027   0.726   5.338  0.2957  0.0288 -0.0982
 4136ntf    cn123150  -0.129   0.576   5.331 -0.4435  0.5194  0.0031
 4136ntf    fn423151   0.161   0.971   5.148  0.2838  0.0482 -0.2747
 4136ntf    fn423152   0.145   0.967   4.934 -0.2649 -0.3337  0.2913
 4136ntf    fn423153  -0.004   1.051   5.047 -0.4407  0.2761 -0.0852
 4136ntf    on523154  -0.111   0.814   4.960 -0.5619  0.5926  0.0238
 4136ntf    on523155   0.082   0.680   5.033  0.2228  0.6688  0.3655
 4136ntf    on523156  -0.076   0.782   5.462  0.0795  0.0357 -0.1866
 4136ntf    on523157   0.106   0.670   5.330  0.1883 -0.2296 -0.0410
 4136ntf    fn423158  -0.163   0.533   5.451  0.1344  0.3847  0.1242
 4136ntf    fn423159  -0.245   0.595   5.272 -0.2260  0.3683 -0.4813
 4136ntf    fn423160  -0.070   0.477   5.265 -0.2331  0.5507  0.1437
 4137ntf    cn123161   3.759   4.393   5.171 -0.0441 -0.0672 -0.3109
 4137ntf    sn223162   3.759   4.212   5.182  0.1600 -0.0523 -0.0568
 4137ntf    nn323163   3.603   4.192   5.181  0.1827 -0.2485  0.2071
 4137ntf    sn223164   3.506   4.136   5.292 -0.1184 -0.7900 -0.3262
 4137ntf    cn123165   3.387   4.040   5.193 -0.7006 -0.2277 -0.1819
 4137ntf    fn423166   3.724   4.459   5.280 -0.0453 -0.5753 -0.0022
 4137ntf    fn423167   3.875   4.446   5.139 -0.1964  0.2298 -0.3770
 4137ntf    fn423168   3.677   4.437   5.076  0.4644  0.6552 -0.4253
 4137ntf    on523169   3.806   4.168   5.053  0.3041 -0.2119  0.0500
 4137ntf    on523170   3.834   4.186   5.302  0.4211  0.2574 -0.1529
 4137ntf    on523171   3.424   4.238   5.352  0.3993 -0.5942  0.0543
 4137ntf    on523172   3.558   4.039   5.384 -0.8315 -0.8054  0.0642
 4137ntf    fn423173   3.324   4.115   5.104 -0.0218 -0.0165 -0.4977
 4137ntf    fn423174   3.445   3.940   5.127  0.4607  0.2300  0.1130
 4137ntf    fn423175   3.290   3.986   5.265 -0.3752 -0.2387  0.2529
 4138ntf    cn123176   3.448   3.486   5.507 -0.1377  0.0746 -0.0114
 4138ntf    sn223177   3.485   3.610   5.635  0.2273 -0.1266  0.0790
 4138ntf    nn323178   3.389   3.575   5.753  0.8591 -0.8851  0.3783
 4138ntf    sn223179   3.384   3.655   5.888  0.0507 -0.3598  0.0387
 4138ntf    cn123180   3.488   3.558   6.001 -0.0795  0.2162  0.6607
 4138ntf    fn423181   3.320   3.495   5.474 -0.2683 -0.0993  0.4280
 4138ntf    fn423182   3.511   3.507   5.393 -0.6417  0.4480 -0.2229
 4138ntf    fn423183   3.476   3.364   5.551 -0.1374  0.0610 -0.0493
 4138ntf    on523184   3.622   3.582   5.670  0.1132 -0.3271  0.3640
 4138ntf    on523185   3.455   3.730   5.561 -0.3211 -0.2126  0.1597
 4138ntf    on523186   3.256   3.658   5.955 -0.1051 -0.4115 -0.2519
 4138ntf    on523187   3.455   3.781   5.877  0.0150 -0.3375  0.0635
 4138ntf    fn423188   3.505   3.618   6.118  0.7009 -0.4227  0.8784
 4138ntf    fn423189   3.429   3.444   6.031 -0.2592  0.0094 -0.4424
 4138ntf    fn423190   3.613   3.534   5.966 -0.3623 -0.3589  0.0176
 4139ntf    cn123191   5.045   0.101   2.731  0.0251 -0.2691 -0.1143
 4139ntf    sn223192   4.985   0.164   2.890  0.1947  0.1020 -0.1963
 4139ntf    nn323193   5.124   0.180   2.962  0.0333 -0.1186  0.1706
 4139ntf    sn223194   5.151   0.213   3.113  0.5868 -0.2816  0.1118
 4139ntf    cn123195   5.184   0.045   3.174 -0.3157 -0.6139 -0.2895
 4139ntf    fn423196   5.091  -0.022   2.743  0.1033 -0.2920 -0.6324
 4139ntf    fn423197   4.951   0.088   2.639 -0.0102  0.3007 -0.1622
 4139ntf    fn423198   5.130   0.180   2.667 -0.5741  1.2665  0.9332
 4139ntf    on523199   4.917   0.287   2.859  0.5559  0.4476  0.3486
 4139ntf    on523200   4.911   0.049   2.934 -0.6823  0.5626 -0.4497
 4139ntf    on523201   5.041   0.259   3.194  0.0297 -0.4981 -0.5106
 4139ntf    on523202   5.274   0.287   3.121  0.4401 -0.0635  0.3794
 4139ntf    fn423203   5.201   0.047   3.305 -0.2811  0.0661 -0.3029
 4139ntf    fn423204   5.085  -0.038   3.145 -0.2975 -0.9592  0.6083
 4139ntf    fn423205   5.292  -0.014   3.125  0.5001 -0.3317  1.1061
 4140ntf    cn123206   1.011   1.034   2.337  0.3750  0.1244  0.1176
 4140ntf    sn223207   1.070   1.070   2.505  0.2187  0.0653  0.1855
 4140ntf    nn323208   0.931   1.114   2.564  0.1303 -0.0742  0.0809
 4140ntf    sn223209   0.889   1.251   2.627  0.0565 -0.0113 -0.1055
 4140ntf    cn123210   0.798   1.192   2.773 -0.2575 -0.1998 -0.3746
 4140ntf    fn423211   0.901   0.961   2.327 -0.0566  0.8377 -0.4265
 4140ntf    fn423212   0.973   1.147   2.281 -0.0189 -0.0939 -0.0616
 4140ntf    fn423213   1.103   0.977   2.260  0.0605 -0.1653 -0.0503
 4140ntf    on523214   1.117   0.944   2.556  0.0544 -0.0409  0.0732
 4140ntf    on523215   1.165   1.173   2.472  0.4098 -0.3521 -0.5775
 4140ntf    on523216   0.782   1.316   2.555  0.2760 -0.6578 -1.0354
 4140ntf    on523217   0.992   1.331   2.687  0.2811 -0.0604 -0.4231
 4140ntf    fn423218   0.713   1.095   2.746 -0.1523 -0.4408  0.1434
 4140ntf    fn423219   0.876   1.140   2.867 -0.0778  0.4581 -0.1514
 4140ntf    fn423220   0.723   1.284   2.831 -0.1744 -0.1970 -0.2713
 4141ntf    cn123221   5.863   5.058   3.444 -0.3339  0.1553 -0.2060
 4141ntf    sn223222   5.760   5.092   3.590  0.3859 -0.1580  0.3879
 4141ntf    nn323223   5.856   5.178   3.680  0.5656 -0.4250  0.4487
 4141ntf    sn223224   5.828   5.279   3.796 -0.0784  0.3047 -0.3339
 4141ntf    cn123225   5.847   5.444   3.723 -0.0609  0.5180  0.1502
 4141ntf    fn423226   5.792   5.017   3.341 -0.8235  0.0805  0.1558
 4141ntf    fn423227   5.929   5.167   3.408  0.4182 -0.4448 -0.6670
 4141ntf    fn423228   5.952   4.965   3.474 -0.0783  0.6138  0.4949
 4141ntf    on523229   5.654   5.170   3.531  0.5616 -0.2252 -0.0218
 4141ntf    on523230   5.723   4.962   3.640  0.7071 -0.1558  0.6337
 4141ntf    on523231   5.939   5.274   3.887 -0.5645  0.3232  0.2706
 4141ntf    on523232   5.693   5.274   3.848  0.0644 -0.1292 -0.0004
 4141ntf    fn423233   5.763   5.465   3.623 -0.0619 -0.0405  0.0344
 4141ntf    fn423234   5.826   5.538   3.814  0.2140  0.5151  0.2182
 4141ntf    fn423235   5.971   5.467   3.683 -0.2263  0.2003 -0.5597
 4142ntf    cn123236   2.054   0.748   5.776 -0.1626 -0.2428 -0.6296
 4142ntf    sn223237   2.235   0.744   5.780 -0.1785 -0.4682 -0.0757
 4142ntf    nn323238   2.256   0.606   5.851 -0.0827 -0.2989  0.2328
 4142ntf    sn223239   2.394   0.539   5.884  0.2878  0.2369 -0.2233
 4142ntf    cn123240   2.368   0.488   6.056  0.3924  0.1548 -0.2314
 4142ntf    fn423241   2.004   0.684   5.672 -0.8142 -0.5335 -0.1458
 4142ntf    fn423242   1.992   0.698   5.882 -0.3131  0.1913 -0.5103
 4142ntf    fn423243   2.013   0.874   5.768 -0.0050 -0.1271  0.3212
 4142ntf    on523244   2.288   0.746   5.646 -0.0560 -0.2950 -0.0252
 4142ntf    on523245   2.274   0.852   5.869 -0.2776 -0.0001 -0.5959
 4142ntf    on523246   2.505   0.631   5.897  0.6240 -0.2783  0.6377
 4142ntf    on523247   2.425   0.408   5.832  0.9908  0.1701  0.3408
 4142ntf    fn423248   2.474   0.469   6.133  0.1217  0.1864  0.1517
 4142ntf    fn423249   2.293   0.580   6.115  0.3924 -0.4906  0.7916
 4142ntf    fn423250   2.298   0.376   6.062  0.0801  0.3341 -0.4835
 4143ntf    cn123251   2.218   3.701   4.808 -0.4908 -0.1256  0.5294
 4143ntf    sn223252   2.198   3.862   4.725 -0.0660 -0.2047  0.2671
 4143ntf    nn323253   2.315   3.857   4.622 -0.0141 -0.1340  0.3228
 4143ntf    sn223254   2.471   3.874   4.635 -0.0015 -0.2247  0.2898
 4143ntf    cn123255   2.530   3.764   4.503 -0.0583  0.0960 -0.0030
 4143ntf    fn423256   2.114   3.677   4.887 -0.4379 -0.5171  0.4823
 4143ntf    fn423257   2.242   3.592   4.738  0.4235  0.3969  0.0039
 4143ntf    fn423258   2.325   3.706   4.886 -0.3539 -0.0870  0.3398
 4143ntf    on523259   2.070   3.856   4.658  0.3795  0.3829 -0.6381
 4143ntf    on523260   2.211   3.957   4.833  0.4025  0.1134 -0.0701
 4143ntf    on523261   2.538   3.834   4.756  0.1665  0.5905  0.4674
 4143ntf    on523262   2.502   4.007   4.591  0.9064 -0.3485  0.5433
 4143ntf    fn423263   2.662   3.752   4.507 -0.0271  0.2449 -0.5301
 4143ntf    fn423264   2.479   3.642   4.513 -0.3263  0.2397  0.4106
 4143ntf    fn423265   2.497   3.804   4.381 -0.0553 -0.2993 -0.1338
 4144ntf    cn123266   5.980   1.732   1.009  0.3579  0.2565  0.1817
 4144ntf    sn223267   5.994   1.888   0.917  0.1850  0.2422  0.1309
 4144ntf    nn323268   6.124   1.859   0.835 -0.1682  0.0986 -0.3881
 4144ntf    sn223269   6.142   1.794   0.693  0.3173 -0.0141 -0.2789
 4144ntf    cn123270   6.244   1.926   0.623  0.1037  0.4131  0.2051
 4144ntf    fn423271   6.001   1.625   0.934  0.7051  0.2436  0.2977
 4144ntf    fn423272   6.062   1.725   1.113  0.9132  0.0598 -0.2704
 4144ntf    fn423273   5.858   1.705   1.055  0.4432 -0.2719  0.1015
 4144ntf    on523274   5.867   1.899   0.849 -0.0092  0.2552  0.4896
 4144ntf    on523275   6.020   1.978   1.026  0.3103  0.3820 -0.0146
 4144ntf    on523276   6.027   1.789   0.606 -0.1296 -0.2338  0.3160
 4144ntf    on523277   6.225   1.677   0.681 -0.5058 -0.5820 -0.5103
 4144ntf    fn423278   6.272   1.916   0.494  0.5558 -0.4747  0.3662
 4144ntf    fn423279   6.199   2.044   0.662  0.2265  0.2632  0.8013
 4144ntf    fn423280   6.362   1.909   0.680  0.1879 -0.2716 -0.1667
 4145ntf    cn123281   7.058   6.946   2.425  0.5315 -0.2347 -0.1782
 4145ntf    sn223282   7.110   7.117   2.394  0.5024 -0.1168  0.4055
 4145ntf    nn323283   7.128   7.103   2.238 -0.3547 -0.4084  0.3269
 4145ntf    sn223284   7.105   7.211   2.127 -0.0949 -0.3472  0.3326
 4145ntf    cn123285   6.950   7.145   2.061 -0.0051  0.2112 -0.4539
 4145ntf    fn423286   7.004   6.936   2.545  0.3591 -0.1363 -0.2473
 4145ntf    fn423287   6.970   6.891   2.343  0.0467 -0.2000  0.3127
 4145ntf    fn423288   7.166   6.870   2.421  0.8425  0.2290 -0.7956
 4145ntf    on523289   6.994   7.190   2.439  0.2667 -0.4569  0.3563
 4145ntf    on523290   7.231   7.129   2.472  0.8136  0.4621 -0.1542
 4145ntf    on523291   7.198   7.192   2.018 -0.1312  0.4174  0.1601
 4145ntf    on523292   7.082   7.349   2.162 -0.1382 -0.2049 -0.2512
 4145ntf    fn423293   6.910   7.216   1.956 -0.0540  0.0810 -0.5240
 4145ntf    fn423294   6.963   7.016   2.034 -0.0300  0.0333  0.3587
 4145ntf    fn423295   6.849   7.154   2.146  0.1811 -0.1361 -0.1922
 4146ntf    cn123296   7.001   3.216   6.461  0.3805 -0.1530 -0.0203
 4146ntf    sn223297   7.016   3.162   6.634  0.2633 -0.0972  0.0075
 4146ntf    nn323298   6.893   3.064   6.645  0.5773 -0.4314  0.5965
 4146ntf    sn223299   6.751   3.093   6.706  0.4270  0.0954  0.0113
 4146ntf    cn123300   6.705   2.928   6.767 -0.4227  0.4257  0.2676
 4146ntf    fn423301   6.974   3.125   6.369  0.1782  0.2668 -0.3775
 4146ntf    fn423302   6.919   3.316   6.436  0.2853 -0.2337 -0.0257
 4146ntf    fn423303   7.120   3.259   6.422  0.3024  0.0344 -0.0516
 4146ntf    on523304   7.148   3.103   6.632  0.0657 -0.5654  0.6059
 4146ntf    on523305   7.015   3.281   6.714 -0.0625 -0.1365  0.0630
 4146ntf    on523306   6.648   3.131   6.613  0.0571 -0.5113  0.1660
 4146ntf    on523307   6.749   3.169   6.828 -0.3305  0.2318 -0.0860
 4146ntf    fn423308   6.789   2.890   6.861 -0.0388  0.3965 -0.0853
 4146ntf    fn423309   6.578   2.918   6.805 -0.4690 -0.3739 -0.0765
 4146ntf    fn423310   6.717   2.834   6.674 -0.0353  0.3215  0.4233
 4147ntf    cn123311   2.203   0.363   3.212  0.0138 -0.1486 -0.4790
 4147ntf    sn223312   2.072   0.238   3.216  0.0010 -0.1177  0.0876
 4147ntf    nn323313   1.994   0.260   3.082  0.6928  0.2307 -0.2638
 4147ntf    sn223314   1.873   0.187   3.014  0.2007  0.4351  0.3818
 4147ntf    cn123315   1.741   0.311   3.028 -0.1489  0.1549 -0.3700
 4147ntf    fn423316   2.152   0.479   3.173 -0.0828  0.0474  0.2230
 4147ntf    fn423317   2.258   0.374   3.332  0.7756 -0.3985 -0.7935
 4147ntf    fn423318   2.297   0.331   3.124 -0.1851  0.2889 -0.8553
 4147ntf    on523319   2.148   0.115   3.223  0.4610  0.1882  0.4985
 4147ntf    on523320   1.994   0.279   3.330  0.1504  0.1536  0.0908
 4147ntf    on523321   1.833   0.067   3.084  0.1286  0.4022  0.2852
 4147ntf    on523322   1.881   0.178   2.870 -0.3240 -0.1406  0.3801
 4147ntf    fn423323   1.747   0.388   3.135  0.2608 -0.6456  0.1966
 4147ntf    fn423324   1.741   0.398   2.929  0.5178 -0.1604 -0.6530
 4147ntf    fn423325   1.620   0.259   3.016 -0.2429  0.1742  0.4249
 4148ntf    cn123326   6.605   2.347   0.863 -0.1666  0.3968  0.0296
 4148ntf    sn223327   6.460   2.253   0.805  0.0212  0.1716 -0.0773
 4148ntf    nn323328   6.429   2.340   0.677  0.2222 -0.1056 -0.3161
 4148ntf    sn223329   6.482   2.333   0.530 -0.0148 -0.1834 -0.3982
 4148ntf    cn123330   6.355   2.232   0.448 -0.0281 -0.1549 -0.4124
 4148ntf    fn423331   6.575   2.475   0.872  0.3799  0.5246  0.0215
 4148ntf    fn423332   6.650   2.295   0.976  0.0934  0.5204 -0.0187
 4148ntf    fn423333   6.699   2.342   0.771  0.0604 -0.2610  0.2892
 4148ntf    on523334   6.510   2.122   0.772  0.5084  0.2071  0.5047
 4148ntf    on523335   6.363   2.266   0.911 -0.0295  0.2691 -0.1348
 4148ntf    on523336   6.601   2.253   0.513 -0.4280 -0.9662  0.3303
 4148ntf    on523337   6.461   2.463   0.470 -0.7169  0.0159  0.2697
 4148ntf    fn423338   6.327   2.275   0.326 -0.1363  0.2722 -0.2413
 4148ntf    fn423339   6.399   2.108   0.456  0.4073  0.0546  0.6112
 4148ntf    fn423340   6.240   2.233   0.514  0.2306  0.7143  0.0545
 4149ntf    cn123341   2.992   4.605   3.765  0.2883 -0.2598  0.1085
 4149ntf    sn223342   2.901   4.762   3.748  0.3398 -0.2354  0.0686
 4149ntf    nn323343   2.794   4.739   3.635  0.2767  0.5123 -0.0253
 4149ntf    sn223344   2.811   4.718   3.481 -0.2175  0.1870 -0.0383
 4149ntf    cn123345   2.746   4.549   3.462  0.2547 -0.0109  0.0873
 4149ntf    fn423346   3.079   4.594   3.864  0.4431  0.0143  0.0029
 4149ntf    fn423347   2.905   4.506   3.780  0.1399 -0.1767 -0.1775
 4149ntf    fn423348   3.052   4.573   3.652  0.4001 -0.3110  0.1826
 4149ntf    on523349   2.840   4.769   3.878  0.2065 -0.1962  0.0038
 4149ntf    on523350   3.004   4.857   3.713 -0.2620  0.1933 -0.5681
 4149ntf    on523351   2.943   4.702   3.426 -0.2024 -1.0008  0.3301
 4149ntf    on523352   2.713   4.790   3.403  0.1009  0.9038  0.2103
 4149ntf    fn423353   2.617   4.540   3.493  0.1467  0.1289 -0.3144
 4149ntf    fn423354   2.757   4.506   3.338 -0.4348  0.6700 -0.2206
 4149ntf    fn423355   2.798   4.456   3.540  0.0667 -0.0071  0.2194
 4150ntf    cn123356   4.589   2.626   3.293  0.0190  0.0728 -0.1544
 4150ntf    sn223357   4.416   2.610   3.344  0.0629  0.1217  0.0099
 4150ntf    nn323358   4.382   2.762   3.367  0.2695  0.1843 -0.1037
 4150ntf    sn223359   4.285   2.860   3.293 -0.3969 -0.3039  0.1097
 4150ntf    cn123360   4.123   2.796   3.346 -0.5335  0.4064  0.5629
 4150ntf    fn423361   4.598   2.699   3.183 -0.2848  0.2595 -0.0567
 4150ntf    fn423362   4.655   2.686   3.390  0.0478 -0.2017 -0.0022
 4150ntf    fn423363   4.652   2.511   3.274 -0.0357 -0.1108  0.7512
 4150ntf    on523364   4.352   2.540   3.236  0.2126  0.2360 -0.1523
 4150ntf    on523365   4.429   2.536   3.468 -0.1442  0.3846  0.1907
 4150ntf    on523366   4.275   2.858   3.149  0.0892 -0.1487  0.0722
 4150ntf    on523367   4.291   2.993   3.350  0.4104 -0.3226  0.0726
 4150ntf    fn423368   4.111   2.787   3.478 -0.5147 -0.0119  0.5352
 4150ntf    fn423369   4.018   2.862   3.300 -0.1595  0.8856  0.3836
 4150ntf    fn423370   4.087   2.676   3.304 -0.0848  0.3732  0.2659
 4151ntf    cn123371   4.946   2.056   2.655 -0.0363  0.0120 -0.0404
 4151ntf    sn223372   4.800   2.028   2.551  0.0314  0.1319 -0.1686
 4151ntf    nn323373   4.840   1.904   2.463  0.3971  0.2634 -0.1881
 4151ntf    sn223374   4.888   1.900   2.314  0.3082  0.1819 -0.2142
 4151ntf    cn123375   4.727   1.902   2.229  0.0752  0.0342  0.2192
 4151ntf    fn423376   4.965   1.961   2.745  0.0312  0.2894  0.2403
 4151ntf    fn423377   5.058   2.068   2.585  0.2779 -0.0441  0.4522
 4151ntf    fn423378   4.940   2.171   2.720  0.2644 -0.1387  0.2563
 4151ntf    on523379   4.699   1.990   2.647  0.6747 -0.6010  0.2267
 4151ntf    on523380   4.776   2.157   2.491  0.9393  0.3965  0.0237
 4151ntf    on523381   4.949   1.775   2.277  0.0662 -0.0896  0.2869
 4151ntf    on523382   4.946   2.022   2.264 -0.6313  0.6284 -0.2344
 4151ntf    fn423383   4.675   2.023   2.243 -0.7140 -0.2659 -0.0639
 4151ntf    fn423384   4.733   1.878   2.099  0.4481 -0.8584  0.3987
 4151ntf    fn423385   4.641   1.816   2.281 -0.6511  0.3243 -0.4673
 4152ntf    cn123386   2.189   4.554   3.025  0.0066  0.5327  0.3788
 4152ntf    sn223387   2.342   4.492   3.101 -0.2300 -0.1351  0.3125
 4152ntf    nn323388   2.443   4.536   2.989 -0.1577 -0.4269  0.2610
 4152ntf    sn223389   2.595   4.498   2.975 -0.0268  0.1411  0.1139
 4152ntf    cn123390   2.670   4.646   3.050 -0.1109  0.3150 -0.1466
 4152ntf    fn423391   2.075   4.512   3.078 -0.0924  0.0818 -0.1859
 4152ntf    fn423392   2.193   4.686   3.032  0.3847  0.5389  0.0638
 4152ntf    fn423393   2.179   4.524   2.897  0.2877  0.4731  0.3699
 4152ntf    on523394   2.344   4.558   3.229  0.3211  0.2430  0.1156
 4152ntf    on523395   2.321   4.349   3.105  0.3006 -0.2217  0.1496
 4152ntf    on523396   2.644   4.514   2.840 -0.0443  0.1928  0.1136
 4152ntf    on523397   2.639   4.383   3.050  0.3610  0.0948 -0.1812
 4152ntf    fn423398   2.641   4.665   3.178  0.1181  0.2383 -0.0828
 4152ntf    fn423399   2.802   4.653   3.052 -0.0835 -0.2609  0.1659
 4152ntf    fn423400   2.633   4.756   2.985  0.3016  0.5171 -0.0409
 4153ntf    cn123401   5.004   5.232   3.673 -0.3231  0.4224 -0.0499
 4153ntf    sn223402   4.944   5.177   3.836  0.0796  0.0740 -0.0186
 4153ntf    nn323403   4.820   5.270   3.856  0.0522  0.0433 -0.0466
 4153ntf    sn223404   4.811   5.374   3.973 -0.3803 -0.3573  0.2812
 4153ntf    cn123405   4.636   5.362   4.021 -0.3769 -0.3459  0.2967
 4153ntf    fn423406   5.123   5.184   3.639 -0.2938  0.1389  0.4385
 4153ntf    fn423407   4.925   5.203   3.571 -0.2068 -0.4263  0.0983
 4153ntf    fn423408   5.026   5.363   3.665 -0.2921  0.3984 -0.3659
 4153ntf    on523409   4.894   5.043   3.818 -0.4300  0.2338  0.2186
 4153ntf    on523410   5.060   5.185   3.922 -0.4441  0.1560  0.6804
 4153ntf    on523411   4.817   5.505   3.914 -0.3244 -0.3928  0.2076
 4153ntf    on523412   4.877   5.351   4.100  0.0847 -0.3059  0.0515
 4153ntf    fn423413   4.563   5.382   3.913  0.2169 -0.3040 -0.1030
 4153ntf    fn423414   4.598   5.247   4.074 -0.2927 -0.2193  0.6337
 4153ntf    fn423415   4.611   5.461   4.105 -0.1450 -0.0356  0.0051
 4154ntf    cn123416   3.824   5.307   2.904 -0.1928  0.1273  0.0816
 4154ntf    sn223417   3.707   5.178   2.958 -0.2983  0.0876 -0.2326
 4154ntf    nn323418   3.763   5.145   3.101 -0.1032 -0.1434 -0.3620
 4154ntf    sn223419   3.753   5.015   3.190 -0.0497 -0.0813 -0.2652
 4154ntf    cn123420   3.929   4.972   3.173 -0.0021  0.0517 -0.1048
 4154ntf    fn423421   3.767   5.373   2.804  0.3116  0.9496  0.3347
 4154ntf    fn423422   3.842   5.396   3.000 -0.8180  0.0024  0.3216
 4154ntf    fn423423   3.944   5.261   2.874 -0.2435  0.1429 -0.1534
 4154ntf    on523424   3.582   5.248   2.970 -0.5394 -0.4515  0.4850
 4154ntf    on523425   3.716   5.071   2.862  0.4094  0.1097 -0.1970
 4154ntf    on523426   3.678   4.903   3.138 -0.5620 -0.3655  1.0679
 4154ntf    on523427   3.734   5.036   3.331 -0.3007  0.7694 -0.4196
 4154ntf    fn423428   3.956   4.943   3.047  0.6850 -0.2383  0.1042
 4154ntf    fn423429   4.006   5.070   3.219 -0.1057  0.0928 -0.0191
 4154ntf    fn423430   3.953   4.871   3.255 -0.3776 -0.2547 -0.3697
 4155ntf    cn123431   5.546   1.359   4.400 -0.0593  0.0208  0.3925
 4155ntf    sn223432   5.654   1.478   4.315 -0.2789  0.0970  0.2212
 4155ntf    nn323433   5.775   1.386   4.276 -0.1576  0.2730  0.1808
 4155ntf    sn223434   5.797   1.320   4.135 -0.4280  0.3516  0.0995
 4155ntf    cn123435   5.933   1.426   4.076 -0.4662  0.3528  0.0137
 4155ntf    fn423436   5.502   1.264   4.319  0.8928 -0.2755  0.2100
 4155ntf    fn423437   5.608   1.308   4.505  0.4186 -0.0512  0.0796
 4155ntf    fn423438   5.445   1.420   4.460 -0.2037 -0.1222  0.2968
 4155ntf    on523439   5.569   1.541   4.217  0.2900  0.4060 -0.0773
 4155ntf    on523440   5.700   1.559   4.424 -0.0102  0.7838 -0.3975
 4155ntf    on523441   5.696   1.327   4.032  0.4514 -0.5157 -0.8523
 4155ntf    on523442   5.858   1.190   4.153  0.4395  0.8227  0.6391
 4155ntf    fn423443   5.985   1.398   3.958  0.3610 -0.3511  0.5236
 4155ntf    fn423444   5.898   1.553   4.076 -0.4541  0.3564 -0.3190
 4155ntf    fn423445   6.040   1.420   4.153 -0.4720  0.4121  0.0257
 4156ntf    cn123446   7.280   4.729   6.022  0.0858  0.0907  0.2105
 4156ntf    sn223447   7.185   4.620   6.132 -0.0247 -0.0379 -0.0108
 4156ntf    nn323448   7.260   4.644   6.268 -0.7384 -0.4595  0.4687
 4156ntf    sn223449   7.383   4.574   6.336  0.0150  0.3165 -0.0650
 4156ntf    cn123450   7.477   4.702   6.424 -0.0270 -0.0100  0.4545
 4156ntf    fn423451   7.258   4.699   5.895 -0.4995  0.3813  0.2420
 4156ntf    fn423452   7.249   4.856   6.038  0.3318  0.2508 -0.5576
 4156ntf    fn423453   7.411   4.729   6.040  0.0629  0.3534  0.3851
 4156ntf    on523454   7.054   4.678   6.115 -0.1163 -0.1161  0.3922
 4156ntf    on523455   7.185   4.483   6.086 -0.3670  0.0778 -0.3536
 4156ntf    on523456   7.485   4.537   6.240 -0.2848 -0.0746 -0.2361
 4156ntf    on523457   7.335   4.479   6.433 -0.0437 -0.2162 -0.6070
 4156ntf    fn423458   7.474   4.818   6.361 -0.2032 -0.5693 -0.5846
 4156ntf    fn423459   7.442   4.722   6.551  0.3781  0.3182  0.5156
 4156ntf    fn423460   7.605   4.672   6.433  0.2281  0.4783 -1.3414
 4157ntf    cn123461   5.697   4.452   1.863 -0.1419 -0.1705  0.3679
 4157ntf    sn223462   5.548   4.365   1.921 -0.2769 -0.0292  0.2379
 4157ntf    nn323463   5.438   4.473   1.892 -0.3363  0.0945  0.9078
 4157ntf    sn223464   5.353   4.563   1.989  0.0960  0.7363  0.6985
 4157ntf    cn123465   5.386   4.728   1.920  0.3372  0.2790 -0.3019
 4157ntf    fn423466   5.693   4.580   1.897 -0.0911  0.0806 -0.5355
 4157ntf    fn423467   5.804   4.402   1.922  0.3138 -0.0597 -0.3543
 4157ntf    fn423468   5.722   4.449   1.733  0.0285  0.4736  0.3806
 4157ntf    on523469   5.531   4.249   1.837 -0.5203  0.1473  0.0422
 4157ntf    on523470   5.578   4.333   2.059  0.0250  0.1694  0.2209
 4157ntf    on523471   5.402   4.570   2.124 -0.0861 -0.7150  0.8602
 4157ntf    on523472   5.211   4.543   1.971  0.2168 -0.0741  0.6222
 4157ntf    fn423473   5.331   4.823   1.993 -0.2294 -0.6867  0.5539
 4157ntf    fn423474   5.517   4.744   1.920  0.2836  0.7412 -0.0575
 4157ntf    fn423475   5.345   4.745   1.795  0.6643  0.4004 -0.3939
 4158ntf    cn123476   7.159   3.204   1.226 -0.1747 -0.2973 -0.2618
 4158ntf    sn223477   7.059   3.351   1.265  0.0396 -0.1939 -0.0985
 4158ntf    nn323478   7.144   3.471   1.211  0.2248 -0.3610 -0.1764
 4158ntf    sn223479   7.141   3.620   1.260 -0.0051 -0.3040 -0.3615
 4158ntf    cn123480   7.228   3.616   1.420  0.1224 -0.1698 -0.4266
 4158ntf    fn423481   7.123   3.094   1.291 -0.3336  0.0834  0.3029
 4158ntf    fn423482   7.153   3.181   1.096 -0.1991  0.3079 -0.3717
 4158ntf    fn423483   7.286   3.227   1.255 -0.1713 -0.2173 -0.3435
 4158ntf    on523484   6.940   3.325   1.188 -0.3051 -0.2734  0.4560
 4158ntf    on523485   7.037   3.346   1.408  0.1175 -0.3729 -0.0921
 4158ntf    on523486   7.010   3.670   1.291  0.2006  0.1901 -0.2850
 4158ntf    on523487   7.224   3.706   1.180  0.1263  0.2037  0.3134
 4158ntf    fn423488   7.256   3.740   1.456 -0.5836 -0.1355  0.0372
 4158ntf    fn423489   7.153   3.568   1.519  0.2771  0.3234 -0.0647
 4158ntf    fn423490   7.338   3.545   1.405  0.6934  0.4312  0.8197
 4159ntf    cn123491   2.605   4.487   1.003  0.1969 -0.2256  0.2508
 4159ntf    sn223492   2.458   4.433   0.911  0.1221  0.5048 -0.0598
 4159ntf    nn323493   2.519   4.389   0.773 -0.4759 -0.0617 -0.1465
 4159ntf    sn223494   2.556   4.250   0.709  0.3769  0.0610  0.0607
 4159ntf    cn123495   2.736   4.257   0.690  0.3628 -0.1167 -0.1413
 4159ntf    fn423496   2.561   4.565   1.100 -0.2909  0.3725 -0.4491
 4159ntf    fn423497   2.679   4.391   1.057  0.1323 -0.3324  0.1497
 4159ntf    fn423498   2.689   4.557   0.929  0.1775 -0.6726 -0.1997
 4159ntf    on523499   2.403   4.328   0.992  0.5696  0.0357 -0.3532
 4159ntf    on523500   2.380   4.552   0.886  0.2676  0.5110 -0.4934
 4159ntf    on523501   2.501   4.235   0.577 -0.1008 -0.3561  0.2996
 4159ntf    on523502   2.537   4.142   0.803 -0.1719 -0.3124 -0.4776
 4159ntf    fn423503   2.765   4.361   0.613  0.2253 -0.1950 -0.2981
 4159ntf    fn423504   2.804   4.280   0.801  0.1260 -0.2822  0.0391
 4159ntf    fn423505   2.788   4.152   0.629  0.4404 -0.1025 -0.1000
 4160ntf    cn123506   4.797   3.674   4.875 -0.2893  0.2995  0.1365
 4160ntf    sn223507   4.733   3.588   4.728  0.2798 -0.0884  0.1137
 4160ntf    nn323508   4.727   3.439   4.778 -0.6594 -0.2453 -0.4529
 4160ntf    sn223509   4.704   3.308   4.694 -0.2655 -0.4659 -0.2204
 4160ntf    cn123510   4.527   3.283   4.730 -0.2241 -0.2326  0.1462
 4160ntf    fn423511   4.752   3.798   4.877 -0.2647  0.3054  0.3441
 4160ntf    fn423512   4.745   3.624   4.986 -0.1062  0.1480  0.1546
 4160ntf    fn423513   4.928   3.662   4.887 -0.3510 -0.4254  0.1204
 4160ntf    on523514   4.611   3.659   4.702  0.3301 -0.0792 -0.0941
 4160ntf    on523515   4.848   3.610   4.644  0.4293 -0.0052  0.3367
 4160ntf    on523516   4.771   3.193   4.750  0.2515  0.2163  0.5917
 4160ntf    on523517   4.702   3.322   4.551  0.4212 -0.3704 -0.2240
 4160ntf    fn423518   4.478   3.183   4.660 -0.5750 -0.0549  0.1363
 4160ntf    fn423519   4.506   3.250   4.857 -0.8222 -0.1863  0.0619
 4160ntf    fn423520   4.453   3.391   4.715  0.4007  0.2163  0.2323
 4161ntf    cn123521   7.069   3.993   7.112 -0.5421  0.4107  0.1731
 4161ntf    sn223522   7.160   3.972   7.268 -0.1840 -0.0250 -0.0892
 4161ntf    nn323523   7.301   4.032   7.235 -0.0935  0.0430  0.4123
 4161ntf    sn223524   7.336   4.184   7.256  0.1923 -0.0056  0.2807
 4161ntf    cn123525   7.417   4.179   7.419  0.2024  0.4160  0.2892
 4161ntf    fn423526   6.938   4.000   7.126 -0.5250 -0.1425  0.6519
 4161ntf    fn423527   7.113   4.104   7.055  0.4388  0.0101  0.1355
 4161ntf    fn423528   7.092   3.890   7.032 -0.0561  0.3264  0.4185
 4161ntf    on523529   7.081   4.025   7.377  0.2942 -0.2657  0.3757
 4161ntf    on523530   7.182   3.830   7.270  0.3896  0.0670  0.4090
 4161ntf    on523531   7.226   4.274   7.276 -0.0503 -0.5120  1.2963
 4161ntf    on523532   7.446   4.218   7.168 -0.0444  0.0259 -0.0036
 4161ntf    fn423533   7.534   4.117   7.419  0.0565  0.1415  0.0136
 4161ntf    fn423534   7.448   4.299   7.465  0.5579  0.2549  0.4742
 4161ntf    fn423535   7.340   4.118   7.507  0.0567  0.3063  0.0873
 4162ntf    cn123536   6.876   6.088   2.491  0.3517  0.0917  0.2255
 4162ntf    sn223537   6.900   6.266   2.465  0.1617  0.0810 -0.0331
 4162ntf    nn323538   6.954   6.325   2.601  0.0594 -0.5261  0.2741
 4162ntf    sn223539   6.893   6.317   2.745 -0.2966  0.1599  0.1704
 4162ntf    cn123540   7.036   6.384   2.836  0.1147 -0.0349 -0.3263
 4162ntf    fn423541   6.845   6.028   2.377  0.5899  0.2790  0.0622
 4162ntf    fn423542   6.979   6.023   2.542  0.3716  0.2122  0.3390
 4162ntf    fn423543   6.771   6.056   2.566  0.2331  0.2951  0.1477
 4162ntf    on523544   6.992   6.276   2.354  0.0859  0.0551 -0.0972
 4162ntf    on523545   6.767   6.307   2.429  0.3054 -0.0412 -0.7072
 4162ntf    on523546   6.898   6.178   2.786 -0.1589  0.0384 -0.2519
 4162ntf    on523547   6.776   6.388   2.789 -0.8446 -0.4140 -0.3507
 4162ntf    fn423548   7.064   6.508   2.798  0.3912  0.0846  0.2621
 4162ntf    fn423549   7.016   6.389   2.967  0.6469  0.1334 -0.2511
 4162ntf    fn423550   7.148   6.317   2.818  0.4492  0.4194  0.0341
 4163ntf    cn123551   7.258   5.720   5.606 -0.1221 -0.0324  0.1217
 4163ntf    sn223552   7.390   5.629   5.519 -0.3308  0.0118 -0.2436
 4163ntf    nn323553   7.501   5.637   5.630  0.8143  0.1061 -1.3702
 4163ntf    sn223554   7.584   5.531   5.712 -0.3795  0.3531  0.2147
 4163ntf    cn123555   7.480   5.493   5.856 -0.3092 -0.1510  0.1337
 4163ntf    fn423556   7.276   5.851   5.620 -0.0740  0.0831 -0.9446
 4163ntf    fn423557   7.141   5.725   5.544 -0.0083 -0.1336 -0.1029
 4163ntf    fn423558   7.245   5.672   5.728 -0.0601  0.0137  0.1467
 4163ntf    on523559   7.342   5.497   5.488 -0.0059 -0.0686 -0.4092
 4163ntf    on523560   7.425   5.721   5.414  0.8778  0.1831  0.2872
 4163ntf    on523561   7.704   5.590   5.767 -0.3486 -0.1730  0.7222
 4163ntf    on523562   7.593   5.406   5.641  0.0287  0.7967 -0.5357
 4163ntf    fn423563   7.546   5.426   5.949  0.5464 -0.0031 -0.3599
 4163ntf    fn423564   7.445   5.605   5.918  0.7011  0.1763  0.1244
 4163ntf    fn423565   7.371   5.426   5.821 -0.4488  0.0436  0.1911
 4164ntf    cn123566   6.154   0.683   1.150  0.0784 -0.0803  0.3076
 4164ntf    sn223567   6.295   0.584   1.208  0.1163 -0.1150  0.1560
 4164ntf    nn323568   6.328   0.513   1.072 -0.5260  0.1387 -0.1372
 4164ntf    sn223569   6.296   0.369   1.018 -0.2226  0.0235 -0.0146
 4164ntf    cn123570   6.246   0.425   0.852  0.3102 -0.0865 -0.2124
 4164ntf    fn423571   6.048   0.613   1.112 -0.2175  0.2320  0.5569
 4164ntf    fn423572   6.114   0.762   1.248 -0.0257  0.5057 -0.2054
 4164ntf    fn423573   6.181   0.771   1.055  0.2535 -0.3775  0.0793
 4164ntf    on523574   6.400   0.678   1.238  0.1920 -0.1950  0.1432
 4164ntf    on523575   6.236   0.499   1.309  0.2707 -0.4668 -0.0472
 4164ntf    on523576   6.173   0.314   1.068 -0.1923 -0.2531 -0.2456
 4164ntf    on523577   6.414   0.287   1.008  0.0944  0.4486  0.1657
 4164ntf    fn423578   6.224   0.325   0.768  0.0836  0.0245 -0.2855
 4164ntf    fn423579   6.133   0.492   0.857  0.2733 -0.1710  0.0729
 4164ntf    fn423580   6.334   0.505   0.794  0.1683 -0.1768 -0.5601
 4165ntf    cn123581   5.197   0.682   2.203  0.3317 -0.0783  0.2407
 4165ntf    sn223582   5.105   0.806   2.108  0.3162 -0.2390  0.0435
 4165ntf    nn323583   4.970   0.797   2.189  0.1688 -0.2392 -0.1995
 4165ntf    sn223584   4.833   0.837   2.124 -0.0055 -0.0537  0.2794
 4165ntf    cn123585   4.746   0.679   2.100 -0.1283  0.0578  0.0023
 4165ntf    fn423586   5.321   0.721   2.227  0.1799  0.3029  0.4114
 4165ntf    fn423587   5.144   0.650   2.320  0.3089  0.0753  0.2717
 4165ntf    fn423588   5.221   0.570   2.136 -0.3003 -0.2101  0.2329
 4165ntf    on523589   5.173   0.930   2.137 -0.1650  0.0100  0.1217
 4165ntf    on523590   5.098   0.756   1.973 -0.0841 -0.1256  0.0189
 4165ntf    on523591   4.838   0.898   1.994 -0.2030  0.3949  0.4815
 4165ntf    on523592   4.741   0.909   2.210 -0.3421 -0.1766  0.0220
 4165ntf    fn423593   4.630   0.692   2.036 -0.2134 -0.4809  0.0497
 4165ntf    fn423594   4.823   0.597   2.031  0.2322 -0.0026  0.4759
 4165ntf    fn423595   4.714   0.618   2.213  0.1693 -0.4199 -0.1691
 4166ntf    cn123596   3.905   5.316   6.923  0.1749 -0.0485 -0.1773
 4166ntf    sn223597   3.871   5.397   6.764  0.0895  0.0804 -0.0939
 4166ntf    nn323598   3.731   5.335   6.732  0.2385 -0.3076  0.0077
 4166ntf    sn223599   3.585   5.392   6.736  0.4120  0.1248  0.2336
 4166ntf    cn123600   3.589   5.505   6.594  0.3519  0.0211  0.1492
 4166ntf    fn423601   4.023   5.345   6.974  0.3093  0.0304 -0.5326
 4166ntf    fn423602   3.818   5.358   7.014  0.8785  0.3650  0.3175
 4166ntf    fn423603   3.906   5.184   6.908  0.6233 -0.0465 -0.1516
 4166ntf    on523604   3.871   5.538   6.796 -0.3521  0.1136 -0.2345
 4166ntf    on523605   3.974   5.341   6.680  0.1767  0.0195  0.0540
 4166ntf    on523606   3.555   5.475   6.850 -0.1405  0.1935  0.0439
 4166ntf    on523607   3.489   5.287   6.714  0.0356  0.6113 -0.5121
 4166ntf    fn423608   3.512   5.611   6.613  0.2272 -0.0335 -0.0440
 4166ntf    fn423609   3.706   5.568   6.585  0.4652 -0.2168 -0.0641
 4166ntf    fn423610   3.555   5.446   6.480 -0.3376 -0.2947  0.5144
 4167ntf    cn123611   2.526   4.944   1.258  0.4332  0.1753  0.1314
 4167ntf    sn223612   2.510   5.087   1.146 -0.0454  0.0027 -0.0266
 4167ntf    nn323613   2.620   5.060   1.037  0.0255  0.6455 -0.1226
 4167ntf    sn223614   2.773   5.091   1.018  0.1279  0.3164  0.1338
 4167ntf    cn123615   2.770   5.148   0.845  0.0224  0.3313  0.1400
 4167ntf    fn423616   2.511   4.822   1.211  0.4235  0.1547  0.1873
 4167ntf    fn423617   2.649   4.942   1.306  0.4004  0.7105  0.2441
 4167ntf    fn423618   2.447   4.947   1.364 -0.0765  0.0822 -0.2366
 4167ntf    on523619   2.378   5.063   1.095  0.2883 -0.3777 -0.7228
 4167ntf    on523620   2.530   5.204   1.229  0.1316  0.1646 -0.2944
 4167ntf    on523621   2.862   4.978   1.013 -0.4288 -0.1347  0.4045
 4167ntf    on523622   2.820   5.212   1.082 -0.0364  0.7322 -0.5212
 4167ntf    fn423623   2.878   5.225   0.838  0.0106  0.3562  0.2322
 4167ntf    fn423624   2.783   5.046   0.762  0.0382 -0.1161  0.6882
 4167ntf    fn423625   2.670   5.223   0.803 -0.0592 -0.0430 -0.3340
 4168ntf    cn123626   1.340   4.430   3.138 -0.3875 -0.3417  0.2291
 4168ntf    sn223627   1.294   4.598   3.085  0.0431 -0.3218 -0.0828
 4168ntf    nn323628   1.275   4.659   3.229 -0.5525 -0.0556 -0.2740
 4168ntf    sn223629   1.149   4.652   3.323 -0.3040 -0.2764  0.0414
 4168ntf    cn123630   1.067   4.807   3.275 -0.2652 -0.1746  0.2994
 4168ntf    fn423631   1.421   4.372   3.052 -0.1205  0.6123 -0.1703
 4168ntf    fn423632   1.391   4.430   3.260 -0.3242  0.8086  0.2145
 4168ntf    fn423633   1.233   4.352   3.142  0.0901 -1.0057  0.0686
 4168ntf    on523634   1.416   4.645   3.024 -0.1651 -0.2875 -0.4770
 4168ntf    on523635   1.179   4.586   2.999 -0.3374  0.7187  0.2608
 4168ntf    on523636   1.192   4.662   3.461 -0.9640 -0.1689  0.2402
 4168ntf    on523637   1.053   4.553   3.283  0.0669 -0.4134 -0.5177
 4168ntf    fn423638   1.036   4.809   3.147 -0.0110  0.1910  0.2439
 4168ntf    fn423639   0.950   4.832   3.333 -0.0306  0.5005  0.4909
 4168ntf    fn423640   1.148   4.909   3.298 -0.3383 -0.0363 -0.0483
 4169ntf    cn123641   3.136   6.645   4.565 -0.1778  0.4222  0.4601
 4169ntf    sn223642   3.090   6.517   4.685 -0.2871  0.2001  0.1825
 4169ntf    nn323643   3.145   6.583   4.817  0.5627  0.7110 -0.4188
 4169ntf    sn223644   3.273   6.543   4.899 -0.0710 -0.2257  0.1337
 4169ntf    cn123645   3.239   6.379   4.970 -0.0429 -0.4524 -0.3697
 4169ntf    fn423646   3.264   6.676   4.568 -0.2325  0.6571  0.4193
 4169ntf    fn423647   3.107   6.624   4.437  0.9242  0.0310  0.2662
 4169ntf    fn423648   3.077   6.759   4.597 -0.1439  0.4867  0.2951
 4169ntf    on523649   2.945   6.522   4.684 -0.3113 -0.4843 -0.2409
 4169ntf    on523650   3.150   6.396   4.635  0.2726  0.3813  0.4157
 4169ntf    on523651   3.297   6.631   5.010  0.3785  0.4363 -0.4827
 4169ntf    on523652   3.385   6.535   4.809 -0.5946  0.2810 -0.5790
 4169ntf    fn423653   3.124   6.376   5.035  0.1407  0.2449  0.0081
 4169ntf    fn423654   3.240   6.278   4.885 -1.0780 -0.1455 -0.7620
 4169ntf    fn423655   3.328   6.342   5.061  0.0591 -0.1337 -0.3377
 4170ntf    cn123656   7.136   7.036   0.619 -0.1426 -0.3633 -0.1386
 4170ntf    sn223657   7.147   6.896   0.735 -0.2992 -0.1676  0.1174
 4170ntf    nn323658   7.287   6.840   0.689 -0.2822 -0.0535  0.0293
 4170ntf    sn223659   7.342   6.700   0.734 -0.1588  0.0824  0.2973
 4170ntf    cn123660   7.369   6.624   0.572 -0.2073  0.2066  0.2304
 4170ntf    fn423661   7.109   7.010   0.493  0.1103  0.6048 -0.4061
 4170ntf    fn423662   7.056   7.135   0.659  0.1535 -0.2441  0.1632
 4170ntf    fn423663   7.247   7.108   0.624 -0.3605 -0.0312  0.0474
 4170ntf    on523664   7.145   6.960   0.864 -0.7519  0.9434 -0.4295
 4170ntf    on523665   7.038   6.810   0.697 -0.7747  0.0968  0.8787
 4170ntf    on523666   7.261   6.607   0.807  0.1979 -0.0170  0.5705
 4170ntf    on523667   7.479   6.712   0.778 -0.1048 -0.5166  0.2961
 4170ntf    fn423668   7.452   6.691   0.493 -0.4570 -0.0874 -0.2891
 4170ntf    fn423669   7.409   6.498   0.571 -0.1976  0.2106 -0.4532
 4170ntf    fn423670   7.261   6.615   0.496 -0.2515  0.4044  0.2706
 4171ntf    cn123671   6.540   1.998   4.704 -0.0473  0.6519 -0.5463
 4171ntf    sn223672   6.406   1.877   4.688  0.4376  0.0718 -0.2656
 4171ntf    nn323673   6.437   1.783   4.810 -0.3534  0.1928  0.0357
 4171ntf    sn223674   6.394   1.634   4.832 -0.1947  0.1528  0.0815
 4171ntf    cn123675   6.533   1.540   4.763  0.1670  0.6481  0.1316
 4171ntf    fn423676   6.520   2.073   4.597 -0.2394  0.4818 -0.6291
 4171ntf    fn423677   6.540   2.083   4.806 -0.0633 -0.3988  0.3586
 4171ntf    fn423678   6.659   1.941   4.697 -0.1126  0.5147 -0.5549
 4171ntf    on523679   6.287   1.953   4.717  0.1553 -0.4231 -0.1012
 4171ntf    on523680   6.418   1.839   4.549 -0.6443 -0.3817 -0.2467
 4171ntf    on523681   6.277   1.590   4.759  0.1457 -0.2408 -0.2331
 4171ntf    on523682   6.387   1.617   4.975  0.0283  0.6854  0.1573
 4171ntf    fn423683   6.650   1.601   4.762  0.4382  0.1311 -0.4656
 4171ntf    fn423684   6.558   1.426   4.825  0.2805  0.1751 -0.7636
 4171ntf    fn423685   6.505   1.499   4.640 -0.3152  0.0601  0.4321
 4172ntf    cn123686   4.062   6.799   4.320  0.0828  0.0478  0.1823
 4172ntf    sn223687   3.988   6.750   4.479  0.1336 -0.2316  0.1198
 4172ntf    nn323688   3.960   6.888   4.549 -0.3710 -0.4433  0.3365
 4172ntf    sn223689   3.828   6.971   4.568 -0.1967 -0.1134  0.1157
 4172ntf    cn123690   3.896   7.139   4.574  0.6345 -0.4273 -0.2958
 4172ntf    fn423691   4.163   6.883   4.339 -0.0486  0.2003  0.2113
 4172ntf    fn423692   4.096   6.710   4.228  0.3064 -0.1420  0.4489
 4172ntf    fn423693   3.981   6.879   4.252  0.2274  0.4622  0.4920
 4172ntf    on523694   3.870   6.675   4.448 -0.1764  0.1744  0.3118
 4172ntf    on523695   4.093   6.678   4.548  0.0299 -0.6526 -0.1588
 4172ntf    on523696   3.771   6.950   4.699 -0.5721  0.2812  0.0149
 4172ntf    on523697   3.740   6.969   4.455 -0.2903 -0.1812  0.1896
 4172ntf    fn423698   4.021   7.132   4.615  0.5083  0.3124  0.2448
 4172ntf    fn423699   3.895   7.211   4.462  0.3183 -0.2268 -0.1664
 4172ntf    fn423700   3.832   7.215   4.661  0.6762 -0.2484 -0.4191
 4173ntf    cn123701   6.382   1.226   1.942 -0.1308 -0.0310  0.0010
 4173ntf    sn223702   6.398   1.266   1.765 -0.1624  0.1480  0.0392
 4173ntf    nn323703   6.553   1.277   1.746 -0.1955 -0.2283 -0.4561
 4173ntf    sn223704   6.661   1.181   1.684  0.1378  0.0383 -0.2983
 4173ntf    cn123705   6.793   1.194   1.808 -0.2731 -0.1951  0.1679
 4173ntf    fn423706   6.259   1.191   1.974 -0.2038  0.2837  0.0667
 4173ntf    fn423707   6.476   1.138   1.973 -0.5646 -0.3029  0.5624
 4173ntf    fn423708   6.409   1.329   2.020 -0.4380 -0.2757  0.4356
 4173ntf    on523709   6.328   1.164   1.692  0.0297  0.3630 -0.4500
 4173ntf    on523710   6.345   1.400   1.753  0.4529  0.3105 -0.9762
 4173ntf    on523711   6.716   1.243   1.566 -0.1996 -0.0329 -0.4976
 4173ntf    on523712   6.631   1.040   1.677  0.0847 -0.0167  0.9707
 4173ntf    fn423713   6.727   1.203   1.922 -0.7185 -0.4526 -0.0611
 4173ntf    fn423714   6.870   1.086   1.807 -0.3596 -0.2572  0.1556
 4173ntf    fn423715   6.879   1.293   1.799 -0.4498 -0.0319  0.2783
 4174ntf    cn123716   1.455   4.430   4.484 -0.0556  0.1301  0.4107
 4174ntf    sn223717   1.379   4.274   4.538 -0.1671  0.0792  0.1125
 4174ntf    nn323718   1.306   4.231   4.406 -0.1284 -0.8340  0.3831
 4174ntf    sn223719   1.377   4.178   4.276  0.1145  0.0036  0.1709
 4174ntf    cn123720   1.379   3.999   4.309  0.2041  0.0067  0.1833
 4174ntf    fn423721   1.564   4.417   4.410 -0.2518  0.2448  0.0938
 4174ntf    fn423722   1.375   4.503   4.407 -0.1529  0.1420  0.5232
 4174ntf    fn423723   1.482   4.512   4.584 -0.0618  0.1688  0.3814
 4174ntf    on523724   1.478   4.183   4.592  0.3241  0.4351 -0.1727
 4174ntf    on523725   1.280   4.322   4.631  0.0416  0.1073  0.3211
 4174ntf    on523726   1.514   4.220   4.262 -0.0741  0.6527  0.2010
 4174ntf    on523727   1.300   4.202   4.156  0.0771  0.0753  0.2087
 4174ntf    fn423728   1.264   3.950   4.350 -0.0936  0.1211 -0.5019
 4174ntf    fn423729   1.415   3.945   4.193  0.4047  0.3559  0.0774
 4174ntf    fn423730   1.470   3.962   4.397  1.0049  0.3473 -0.4869
 4175ntf    cn123731   3.500   1.720   5.211  0.1661  0.1869  0.3220
 4175ntf    sn223732   3.542   1.884   5.146  0.0715 -0.0336 -0.3004
 4175ntf    nn323733   3.429   1.965   5.219 -0.0034 -0.3191 -0.1008
 4175ntf    sn223734   3.299   2.036   5.169  0.0400 -0.4324 -0.3713
 4175ntf    cn123735   3.180   1.981   5.296  0.0886  0.3229  0.0021
 4175ntf    fn423736   3.371   1.696   5.193  0.1714  0.7563 -0.5292
 4175ntf    fn423737   3.568   1.624   5.149  0.2761  0.4510  0.0347
 4175ntf    fn423738   3.522   1.706   5.341  0.2369  0.1345  0.3042
 4175ntf    on523739   3.671   1.908   5.206  0.1638 -0.7505 -0.2004
 4175ntf    on523740   3.526   1.867   5.003 -0.4366 -0.1219 -0.2331
 4175ntf    on523741   3.239   1.981   5.049 -0.4471  0.3235 -0.4796
 4175ntf    on523742   3.302   2.179   5.184 -0.1945 -0.4641 -0.0063
 4175ntf    fn423743   3.228   2.007   5.416 -0.4142 -0.3148  0.3452
 4175ntf    fn423744   3.065   2.045   5.288  0.0082  0.1481 -0.2343
 4175ntf    fn423745   3.149   1.853   5.300 -0.2044  0.3901 -0.1353
 4176ntf    cn123746   0.044   0.613   6.935  0.2434  0.4665 -0.0273
 4176ntf    sn223747   0.142   0.498   6.834 -0.0667  0.1884 -0.0143
 4176ntf    nn323748   0.276   0.512   6.914 -0.2806  0.4740  0.2939
 4176ntf    sn223749   0.338   0.418   7.023 -0.0121  0.0570 -0.2132
 4176ntf    cn123750   0.408   0.283   6.923  0.4781 -0.0645  0.2876
 4176ntf    fn423751   0.083   0.739   6.923  0.1989  0.4711 -0.1264
 4176ntf    fn423752  -0.087   0.605   6.917  0.3526 -0.7752 -0.4177
 4176ntf    fn423753   0.063   0.584   7.062  0.3769 -0.5117 -0.2626
 4176ntf    on523754   0.084   0.367   6.849 -0.1748  0.1569 -0.6725
 4176ntf    on523755   0.147   0.552   6.700  0.1993  0.9481  0.3001
 4176ntf    on523756   0.247   0.349   7.111 -0.2714  0.7597  0.0751
 4176ntf    on523757   0.457   0.473   7.081 -0.0181 -0.3112  0.1554
 4176ntf    fn423758   0.501   0.326   6.840  0.3896  0.2161  0.3301
 4176ntf    fn423759   0.465   0.190   6.997  0.2488 -0.2509  0.2309
 4176ntf    fn423760   0.320   0.225   6.843  0.1738  0.6090  0.1232
 4177ntf    cn123761   2.663   2.499   0.695 -0.2392 -0.3198 -0.4059
 4177ntf    sn223762   2.561   2.644   0.654 -0.1632 -0.2137 -0.2219
 4177ntf    nn323763   2.488   2.590   0.526 -0.7736  0.2132 -0.0571
 4177ntf    sn223764   2.500   2.613   0.371  0.2410 -0.0407 -0.0196
 4177ntf    cn123765   2.597   2.468   0.319  0.1751  0.0259 -0.3286
 4177ntf    fn423766   2.645   2.442   0.813 -1.1951  0.3218 -0.2332
 4177ntf    fn423767   2.647   2.402   0.607  0.4831 -0.5875 -0.2464
 4177ntf    fn423768   2.790   2.533   0.690 -0.2190 -0.0958  1.0414
 4177ntf    on523769   2.474   2.664   0.767  0.2198 -0.1001  0.0534
 4177ntf    on523770   2.653   2.752   0.634  0.2540 -0.6266 -0.5611
 4177ntf    on523771   2.564   2.736   0.330 -0.0573  0.1430  0.0666
 4177ntf    on523772   2.379   2.573   0.305  0.0399 -0.5216  0.6287
 4177ntf    fn423773   2.637   2.477   0.193  0.4814 -0.0921 -0.2406
 4177ntf    fn423774   2.712   2.468   0.383 -0.0138  0.0785  0.0122
 4177ntf    fn423775   2.546   2.347   0.334  0.0103  0.0363 -0.7958
 4178ntf    cn123776   3.593   2.699   5.444  0.0311 -0.5038  0.3967
 4178ntf    sn223777   3.674   2.660   5.286 -0.2618 -0.0463  0.1291
 4178ntf    nn323778   3.689   2.810   5.244 -0.2304  0.0542  0.4975
 4178ntf    sn223779   3.611   2.909   5.151  0.2950 -0.2209 -0.2463
 4178ntf    cn123780   3.584   3.055   5.256 -0.0129 -0.2177 -0.3273
 4178ntf    fn423781   3.464   2.718   5.423  0.0710  0.1935  0.7296
 4178ntf    fn423782   3.597   2.601   5.532  0.6399 -0.8376  0.0044
 4178ntf    fn423783   3.642   2.806   5.505 -0.2670 -0.4606  0.5594
 4178ntf    on523784   3.791   2.589   5.333 -0.2266 -0.3003 -0.3301
 4178ntf    on523785   3.581   2.577   5.214  0.3520 -0.2930 -0.3891
 4178ntf    on523786   3.478   2.870   5.109  0.1820  0.1373 -0.2264
 4178ntf    on523787   3.693   2.965   5.046 -0.1842  0.5889 -0.1995
 4178ntf    fn423788   3.696   3.109   5.303 -0.2263 -0.4628  0.4707
 4178ntf    fn423789   3.533   3.148   5.177 -0.1610 -0.4471 -0.5010
 4178ntf    fn423790   3.495   3.044   5.353  0.0436  0.3796 -0.2034
 4179ntf    cn123791   3.396   5.733   3.594  0.1183 -0.0738 -0.1265
 4179ntf    sn223792   3.513   5.846   3.674 -0.0380 -0.0708  0.0986
 4179ntf    nn323793   3.413   5.941   3.748  0.0767 -0.0974  0.2881
 4179ntf    sn223794   3.416   6.098   3.747 -0.6197 -0.0838 -0.1265
 4179ntf    cn123795   3.335   6.148   3.592 -0.4086  0.1204 -0.1716
 4179ntf    fn423796   3.314   5.796   3.511  0.0197  0.4558  0.3710
 4179ntf    fn423797   3.447   5.632   3.525  0.0582 -0.1048 -0.1267
 4179ntf    fn423798   3.318   5.686   3.691  0.0797 -0.2699 -0.2510
 4179ntf    on523799   3.590   5.763   3.763 -0.0736  0.2616  0.4397
 4179ntf    on523800   3.580   5.904   3.560 -0.0329 -0.0963  0.0888
 4179ntf    on523801   3.548   6.155   3.735 -0.5906 -0.2697 -0.7250
 4179ntf    on523802   3.337   6.153   3.854 -0.0920  0.2816  0.0821
 4179ntf    fn423803   3.209   6.110   3.595 -0.3352 -0.1492 -0.4036
 4179ntf    fn423804   3.329   6.280   3.583 -0.5680  0.1026 -0.3182
 4179ntf    fn423805   3.391   6.102   3.481  0.1412 -0.2623  0.2615
 4180ntf    cn123806   6.835   2.382   1.279 -0.0814  0.4731  0.0227
 4180ntf    sn223807   6.752   2.291   1.413 -0.2918  0.0940 -0.3652
 4180ntf    nn323808   6.853   2.312   1.531 -0.1379  0.4116 -0.5505
 4180ntf    sn223809   6.858   2.422   1.643 -0.1382  0.0607 -0.2029
 4180ntf    cn123810   6.828   2.323   1.793  0.1073 -0.1692 -0.3055
 4180ntf    fn423811   6.872   2.505   1.314  0.0971  0.4740 -0.1665
 4180ntf    fn423812   6.942   2.329   1.223 -0.3277 -0.5171  0.4657
 4180ntf    fn423813   6.748   2.391   1.180 -0.0726  0.2479 -0.0049
 4180ntf    on523814   6.628   2.363   1.428 -0.1917  0.0872  0.5333
 4180ntf    on523815   6.747   2.156   1.362 -0.2064  0.2685 -0.8435
 4180ntf    on523816   6.757   2.525   1.646  0.0440  0.2342  0.0175
 4180ntf    on523817   6.993   2.467   1.665 -0.3680  0.5317  0.2577
 4180ntf    fn423818   6.738   2.230   1.766 -0.2263  0.1610 -0.3341
 4180ntf    fn423819   6.934   2.253   1.828 -0.1647 -0.3648  0.1332
 4180ntf    fn423820   6.785   2.386   1.901  0.2824  0.1400 -0.4166
 4181ntf    cn123821   5.536   2.230   5.148 -0.4438 -0.2022 -0.5301
 4181ntf    sn223822   5.648   2.226   5.004  0.1724  0.2382 -0.0682
 4181ntf    nn323823   5.614   2.361   4.932 -0.0013  0.1994 -0.0606
 4181ntf    sn223824   5.703   2.445   4.833 -0.1989  0.3952 -0.0711
 4181ntf    cn123825   5.646   2.610   4.882  0.0363  0.4381  0.0552
 4181ntf    fn423826   5.415   2.196   5.106 -0.6641  0.0240 -0.0874
 4181ntf    fn423827   5.571   2.137   5.235 -0.2688  0.0810 -0.2945
 4181ntf    fn423828   5.522   2.343   5.215  0.6593 -0.3334 -0.0651
 4181ntf    on523829   5.778   2.215   5.067 -0.0702  0.3626  0.4620
 4181ntf    on523830   5.617   2.109   4.925 -0.3105  0.2308  0.1263
 4181ntf    on523831   5.657   2.448   4.696 -0.2985  0.7880 -0.0309
 4181ntf    on523832   5.845   2.440   4.853 -0.0479  0.3672 -1.0818
 4181ntf    fn423833   5.645   2.701   4.785  0.1633  0.0370 -0.3236
 4181ntf    fn423834   5.527   2.612   4.939  0.2738 -0.6432  0.6213
 4181ntf    fn423835   5.726   2.660   4.975  0.3469 -0.7009  0.4165
 4182ntf    cn123836   0.907   3.016   2.893  0.3286  0.2350  0.5499
 4182ntf    sn223837   0.739   3.077   2.862  0.2501 -0.1107  0.2926
 4182ntf    nn323838   0.676   2.961   2.777  0.4200  0.2051 -0.2642
 4182ntf    sn223839   0.641   2.954   2.624 -0.4025 -0.0737 -0.0707
 4182ntf    cn123840   0.727   2.799   2.581 -0.1196  0.1709 -0.3916
 4182ntf    fn423841   0.989   3.101   2.953  0.1956  0.2762  0.6740
 4182ntf    fn423842   0.902   2.909   2.970 -0.1382 -0.0476  0.1304
 4182ntf    fn423843   0.967   2.991   2.778 -0.1046 -0.6824  0.5175
 4182ntf    on523844   0.679   3.076   2.994  0.3682 -0.3097  0.3448
 4182ntf    on523845   0.758   3.205   2.799 -0.1977 -0.3295 -0.2936
 4182ntf    on523846   0.705   3.044   2.531 -0.2197 -0.5557 -0.4203
 4182ntf    on523847   0.499   2.934   2.609 -0.5436  0.5488  0.4007
 4182ntf    fn423848   0.859   2.802   2.591 -0.1660  0.2652  0.1969
 4182ntf    fn423849   0.685   2.696   2.652  0.2917 -0.0732 -0.4961
 4182ntf    fn423850   0.694   2.766   2.457 -0.6493 -0.5033 -0.0739
 4183ntf    cn123851   0.189   5.864   6.391 -0.2654  0.1208 -0.1059
 4183ntf    sn223852   0.122   6.032   6.411 -0.3019  0.0673  0.2233
 4183ntf    nn323853   0.029   6.027   6.537 -0.1924  0.5187  0.3249
 4183ntf    sn223854  -0.127   6.015   6.541 -0.1638 -0.0089 -0.0548
 4183ntf    cn123855  -0.154   6.029   6.720 -0.5829 -0.1712 -0.1034
 4183ntf    fn423856   0.274   5.853   6.290 -0.8165 -0.2107 -0.5417
 4183ntf    fn423857   0.250   5.820   6.500 -0.2766 -0.1280 -0.1991
 4183ntf    fn423858   0.096   5.777   6.356  0.0735  0.1436 -1.1019
 4183ntf    on523859   0.241   6.110   6.438 -0.2480  0.0674 -0.0134
 4183ntf    on523860   0.056   6.058   6.286 -0.1166  0.3268  0.1784
 4183ntf    on523861  -0.178   5.882   6.518  0.5434 -0.4509  0.8967
 4183ntf    on523862  -0.201   6.128   6.491  0.2718  0.3554  0.1183
 4183ntf    fn423863  -0.109   6.145   6.764  0.0006 -0.4589  0.0729
 4183ntf    fn423864  -0.282   6.022   6.751 -0.5245  0.3465  0.2642
 4183ntf    fn423865  -0.096   5.935   6.793 -0.0798  0.3632  0.1909
 4184ntf    cn123866   0.548   0.628   6.538  0.0804 -0.1234  0.3715
 4184ntf    sn223867   0.536   0.747   6.402  0.0262 -0.3408  0.1861
 4184ntf    nn323868   0.622   0.685   6.287 -0.4489 -0.1972 -0.2538
 4184ntf    sn223869   0.644   0.742   6.142  0.0760 -0.3456 -0.2371
 4184ntf    cn123870   0.793   0.843   6.158 -0.1997  0.0041  0.1446
 4184ntf    fn423871   0.529   0.503   6.499 -0.1833  0.0504 -0.0616
 4184ntf    fn423872   0.666   0.630   6.599  0.2059  0.4322  0.1181
 4184ntf    fn423873   0.461   0.649   6.636 -0.0617  0.0249  0.2125
 4184ntf    on523874   0.392   0.747   6.386  0.0165 -0.2822  0.2743
 4184ntf    on523875   0.605   0.865   6.449 -0.4132  0.1082 -0.2769
 4184ntf    on523876   0.540   0.829   6.091  0.1471 -0.1082  0.0251
 4184ntf    on523877   0.689   0.637   6.054  0.1667  0.0666 -0.6877
 4184ntf    fn423878   0.885   0.782   6.231  0.1449 -0.0743 -0.3475
 4184ntf    fn423879   0.852   0.870   6.042 -0.3825 -0.0267  0.0453
 4184ntf    fn423880   0.768   0.960   6.215 -0.5385 -0.0274  0.0625
 4185ntf    cn123881   1.800   1.513   3.309 -0.4928  0.2888  0.1288
 4185ntf    sn223882   1.717   1.391   3.415 -0.1390 -0.0951 -0.0373
 4185ntf    nn323883   1.829   1.281   3.429  0.1264  0.1673 -0.0939
 4185ntf    sn223884   1.933   1.272   3.546 -0.0994 -0.1288  0.0842
 4185ntf    cn123885   1.899   1.097   3.579 -0.0035 -0.1633 -0.0003
 4185ntf    fn423886   1.820   1.456   3.192 -0.0855  0.2144  0.2341
 4185ntf    fn423887   1.720   1.616   3.282 -0.3441  0.3261 -0.1831
 4185ntf    fn423888   1.916   1.552   3.358 -0.1688 -0.0745 -0.3383
 4185ntf    on523889   1.686   1.472   3.530 -0.1790  0.1589 -0.2257
 4185ntf    on523890   1.609   1.339   3.334 -0.3358  0.2922 -0.0248
 4185ntf    on523891   1.913   1.342   3.671  0.1160 -0.4463  0.2976
 4185ntf    on523892   2.064   1.268   3.486  0.0618  0.4278  0.3949
 4185ntf    fn423893   1.772   1.068   3.603 -0.0531  0.2266  0.2106
 4185ntf    fn423894   1.931   1.018   3.477  0.1486 -0.2192  0.0909
 4185ntf    fn423895   1.970   1.048   3.679  0.4237 -0.4355 -0.4321
 4186ntf    cn123896   4.819   2.767   1.034  0.0187 -0.3438  0.4949
 4186ntf    sn223897   4.643   2.757   0.989  0.1209  0.3174 -0.0688
 4186ntf    nn323898   4.584   2.677   1.110  0.3250  0.2742  0.0037
 4186ntf    sn223899   4.593   2.523   1.138 -0.2244  0.1951 -0.2192
 4186ntf    cn123900   4.426   2.469   1.093 -0.2978  0.2262  0.0124
 4186ntf    fn423901   4.828   2.835   1.148 -0.1062 -0.5470  0.6257
 4186ntf    fn423902   4.872   2.647   1.049  0.3686 -0.2542 -0.0023
 4186ntf    fn423903   4.905   2.820   0.949 -0.6386  0.0367  0.0605
 4186ntf    on523904   4.610   2.897   0.986 -0.3208  0.2322  0.7583
 4186ntf    on523905   4.642   2.689   0.861  0.2602  0.3954 -0.1111
 4186ntf    on523906   4.595   2.496   1.280  0.0689  0.1528 -0.2308
 4186ntf    on523907   4.678   2.440   1.056  0.1071  0.1996  0.1121
 4186ntf    fn423908   4.400   2.341   1.115  0.6761  0.0919  0.4447
 4186ntf    fn423909   4.333   2.530   1.164 -0.3758 -0.2276  0.3034
 4186ntf    fn423910   4.395   2.481   0.965 -0.4611  0.1166  0.0406
 4187ntf    cn123911   1.553   7.246   2.834 -0.3070 -0.1380 -0.2245
 4187ntf    sn223912   1.538   7.216   2.656 -0.0294 -0.1196 -0.2517
 4187ntf    nn323913   1.494   7.065   2.647 -0.3675 -0.0321 -0.0829
 4187ntf    sn223914   1.483   6.952   2.539  0.1074  0.1379 -0.3133
 4187ntf    cn123915   1.305   6.918   2.557  0.1351 -0.2337 -0.7521
 4187ntf    fn423916   1.443   7.232   2.906 -0.0317  0.1306  0.2571
 4187ntf    fn423917   1.640   7.165   2.892 -0.4648 -0.2241 -0.1064
 4187ntf    fn423918   1.602   7.367   2.856  0.1210 -0.3721  0.1386
 4187ntf    on523919   1.445   7.316   2.609  0.1372  0.0347 -0.2504
 4187ntf    on523920   1.672   7.242   2.610 -0.3384  0.6451 -0.7480
 4187ntf    on523921   1.543   6.832   2.592 -0.4706  0.2345  0.5935
 4187ntf    on523922   1.503   6.982   2.400  0.1672 -0.1422 -0.3656
 4187ntf    fn423923   1.276   6.902   2.684  0.1276  0.6140 -0.6430
 4187ntf    fn423924   1.226   7.013   2.512  0.0234 -0.0001 -0.0627
 4187ntf    fn423925   1.262   6.816   2.484  0.0728 -0.3011 -0.6213
 4188ntf    cn123926   4.352   6.812   5.306  0.6917  0.0709  0.0601
 4188ntf    sn223927   4.314   6.643   5.359  0.0528  0.0424 -0.4794
 4188ntf    nn323928   4.398   6.653   5.491 -0.1767 -0.1753 -0.3154
 4188ntf    sn223929   4.537   6.588   5.524 -0.1987 -0.0285  0.0711
 4188ntf    cn123930   4.477   6.427   5.583  0.0117 -0.1850 -0.1411
 4188ntf    fn423931   4.463   6.856   5.362  0.5451 -0.2268  0.5889
 4188ntf    fn423932   4.359   6.835   5.176 -0.2110 -0.2749 -0.0575
 4188ntf    fn423933   4.262   6.899   5.351  0.1835 -0.3515 -0.1383
 4188ntf    on523934   4.172   6.653   5.381  0.1332  0.2499 -0.0664
 4188ntf    on523935   4.357   6.555   5.253  0.5364  0.1435 -0.3691
 4188ntf    on523936   4.605   6.649   5.635  0.6399  0.5943 -0.7666
 4188ntf    on523937   4.619   6.563   5.408 -0.6722  0.1431 -0.3024
 4188ntf    fn423938   4.398   6.368   5.494  0.2819 -0.0585 -0.4663
 4188ntf    fn423939   4.561   6.335   5.627  0.3181  0.1602 -0.0049
 4188ntf    fn423940   4.400   6.458   5.686 -0.0119  0.0730 -0.2379
 4189ntf    cn123941   1.497   2.741   0.759  0.1019  0.0137 -0.0799
 4189ntf    sn223942   1.402   2.894   0.735  0.3114  0.1329 -0.1547
 4189ntf    nn323943   1.270   2.872   0.818  0.0206  0.6832 -0.4662
 4189ntf    sn223944   1.256   2.897   0.972 -0.2469 -0.1222 -0.3548
 4189ntf    cn123945   1.155   3.048   0.963 -0.0004  0.0780  0.1847
 4189ntf    fn423946   1.621   2.754   0.714  0.2319  0.3529  0.3656
 4189ntf    fn423947   1.503   2.712   0.888 -0.5347 -0.0837 -0.0674
 4189ntf    fn423948   1.449   2.633   0.699  0.1540  0.4698 -0.9542
 4189ntf    on523949   1.483   3.002   0.785 -0.1606  0.4590 -0.0931
 4189ntf    on523950   1.370   2.906   0.595 -0.8048 -0.0831  0.0671
 4189ntf    on523951   1.373   2.936   1.046 -0.5100  0.2562 -0.1347
 4189ntf    on523952   1.172   2.799   1.036 -0.3933  0.0110 -0.3429
 4189ntf    fn423953   1.033   3.018   0.923  0.0566  0.6291 -0.4307
 4189ntf    fn423954   1.141   3.105   1.082  0.0909  0.1411  0.1652
 4189ntf    fn423955   1.216   3.133   0.882 -0.7292  0.2596 -0.1809
 4190ntf    cn123956   3.203   6.902   6.817  0.2054 -0.2812 -0.0821
 4190ntf    sn223957   3.067   7.023   6.815  0.1105 -0.3863 -0.0006
 4190ntf    nn323958   3.088   7.085   6.958  0.2198 -0.0867 -0.1459
 4190ntf    sn223959   3.104   7.239   6.984 -0.3854 -0.0732  0.1590
 4190ntf    cn123960   3.204   7.222   7.135  0.2280  0.3098 -0.2031
 4190ntf    fn423961   3.311   6.938   6.884  0.1665 -0.4161  0.0528
 4190ntf    fn423962   3.164   6.789   6.875 -0.5197  0.1337  0.2592
 4190ntf    fn423963   3.242   6.868   6.695  0.0011 -0.0077 -0.2235
 4190ntf    on523964   3.106   7.108   6.706  0.0010  0.3995  0.5669
 4190ntf    on523965   2.946   6.944   6.805 -0.0783 -0.1262  0.2038
 4190ntf    on523966   2.986   7.311   7.023  0.2081  0.6683  0.6018
 4190ntf    on523967   3.188   7.301   6.884 -0.6215 -0.0578 -0.0293
 4190ntf    fn423968   3.305   7.138   7.123  0.0482  0.1429 -0.5294
 4190ntf    fn423969   3.245   7.333   7.196  0.0622  0.1861  0.1353
 4190ntf    fn423970   3.132   7.160   7.227 -0.1334  0.1044 -0.6272
 4191ntf    cn123971   0.480   3.875   0.017 -0.3030  0.2448 -0.2712
 4191ntf    sn223972   0.587   3.968  -0.096  0.0496  0.1317 -0.0337
 4191ntf    nn323973   0.620   3.872  -0.216  0.0329  0.2096 -0.1010
 4191ntf    sn223974   0.539   3.854  -0.349 -0.0420  0.1314 -0.0452
 4191ntf    cn123975   0.664   3.916  -0.465 -0.0572 -0.1694 -0.2231
 4191ntf    fn423976   0.537   3.771   0.076 -0.6120  0.2726  0.0839
 4191ntf    fn423977   0.447   3.951   0.120  0.4491  0.4904 -0.2025
 4191ntf    fn423978   0.368   3.838  -0.044 -0.2758  0.8520 -0.6944
 4191ntf    on523979   0.501   4.077  -0.135 -0.3368 -0.1858 -0.0743
 4191ntf    on523980   0.702   4.003  -0.017  0.0313 -0.1111  0.1021
 4191ntf    on523981   0.427   3.941  -0.373 -0.0528  0.2002  0.2567
 4191ntf    on523982   0.525   3.716  -0.389  0.6337 -0.0295  0.2510
 4191ntf    fn423983   0.642   3.874  -0.589 -0.2654  0.5810 -0.4453
 4191ntf    fn423984   0.668   4.048  -0.469 -0.4092 -0.1535  0.0033
 4191ntf    fn423985   0.787   3.874  -0.441 -0.2944 -0.9197 -0.2907
 4192ntf    cn123986   3.011   1.415   0.328  0.0748 -0.2813 -0.0190
 4192ntf    sn223987   2.892   1.284   0.370  0.0689 -0.1965  0.2319
 4192ntf    nn323988   2.858   1.310   0.521 -0.3448 -0.4741  0.1875
 4192ntf    sn223989   2.760   1.415   0.585  0.2101  0.3869 -0.3608
 4192ntf    cn123990   2.886   1.524   0.659  0.4378 -0.0512 -0.0998
 4192ntf    fn423991   3.116   1.413   0.409 -0.1909  0.1031  0.3439
 4192ntf    fn423992   3.043   1.414   0.200  0.1326  0.0079 -0.0077
 4192ntf    fn423993   2.958   1.536   0.345  0.6421 -0.0011 -0.2150
 4192ntf    on523994   2.783   1.289   0.276  0.0356 -0.3228  0.2637
 4192ntf    on523995   2.986   1.175   0.367 -0.3790 -0.5798  0.1405
 4192ntf    on523996   2.689   1.367   0.701  0.5958 -0.0921 -0.3204
 4192ntf    on523997   2.688   1.506   0.500  0.2868  0.5769 -0.2222
 4192ntf    fn423998   2.833   1.637   0.704 -0.7309 -0.8087  0.4807
 4192ntf    fn423999   2.942   1.474   0.768  0.4018  0.1250 -0.0010
 4192ntf    fn424000   2.984   1.551   0.574  0.5079 -0.0766 -0.0274
 4193ntf    cn124001   1.066   1.167   5.267  0.5342  0.1943 -0.0762
 4193ntf    sn224002   1.042   1.331   5.193 -0.4603  0.1251  0.0797
 4193ntf    nn324003   1.103   1.307   5.050  0.2294 -0.0384  0.3973
 4193ntf    sn224004   1.250   1.266   5.014  0.1509  0.0665 -0.0417
 4193ntf    cn124005   1.323   1.426   4.968  0.2356 -0.0489 -0.3143
 4193ntf    fn424006   1.190   1.142   5.304  0.4745  0.1991  0.1281
 4193ntf    fn424007   0.974   1.151   5.361  0.1127 -0.4346 -0.5814
 4193ntf    fn424008   1.049   1.067   5.182  0.1509  0.3412 -0.1744
 4193ntf    on524009   0.898   1.347   5.185 -0.4516  0.2025  0.0775
 4193ntf    on524010   1.122   1.417   5.276 -0.2383  0.6590 -0.6713
 4193ntf    on524011   1.247   1.199   4.886  0.2030  0.2926 -0.1629
 4193ntf    on524012   1.338   1.204   5.109  0.1464  0.2505  0.0823
 4193ntf    fn424013   1.350   1.504   5.073  0.0240 -0.2474 -0.1118
 4193ntf    fn424014   1.439   1.408   4.907  0.5986 -0.4230  0.4636
 4193ntf    fn424015   1.239   1.502   4.899  0.0488  0.1661  0.1390
 4194ntf    cn124016   0.730   3.041   6.877 -0.0078  0.2252 -0.4267
 4194ntf    sn224017   0.761   3.024   7.055  0.1369  0.0524 -0.4675
 4194ntf    nn324018   0.616   3.005   7.112  0.1631 -0.0085 -0.4216
 4194ntf    sn224019   0.515   3.113   7.164  0.2081 -0.1298 -0.0788
 4194ntf    cn124020   0.550   3.097   7.342  0.1088  0.1977 -0.0302
 4194ntf    fn424021   0.652   2.942   6.837 -0.0135 -0.1456  0.4836
 4194ntf    fn424022   0.668   3.153   6.844 -0.0911  0.5473  0.7765
 4194ntf    fn424023   0.834   3.034   6.795  0.4402 -0.0083  0.1503
 4194ntf    on524024   0.846   2.907   7.057  0.6772  0.4387 -0.4824
 4194ntf    on524025   0.829   3.149   7.080  0.5562 -0.1737 -0.4634
 4194ntf    on524026   0.378   3.074   7.140  0.0710  0.6108 -0.5173
 4194ntf    on524027   0.538   3.253   7.143  0.0039 -0.0322  0.3470
 4194ntf    fn424028   0.667   3.153   7.369 -0.0916  0.2392  0.7564
 4194ntf    fn424029   0.463   3.172   7.407 -0.2029  0.0897 -0.3153
 4194ntf    fn424030   0.536   2.970   7.375  0.2098  0.1768 -0.0658
 4195ntf    cn124031   5.128   4.032   3.285 -0.3136 -0.3046 -0.6588
 4195ntf    sn224032   5.157   3.862   3.344  0.0655 -0.2119 -0.5693
 4195ntf    nn324033   5.312   3.875   3.361 -0.0499 -0.0231  0.3640
 4195ntf    sn224034   5.398   3.860   3.492  0.3467 -0.2622  0.0776
 4195ntf    cn124035   5.370   4.018   3.577  0.0345 -0.1255 -0.2730
 4195ntf    fn424036   5.004   4.062   3.252 -0.3741  0.5042  0.2570
 4195ntf    fn424037   5.157   4.125   3.375  0.0804 -0.8418 -0.2216
 4195ntf    fn424038   5.201   4.054   3.176  0.5152 -0.2741 -0.1099
 4195ntf    on524039   5.080   3.848   3.465  0.3200  0.2949 -0.3451
 4195ntf    on524040   5.124   3.784   3.227 -0.7980 -0.2300 -0.3262
 4195ntf    on524041   5.541   3.855   3.471  0.3320  0.1574 -0.1553
 4195ntf    on524042   5.351   3.768   3.591  0.0931 -0.3783 -0.1511
 4195ntf    fn424043   5.372   4.128   3.504  0.0339 -0.1728 -0.3447
 4195ntf    fn424044   5.251   4.012   3.634  0.0743  0.1880 -0.1513
 4195ntf    fn424045   5.458   4.038   3.674  0.4105 -0.0718 -0.6231
 4196ntf    cn124046   2.756   1.354   1.957  0.3354 -0.3206 -0.8141
 4196ntf    sn224047   2.753   1.471   1.818 -0.2540  0.1609 -0.4034
 4196ntf    nn324048   2.624   1.558   1.837 -0.1673  0.2524 -0.2342
 4196ntf    sn224049   2.609   1.705   1.889  0.2331  0.1967  0.0432
 4196ntf    cn124050   2.594   1.793   1.730  0.4582 -0.2433 -0.2235
 4196ntf    fn424051   2.861   1.275   1.971  0.7711  0.4032  0.1353
 4196ntf    fn424052   2.749   1.412   2.076 -0.6354 -0.7564 -0.6434
 4196ntf    fn424053   2.652   1.272   1.956 -0.2729  0.4045  0.2861
 4196ntf    on524054   2.885   1.530   1.824 -0.2008  0.0051  0.0512
 4196ntf    on524055   2.723   1.375   1.715  0.3418 -0.0968 -0.3431
 4196ntf    on524056   2.723   1.752   1.964  0.4482  0.1012 -0.2202
 4196ntf    on524057   2.484   1.721   1.959 -0.1853 -0.0619 -0.6357
 4196ntf    fn424058   2.613   1.922   1.753  0.7206 -0.3076 -0.0662
 4196ntf    fn424059   2.686   1.750   1.645  0.3878  0.6892 -0.7792
 4196ntf    fn424060   2.478   1.768   1.672  0.1699 -0.1593  0.3029
 4197ntf    cn124061   3.788   6.392   1.165 -0.1955 -0.3884  0.2228
 4197ntf    sn224062   3.751   6.373   1.342 -0.2835 -0.3104  0.2128
 4197ntf    nn324063   3.595   6.388   1.331 -0.2124  0.2335 -0.0838
 4197ntf    sn224064   3.489   6.400   1.446  0.0741 -0.0267  0.2079
 4197ntf    cn124065   3.340   6.334   1.365  0.1164  0.2122 -0.0635
 4197ntf    fn424066   3.785   6.518   1.125  0.2959 -0.2841  0.4998
 4197ntf    fn424067   3.908   6.353   1.127  0.0164 -0.0334  0.5163
 4197ntf    fn424068   3.699   6.324   1.095 -0.3445 -0.1996  0.2257
 4197ntf    on524069   3.810   6.246   1.375  0.0684 -0.4058 -0.7569
 4197ntf    on524070   3.822   6.489   1.390  0.3564 -0.9292  0.7753
 4197ntf    on524071   3.448   6.536   1.472  0.5170  0.1772 -0.1638
 4197ntf    on524072   3.499   6.313   1.561  0.3403  0.0352  0.2326
 4197ntf    fn424073   3.333   6.202   1.366 -0.5170  0.2453  0.8974
 4197ntf    fn424074   3.235   6.370   1.437  0.0136 -0.2608  0.0226
 4197ntf    fn424075   3.315   6.384   1.245 -0.4395 -0.1568 -0.1047
 4198ntf    cn124076   3.540   0.161   0.342 -0.0007 -0.4055 -0.4703
 4198ntf    sn224077   3.391   0.253   0.295  0.0918  0.0562  0.1356
 4198ntf    nn324078   3.281   0.171   0.372  0.2060 -0.0940  0.1385
 4198ntf    sn224079   3.142   0.111   0.331  0.3183 -0.1645 -0.1445
 4198ntf    cn124080   3.200  -0.057   0.291  0.1582 -0.2781  0.0963
 4198ntf    fn424081   3.647   0.191   0.269  0.8330 -0.4492  0.7063
 4198ntf    fn424082   3.577   0.173   0.468  0.0835 -0.0384 -0.5289
 4198ntf    fn424083   3.522   0.030   0.334 -0.1844 -0.4183  0.1037
 4198ntf    on524084   3.409   0.387   0.346  0.0148  0.2011 -0.2128
 4198ntf    on524085   3.389   0.232   0.152 -0.5478  0.3807  0.0946
 4198ntf    on524086   3.080   0.165   0.213  0.1273 -0.2276 -0.0726
 4198ntf    on524087   3.067   0.088   0.452  0.4690 -0.0099 -0.0216
 4198ntf    fn424088   3.097  -0.140   0.300  0.1351 -0.1985  0.5675
 4198ntf    fn424089   3.244  -0.057   0.166 -0.2143 -0.4866 -0.0376
 4198ntf    fn424090   3.289  -0.102   0.378 -0.0561 -0.0666  0.4284
 4199ntf    cn124091   2.843   1.870   6.830  0.1245 -0.1830 -0.1375
 4199ntf    sn224092   2.931   1.892   6.988 -0.2917  0.2268  0.0413
 4199ntf    nn324093   2.958   1.739   7.003 -0.0418  0.2712  0.0472
 4199ntf    sn224094   2.904   1.641   7.113 -0.3050  0.3703  0.0053
 4199ntf    cn124095   2.969   1.490   7.037 -0.8429 -0.1872  0.6335
 4199ntf    fn424096   2.843   1.986   6.766  0.6095 -0.0179  0.1579
 4199ntf    fn424097   2.895   1.782   6.746  0.6718  0.1258 -0.1239
 4199ntf    fn424098   2.714   1.846   6.847 -0.0585  0.4820 -0.5258
 4199ntf    on524099   3.051   1.969   6.963 -0.0986 -0.1419 -0.1848
 4199ntf    on524100   2.831   1.942   7.079 -0.0075  0.0997  0.4226
 4199ntf    on524101   2.764   1.607   7.110 -0.1225 -0.4071  0.1517
 4199ntf    on524102   2.968   1.658   7.242 -0.4152  0.3792  0.0585
 4199ntf    fn424103   2.945   1.376   7.099  0.4335 -0.8849 -0.1077
 4199ntf    fn424104   2.914   1.475   6.917  0.5435  0.0855 -0.0705
 4199ntf    fn424105   3.101   1.494   7.022 -0.8535 -0.4771  0.4510
 4200ntf    cn124106   4.989   6.581   5.968 -0.4607 -0.3926 -0.1644
 4200ntf    sn224107   5.083   6.465   6.073 -0.4186  0.0081  0.2415
 4200ntf    nn324108   5.143   6.376   5.959 -0.1495  0.4108  0.0647
 4200ntf    sn224109   5.109   6.232   5.907 -0.1861  0.3453  0.2654
 4200ntf    cn124110   5.259   6.141   5.952 -0.3087  0.0183  0.0156
 4200ntf    fn424111   4.911   6.654   6.046 -0.0902  0.3202 -0.4490
 4200ntf    fn424112   5.069   6.665   5.905 -0.3832 -0.2324  0.1409
 4200ntf    fn424113   4.909   6.511   5.889 -0.0307 -0.6979 -0.3327
 4200ntf    on524114   5.183   6.556   6.125 -0.0554 -0.1059 -0.2535
 4200ntf    on524115   4.989   6.401   6.163 -0.5307 -0.4676 -0.2125
 4200ntf    on524116   5.103   6.229   5.762 -0.4804  0.0519  0.2815
 4200ntf    on524117   5.000   6.159   5.966 -0.3761  0.2929 -0.1410
 4200ntf    fn424118   5.296   6.052   5.861  0.0607 -0.0462  0.2279
 4200ntf    fn424119   5.361   6.223   5.970 -0.2855  0.0012 -0.0395
 4200ntf    fn424120   5.242   6.077   6.066 -0.9981 -0.1452 -0.1745
 4201ntf    cn124121   7.230   4.994   2.187 -0.1250  0.1241  0.1599
 4201ntf    sn224122   7.168   4.823   2.193 -0.0993  0.1224  0.3870
 4201ntf    nn324123   7.114   4.813   2.340 -0.9646 -0.4605  0.0404
 4201ntf    sn224124   7.182   4.738   2.460 -0.2871 -0.1910 -0.1688
 4201ntf    cn124125   7.147   4.851   2.597  0.0045 -0.2583 -0.0364
 4201ntf    fn424126   7.322   5.010   2.280  0.3504  0.9972 -0.4412
 4201ntf    fn424127   7.267   5.032   2.065 -0.3689  0.1948  0.1065
 4201ntf    fn424128   7.133   5.079   2.218  0.0347  0.2772  0.2389
 4201ntf    on524129   7.060   4.837   2.098  0.2593 -0.3454 -0.0916
 4201ntf    on524130   7.276   4.737   2.153 -0.2874 -0.1438  0.4505
 4201ntf    on524131   7.326   4.738   2.468 -0.2910  0.4633 -0.0796
 4201ntf    on524132   7.109   4.616   2.483 -0.1043 -0.2710 -0.0044
 4201ntf    fn424133   7.155   4.808   2.722 -0.0560 -0.4204 -0.0880
 4201ntf    fn424134   7.215   4.965   2.594  0.0681 -0.3082 -0.6483
 4201ntf    fn424135   7.023   4.895   2.584  0.1727  0.2141 -0.0686
 4202ntf    cn124136   5.982   3.260   6.540  0.0242  0.3094 -1.1474
 4202ntf    sn224137   5.924   3.422   6.599 -0.1118 -0.1127 -0.0959
 4202ntf    nn324138   6.005   3.470   6.725 -0.1108  0.2041 -0.2145
 4202ntf    sn224139   5.960   3.467   6.875 -0.0617  0.1285 -0.2013
 4202ntf    cn124140   5.930   3.646   6.894 -0.1515  0.0741  0.1874
 4202ntf    fn424141   6.002   3.182   6.645 -0.0659  0.6452 -0.8749
 4202ntf    fn424142   5.889   3.204   6.465 -0.7976  0.4559 -0.2576
 4202ntf    fn424143   6.096   3.269   6.474  0.5763 -0.0388 -0.2679
 4202ntf    on524144   5.961   3.493   6.479  0.4121 -0.3711 -0.0897
 4202ntf    on524145   5.783   3.405   6.625 -0.0551 -0.1520  0.1889
 4202ntf    on524146   6.067   3.442   6.969 -0.4258  0.3022  0.2645
 4202ntf    on524147   5.834   3.404   6.906 -0.2395  0.8010  0.4664
 4202ntf    fn424148   5.896   3.681   7.017  0.1208 -0.6047  0.4630
 4202ntf    fn424149   6.040   3.716   6.871 -0.1649  0.0488  0.0422
 4202ntf    fn424150   5.840   3.692   6.809 -0.2556 -0.9123 -0.2605
 4203ntf    cn124151   2.736   2.629   6.701 -0.1983 -0.1625 -0.4798
 4203ntf    sn224152   2.695   2.605   6.877  0.1149 -0.1662 -0.4070
 4203ntf    nn324153   2.638   2.748   6.911 -0.2479 -0.5142  0.4701
 4203ntf    sn224154   2.498   2.803   6.868  0.0609 -0.2136 -0.1607
 4203ntf    cn124155   2.409   2.773   7.023 -0.2505 -0.1566 -0.3258
 4203ntf    fn424156   2.823   2.728   6.687 -0.5105  0.1706 -0.1051
 4203ntf    fn424157   2.785   2.517   6.650  0.2842 -0.3253  0.3165
 4203ntf    fn424158   2.630   2.651   6.625 -0.5253  0.3422  0.1093
 4203ntf    on524159   2.597   2.501   6.870 -0.2755  0.1712 -0.0010
 4203ntf    on524160   2.823   2.585   6.940  0.2447  0.9592 -0.2877
 4203ntf    on524161   2.420   2.729   6.771 -1.0528  0.2633  0.3505
 4203ntf    on524162   2.491   2.947   6.860  0.0385 -0.1868  0.3184
 4203ntf    fn424163   2.462   2.826   7.133 -0.2124  0.3003 -0.5629
 4203ntf    fn424164   2.286   2.822   7.015 -0.1497  0.1152 -0.2157
 4203ntf    fn424165   2.394   2.643   7.042  0.1919 -0.0906  0.5392
 4204ntf    cn124166   4.008   6.573   2.328  0.0224  0.1986 -0.1925
 4204ntf    sn224167   4.054   6.628   2.495 -0.1349  0.4455 -0.2286
 4204ntf    nn324168   4.081   6.488   2.561 -0.7923  0.3405 -0.1798
 4204ntf    sn224169   3.976   6.395   2.633 -0.1093 -0.3560 -0.0674
 4204ntf    cn124170   4.013   6.226   2.579  0.3096 -0.3351  0.1491
 4204ntf    fn424171   4.003   6.672   2.240 -0.0440  0.2650 -0.1144
 4204ntf    fn424172   4.092   6.482   2.283  0.5922  0.2000  0.8307
 4204ntf    fn424173   3.891   6.512   2.339  0.0681  0.0931 -0.2851
 4204ntf    on524174   4.178   6.697   2.466 -0.0825  0.4728  0.0554
 4204ntf    on524175   3.945   6.705   2.549 -0.3936  0.0745 -0.2190
 4204ntf    on524176   3.837   6.407   2.598  0.1083 -0.2723 -0.9548
 4204ntf    on524177   4.003   6.391   2.774  0.6334 -0.0845 -0.1925
 4204ntf    fn424178   4.135   6.184   2.609  0.5383 -0.3696 -0.8025
 4204ntf    fn424179   3.925   6.136   2.620 -0.0813  0.0468  0.1524
 4204ntf    fn424180   4.014   6.225   2.447  0.4221 -0.5685  0.1511
 4205ntf    cn124181   0.176   0.339   1.926 -0.0906 -0.3068 -0.2200
 4205ntf    sn224182   0.258   0.220   2.035  0.0833  0.0940  0.0871
 4205ntf    nn324183   0.409   0.241   1.996  0.1331 -0.5353 -0.0707
 4205ntf    sn224184   0.545   0.204   2.064  0.3853  0.0565 -0.2427
 4205ntf    cn124185   0.632   0.104   1.939 -0.4530 -0.1040 -0.7032
 4205ntf    fn424186   0.045   0.349   1.941 -0.1260 -0.3390 -0.4856
 4205ntf    fn424187   0.227   0.461   1.940 -0.2219 -0.3354  0.5133
 4205ntf    fn424188   0.196   0.307   1.799  0.9989 -0.3277 -0.0559
 4205ntf    on524189   0.225   0.276   2.164  0.2139  0.0558  0.1381
 4205ntf    on524190   0.205   0.093   1.994  0.4458  0.2129 -0.7718
 4205ntf    on524191   0.546   0.109   2.172  0.2411  0.2946 -0.0319
 4205ntf    on524192   0.630   0.320   2.077  0.2824  0.1037  0.0167
 4205ntf    fn424193   0.559  -0.004   1.916  0.0491 -0.6487  0.1848
 4205ntf    fn424194   0.641   0.164   1.822 -0.0411  0.1651 -0.5349
 4205ntf    fn424195   0.749   0.065   1.986 -0.7782 -0.5423 -0.2408
 4206ntf    cn124196   2.185   3.155   1.382 -0.5335 -0.2667  0.2427
 4206ntf    sn224197   2.119   3.144   1.213 -0.1349 -0.1286  0.0769
 4206ntf    nn324198   2.101   2.988   1.204  0.1129 -0.1706  0.3031
 4206ntf    sn224199   2.172   2.881   1.114  0.2748  0.2062 -0.0184
 4206ntf    cn124200   2.059   2.856   0.973  0.2025 -0.5205  0.1660
 4206ntf    fn424201   2.095   3.126   1.474 -0.1886  0.0872  0.6950
 4206ntf    fn424202   2.278   3.063   1.400 -0.5447 -0.3241  0.0215
 4206ntf    fn424203   2.228   3.276   1.414 -0.0787 -0.4469  0.3122
 4206ntf    on524204   1.993   3.214   1.225 -0.3339 -0.4506 -0.1002
 4206ntf    on524205   2.212   3.203   1.120  0.1344 -0.4354  0.1521
 4206ntf    on524206   2.184   2.755   1.183 -0.4436  0.3516  0.3846
 4206ntf    on524207   2.297   2.922   1.055 -0.0811  0.1729 -0.8141
 4206ntf    fn424208   2.014   2.733   0.957 -1.1319 -0.0941  0.5618
 4206ntf    fn424209   1.953   2.934   0.986  0.2597 -0.3404 -0.4219
 4206ntf    fn424210   2.111   2.879   0.854  0.1946 -0.2429  0.2140
 4207ntf    cn124211   3.283   3.156   3.957  0.5298  0.2197 -0.3470
 4207ntf    sn224212   3.120   3.194   3.887  0.2709 -0.0661  0.0924
 4207ntf    nn324213   3.172   3.289   3.773  0.0206 -0.0867 -0.0404
 4207ntf    sn224214   3.177   3.446   3.777  0.1136 -0.0883 -0.0898
 4207ntf    cn124215   3.252   3.479   3.615 -0.4479  0.1769 -0.2975
 4207ntf    fn424216   3.368   3.256   3.970  1.1145 -0.3354  0.2207
 4207ntf    fn424217   3.260   3.102   4.076  0.5342  0.2606 -0.3276
 4207ntf    fn424218   3.338   3.056   3.891  0.6718  0.0517  0.0183
 4207ntf    on524219   3.064   3.077   3.824  0.2534 -0.1981  0.3522
 4207ntf    on524220   3.037   3.250   3.991  0.4870  0.1055  0.1727
 4207ntf    on524221   3.261   3.507   3.877 -0.0263 -0.6898  0.4044
 4207ntf    on524222   3.051   3.513   3.758 -0.2412 -0.5116  0.7051
 4207ntf    fn424223   3.380   3.446   3.613 -0.3774  0.4157  0.1524
 4207ntf    fn424224   3.193   3.413   3.516 -0.6437 -0.0974 -0.0001
 4207ntf    fn424225   3.247   3.608   3.588  0.3840  0.2674 -0.0303
 4208ntf    cn124226   6.580   4.161   7.175 -0.4570 -0.1371  0.8079
 4208ntf    sn224227   6.569   4.237   7.010  0.1229 -0.1375  0.7684
 4208ntf    nn324228   6.700   4.179   6.946  0.3012  0.8568  0.2089
 4208ntf    sn224229   6.768   4.186   6.805 -0.3167  0.1108 -0.1280
 4208ntf    cn124230   6.716   4.023   6.742  0.0113 -0.0337 -0.0279
 4208ntf    fn424231   6.670   4.224   7.247 -0.5977  0.3397  0.5736
 4208ntf    fn424232   6.466   4.177   7.241 -0.7095 -0.1143  0.3803
 4208ntf    fn424233   6.600   4.030   7.173  0.1721 -0.0392  0.2217
 4208ntf    on524234   6.449   4.177   6.957  0.6208 -0.5208  0.0541
 4208ntf    on524235   6.563   4.378   7.040 -0.2537 -0.0599  0.3480
 4208ntf    on524236   6.912   4.186   6.800 -0.3159  0.7292 -0.1746
 4208ntf    on524237   6.709   4.276   6.708  0.0448  0.2456 -0.2232
 4208ntf    fn424238   6.606   3.972   6.796  0.2171 -0.1014  0.3328
 4208ntf    fn424239   6.684   4.029   6.614  0.2227  0.5552 -0.0593
 4208ntf    fn424240   6.812   3.933   6.751 -0.1400 -0.2308 -0.3628
 4209ntf    cn124241   5.972   4.991   0.518 -0.1831 -0.0970 -0.1876
 4209ntf    sn224242   5.851   5.122   0.481 -0.1864 -0.0864 -0.1376
 4209ntf    nn324243   5.791   5.090   0.339 -0.0675 -0.3463 -0.1318
 4209ntf    sn224244   5.822   5.166   0.206  0.1730 -0.0387  0.0969
 4209ntf    cn124245   5.715   5.070   0.095  0.3756  0.2210 -0.3265
 4209ntf    fn424246   6.027   5.001   0.638 -0.3855 -0.2615 -0.0817
 4209ntf    fn424247   5.926   4.867   0.513  0.1053 -0.2195  0.1655
 4209ntf    fn424248   6.068   5.007   0.428  0.0400  0.1543  0.0891
 4209ntf    on524249   5.751   5.104   0.583  0.0728  0.0898  0.1477
 4209ntf    on524250   5.930   5.242   0.495  0.3008 -0.4621  0.3981
 4209ntf    on524251   5.952   5.143   0.146 -0.0294 -0.0253 -0.3544
 4209ntf    on524252   5.774   5.301   0.193  0.4787  0.0562 -0.0568
 4209ntf    fn424253   5.782   4.970   0.040  0.0674 -0.1255 -0.0753
 4209ntf    fn424254   5.620   5.012   0.166  0.3305 -0.1950 -0.7252
 4209ntf    fn424255   5.652   5.143   0.004  0.3929  0.4195 -0.1786
 4210ntf    cn124256   1.055   0.397   3.341 -0.0944  0.3500 -0.2456
 4210ntf    sn224257   1.181   0.454   3.224  0.1901  0.3256  0.0461
 4210ntf    nn324258   1.090   0.506   3.106 -0.2409 -0.5643 -0.0183
 4210ntf    sn224259   1.056   0.654   3.067  0.2148 -0.4491  0.0199
 4210ntf    cn124260   0.893   0.677   3.144  0.1170 -0.1932 -0.2609
 4210ntf    fn424261   0.986   0.294   3.294  0.1648  0.1509 -0.1908
 4210ntf    fn424262   1.111   0.357   3.454 -0.1371 -0.0095 -0.3499
 4210ntf    fn424263   0.965   0.487   3.376 -0.4486 -0.0732 -0.0427
 4210ntf    on524264   1.256   0.550   3.301  0.1225  0.3010  0.1436
 4210ntf    on524265   1.261   0.339   3.190  0.0870  0.3875 -0.4181
 4210ntf    on524266   1.031   0.668   2.926 -0.0962 -0.0611  0.1125
 4210ntf    on524267   1.140   0.757   3.122 -0.1256 -0.2932  0.2504
 4210ntf    fn424268   0.793   0.620   3.081 -0.2520 -0.0108  0.1524
 4210ntf    fn424269   0.890   0.638   3.271  0.1717  0.1051 -0.1670
 4210ntf    fn424270   0.853   0.803   3.139 -0.1470 -0.2307  0.6679
 4211ntf    cn124271   6.063   4.837   3.737 -0.0517  0.2783  0.7946
 4211ntf    sn224272   6.136   4.675   3.774  0.4782  0.3543  0.0957
 4211ntf    nn324273   6.213   4.653   3.639  0.1793  0.2432 -0.0586
 4211ntf    sn224274   6.145   4.608   3.505  0.0836 -0.3402  0.1812
 4211ntf    cn124275   6.197   4.434   3.501  0.0299 -0.3620  0.4328
 4211ntf    fn424276   5.969   4.820   3.645  0.4094  0.2963  0.3175
 4211ntf    fn424277   6.016   4.902   3.842 -0.1946  0.6686  0.4926
 4211ntf    fn424278   6.152   4.921   3.687 -0.0092 -0.1099  0.2064
 4211ntf    on524279   6.241   4.710   3.867  0.2638 -0.4871  0.6630
 4211ntf    on524280   6.026   4.591   3.815  0.4377  0.1983 -0.3258
 4211ntf    on524281   6.217   4.667   3.395 -0.1521  0.0723  0.2473
 4211ntf    on524282   6.002   4.605   3.495  0.1186  0.1902 -0.5634
 4211ntf    fn424283   6.137   4.365   3.596 -0.4428  0.2666  0.5952
 4211ntf    fn424284   6.168   4.379   3.385 -0.5949 -0.5814  0.6899
 4211ntf    fn424285   6.326   4.419   3.525  0.0085 -0.1088  0.7210
 4212ntf    cn124286   6.742   1.651   7.047  0.1197 -0.0695  0.0175
 4212ntf    sn224287   6.648   1.784   7.128  0.0582 -0.1425  0.0668
 4212ntf    nn324288   6.522   1.708   7.182  0.0072 -0.3599 -0.3503
 4212ntf    sn224289   6.370   1.739   7.156 -0.0153 -0.1238  0.0451
 4212ntf    cn124290   6.327   1.626   7.020  0.1627 -0.2647  0.1050
 4212ntf    fn424291   6.856   1.698   7.001  0.1577  0.0781  0.2604
 4212ntf    fn424292   6.762   1.548   7.128 -0.4713 -0.3662 -0.2033
 4212ntf    fn424293   6.682   1.605   6.939  0.2907 -0.2856  0.0143
 4212ntf    on524294   6.747   1.822   7.226  0.3093  0.0669 -0.2631
 4212ntf    on524295   6.621   1.881   7.024  0.0448  0.1322  0.3249
 4212ntf    on524296   6.337   1.867   7.099 -0.4305 -0.2830 -0.0716
 4212ntf    on524297   6.282   1.682   7.254 -0.0746 -0.2084 -0.0568
 4212ntf    fn424298   6.236   1.688   6.946 -0.3702 -0.6661  0.4116
 4212ntf    fn424299   6.435   1.598   6.949  0.4273 -0.4060  0.5617
 4212ntf    fn424300   6.276   1.515   7.072  0.1606 -0.1507  0.3488
 4213ntf    cn124301   2.918   5.249   2.907 -0.2615  0.1560  0.2326
 4213ntf    sn224302   2.907   5.070   2.933  0.2436  0.1068  0.1169
 4213ntf    nn324303   3.001   5.069   3.059 -0.1432  0.2730  0.4129
 4213ntf    sn224304   3.155   5.037   3.071 -0.1460 -0.1112 -0.4193
 4213ntf    cn124305   3.159   4.860   3.110 -0.2754 -0.0007  0.1111
 4213ntf    fn424306   3.033   5.308   2.936 -0.1695 -0.1718  0.5453
 4213ntf    fn424307   2.884   5.299   2.789 -0.0353 -0.0326  0.0883
 4213ntf    fn424308   2.835   5.323   2.980  0.0238  0.7932 -0.0800
 4213ntf    on524309   2.773   5.032   2.971 -0.0556  0.5914 -0.4367
 4213ntf    on524310   2.955   5.025   2.805 -0.5227 -0.4764  0.0257
 4213ntf    on524311   3.209   5.096   3.192 -0.0224 -0.5415 -0.2624
 4213ntf    on524312   3.239   5.049   2.955 -0.3389  0.1368 -0.5339
 4213ntf    fn424313   3.093   4.833   3.221 -0.3188 -0.4835 -0.0308
 4213ntf    fn424314   3.107   4.783   3.016  0.4207 -0.3506  0.0020
 4213ntf    fn424315   3.286   4.823   3.125 -0.2625  0.0344  0.0896
 4214ntf    cn124316   5.221   1.977   6.493  0.2683 -0.0226 -0.4607
 4214ntf    sn224317   5.170   1.874   6.352  0.1386 -0.1035 -0.3548
 4214ntf    nn324318   5.018   1.854   6.387  0.2111 -0.0717 -0.0182
 4214ntf    sn224319   4.902   1.826   6.286  0.2505 -0.1941 -0.0296
 4214ntf    cn124320   4.836   1.993   6.256  0.2261 -0.1606  0.2116
 4214ntf    fn424321   5.338   2.033   6.463  0.4373 -0.1347 -0.0219
 4214ntf    fn424322   5.138   2.080   6.498  0.2821 -0.0173 -0.3383
 4214ntf    fn424323   5.211   1.916   6.610  0.1088  0.4105 -0.2477
 4214ntf    on524324   5.203   1.951   6.234 -0.3083  0.3360 -0.1988
 4214ntf    on524325   5.246   1.756   6.384  0.3103  0.0770 -0.0851
 4214ntf    on524326   4.792   1.754   6.345 -0.0317  0.3962  0.1720
 4214ntf    on524327   4.947   1.775   6.158  0.3255  0.1610 -0.1461
 4214ntf    fn424328   4.786   2.052   6.363 -0.2087  0.0272 -0.0921
 4214ntf    fn424329   4.930   2.069   6.201 -0.5928  0.3783 -0.4604
 4214ntf    fn424330   4.738   1.989   6.167  0.1849 -0.0371  0.2522
 4215ntf    cn124331   0.858   2.550   3.861 -0.4061 -0.1134 -0.0762
 4215ntf    sn224332   0.984   2.425   3.825 -0.0820  0.0752  0.3849
 4215ntf    nn324333   1.011   2.361   3.966 -0.2220  0.8218  0.7507
 4215ntf    sn224334   1.140   2.314   4.041  0.0857  0.1353 -0.2029
 4215ntf    cn124335   1.138   2.444   4.167 -0.3793  0.0983 -0.1723
 4215ntf    fn424336   0.819   2.624   3.759  0.1771 -0.2241 -0.3844
 4215ntf    fn424337   0.744   2.499   3.905 -0.4248 -0.3245 -0.3719
 4215ntf    fn424338   0.905   2.639   3.948  0.0635 -0.2492 -0.1882
 4215ntf    on524339   0.918   2.338   3.731  0.3653  0.2318 -0.0783
 4215ntf    on524340   1.100   2.491   3.769 -0.4959  0.3544 -0.1508
 4215ntf    on524341   1.270   2.323   3.979  0.3256  0.1152  0.2944
 4215ntf    on524342   1.109   2.196   4.118  0.3113  0.7390  0.8190
 4215ntf    fn424343   1.034   2.436   4.249 -0.2792  0.1403 -0.0409
 4215ntf    fn424344   1.241   2.439   4.250 -0.6667 -0.3327  0.1600
 4215ntf    fn424345   1.143   2.565   4.113  0.2407  0.1491 -0.0070
 4216ntf    cn124346   5.743   4.844   6.864 -0.3854  0.1795 -0.3817
 4216ntf    sn224347   5.867   4.947   6.947 -0.3773 -0.1142 -0.0234
 4216ntf    nn324348   5.950   4.980   6.817  0.1751 -0.0406  0.3457
 4216ntf    sn224349   5.928   5.094   6.712 -0.0012 -0.1665  0.2448
 4216ntf    cn124350   6.073   5.191   6.764 -0.1911  0.2542 -0.0055
 4216ntf    fn424351   5.699   4.906   6.756  0.1515  0.5799 -0.3738
 4216ntf    fn424352   5.796   4.730   6.822  0.1433  0.3598 -0.2067
 4216ntf    fn424353   5.635   4.814   6.935 -0.1797 -0.0223 -0.1533
 4216ntf    on524354   5.797   5.052   7.017  0.0471  0.0599  0.1472
 4216ntf    on524355   5.937   4.846   7.023  0.3970 -0.0680 -0.6575
 4216ntf    on524356   5.821   5.188   6.736  0.0057 -0.2271  0.5111
 4216ntf    on524357   5.957   5.053   6.577  0.1506  0.5784  0.0465
 4216ntf    fn424358   6.070   5.299   6.688  0.2876 -0.0912 -0.5207
 4216ntf    fn424359   6.063   5.230   6.891 -0.0155  0.5183 -0.0726
 4216ntf    fn424360   6.189   5.131   6.744 -0.3070 -0.0602  0.2451
 4217ntf    cn124361   5.284   4.822   6.804 -0.0763  0.0440  0.0673
 4217ntf    sn224362   5.304   4.726   6.650  0.4031 -0.1379  0.2390
 4217ntf    nn324363   5.153   4.719   6.605  0.4676  0.1732 -0.0285
 4217ntf    sn224364   5.082   4.796   6.488  0.3392  0.0983  0.0006
 4217ntf    cn124365   4.907   4.756   6.517  0.3673  0.0120  0.0522
 4217ntf    fn424366   5.400   4.838   6.865 -0.3663  0.1875  0.5799
 4217ntf    fn424367   5.221   4.936   6.782  0.2081  0.2010  0.0632
 4217ntf    fn424368   5.213   4.754   6.893  0.1956 -0.4404 -0.0812
 4217ntf    on524369   5.404   4.779   6.561  0.2123 -0.1887 -0.0076
 4217ntf    on524370   5.341   4.596   6.699  0.1281  0.0387  0.9266
 4217ntf    on524371   5.093   4.736   6.357 -0.3766 -0.2769  0.1049
 4217ntf    on524372   5.083   4.940   6.493 -0.0690  0.1154 -0.3439
 4217ntf    fn424373   4.867   4.643   6.462  0.2971  0.1160 -0.1096
 4217ntf    fn424374   4.865   4.754   6.643 -0.1728 -0.4977 -0.1329
 4217ntf    fn424375   4.825   4.845   6.464 -0.1519 -0.2053  0.4806
 4218ntf    cn124376   3.645   6.002   1.988  0.2101  0.3214 -0.0654
 4218ntf    sn224377   3.507   6.016   2.106  0.1080  0.2497 -0.1756
 4218ntf    nn324378   3.476   6.170   2.108 -0.0788  0.2079  0.3481
 4218ntf    sn224379   3.408   6.238   2.232  0.1240  0.2713  0.4249
 4218ntf    cn124380   3.548   6.285   2.337  0.1745  0.3662  0.3152
 4218ntf    fn424381   3.730   6.100   2.015  0.3929  0.1029  0.1602
 4218ntf    fn424382   3.707   5.887   2.005  0.0776  0.2641  0.0322
 4218ntf    fn424383   3.608   6.006   1.861 -0.4177 -0.0724  0.1049
 4218ntf    on524384   3.411   5.932   2.040  0.4717 -0.7256  0.5089
 4218ntf    on524385   3.566   5.969   2.229 -0.0222  0.7576  0.0847
 4218ntf    on524386   3.337   6.144   2.315  0.4645 -0.0127  0.3946
 4218ntf    on524387   3.348   6.365   2.198 -0.5456 -0.2491 -0.3753
 4218ntf    fn424388   3.521   6.336   2.456  0.2691 -0.2314  0.5972
 4218ntf    fn424389   3.636   6.188   2.359  0.4633  0.3717 -0.7921
 4218ntf    fn424390   3.609   6.388   2.281 -0.1379  0.3301 -0.0939
 4219ntf    cn124391   5.485   5.748   6.431 -0.1056 -0.3007  0.2509
 4219ntf    sn224392   5.450   5.925   6.415 -0.0097 -0.3278 -0.2961
 4219ntf    nn324393   5.550   5.974   6.526 -0.1831 -0.1741 -0.2076
 4219ntf    sn224394   5.516   6.004   6.677 -0.0188  0.1619 -0.2369
 4219ntf    cn124395   5.674   5.971   6.762 -0.2364 -0.0567  0.0854
 4219ntf    fn424396   5.590   5.713   6.359  0.1257 -0.0459  0.4617
 4219ntf    fn424397   5.511   5.696   6.550  0.2409 -0.2031  0.2191
 4219ntf    fn424398   5.381   5.681   6.384 -0.4379  0.4023 -0.0206
 4219ntf    on524399   5.490   5.976   6.286 -0.2947 -0.0180 -0.2639
 4219ntf    on524400   5.309   5.936   6.445  0.1198  0.0681  0.1924
 4219ntf    on524401   5.427   5.908   6.737 -0.2959  0.3008 -0.4261
 4219ntf    on524402   5.495   6.144   6.703  0.1379  0.0874  0.2965
 4219ntf    fn424403   5.719   5.849   6.739  0.3414  0.1193  0.2776
 4219ntf    fn424404   5.757   6.061   6.712  0.3616 -0.4629  0.3428
 4219ntf    fn424405   5.664   5.983   6.893  0.4340 -0.2221  0.1528
 4220ntf    cn124406   4.589   0.493   6.190  0.0242  0.4882 -0.3055
 4220ntf    sn224407   4.419   0.557   6.204 -0.1117  0.1149 -0.2486
 4220ntf    nn324408   4.342   0.426   6.244  0.1339  0.0678  0.0800
 4220ntf    sn224409   4.210   0.420   6.328  0.1069  0.1060  0.0400
 4220ntf    cn124410   4.269   0.366   6.491  0.0784  0.2684  0.1049
 4220ntf    fn424411   4.640   0.456   6.306  0.1264  0.6809 -0.2888
 4220ntf    fn424412   4.593   0.388   6.110 -0.2697  0.3787 -0.1755
 4220ntf    fn424413   4.667   0.588   6.140  0.3972  0.0963 -0.4765
 4220ntf    on524414   4.422   0.655   6.310  0.1298 -0.4385  0.2660
 4220ntf    on524415   4.384   0.599   6.071  0.0356  0.6524 -0.1227
 4220ntf    on524416   4.121   0.314   6.286  0.8428 -0.5264  0.0613
 4220ntf    on524417   4.138   0.540   6.363 -0.2526 -0.1997  0.3563
 4220ntf    fn424418   4.355   0.454   6.538  0.3773 -0.2205  0.4882
 4220ntf    fn424419   4.177   0.364   6.585 -0.1122  0.2261 -0.0808
 4220ntf    fn424420   4.330   0.249   6.477 -0.4319  0.0042  0.0839
 4221ntf    cn124421   2.780   3.490   1.213 -0.0398 -0.2064 -0.1818
 4221ntf    sn224422   2.808   3.450   1.388  0.0723  0.2659 -0.0923
 4221ntf    nn324423   2.882   3.581   1.433  0.0138  0.1177  0.4386
 4221ntf    sn224424   3.016   3.602   1.512  0.0507  0.0249  0.3992
 4221ntf    cn124425   3.103   3.729   1.415 -0.3386  0.0051  0.0181
 4221ntf    fn424426   2.728   3.394   1.138  0.0050 -0.4681  0.1196
 4221ntf    fn424427   2.714   3.603   1.200  0.2589 -0.0331 -0.2061
 4221ntf    fn424428   2.891   3.522   1.148  0.1523  0.5121  0.4904
 4221ntf    on524429   2.672   3.443   1.435 -0.1233  0.2250 -0.6600
 4221ntf    on524430   2.892   3.333   1.382 -0.4266 -0.1128  0.2356
 4221ntf    on524431   3.105   3.488   1.504 -0.1732 -0.1368  0.1809
 4221ntf    on524432   2.991   3.670   1.636 -0.5017  0.1375  0.2278
 4221ntf    fn424433   3.217   3.760   1.475 -0.0357 -0.2556 -0.4125
 4221ntf    fn424434   3.143   3.690   1.295  0.5497 -0.7406  0.5426
 4221ntf    fn424435   3.038   3.842   1.396 -0.2945  0.0196 -0.0486
 4222ntf    cn124436   0.717   0.911   1.703  0.4465 -0.0046 -0.3745
 4222ntf    sn224437   0.862   0.974   1.614  0.5548  0.0596 -0.1535
 4222ntf    nn324438   0.863   1.125   1.657  0.2778 -0.1345  0.5599
 4222ntf    sn224439   0.939   1.190   1.778  0.4472  0.3541  0.1970
 4222ntf    cn124440   1.090   1.244   1.693  0.3093 -0.0719 -0.3252
 4222ntf    fn424441   0.691   0.784   1.677  0.1905  0.0312 -0.2949
 4222ntf    fn424442   0.738   0.912   1.834 -0.4229  0.0562 -0.2337
 4222ntf    fn424443   0.612   0.988   1.679  0.1885 -0.3820 -0.4722
 4222ntf    on524444   0.977   0.897   1.655 -0.0668 -0.6417  0.2863
 4222ntf    on524445   0.829   0.968   1.474 -0.6300 -0.0034  0.1209
 4222ntf    on524446   0.983   1.098   1.880 -0.3646  0.2485  0.4661
 4222ntf    on524447   0.886   1.318   1.819  0.2500  0.3701 -0.1056
 4222ntf    fn424448   1.155   1.333   1.767 -0.2363  0.1253 -0.0764
 4222ntf    fn424449   1.172   1.142   1.676 -0.0074 -0.2814 -0.6132
 4222ntf    fn424450   1.070   1.306   1.578  0.4317 -0.0090 -0.3130
 4223ntf    cn124451   3.645   5.934   4.916  0.0668  0.0823 -0.0262
 4223ntf    sn224452   3.763   5.829   5.007 -0.0290 -0.0334 -0.0351
 4223ntf    nn324453   3.846   5.943   5.075 -0.2763  0.0027  0.2061
 4223ntf    sn224454   3.907   5.955   5.220  0.2607 -0.1738 -0.0014
 4223ntf    cn124455   4.065   6.039   5.189  0.1648 -0.0439 -0.1451
 4223ntf    fn424456   3.600   6.035   4.990  0.5282  0.0540  0.2966
 4223ntf    fn424457   3.695   5.993   4.809 -0.2125 -0.5630 -0.5203
 4223ntf    fn424458   3.547   5.853   4.879 -0.0834 -0.0376  0.6118
 4223ntf    on524459   3.671   5.763   5.096  0.5920  0.7080  1.1800
 4223ntf    on524460   3.833   5.750   4.909 -0.3139 -0.5729  0.1952
 4223ntf    on524461   3.940   5.822   5.263 -0.5732 -0.4125 -0.0830
 4223ntf    on524462   3.832   6.040   5.309  0.5243  0.2595 -0.1907
 4223ntf    fn424463   4.049   6.164   5.151  1.0681  0.0242 -0.3223
 4223ntf    fn424464   4.142   6.032   5.297 -0.3586 -0.1370  0.2230
 4223ntf    fn424465   4.136   5.976   5.096 -0.1666 -0.7351  0.0585
 4224ntf    cn124466   4.110   4.869   0.031  0.3687 -0.1883 -0.1629
 4224ntf    sn224467   4.105   4.852   0.212 -0.3404 -0.0338 -0.1683
 4224ntf    nn324468   4.101   4.697   0.235  0.5280  0.0227  0.3784
 4224ntf    sn224469   3.994   4.606   0.304  0.0158  0.1883 -0.1889
 4224ntf    cn124470   4.069   4.595   0.470  0.2652 -0.5247 -0.3458
 4224ntf    fn424471   4.089   4.989  -0.019  0.4102  0.0130  0.3071
 4224ntf    fn424472   4.217   4.816  -0.028  0.2371 -0.4840 -0.1396
 4224ntf    fn424473   4.004   4.811  -0.023 -0.0327 -0.1980  0.6284
 4224ntf    on524474   4.233   4.900   0.255 -0.2532 -0.1733 -0.2709
 4224ntf    on524475   3.982   4.918   0.249 -0.1240 -0.0331  0.5645
 4224ntf    on524476   4.008   4.473   0.250  0.1320  0.0838  0.0943
 4224ntf    on524477   3.862   4.661   0.326 -0.0011 -0.2801  0.9848
 4224ntf    fn424478   4.188   4.538   0.461  0.7471  0.4011  0.1092
 4224ntf    fn424479   4.099   4.714   0.518 -0.2958 -0.5370  0.0474
 4224ntf    fn424480   3.998   4.539   0.566 -0.3449  0.3573 -0.2779
 4225ntf    cn124481   2.998   6.232   6.945 -0.0526  0.4725 -0.3224
 4225ntf    sn224482   2.978   6.355   7.077 -0.7056  0.0088  0.0158
 4225ntf    nn324483   3.118   6.422   7.056 -0.6461 -0.0293  0.2832
 4225ntf    sn224484   3.237   6.415   7.158 -0.3239 -0.3612 -0.1133
 4225ntf    cn124485   3.236   6.585   7.223 -0.4009 -0.3518 -0.1388
 4225ntf    fn424486   2.984   6.286   6.825  0.0436  0.7440 -0.2126
 4225ntf    fn424487   3.112   6.166   6.950 -0.4704 -0.2244  0.1944
 4225ntf    fn424488   2.901   6.142   6.954  0.3041  0.0777 -0.4130
 4225ntf    on524489   2.879   6.441   7.017  0.0126  0.3283 -0.7319
 4225ntf    on524490   2.942   6.275   7.192 -0.2780 -0.0506  0.1107
 4225ntf    on524491   3.364   6.415   7.089 -0.1900  0.1023  0.1322
 4225ntf    on524492   3.230   6.328   7.272 -0.4881 -0.4680 -0.2043
 4225ntf    fn424493   3.321   6.599   7.323 -0.3622  0.1433 -0.2424
 4225ntf    fn424494   3.263   6.687   7.143 -0.2853 -0.1296  0.1810
 4225ntf    fn424495   3.118   6.621   7.271 -0.2364  0.0943 -0.0626
 4226ntf    cn124496   4.071   0.289   2.842  0.0119  0.3911  0.5257
 4226ntf    sn224497   4.117   0.124   2.903 -0.1299  0.0787 -0.2026
 4226ntf    nn324498   4.111   0.044   2.767  0.0699  0.2755 -0.3286
 4226ntf    sn224499   4.013  -0.066   2.713 -0.1509  0.1686  0.2839
 4226ntf    cn124500   3.940  -0.003   2.560 -0.3671 -0.0969  0.2767
 4226ntf    fn424501   4.154   0.340   2.751 -0.0559  0.1078  0.3020
 4226ntf    fn424502   3.954   0.275   2.782  0.3354  0.0622 -0.0479
 4226ntf    fn424503   4.056   0.369   2.946  0.1017  0.4322  0.5081
 4226ntf    on524504   4.250   0.138   2.957 -0.4345 -0.4859  0.7027
 4226ntf    on524505   4.009   0.099   2.995  0.2225 -0.2114  0.1369
 4226ntf    on524506   3.897  -0.096   2.793 -0.5402 -0.3594 -0.4666
 4226ntf    on524507   4.085  -0.184   2.670  0.4649  0.5189  0.3407
 4226ntf    fn424508   4.023   0.014   2.459 -0.3819 -0.2768  0.2330
 4226ntf    fn424509   3.852  -0.087   2.508 -0.0779 -0.1658 -0.1056
 4226ntf    fn424510   3.872   0.109   2.577 -0.4284 -0.0693 -0.1235
 4227ntf    cn124511   3.208   6.288   5.416 -0.0577 -0.1533 -0.0563
 4227ntf    sn224512   3.188   6.326   5.592 -0.0789 -0.1576 -0.0578
 4227ntf    nn324513   3.316   6.411   5.624  0.2035 -0.5781 -0.0683
 4227ntf    sn224514   3.402   6.443   5.751 -0.1747  0.3675 -0.0492
 4227ntf    cn124515   3.334   6.601   5.812  0.1215  0.3813  0.2448
 4227ntf    fn424516   3.164   6.384   5.337  0.6348  0.2232  0.0079
 4227ntf    fn424517   3.334   6.280   5.378  0.1975  0.3738  0.6620
 4227ntf    fn424518   3.156   6.175   5.371  0.2597 -0.2051 -0.2980
 4227ntf    on524519   3.068   6.405   5.602  0.2439  0.3086  0.1537
 4227ntf    on524520   3.188   6.198   5.659 -0.7083 -0.2359 -0.1998
 4227ntf    on524521   3.536   6.479   5.712 -0.1353  0.4069  0.1220
 4227ntf    on524522   3.395   6.349   5.860 -0.1725  0.2704 -0.1332
 4227ntf    fn424523   3.226   6.584   5.886 -0.1342  0.0361 -0.2046
 4227ntf    fn424524   3.419   6.681   5.874 -0.0857  0.5405  0.3261
 4227ntf    fn424525   3.286   6.662   5.705 -0.7142 -0.4187  0.1554
 4228ntf    cn124526   3.837   5.148   1.403  0.4567  0.2180  0.4438
 4228ntf    sn224527   3.844   5.166   1.583 -0.2082 -0.1145  0.5070
 4228ntf    nn324528   3.903   5.027   1.627  0.3896  0.0013  0.0839
 4228ntf    sn224529   3.824   4.892   1.640 -0.1246  0.2903 -0.0047
 4228ntf    cn124530   3.854   4.864   1.817 -0.0529 -0.1191 -0.0804
 4228ntf    fn424531   3.951   5.098   1.359  0.1499 -0.3195  0.2467
 4228ntf    fn424532   3.751   5.057   1.361  0.5917  0.4398 -0.3444
 4228ntf    fn424533   3.805   5.256   1.333 -0.1118 -0.2624 -0.0487
 4228ntf    on524534   3.952   5.260   1.602 -0.3928 -0.0075  1.0745
 4228ntf    on524535   3.714   5.203   1.633 -0.1059  0.4102  0.3932
 4228ntf    on524536   3.898   4.780   1.587  0.5112  0.6890  0.0363
 4228ntf    on524537   3.680   4.899   1.637 -0.1439  0.2840  0.6568
 4228ntf    fn424538   3.792   4.756   1.863 -0.1243 -0.2047 -0.3738
 4228ntf    fn424539   3.982   4.847   1.848 -0.1386  0.2844  0.5021
 4228ntf    fn424540   3.810   4.966   1.888  0.0483 -0.2595  0.1848
 4229ntf    cn124541   6.722   5.511   6.979 -0.1944  0.0670  0.0492
 4229ntf    sn224542   6.540   5.502   6.982 -0.1980  0.2208  0.3684
 4229ntf    nn324543   6.495   5.647   7.023 -0.6419  0.1097  0.2740
 4229ntf    sn224544   6.465   5.768   6.928 -0.0250  0.0859  0.0407
 4229ntf    cn124545   6.509   5.905   7.040 -0.3577  0.2439 -0.0191
 4229ntf    fn424546   6.782   5.555   7.089 -0.1171 -0.4072  0.1987
 4229ntf    fn424547   6.781   5.401   6.937  0.0304  0.0263  0.4559
 4229ntf    fn424548   6.762   5.603   6.893  0.4464 -0.0039  0.2618
 4229ntf    on524549   6.499   5.461   6.850  0.6595 -0.3498  0.2687
 4229ntf    on524550   6.524   5.416   7.097 -0.1412 -0.4458 -0.1182
 4229ntf    on524551   6.324   5.779   6.897 -0.0098  0.4145  0.0815
 4229ntf    on524552   6.547   5.794   6.812 -0.2873  0.8625  0.0206
 4229ntf    fn424553   6.447   6.017   7.008 -0.1184  0.4909  0.3790
 4229ntf    fn424554   6.482   5.882   7.167  0.6866  0.4594  0.2500
 4229ntf    fn424555   6.636   5.944   7.034 -0.3004  0.1539  0.5671
 4230ntf    cn124556   6.105   3.935   1.270  0.3091 -0.4883 -0.0157
 4230ntf    sn224557   5.932   3.908   1.317  0.1387 -0.0975 -0.4157
 4230ntf    nn324558   5.896   3.775   1.242 -0.2390 -0.4460  0.3727
 4230ntf    sn224559   5.767   3.729   1.163 -0.0786 -0.1703 -0.0547
 4230ntf    cn124560   5.829   3.762   0.995  0.2639  0.3512  0.1715
 4230ntf    fn424561   6.118   3.954   1.140  0.2295 -0.0469  0.0386
 4230ntf    fn424562   6.166   4.038   1.328 -0.0145 -0.0604 -0.4300
 4230ntf    fn424563   6.181   3.831   1.300  0.5622 -0.2399  0.2186
 4230ntf    on524564   5.935   3.886   1.459 -0.6873  0.2469 -0.3365
 4230ntf    on524565   5.865   4.025   1.265 -0.4355 -0.1365  0.2217
 4230ntf    on524566   5.654   3.815   1.191  0.0795  0.2430 -0.6618
 4230ntf    on524567   5.741   3.588   1.175 -0.3605 -0.1674 -0.6024
 4230ntf    fn424568   5.883   3.880   0.966 -0.0608  0.3760 -0.3361
 4230ntf    fn424569   5.927   3.677   0.970  0.2523  0.4042 -0.0561
 4230ntf    fn424570   5.733   3.738   0.908  0.0715 -0.1829  0.5287
 4231ntf    cn124571   0.679   6.999   0.106 -0.1507 -0.1453 -0.0216
 4231ntf    sn224572   0.702   7.120   0.240 -0.4185 -0.0772 -0.0364
 4231ntf    nn324573   0.552   7.166   0.233 -0.5168 -0.3542  0.2746
 4231ntf    sn224574   0.483   7.305   0.210 -0.0709 -0.1791  0.0014
 4231ntf    cn124575   0.393   7.322   0.366  0.0269  0.4156 -0.0034
 4231ntf    fn424576   0.647   7.051  -0.011  0.4311  0.4999  0.1020
 4231ntf    fn424577   0.797   6.944   0.083 -0.0913 -0.0894  0.1430
 4231ntf    fn424578   0.590   6.902   0.122  0.0806 -0.3000  0.3490
 4231ntf    on524579   0.743   7.042   0.353 -0.6737 -0.3663 -0.1436
 4231ntf    on524580   0.794   7.219   0.189 -0.3782 -0.2888 -0.3812
 4231ntf    on524581   0.378   7.301   0.112 -0.4139  0.7118  0.3269
 4231ntf    on524582   0.564   7.423   0.195  0.3228 -0.4989 -0.4252
 4231ntf    fn424583   0.275   7.260   0.367  0.0430  0.3749 -0.6290
 4231ntf    fn424584   0.454   7.264   0.468  0.2993  0.2995 -0.2339
 4231ntf    fn424585   0.368   7.445   0.408  0.0890  0.5354 -0.3172
 4232ntf    cn124586   1.346   4.369   5.272 -0.0479  0.0949  0.0469
 4232ntf    sn224587   1.504   4.346   5.360  0.0691 -0.2501 -0.2499
 4232ntf    nn324588   1.618   4.373   5.256  0.0609  0.6511 -0.0334
 4232ntf    sn224589   1.681   4.264   5.162 -0.1014  0.2816  0.2807
 4232ntf    cn124590   1.816   4.196   5.263  0.3047  0.2745 -0.2603
 4232ntf    fn424591   1.365   4.396   5.144 -0.2272 -0.1845 -0.0391
 4232ntf    fn424592   1.267   4.263   5.269  0.2616 -0.1304 -0.2965
 4232ntf    fn424593   1.276   4.470   5.320  0.2595  0.2338  0.2084
 4232ntf    on524594   1.501   4.455   5.454  0.8628 -0.4681  0.0341
 4232ntf    on524595   1.500   4.218   5.427  0.6214 -0.0940  0.0886
 4232ntf    on524596   1.760   4.322   5.056 -0.5511 -0.3052 -0.3784
 4232ntf    on524597   1.597   4.152   5.127 -0.1359  0.4764 -0.2697
 4232ntf    fn424598   1.876   4.093   5.206 -0.6376 -0.4384  0.0155
 4232ntf    fn424599   1.911   4.286   5.287  0.3818  0.1098  0.0546
 4232ntf    fn424600   1.780   4.149   5.381 -0.2751  0.0451 -0.5279
 4233ntf    cn124601   1.958   4.110   3.668  0.3584 -0.5359 -0.2535
 4233ntf    sn224602   2.080   4.013   3.762  0.1479  0.0471  0.6216
 4233ntf    nn324603   2.038   3.862   3.756  0.3413  0.0111  0.2148
 4233ntf    sn224604   2.094   3.738   3.834  0.0438 -0.0410  0.3461
 4233ntf    cn124605   2.212   3.676   3.710 -0.1306 -0.0753  0.1966
 4233ntf    fn424606   2.002   4.167   3.557  0.4922 -0.1600 -0.0096
 4233ntf    fn424607   1.854   4.034   3.638 -0.3264  0.0493  0.6108
 4233ntf    fn424608   1.907   4.202   3.748  0.2840 -0.7247 -0.0839
 4233ntf    on524609   2.196   4.039   3.681  0.2951 -0.1137  0.7820
 4233ntf    on524610   2.090   4.068   3.895  0.2455  0.2013  0.5507
 4233ntf    on524611   2.007   3.625   3.857 -0.2415  0.1522  0.2212
 4233ntf    on524612   2.173   3.769   3.950  0.1486 -0.2889  0.3413
 4233ntf    fn424613   2.168   3.655   3.587 -0.0928  0.4064  0.0959
 4233ntf    fn424614   2.307   3.764   3.680  0.0609 -0.3156  0.1016
 4233ntf    fn424615   2.272   3.568   3.757 -0.0518 -0.1553 -0.0873
 4234ntf    cn124616   0.803   6.042   2.390  0.2135 -0.4327  0.2515
 4234ntf    sn224617   0.963   6.071   2.310 -0.1832 -0.3011 -0.5083
 4234ntf    nn324618   1.019   6.185   2.402  0.3820 -0.6531 -0.4028
 4234ntf    sn224619   1.118   6.305   2.380 -0.2351 -0.0362  0.1091
 4234ntf    cn124620   1.013   6.439   2.444  0.0525  0.0293  0.4484
 4234ntf    fn424621   0.729   6.152   2.392 -0.0648 -0.6147  0.0678
 4234ntf    fn424622   0.728   5.957   2.321 -0.4954  0.5248 -0.1836
 4234ntf    fn424623   0.813   5.999   2.515 -0.0962 -0.5893  0.2233
 4234ntf    on524624   1.036   5.946   2.308  0.4219  0.0583 -1.0860
 4234ntf    on524625   0.919   6.125   2.184  0.6116  0.3939 -0.4988
 4234ntf    on524626   1.147   6.337   2.243  0.0964 -0.2999  0.1155
 4234ntf    on524627   1.226   6.311   2.476 -0.0933 -0.5824 -0.0142
 4234ntf    fn424628   1.074   6.549   2.484 -0.0511  0.3008 -0.1271
 4234ntf    fn424629   0.938   6.483   2.345 -0.0707  0.1234  0.5827
 4234ntf    fn424630   0.943   6.395   2.548  0.0911 -0.1153  0.4142
 4235ntf    cn124631   5.388   0.362   6.280  0.4057  0.2518  0.0867
 4235ntf    sn224632   5.233   0.448   6.318  0.0742 -0.4710  0.3957
 4235ntf    nn324633   5.136   0.371   6.222  0.2429  0.1102 -0.2482
 4235ntf    sn224634   5.015   0.426   6.138 -0.0009  0.1680  0.1390
 4235ntf    cn124635   4.899   0.290   6.174  0.0198  0.1518  0.1443
 4235ntf    fn424636   5.376   0.230   6.291 -0.6653  0.2978 -0.4094
 4235ntf    fn424637   5.438   0.385   6.160 -0.5513  0.3632 -0.3016
 4235ntf    fn424638   5.480   0.390   6.370  0.2078  0.1880  0.3089
 4235ntf    on524639   5.216   0.425   6.459  0.2446  0.1384  0.5201
 4235ntf    on524640   5.243   0.580   6.261 -0.6111 -0.8450 -0.6233
 4235ntf    on524641   5.034   0.409   5.996  0.0752 -0.1801  0.1897
 4235ntf    on524642   4.946   0.546   6.181 -0.1007  0.2477 -0.2396
 4235ntf    fn424643   4.953   0.169   6.172 -0.1261  0.0846  0.2401
 4235ntf    fn424644   4.846   0.302   6.295  0.7098 -0.1912  0.4933
 4235ntf    fn424645   4.801   0.296   6.086  0.2070  0.1187 -0.0671
 4236ntf    cn124646   4.740   5.666   1.716  0.2782  0.2600  0.0596
 4236ntf    sn224647   4.722   5.843   1.682  0.2036  0.3040  0.3258
 4236ntf    nn324648   4.796   5.903   1.807  0.2395 -0.2524  0.5723
 4236ntf    sn224649   4.783   6.035   1.891  0.0531  0.1350 -0.0646
 4236ntf    cn124650   4.933   6.122   1.833  0.1618 -0.0884 -0.1192
 4236ntf    fn424651   4.679   5.628   1.828  0.6035  0.1614  0.2039
 4236ntf    fn424652   4.709   5.580   1.620 -0.1145 -0.4071  0.7615
 4236ntf    fn424653   4.864   5.629   1.744  0.1913 -0.3042 -0.2884
 4236ntf    on524654   4.789   5.847   1.554  0.1332  0.6471  0.2991
 4236ntf    on524655   4.580   5.864   1.680  0.2837  0.8155 -0.4566
 4236ntf    on524656   4.810   6.010   2.030 -0.1246  0.0827 -0.0401
 4236ntf    on524657   4.673   6.125   1.865  0.4125  0.4385 -0.5687
 4236ntf    fn424658   5.047   6.078   1.884  0.2687 -0.5994 -0.7804
 4236ntf    fn424659   4.942   6.128   1.701 -0.8425  0.1218 -0.1903
 4236ntf    fn424660   4.921   6.248   1.872  0.2230 -0.2893  0.5746
 4237ntf    cn124661   2.053   5.239   2.184  0.1275 -0.3043  0.5974
 4237ntf    sn224662   2.080   5.091   2.083  0.2316  0.3430 -0.3282
 4237ntf    nn324663   1.948   5.015   2.121  0.4773 -0.0074 -0.1747
 4237ntf    sn224664   1.861   4.918   2.033  0.2391  0.0797 -0.0384
 4237ntf    cn124665   1.701   4.993   2.072  0.1459 -0.1463  0.0159
 4237ntf    fn424666   1.950   5.311   2.143 -0.0314 -0.5716  0.5238
 4237ntf    fn424667   2.033   5.216   2.313 -0.7526  0.0901  0.5395
 4237ntf    fn424668   2.156   5.320   2.170 -0.1930 -0.0370 -0.2527
 4237ntf    on524669   2.099   5.140   1.948  0.6756  0.3769 -0.2537
 4237ntf    on524670   2.202   5.039   2.139  0.1707  0.5541  0.0020
 4237ntf    on524671   1.854   4.785   2.089 -0.2389 -0.0141 -0.3248
 4237ntf    on524672   1.879   4.926   1.890  0.1671  0.2321 -0.0385
 4237ntf    fn424673   1.697   5.125   2.058 -0.0872 -0.1426  0.0960
 4237ntf    fn424674   1.609   4.936   1.995  0.0335  0.3206 -0.1988
 4237ntf    fn424675   1.663   4.961   2.195  0.0138  0.4328  0.1279
 4238ntf    cn124676   1.487   4.318   0.999 -0.1100 -0.0396 -0.2025
 4238ntf    sn224677   1.517   4.376   1.169  0.1799 -0.3324 -0.1537
 4238ntf    nn324678   1.477   4.246   1.248  0.2227 -0.1540  0.1642
 4238ntf    sn224679   1.352   4.218   1.339  0.0145 -0.3228 -0.1714
 4238ntf    cn124680   1.337   4.038   1.356  0.0664 -0.3176 -0.0695
 4238ntf    fn424681   1.569   4.385   0.920 -0.2018 -0.1669 -0.4076
 4238ntf    fn424682   1.517   4.191   0.981 -0.3563 -0.1555  0.1772
 4238ntf    fn424683   1.360   4.339   0.967 -0.2053  0.1833  0.3090
 4238ntf    on524684   1.659   4.395   1.175  0.1949 -0.4124 -0.2497
 4238ntf    on524685   1.437   4.495   1.182  0.5021 -0.0798 -0.4875
 4238ntf    on524686   1.226   4.250   1.275  0.6279 -0.2705 -1.3899
 4238ntf    on524687   1.378   4.271   1.470 -0.2046  0.2272 -0.3460
 4238ntf    fn424688   1.450   3.987   1.402  0.5279  0.4232 -0.3764
 4238ntf    fn424689   1.240   4.005   1.440 -0.2615 -0.1976 -0.3984
 4238ntf    fn424690   1.322   3.978   1.239  0.1247  0.2395 -0.3632
 4239ntf    cn124691   4.174   0.468   4.376 -0.0646  0.8063  0.0869
 4239ntf    sn224692   4.089   0.500   4.534 -0.4327 -0.0169  0.0626
 4239ntf    nn324693   4.171   0.414   4.636 -0.2913  0.2141  0.1437
 4239ntf    sn224694   4.251   0.446   4.768 -0.1555  0.0307  0.1057
 4239ntf    cn124695   4.420   0.458   4.703 -0.0491  0.5879  0.4781
 4239ntf    fn424696   4.115   0.515   4.267  0.2676 -0.0285 -0.4610
 4239ntf    fn424697   4.294   0.521   4.388  0.3917 -0.1656 -0.0533
 4239ntf    fn424698   4.191   0.337   4.365  0.1006  0.8784 -0.5583
 4239ntf    on524699   4.089   0.644   4.534 -0.1379 -0.0181  0.1952
 4239ntf    on524700   3.959   0.439   4.513 -0.7084  0.4307  0.4543
 4239ntf    on524701   4.266   0.342   4.866  0.3867  0.5087  0.5337
 4239ntf    on524702   4.223   0.577   4.822  0.0068  0.0176  0.2219
 4239ntf    fn424703   4.437   0.544   4.604  0.4447 -0.0284  0.0138
 4239ntf    fn424704   4.508   0.494   4.795  0.3626 -0.0719  0.3496
 4239ntf    fn424705   4.457   0.338   4.661  0.1065  0.4975  0.8739
 4240ntf    cn124706   0.678   2.762   6.356  0.1885 -0.2627 -0.3753
 4240ntf    sn224707   0.639   2.588   6.392 -0.1981 -0.0770  0.1004
 4240ntf    nn324708   0.523   2.612   6.495  0.1185  0.2810  0.3776
 4240ntf    sn224709   0.524   2.600   6.652 -0.5633  0.4241  0.3960
 4240ntf    cn124710   0.403   2.729   6.696 -0.5996  0.5053  0.0602
 4240ntf    fn424711   0.575   2.838   6.323  0.2024  0.1750  0.5686
 4240ntf    fn424712   0.723   2.820   6.466 -0.9640 -0.0757  0.0027
 4240ntf    fn424713   0.773   2.773   6.264  0.6728  0.2715  0.1823
 4240ntf    on524714   0.591   2.542   6.265 -0.3600 -0.4235  0.2839
 4240ntf    on524715   0.762   2.529   6.441 -0.0046 -0.0032 -0.2974
 4240ntf    on524716   0.647   2.657   6.703  0.2535 -0.6722 -0.3019
 4240ntf    on524717   0.478   2.474   6.705  0.3445 -0.0872 -0.0036
 4240ntf    fn424718   0.423   2.847   6.640 -0.3327  0.6263  0.4092
 4240ntf    fn424719   0.281   2.698   6.655 -0.3037 -0.4696 -0.1062
 4240ntf    fn424720   0.392   2.741   6.827  0.6111 -0.0786  0.2366
 4241ntf    cn124721   6.330   5.920   2.782  0.1220 -0.4728 -0.2139
 4241ntf    sn224722   6.312   5.765   2.875 -0.2526 -0.3899 -0.1476
 4241ntf    nn324723   6.156   5.769   2.887 -0.2289 -0.0271  0.0515
 4241ntf    sn224724   6.060   5.744   3.009 -0.2134  0.1121  0.0919
 4241ntf    cn124725   6.068   5.908   3.088  0.1375  0.0419  0.2055
 4241ntf    fn424726   6.266   5.915   2.666 -0.0339  0.5716 -0.1825
 4241ntf    fn424727   6.287   6.015   2.864 -0.0177 -0.4643 -0.2977
 4241ntf    fn424728   6.453   5.951   2.746 -0.0907  0.3841 -0.2397
 4241ntf    on524729   6.362   5.660   2.790 -0.2802 -0.6139  0.1106
 4241ntf    on524730   6.382   5.780   3.000 -0.2528  0.4856 -0.2495
 4241ntf    on524731   6.106   5.652   3.111 -0.4844  0.4853  0.5589
 4241ntf    on524732   5.922   5.723   2.973 -0.1212  0.1305 -0.2669
 4241ntf    fn424733   6.016   5.913   3.209 -0.1306 -0.2207  0.1023
 4241ntf    fn424734   6.192   5.949   3.105  0.1098  0.0792  0.3190
 4241ntf    fn424735   6.005   5.998   3.014 -0.0837 -0.1886  0.1100
 4242ntf    cn124736   1.487   6.035   0.317  0.1503 -0.2006 -0.0003
 4242ntf    sn224737   1.494   5.920   0.458 -0.1619 -0.1055  0.0946
 4242ntf    nn324738   1.351   5.857   0.451 -0.1213 -0.1684 -0.1712
 4242ntf    sn224739   1.234   5.877   0.554  0.0997 -0.1555  0.0762
 4242ntf    cn124740   1.278   5.744   0.670  0.0078 -0.4007 -0.1685
 4242ntf    fn424741   1.465   5.977   0.200  0.2206  0.5199 -0.3726
 4242ntf    fn424742   1.387   6.120   0.330  0.3098  0.0977 -0.6840
 4242ntf    fn424743   1.597   6.107   0.303 -0.2820  0.4108 -0.2395
 4242ntf    on524744   1.605   5.833   0.427 -0.0411  0.1777 -0.2762
 4242ntf    on524745   1.510   6.001   0.576 -0.6346  0.4059 -0.1873
 4242ntf    on524746   1.120   5.814   0.493  0.2090 -0.1587 -0.1249
 4242ntf    on524747   1.218   6.002   0.623 -0.6642  0.1196 -0.5849
 4242ntf    fn424748   1.392   5.770   0.732  0.0942 -0.5465 -0.2658
 4242ntf    fn424749   1.194   5.710   0.767 -0.1111  0.8505  0.1841
 4242ntf    fn424750   1.300   5.633   0.602  0.1021  0.0616 -0.8927
 4243ntf    cn124751   3.956   6.745   3.773  0.1564 -0.1738  0.3469
 4243ntf    sn224752   3.930   6.608   3.657  0.4703 -0.0604  0.1419
 4243ntf    nn324753   3.807   6.648   3.568  0.4546 -0.5420 -0.0565
 4243ntf    sn224754   3.710   6.546   3.497 -0.0366 -0.2080  0.1347
 4243ntf    cn124755   3.592   6.534   3.636  0.0857 -0.2403  0.2356
 4243ntf    fn424756   4.067   6.714   3.840  0.0030 -0.5143  0.4490
 4243ntf    fn424757   3.970   6.859   3.709 -0.4433 -0.5600 -0.4861
 4243ntf    fn424758   3.855   6.761   3.857  0.2795  0.6141  0.3448
 4243ntf    on524759   4.051   6.591   3.581  0.1133 -0.2520 -0.3934
 4243ntf    on524760   3.891   6.502   3.746  0.3670  0.5085  0.7788
 4243ntf    on524761   3.762   6.416   3.466 -0.1568 -0.3544  0.5378
 4243ntf    on524762   3.632   6.611   3.394  0.4952 -0.1297 -0.2177
 4243ntf    fn424763   3.636   6.458   3.736  0.3663  0.2333  0.4765
 4243ntf    fn424764   3.552   6.650   3.684 -0.2385 -0.0840 -0.4007
 4243ntf    fn424765   3.482   6.474   3.593  0.1225  0.1409 -0.3952
 4244ntf    cn124766   0.741   1.012   0.445 -0.0681  0.1854 -0.0283
 4244ntf    sn224767   0.751   1.139   0.315 -0.0448  0.1977 -0.0145
 4244ntf    nn324768   0.721   1.066   0.180 -0.0093  0.3836 -0.1233
 4244ntf    sn224769   0.813   1.043   0.055  0.2381  0.0221  0.1225
 4244ntf    cn124770   0.724   1.155  -0.057 -0.2839 -0.1545  0.3568
 4244ntf    fn424771   0.817   0.906   0.421 -0.0219  0.2832 -0.3133
 4244ntf    fn424772   0.780   1.068   0.559 -0.0585  0.4160 -0.1453
 4244ntf    fn424773   0.613   0.985   0.459 -0.0396 -0.0327 -0.1750
 4244ntf    on524774   0.643   1.224   0.358 -0.1418 -0.0838  0.3107
 4244ntf    on524775   0.881   1.196   0.338  0.0729 -0.2061  0.3350
 4244ntf    on524776   0.784   0.922  -0.017  0.6315  0.0512 -0.0863
 4244ntf    on524777   0.952   1.081   0.061  0.2917 -0.1306 -0.1515
 4244ntf    fn424778   0.697   1.268   0.007  0.4598 -0.1361  0.6522
 4244ntf    fn424779   0.796   1.187  -0.163  0.1000 -0.1652  0.6112
 4244ntf    fn424780   0.614   1.097  -0.101 -0.4765  0.2803  0.2612
 4245ntf    cn124781   4.685   1.856   7.109  0.4005  0.0494 -0.1997
 4245ntf    sn224782   4.727   2.033   7.122  0.2537  0.0809 -0.1554
 4245ntf    nn324783   4.876   2.030   7.071  0.0932 -0.3402 -0.6172
 4245ntf    sn224784   4.999   1.998   7.162 -0.3233  0.2032  0.1537
 4245ntf    cn124785   5.077   1.875   7.053 -0.6705  0.2491 -0.1460
 4245ntf    fn424786   4.737   1.795   7.003  0.0302  0.0744 -0.3994
 4245ntf    fn424787   4.732   1.782   7.208 -0.1650  0.2160  0.1953
 4245ntf    fn424788   4.554   1.839   7.117  0.4076  0.0783 -0.0270
 4245ntf    on524789   4.630   2.082   7.028  0.3417 -0.1315 -0.3595
 4245ntf    on524790   4.712   2.075   7.259 -0.6949  0.3426 -0.3355
 4245ntf    on524791   4.985   1.928   7.288  0.9434 -0.0985  0.1393
 4245ntf    on524792   5.091   2.109   7.169 -0.3348  0.1943  0.5021
 4245ntf    fn424793   4.995   1.772   7.037  0.0486 -0.3014 -0.3414
 4245ntf    fn424794   5.111   1.925   6.936 -0.6737 -0.1116 -0.3021
 4245ntf    fn424795   5.185   1.824   7.110 -0.1430  0.8998 -0.5561
 4246ntf    cn124796   1.146   5.237   1.312 -0.3329  0.0449  0.5321
 4246ntf    sn224797   1.297   5.147   1.357 -0.0807  0.1667 -0.0664
 4246ntf    nn324798   1.281   5.169   1.512 -0.1481  0.1272 -0.0677
 4246ntf    sn224799   1.191   5.076   1.599 -0.0459 -0.1000 -0.2023
 4246ntf    cn124800   1.127   5.203   1.713  0.2225 -0.2658  0.1351
 4246ntf    fn424801   1.033   5.189   1.362 -0.1589 -0.8011  0.1283
 4246ntf    fn424802   1.150   5.364   1.351  0.2131  0.1984 -0.0279
 4246ntf    fn424803   1.120   5.227   1.183 -0.1770 -0.2495  0.5252
 4246ntf    on524804   1.285   5.010   1.312 -0.3712  0.4196 -0.7754
 4246ntf    on524805   1.401   5.226   1.297  0.1799 -0.1662 -0.0526
 4246ntf    on524806   1.267   4.984   1.681  0.7382  0.1808 -0.6097
 4246ntf    on524807   1.069   5.030   1.536 -0.3502 -0.3791  0.5746
 4246ntf    fn424808   1.082   5.150   1.825  0.1227  0.2313  0.3317
 4246ntf    fn424809   1.223   5.288   1.747  0.0814 -0.2045  0.3773
 4246ntf    fn424810   1.033   5.275   1.655  0.4924 -0.2059 -0.2347
 4247ntf    cn124811   2.483   5.403   3.839 -0.2314  0.2448 -0.2262
 4247ntf    sn224812   2.649   5.350   3.891 -0.3536 -0.1411 -0.2301
 4247ntf    nn324813   2.722   5.381   3.756 -0.3576 -0.3050 -0.2702
 4247ntf    sn224814   2.736   5.528   3.703 -0.0151 -0.2021  0.1015
 4247ntf    cn124815   2.905   5.570   3.758 -0.0605 -0.0890  0.1568
 4247ntf    fn424816   2.471   5.432   3.710 -0.0681  0.1000 -0.2735
 4247ntf    fn424817   2.395   5.307   3.861 -0.2601  0.3377  0.0688
 4247ntf    fn424818   2.433   5.512   3.896 -0.5900  0.0164 -0.1046
 4247ntf    on524819   2.684   5.439   3.999  0.0208 -0.5120 -0.0453
 4247ntf    on524820   2.637   5.209   3.919  0.0010 -0.1935 -0.3445
 4247ntf    on524821   2.654   5.633   3.760 -0.0153 -0.1034 -0.0811
 4247ntf    on524822   2.744   5.527   3.560 -0.4557 -0.0556  0.0749
 4247ntf    fn424823   2.985   5.497   3.681 -0.3383 -0.4793  0.2320
 4247ntf    fn424824   2.928   5.700   3.753  0.4201 -0.1770  0.0977
 4247ntf    fn424825   2.940   5.538   3.881  0.6315  0.0566  0.0020
 4248ntf    cn124826   5.524   5.889   7.251  0.1510 -0.5193  0.0294
 4248ntf    sn224827   5.678   5.899   7.348  0.1546  0.2320 -0.0447
 4248ntf    nn324828   5.618   5.930   7.490 -0.4583 -0.1852 -0.2035
 4248ntf    sn224829   5.574   5.834   7.605 -0.1440 -0.2420 -0.1296
 4248ntf    cn124830   5.719   5.854   7.713  0.0253  0.0465 -0.4118
 4248ntf    fn424831   5.454   5.781   7.281 -0.0913 -0.4114 -0.1484
 4248ntf    fn424832   5.448   5.994   7.278  0.7624 -0.1952  0.5200
 4248ntf    fn424833   5.543   5.905   7.121 -0.3144 -0.2115 -0.0013
 4248ntf    on524834   5.743   5.771   7.330  0.3973  0.3065  0.2916
 4248ntf    on524835   5.743   6.013   7.289  0.2977  0.1821  0.0156
 4248ntf    on524836   5.577   5.692   7.583  0.2426 -0.1859 -0.4600
 4248ntf    on524837   5.463   5.889   7.679  0.4230 -0.0956  0.6235
 4248ntf    fn424838   5.698   5.796   7.829 -0.2749  0.2675 -0.3555
 4248ntf    fn424839   5.832   5.815   7.656 -0.3562  0.0377 -1.1669
 4248ntf    fn424840   5.736   5.980   7.751  0.2217 -0.2718  0.5830
 4249ntf    cn124841   4.934   2.821   2.669  0.4046 -0.0290  0.1578
 4249ntf    sn224842   4.758   2.809   2.713  0.3565 -0.0726 -0.0445
 4249ntf    nn324843   4.692   2.909   2.611 -0.1354 -0.2861  0.0584
 4249ntf    sn224844   4.561   2.991   2.635  0.0504 -0.0092  0.1348
 4249ntf    cn124845   4.466   2.945   2.487 -0.3861  0.2456  0.3304
 4249ntf    fn424846   5.008   2.743   2.746  0.1347 -0.0525  0.3947
 4249ntf    fn424847   4.969   2.788   2.546  0.9891  0.0824  0.2908
 4249ntf    fn424848   4.972   2.947   2.681  0.1220  0.1117 -0.3738
 4249ntf    on524849   4.732   2.672   2.677  0.6482 -0.2134  0.2816
 4249ntf    on524850   4.756   2.853   2.850  0.7716 -0.0941 -0.0304
 4249ntf    on524851   4.585   3.131   2.608 -0.4878  0.0372 -0.1139
 4249ntf    on524852   4.478   2.956   2.748 -0.4336  0.6165 -0.0182
 4249ntf    fn424853   4.424   2.820   2.497  0.2374 -0.0019 -0.0409
 4249ntf    fn424854   4.360   3.019   2.461 -0.6269 -0.1497  0.1767
 4249ntf    fn424855   4.542   2.953   2.379  0.0678 -0.3629  0.5980
 4250ntf    cn124856   5.545   6.750   1.566 -0.3644  0.4558  0.3267
 4250ntf    sn224857   5.661   6.643   1.657 -0.1046  0.5528  0.1133
 4250ntf    nn324858   5.663   6.716   1.797  0.5193  0.4598  0.1538
 4250ntf    sn224859   5.620   6.653   1.934 -0.3599 -0.2921 -0.4492
 4250ntf    cn124860   5.696   6.761   2.060 -0.0451 -0.3884 -0.5564
 4250ntf    fn424861   5.449   6.802   1.639 -0.4902  0.1552  0.3759
 4250ntf    fn424862   5.608   6.841   1.493 -0.6639 -0.0110 -0.5401
 4250ntf    fn424863   5.485   6.674   1.476  0.8684 -0.1288 -0.0327
 4250ntf    on524864   5.578   6.526   1.649  0.6044 -0.0306  1.0717
 4250ntf    on524865   5.779   6.654   1.575  0.5548 -0.2581  0.9277
 4250ntf    on524866   5.685   6.526   1.958  0.1920 -0.0208 -0.4749
 4250ntf    on524867   5.480   6.662   1.967 -0.3157  0.3952 -0.4221
 4250ntf    fn424868   5.662   6.887   2.042  0.1094 -0.2749 -0.0558
 4250ntf    fn424869   5.665   6.732   2.185 -0.0861  0.0762 -0.4578
 4250ntf    fn424870   5.828   6.768   2.060 -0.0696  0.2612  0.5132
 4251ntf    cn124871   1.501   1.471   1.540 -0.2254 -0.0289 -0.2501
 4251ntf    sn224872   1.599   1.587   1.439 -0.0148  0.1441  0.1503
 4251ntf    nn324873   1.601   1.501   1.308 -0.3219  0.3785 -0.0081
 4251ntf    sn224874   1.486   1.493   1.201 -0.2613 -0.0211 -0.0448
 4251ntf    cn124875   1.530   1.645   1.112  0.1358 -0.2314 -0.2106
 4251ntf    fn424876   1.373   1.456   1.509 -0.2624  0.1004 -0.1595
 4251ntf    fn424877   1.562   1.354   1.529 -0.6399 -0.3082  0.3743
 4251ntf    fn424878   1.501   1.501   1.669 -0.1593  0.0168 -0.2603
 4251ntf    on524879   1.520   1.707   1.442 -0.2726 -0.0250  0.1731
 4251ntf    on524880   1.726   1.580   1.508  0.4265 -0.4332 -0.6954
 4251ntf    on524881   1.352   1.523   1.246 -0.2896 -0.7162  0.3521
 4251ntf    on524882   1.496   1.384   1.106  0.6777 -0.0402  0.0726
 4251ntf    fn424883   1.450   1.656   1.007 -0.0874 -0.1865 -0.0358
 4251ntf    fn424884   1.515   1.760   1.176  0.1160 -0.3941  0.0797
 4251ntf    fn424885   1.653   1.642   1.063  0.2797  0.5368  0.0922
 4252ntf    cn124886   4.441   0.122   1.480  0.1248  0.1300 -0.2211
 4252ntf    sn224887   4.350   0.012   1.592  0.2989 -0.1264 -0.3304
 4252ntf    nn324888   4.281   0.118   1.685 -0.3773 -0.6317 -0.2514
 4252ntf    sn224889   4.309   0.130   1.839 -0.2924  0.2186 -0.3274
 4252ntf    cn124890   4.152   0.213   1.877 -0.4968 -0.2685 -0.0945
 4252ntf    fn424891   4.539   0.172   1.555  0.1343  0.1037 -0.2157
 4252ntf    fn424892   4.498   0.054   1.382 -0.3069 -0.0072 -0.3778
 4252ntf    fn424893   4.370   0.215   1.418 -0.1303  0.0286 -0.0825
 4252ntf    on524894   4.251  -0.055   1.513 -0.4020  0.2542  0.2131
 4252ntf    on524895   4.455  -0.060   1.660  0.3493  0.0126 -0.2595
 4252ntf    on524896   4.416   0.220   1.874 -0.3733  0.1398  0.1347
 4252ntf    on524897   4.292   0.008   1.913 -0.0241  0.4649  0.1464
 4252ntf    fn424898   4.121   0.224   2.005  0.3074 -0.2484  0.1049
 4252ntf    fn424899   4.150   0.336   1.829  0.0757 -0.2253 -0.0150
 4252ntf    fn424900   4.056   0.145   1.816 -0.5465 -0.5496  0.2943
 4253ntf    cn124901   0.693   6.025   3.999 -0.1731 -0.2992 -0.3336
 4253ntf    sn224902   0.767   6.191   3.995 -0.2382 -0.2708 -0.3383
 4253ntf    nn324903   0.807   6.210   4.145  0.5216 -0.6055 -0.4945
 4253ntf    sn224904   0.918   6.301   4.209 -0.1499  0.0402 -0.2300
 4253ntf    cn124905   1.035   6.172   4.262 -0.4730 -0.1110  0.1115
 4253ntf    fn424906   0.629   6.001   3.886 -0.3629  0.1279 -0.3170
 4253ntf    fn424907   0.784   5.929   4.006  0.0100 -0.0829  0.3087
 4253ntf    fn424908   0.602   6.007   4.092  0.2356 -0.3570  0.0579
 4253ntf    on524909   0.878   6.171   3.905 -0.3676 -0.2251 -0.5087
 4253ntf    on524910   0.659   6.274   3.947 -0.7824 -0.4138  0.6025
 4253ntf    on524911   0.886   6.359   4.337 -0.1436 -0.0098 -0.2057
 4253ntf    on524912   1.003   6.376   4.119 -0.2286  0.5615  0.1251
 4253ntf    fn424913   1.012   6.117   4.381  0.3098 -0.2525  0.1994
 4253ntf    fn424914   1.027   6.072   4.176  0.4719 -0.1533  0.0699
 4253ntf    fn424915   1.160   6.214   4.265 -0.6560  0.4387  0.1495
 4254ntf    cn124916   4.483   1.852   3.384  0.1267  0.2222 -0.3282
 4254ntf    sn224917   4.490   1.673   3.355  0.3166  0.1543  0.1195
 4254ntf    nn324918   4.338   1.633   3.341  0.3147  0.1730  0.0843
 4254ntf    sn224919   4.241   1.608   3.220  0.2452 -0.0644  0.1890
 4254ntf    cn124920   4.248   1.426   3.221 -0.4656 -0.0940 -0.0690
 4254ntf    fn424921   4.598   1.894   3.435 -0.0124 -0.5710  0.6550
 4254ntf    fn424922   4.462   1.924   3.275  0.4294 -0.0302 -0.5548
 4254ntf    fn424923   4.379   1.877   3.462  0.3047 -0.0447 -0.0039
 4254ntf    on524924   4.578   1.650   3.243 -0.1827 -0.1387 -0.2186
 4254ntf    on524925   4.541   1.625   3.481 -0.1458 -0.3366  0.1264
 4254ntf    on524926   4.284   1.652   3.090 -0.0078 -0.0597  0.1069
 4254ntf    on524927   4.101   1.628   3.247 -0.0735 -0.7204 -0.9296
 4254ntf    fn424928   4.189   1.381   3.331  0.7946  0.2640  0.7753
 4254ntf    fn424929   4.178   1.372   3.123  0.1408 -0.5996 -0.2267
 4254ntf    fn424930   4.370   1.377   3.220 -0.1935  0.5874 -0.7345
 4255ntf    cn124931   6.415   6.663   4.592  0.0199 -0.1836  0.1705
 4255ntf    sn224932   6.361   6.761   4.449 -0.0122  0.2031  0.4462
 4255ntf    nn324933   6.507   6.797   4.403 -0.1378 -0.1566 -0.2566
 4255ntf    sn224934   6.578   6.937   4.417 -0.1749 -0.1255 -0.3768
 4255ntf    cn124935   6.709   6.921   4.293  0.0531 -0.3692 -0.1054
 4255ntf    fn424936   6.473   6.731   4.689 -0.2412 -0.3122  0.4183
 4255ntf    fn424937   6.317   6.605   4.659 -0.1940  0.2630  0.2463
 4255ntf    fn424938   6.504   6.566   4.572 -0.2234 -0.3715 -0.0028
 4255ntf    on524939   6.286   6.672   4.364  0.1399  0.8781 -0.4088
 4255ntf    on524940   6.290   6.871   4.509 -0.0162  0.4827 -0.0673
 4255ntf    on524941   6.643   6.962   4.543 -0.1614  0.1662 -0.4396
 4255ntf    on524942   6.499   7.045   4.364  0.7950  0.7686 -0.0229
 4255ntf    fn424943   6.775   6.807   4.301  0.3989 -0.1892 -0.3164
 4255ntf    fn424944   6.656   6.931   4.173 -0.0132  0.5235 -0.0109
 4255ntf    fn424945   6.802   7.016   4.299 -0.4568  0.1527 -0.3665
 4256ntf    cn124946   5.663   5.966   2.493  0.3415 -0.3246  0.0103
 4256ntf    sn224947   5.761   5.850   2.392  0.2858 -0.3247 -0.0432
 4256ntf    nn324948   5.639   5.787   2.316 -0.0905  0.0926  0.2028
 4256ntf    sn224949   5.564   5.835   2.187  0.1660  0.2785  0.1203
 4256ntf    cn124950   5.606   5.704   2.068 -0.0208 -0.2561  0.6399
 4256ntf    fn424951   5.614   6.062   2.417 -0.5646 -0.6246  0.2113
 4256ntf    fn424952   5.564   5.908   2.558  0.1735  0.3948  0.4105
 4256ntf    fn424953   5.733   6.026   2.589  0.3029  0.4334 -0.4285
 4256ntf    on524954   5.860   5.924   2.318  0.0014 -0.2777 -0.3764
 4256ntf    on524955   5.809   5.761   2.495  0.0440 -0.5527 -0.1260
 4256ntf    on524956   5.600   5.960   2.125  0.1827 -0.0412 -0.5293
 4256ntf    on524957   5.421   5.821   2.202  0.2018 -0.5612 -0.2338
 4256ntf    fn424958   5.567   5.735   1.946 -0.3784 -0.4551  0.7027
 4256ntf    fn424959   5.737   5.688   2.060  0.0653  0.8426 -0.3142
 4256ntf    fn424960   5.554   5.586   2.100 -0.5265 -0.2940 -0.2927
 4257ntf    cn124961   4.429   4.036   2.844 -0.2197 -0.0703  0.3448
 4257ntf    sn224962   4.611   4.035   2.851 -0.2151 -0.1612  0.2130
 4257ntf    nn324963   4.637   4.184   2.893  0.5492 -0.2597  0.1121
 4257ntf    sn224964   4.760   4.274   2.859  0.3427  0.0162  0.0915
 4257ntf    cn124965   4.885   4.210   2.974  0.5670  0.0491 -0.1341
 4257ntf    fn424966   4.368   4.099   2.943 -0.1937  0.0929  0.2581
 4257ntf    fn424967   4.387   4.095   2.733  0.1835  0.0516  0.2533
 4257ntf    fn424968   4.373   3.916   2.842 -0.0578 -0.1353 -0.5277
 4257ntf    on524969   4.635   3.935   2.953 -0.2194  0.3966  0.7626
 4257ntf    on524970   4.647   3.997   2.716 -0.3247  0.0661  0.1200
 4257ntf    on524971   4.744   4.411   2.900 -0.6381 -0.2401  0.5917
 4257ntf    on524972   4.822   4.257   2.730  0.0791 -0.2976  0.0040
 4257ntf    fn424973   4.981   4.296   3.003 -0.2571  0.9668 -0.0987
 4257ntf    fn424974   4.825   4.166   3.082  0.1978  0.0556 -0.3350
 4257ntf    fn424975   4.928   4.099   2.916  0.0132 -0.3185  0.1564
 4258ntf    cn124976   1.519   6.506   0.011 -0.0511 -0.0470  0.0277
 4258ntf    sn224977   1.572   6.479  -0.161  0.1709  0.0525  0.0797
 4258ntf    nn324978   1.712   6.549  -0.151  0.0318  0.2374  0.7758
 4258ntf    sn224979   1.745   6.699  -0.180 -0.1678  0.0958 -0.1919
 4258ntf    cn124980   1.831   6.758  -0.032  0.0365  0.1179 -0.3188
 4258ntf    fn424981   1.402   6.452   0.040 -0.3215  0.6129  0.1772
 4258ntf    fn424982   1.600   6.454   0.102  0.0314  0.5939  0.3229
 4258ntf    fn424983   1.508   6.635   0.038  0.5805 -0.2098  1.1131
 4258ntf    on524984   1.573   6.335  -0.165 -0.4017  0.0494 -0.1070
 4258ntf    on524985   1.460   6.544  -0.225  0.1653  0.1544  0.1945
 4258ntf    on524986   1.632   6.789  -0.192  0.1658  0.5558  0.0843
 4258ntf    on524987   1.852   6.703  -0.277 -0.2583 -0.2732 -0.3090
 4258ntf    fn424988   1.758   6.802   0.069  0.2074 -0.0734 -0.1110
 4258ntf    fn424989   1.910   6.661   0.011 -0.2358 -0.0516 -0.1977
 4258ntf    fn424990   1.903   6.864  -0.065  0.1930 -0.0231 -0.4331
 4259ntf    cn124991   3.033   5.765   0.702 -0.4055  0.1886 -0.1699
 4259ntf    sn224992   3.002   5.843   0.863 -0.1326 -0.1783  0.0601
 4259ntf    nn324993   3.121   5.944   0.849 -0.3183  0.0334  0.0105
 4259ntf    sn224994   3.212   6.007   0.960  0.2245 -0.6716 -0.0276
 4259ntf    cn124995   3.307   6.127   0.861 -0.3459 -0.2162 -0.0302
 4259ntf    fn424996   2.947   5.668   0.679 -0.2657 -0.0024  0.1192
 4259ntf    fn424997   3.023   5.847   0.599  0.4699 -0.2717 -0.6337
 4259ntf    fn424998   3.154   5.713   0.697 -0.5567 -0.1416 -0.4526
 4259ntf    on524999   2.872   5.903   0.851 -0.0404  0.2783  1.1840
 4259ntf    on525000   3.008   5.736   0.960 -0.5624  0.1658  0.4738
 4259ntf    on525001   3.314   5.918   1.010 -0.0616 -0.5799  0.7321
 4259ntf    on525002   3.150   6.095   1.056 -0.0662 -0.5217 -0.3528
 4259ntf    fn425003   3.398   6.189   0.935 -0.4575 -0.1474  0.0490
 4259ntf    fn425004   3.378   6.067   0.766  0.2246  0.6830 -0.1810
 4259ntf    fn425005   3.244   6.224   0.798  0.0151 -0.1714 -0.3281
 4260ntf    cn125006   2.802   4.459   2.173 -0.0825 -0.5786  0.0504
 4260ntf    sn225007   2.961   4.413   2.248 -0.0563 -0.3637  0.1279
 4260ntf    nn325008   2.982   4.559   2.302  0.9647 -0.2683 -0.5110
 4260ntf    sn225009   3.046   4.603   2.438 -0.1292 -0.0745 -0.0507
 4260ntf    cn125010   3.206   4.537   2.382 -0.2163  0.0702 -0.4748
 4260ntf    fn425011   2.822   4.505   2.051 -0.7154  0.1459  0.2100
 4260ntf    fn425012   2.713   4.361   2.174 -0.6405 -0.0945 -0.6955
 4260ntf    fn425013   2.745   4.554   2.245  0.2154 -0.3713  0.0134
 4260ntf    on525014   2.906   4.319   2.342 -0.2338 -0.1295  0.2577
 4260ntf    on525015   3.054   4.369   2.147 -0.0157  0.5480 -0.2488
 4260ntf    on525016   3.004   4.527   2.554 -0.2588  0.1359  0.0413
 4260ntf    on525017   3.064   4.744   2.461 -0.5422 -0.0506  0.1285
 4260ntf    fn425018   3.235   4.594   2.267 -0.0989  0.5288 -0.2198
 4260ntf    fn425019   3.298   4.574   2.470 -0.8408 -0.0887  0.2547
 4260ntf    fn425020   3.218   4.405   2.378 -0.2473  0.0555 -0.1590
 4261ntf    cn125021   0.240   1.934   4.254  0.0420 -0.1306  0.1179
 4261ntf    sn225022   0.399   1.950   4.339 -0.1335  0.0578  0.4091
 4261ntf    nn325023   0.388   2.095   4.400  0.0220  0.1302  0.2656
 4261ntf    sn225024   0.315   2.139   4.531 -0.0199  0.0140  0.2818
 4261ntf    cn125025   0.467   2.164   4.627  0.0754 -0.0793  0.1551
 4261ntf    fn425026   0.246   1.997   4.138 -0.0835 -0.2853  0.0262
 4261ntf    fn425027   0.198   1.813   4.217 -0.4302  0.1436 -0.2584
 4261ntf    fn425028   0.139   2.000   4.307  0.4726  0.5908  0.0434
 4261ntf    on525029   0.404   1.842   4.435 -0.1530  0.1817  0.5518
 4261ntf    on525030   0.496   1.948   4.232 -0.2939 -0.1959  0.2687
 4261ntf    on525031   0.246   2.036   4.605  0.1312 -0.7308 -0.5945
 4261ntf    on525032   0.254   2.269   4.522 -0.4292 -0.2279 -0.4758
 4261ntf    fn425033   0.530   2.048   4.636  0.6520  0.2069 -0.1210
 4261ntf    fn425034   0.558   2.248   4.580 -0.1844  0.1485  0.0572
 4261ntf    fn425035   0.428   2.194   4.750  0.1456 -0.1387  0.1921
 4262ntf    cn125036   6.297   1.464   1.175  0.1651 -0.0115  0.0811
 4262ntf    sn225037   6.350   1.473   1.002 -0.1658 -0.0467 -0.0221
 4262ntf    nn325038   6.493   1.410   1.008 -0.2430 -0.1478  0.9085
 4262ntf    sn225039   6.551   1.266   0.982 -0.3946 -0.0329 -0.0991
 4262ntf    cn125040   6.652   1.231   1.129 -0.0627  0.2123 -0.2661
 4262ntf    fn425041   6.310   1.576   1.245 -0.5048 -0.1765  0.4865
 4262ntf    fn425042   6.171   1.423   1.180 -0.0397  0.4652 -0.9634
 4262ntf    fn425043   6.368   1.373   1.239 -0.0834 -0.2063  0.0806
 4262ntf    on525044   6.251   1.402   0.924 -0.1490  0.5288 -0.5734
 4262ntf    on525045   6.365   1.612   0.968  0.1477 -0.0400  0.1464
 4262ntf    on525046   6.644   1.266   0.872 -0.0153 -0.7552  0.2195
 4262ntf    on525047   6.464   1.152   0.994 -0.0236 -0.3258 -0.1938
 4262ntf    fn425048   6.594   1.260   1.244 -0.0577  0.3121 -0.2883
 4262ntf    fn425049   6.701   1.108   1.134 -0.0089  0.2473  0.0370
 4262ntf    fn425050   6.756   1.310   1.113 -0.0441  0.2260 -0.0733
 4263ntf    cn125051   0.286   5.724   0.996  0.0714 -0.3906 -0.0042
 4263ntf    sn225052   0.195   5.721   1.154 -0.1428 -0.5331 -0.1307
 4263ntf    nn325053   0.185   5.875   1.179  0.0010 -0.6530  0.6741
 4263ntf    sn225054   0.244   5.971   1.289  0.2010 -0.1299  0.1191
 4263ntf    cn125055   0.092   6.069   1.308  0.0980 -0.3557  0.4806
 4263ntf    fn425056   0.278   5.612   0.927 -0.1293 -0.1167 -0.4331
 4263ntf    fn425057   0.249   5.819   0.912 -0.9540 -0.7212  0.0691
 4263ntf    fn425058   0.416   5.743   1.017 -0.0750  0.5923  0.0847
 4263ntf    on525059   0.076   5.652   1.111 -0.2088 -0.5083  0.0139
 4263ntf    on525060   0.282   5.645   1.240 -0.1844  0.0242  0.4022
 4263ntf    on525061   0.334   6.075   1.245 -0.3779  0.4430  0.2733
 4263ntf    on525062   0.259   5.920   1.423  0.7158  0.2690  0.2148
 4263ntf    fn425063   0.127   6.186   1.357 -0.2767 -0.3090  0.6405
 4263ntf    fn425064   0.036   6.096   1.191  0.5813 -0.1204  0.3001
 4263ntf    fn425065  -0.001   6.016   1.386 -0.0677 -0.3675  0.2763
 4264ntf    cn125066   2.935   4.317   5.915 -0.1479  0.0298  0.2031
 4264ntf    sn225067   2.867   4.167   5.836  0.2670 -0.0718  0.0371
 4264ntf    nn325068   2.720   4.159   5.890  0.1079  0.4208 -0.3168
 4264ntf    sn225069   2.664   4.181   6.035 -0.1499 -0.2582 -0.3073
 4264ntf    cn125070   2.501   4.101   6.029 -0.1906 -0.1851 -0.1752
 4264ntf    fn425071   2.916   4.322   6.046 -0.1376  1.3070  0.1651
 4264ntf    fn425072   3.066   4.326   5.906 -0.1080 -0.4568  0.2210
 4264ntf    fn425073   2.881   4.427   5.866  0.1323  0.3655  0.6366
 4264ntf    on525074   2.879   4.199   5.696  0.9810  0.3917  0.1968
 4264ntf    on525075   2.953   4.062   5.885  0.1628 -0.2177 -0.0917
 4264ntf    on525076   2.641   4.321   6.063  0.1212 -0.1847 -0.4459
 4264ntf    on525077   2.727   4.107   6.141  0.0752 -0.0091 -0.2670
 4264ntf    fn425078   2.501   3.973   5.998  0.2791 -0.0900 -0.5793
 4264ntf    fn425079   2.436   4.104   6.144 -0.0389 -1.3560 -0.0489
 4264ntf    fn425080   2.421   4.167   5.947  0.1376 -0.1261 -0.4512
 4265ntf    cn125081   5.219   2.533   5.369  0.1328 -0.5468 -0.4458
 4265ntf    sn225082   5.046   2.509   5.317 -0.1473  0.3649  0.0468
 4265ntf    nn325083   4.970   2.614   5.405  0.0649  0.3605  0.2368
 4265ntf    sn225084   4.926   2.762   5.378 -0.1565  0.2331 -0.1077
 4265ntf    cn125085   4.776   2.737   5.279  0.0529  0.2697 -0.4353
 4265ntf    fn425086   5.263   2.649   5.323  0.2144 -0.3155  0.2121
 4265ntf    fn425087   5.239   2.526   5.499  0.2483 -0.2617 -0.4482
 4265ntf    fn425088   5.303   2.441   5.323  0.4535 -0.3080 -0.3350
 4265ntf    on525089   5.037   2.529   5.175  0.6723 -0.2951 -0.1059
 4265ntf    on525090   5.022   2.373   5.361 -0.0468  0.1805 -0.4698
 4265ntf    on525091   5.024   2.830   5.297 -0.0578 -0.0006 -0.1845
 4265ntf    on525092   4.885   2.836   5.495  0.0442  0.0819  0.0593
 4265ntf    fn425093   4.691   2.838   5.282 -0.2279  0.0245  0.1010
 4265ntf    fn425094   4.796   2.722   5.149 -0.4756  0.5799 -0.5538
 4265ntf    fn425095   4.702   2.633   5.314 -0.0593  0.2804 -0.6355
 4266ntf    cn125096   2.037   2.258   4.283  0.0347  0.1907  0.0033
 4266ntf    sn225097   1.964   2.262   4.117  0.0149 -0.5284 -0.0112
 4266ntf    nn325098   2.026   2.132   4.055 -0.3681 -0.7697  0.1141
 4266ntf    sn225099   2.130   2.127   3.938 -0.2606  0.1389  0.1665
 4266ntf    cn125100   2.055   2.216   3.799 -0.0514 -0.0861 -0.0909
 4266ntf    fn425101   2.031   2.374   4.345  0.2225  0.3444 -0.2646
 4266ntf    fn425102   1.978   2.172   4.365  0.4916  0.2997  0.4548
 4266ntf    fn425103   2.166   2.226   4.283 -0.0961 -0.3499 -0.1403
 4266ntf    on525104   1.825   2.241   4.147 -0.1355 -0.2851 -0.5350
 4266ntf    on525105   2.012   2.388   4.066 -0.5677 -0.1192  0.4364
 4266ntf    on525106   2.139   1.990   3.894 -0.0610  0.3285 -0.3948
 4266ntf    on525107   2.258   2.194   3.947 -0.1584 -0.0799  0.3754
 4266ntf    fn425108   2.116   2.195   3.683  0.4530  0.1404  0.1283
 4266ntf    fn425109   1.928   2.190   3.777 -0.1006 -0.0522  0.1518
 4266ntf    fn425110   2.058   2.348   3.812  0.0586 -0.0508 -0.4415
 4267ntf    cn125111   6.232   6.756   5.776  0.0502  0.1583  0.4156
 4267ntf    sn225112   6.088   6.685   5.691  0.4409 -0.0270 -0.0930
 4267ntf    nn325113   6.045   6.569   5.788  0.2424  0.1540  0.0336
 4267ntf    sn225114   5.981   6.428   5.766  0.4457  0.0852 -0.1129
 4267ntf    cn125115   6.131   6.325   5.759  0.1634 -0.3206 -0.2340
 4267ntf    fn425116   6.195   6.815   5.889 -0.0934  0.2024  0.3457
 4267ntf    fn425117   6.329   6.668   5.794 -0.5886 -0.5368  0.5339
 4267ntf    fn425118   6.292   6.852   5.709 -0.0750  0.0449  0.1404
 4267ntf    on525119   6.001   6.800   5.688  0.3308 -0.1180 -0.4424
 4267ntf    on525120   6.139   6.634   5.566  0.6169  0.0155 -0.0395
 4267ntf    on525121   5.912   6.402   5.642 -0.3790  0.1466  0.3239
 4267ntf    on525122   5.909   6.383   5.883  0.1872  0.5386 -0.0975
 4267ntf    fn425123   6.219   6.359   5.666 -0.0139  0.5015 -0.1128
 4267ntf    fn425124   6.201   6.327   5.872  0.0849 -0.1369 -0.1878
 4267ntf    fn425125   6.097   6.199   5.737 -0.2394 -0.3585  0.5711
 4268ntf    cn125126   7.201   6.644   3.509  0.4951 -0.1396 -0.2210
 4268ntf    sn225127   7.253   6.777   3.621 -0.1303  0.0063 -0.1013
 4268ntf    nn325128   7.118   6.857   3.622  0.1779  0.5254  0.3881
 4268ntf    sn225129   7.067   6.961   3.515  0.1735  0.0517 -0.0700
 4268ntf    cn125130   7.101   7.118   3.600 -0.0125  0.0438  0.0191
 4268ntf    fn425131   7.268   6.536   3.548  0.1971 -0.1205  0.3513
 4268ntf    fn425132   7.073   6.613   3.524  0.3694  0.5104  0.0719
 4268ntf    fn425133   7.220   6.672   3.381 -0.3118  0.1817 -0.2767
 4268ntf    on525134   7.275   6.695   3.737  0.4469 -0.3406 -0.4491
 4268ntf    on525135   7.363   6.842   3.553  0.2293  0.3574  0.8056
 4268ntf    on525136   6.924   6.971   3.505  0.1867  0.3470  0.0278
 4268ntf    on525137   7.136   6.982   3.390  0.1874 -0.3283 -0.1281
 4268ntf    fn425138   7.002   7.141   3.685  0.3153 -0.1278  0.4527
 4268ntf    fn425139   7.216   7.123   3.666 -0.0478  0.0550  0.0810
 4268ntf    fn425140   7.108   7.220   3.516 -0.1004 -0.0575 -0.1119
 4269ntf    cn125141   5.792   0.692   2.287 -0.3250 -0.3530  0.6410
 4269ntf    sn225142   5.867   0.755   2.440  0.2614  0.2791  0.0971
 4269ntf    nn325143   5.992   0.660   2.454  0.2114  0.2043  0.0354
 4269ntf    sn225144   6.022   0.546   2.557 -0.3444  0.2573  0.2621
 4269ntf    cn125145   6.195   0.496   2.532 -0.3851  0.1456  0.1982
 4269ntf    fn425146   5.871   0.708   2.182 -0.2230  0.0222  0.7733
 4269ntf    fn425147   5.765   0.563   2.297 -0.0024 -0.4320  0.4868
 4269ntf    fn425148   5.679   0.748   2.245  0.0624 -0.3262 -0.3905
 4269ntf    on525149   5.906   0.891   2.410 -0.1050  0.5681  0.9113
 4269ntf    on525150   5.767   0.744   2.544  0.2274 -0.7906 -0.0333
 4269ntf    on525151   5.960   0.418   2.531 -0.4198  0.2867  0.2992
 4269ntf    on525152   6.022   0.584   2.696 -0.0786 -0.5368  0.4903
 4269ntf    fn425153   6.277   0.591   2.575 -0.3186  0.2737 -0.2126
 4269ntf    fn425154   6.213   0.391   2.611 -0.1933  0.0347  0.0066
 4269ntf    fn425155   6.237   0.466   2.411 -0.0528 -0.1167  0.3756
 4270ntf    cn125156   4.605   6.562   0.729 -0.2031  0.2275 -0.3853
 4270ntf    sn225157   4.489   6.564   0.869  0.1140 -0.1100 -0.1123
 4270ntf    nn325158   4.367   6.487   0.805 -0.2721  0.2224  0.2230
 4270ntf    sn225159   4.296   6.349   0.825 -0.0070  0.0735  0.1444
 4270ntf    cn125160   4.140   6.416   0.892 -0.0243  0.1636  0.0163
 4270ntf    fn425161   4.726   6.611   0.753 -0.3369  0.4881 -0.2417
 4270ntf    fn425162   4.630   6.442   0.678  0.6691  0.1873  0.1007
 4270ntf    fn425163   4.561   6.636   0.629 -0.6452  0.2001 -0.2098
 4270ntf    on525164   4.551   6.482   0.970 -0.6870 -0.2018  0.3151
 4270ntf    on525165   4.478   6.706   0.893  0.6555 -0.1345  0.2751
 4270ntf    on525166   4.342   6.265   0.932 -0.3809 -0.4246 -0.0775
 4270ntf    on525167   4.254   6.288   0.701 -0.5105  1.0157 -0.1620
 4270ntf    fn425168   4.058   6.315   0.916  0.0265 -0.0726 -0.7668
 4270ntf    fn425169   4.164   6.475   1.007  0.2133  0.0433  0.0313
 4270ntf    fn425170   4.081   6.508   0.817 -0.3679  0.0858  0.1908
 4271ntf    cn125171   4.939   3.894   6.646  0.1119 -0.3063  0.5206
 4271ntf    sn225172   5.114   3.863   6.686  0.2374 -0.1117  0.1237
 4271ntf    nn325173   5.090   3.793   6.825  0.4758  0.2268  0.3345
 4271ntf    sn225174   5.109   3.640   6.850 -0.0471  0.0990 -0.0402
 4271ntf    cn125175   5.064   3.628   7.025  0.0967  0.1507  0.0014
 4271ntf    fn425176   4.880   3.963   6.742  0.5642  0.4562  0.2575
 4271ntf    fn425177   4.929   3.959   6.532 -0.2553 -0.8015  0.2667
 4271ntf    fn425178   4.867   3.784   6.627  0.0534 -0.0790 -0.6351
 4271ntf    on525179   5.162   3.782   6.577  0.4296 -0.1633  0.2460
 4271ntf    on525180   5.184   3.988   6.702  0.3690 -0.1458 -0.1758
 4271ntf    on525181   5.244   3.590   6.842  0.0233  0.2635  0.1228
 4271ntf    on525182   5.012   3.553   6.789 -0.3798  0.0373  0.5757
 4271ntf    fn425183   5.135   3.710   7.101  0.2841 -0.1477  0.1517
 4271ntf    fn425184   4.938   3.660   7.051  0.0666  0.0787 -0.0580
 4271ntf    fn425185   5.085   3.506   7.072 -0.4220  0.1844  0.3294
 4272ntf    cn125186   0.041   0.183   4.765  0.2948  0.1148 -0.4588
 4272ntf    sn225187   0.106   0.232   4.927 -0.3889 -0.1286 -0.1087
 4272ntf    nn325188  -0.028   0.235   5.008 -0.3575  0.1497 -0.0658
 4272ntf    sn225189  -0.125   0.114   5.036 -0.1083 -0.0138  0.0913
 4272ntf    cn125190  -0.269   0.191   5.115 -0.0934 -0.1646  0.2670
 4272ntf    fn425191   0.104   0.229   4.658  0.5003 -0.4078 -0.5634
 4272ntf    fn425192   0.049   0.051   4.753  0.3732  0.0812 -0.0261
 4272ntf    fn425193  -0.086   0.215   4.748  0.1703 -0.0665  0.1289
 4272ntf    on525194   0.196   0.130   4.976 -0.4465  0.2200  0.7502
 4272ntf    on525195   0.154   0.366   4.903 -0.0208 -0.2142  0.1450
 4272ntf    on525196  -0.076   0.022   5.135 -0.7374 -0.0554  0.3651
 4272ntf    on525197  -0.168   0.050   4.914 -0.0602  0.2608 -0.0715
 4272ntf    fn425198  -0.356   0.096   5.143 -0.2027 -0.1175  0.0871
 4272ntf    fn425199  -0.250   0.256   5.228  0.5183 -0.0087  0.0800
 4272ntf    fn425200  -0.336   0.272   5.034 -0.2895 -0.2192  0.3741
 4273ntf    cn125201   4.943   0.056   0.779 -0.5612 -0.1713  0.0032
 4273ntf    sn225202   5.011  -0.105   0.732  0.1557  0.1313 -0.0083
 4273ntf    nn325203   4.882  -0.179   0.681 -0.0576  0.5983 -0.1516
 4273ntf    sn225204   4.772  -0.243   0.772  0.4119  0.1634  0.1174
 4273ntf    cn125205   4.766  -0.416   0.715 -0.1208  0.0794  0.4186
 4273ntf    fn425206   4.855   0.106   0.694  0.0063 -0.1145 -0.5522
 4273ntf    fn425207   4.878   0.063   0.895 -0.6490  0.3643 -0.0743
 4273ntf    fn425208   5.044   0.141   0.791 -0.5923 -0.1425  0.0604
 4273ntf    on525209   5.100  -0.078   0.622 -0.0062 -0.2501 -0.2369
 4273ntf    on525210   5.067  -0.147   0.858 -0.1899 -0.3090 -0.0006
 4273ntf    on525211   4.647  -0.193   0.720  0.3669 -0.4920 -0.4167
 4273ntf    on525212   4.798  -0.240   0.914 -0.6323 -0.3490  0.3343
 4273ntf    fn425213   4.881  -0.473   0.748 -0.0146  0.0738  0.0335
 4273ntf    fn425214   4.666  -0.478   0.776 -0.3069  0.0040  0.0336
 4273ntf    fn425215   4.747  -0.431   0.585 -0.2768 -0.2637  0.4799
 4274ntf    cn125216   0.336   1.752   3.318 -0.3504 -0.0744 -0.2029
 4274ntf    sn225217   0.463   1.651   3.236 -0.0274  0.1313  0.0413
 4274ntf    nn325218   0.589   1.685   3.323  0.2305 -0.1772 -0.2074
 4274ntf    sn225219   0.611   1.647   3.474 -0.3755  0.1637 -0.0295
 4274ntf    cn125220   0.751   1.532   3.464 -0.0566  0.5117  0.4130
 4274ntf    fn425221   0.223   1.692   3.353 -0.3265  0.0686  0.1247
 4274ntf    fn425222   0.377   1.809   3.430  0.0662 -0.7001 -0.0314
 4274ntf    fn425223   0.298   1.853   3.242  0.0065 -0.0296 -0.3205
 4274ntf    on525224   0.420   1.514   3.252 -0.1268  0.1868  0.2510
 4274ntf    on525225   0.474   1.699   3.100 -0.4108  0.1908  0.0278
 4274ntf    on525226   0.513   1.561   3.536  0.2291 -0.8469 -0.4576
 4274ntf    on525227   0.684   1.749   3.545 -0.7889  0.4836 -0.0555
 4274ntf    fn425228   0.725   1.424   3.392  0.3792  0.2477  0.6470
 4274ntf    fn425229   0.861   1.579   3.408 -0.2252  0.2954 -0.1050
 4274ntf    fn425230   0.795   1.502   3.585  0.8407 -0.3545 -0.1198
 4275ntf    cn125231   6.740   6.691   5.477 -0.4339 -0.4729  0.4891
 4275ntf    sn225232   6.810   6.569   5.362 -0.1269  0.1294  0.0334
 4275ntf    nn325233   6.689   6.544   5.265 -0.0901  0.1327 -0.0140
 4275ntf    sn225234   6.563   6.454   5.292  0.0544 -0.1461 -0.2567
 4275ntf    cn125235   6.612   6.311   5.192 -0.1005 -0.0397 -0.4873
 4275ntf    fn425236   6.716   6.802   5.409  0.9467 -0.2952  0.2585
 4275ntf    fn425237   6.630   6.657   5.542 -0.6021  0.2805  0.6118
 4275ntf    fn425238   6.833   6.711   5.569  0.2642  0.1544 -0.3394
 4275ntf    on525239   6.915   6.640   5.293 -0.4190 -0.0678 -0.6187
 4275ntf    on525240   6.856   6.465   5.451 -1.2009 -0.1099  0.3258
 4275ntf    on525241   6.448   6.509   5.223  0.0470  0.1091 -0.0434
 4275ntf    on525242   6.541   6.407   5.426  0.2075  0.3361 -0.0591
 4275ntf    fn425243   6.740   6.283   5.213 -0.2008  0.1679  0.4600
 4275ntf    fn425244   6.543   6.205   5.231 -0.1289  0.1276 -0.0833
 4275ntf    fn425245   6.592   6.317   5.062  0.4783  0.1553 -0.5732
 4276ntf    cn125246   3.505   2.234   1.221  0.0855  0.3495 -0.2435
 4276ntf    sn225247   3.636   2.151   1.127 -0.0834 -0.0908 -0.0925
 4276ntf    nn325248   3.765   2.210   1.194 -0.0800 -0.1326 -0.0623
 4276ntf    sn225249   3.906   2.146   1.222 -0.0777  0.0982  0.4558
 4276ntf    cn125250   3.912   2.161   1.403  0.1027 -0.0035  0.4576
 4276ntf    fn425251   3.511   2.365   1.206 -0.1385  0.4406  0.4293
 4276ntf    fn425252   3.383   2.197   1.184  0.1192  0.7212 -0.7350
 4276ntf    fn425253   3.511   2.198   1.349 -0.3154 -0.0080 -0.3202
 4276ntf    on525254   3.620   2.010   1.154  0.6543 -0.0694  0.4832
 4276ntf    on525255   3.632   2.196   0.990  0.1466 -0.4050 -0.2053
 4276ntf    on525256   4.005   2.245   1.187 -0.0887 -0.1860 -0.3784
 4276ntf    on525257   3.932   2.008   1.191 -0.1329  0.1794  0.0530
 4276ntf    fn425258   3.867   2.279   1.444 -0.1811  0.0527 -0.0186
 4276ntf    fn425259   3.840   2.072   1.468  0.1533 -0.2817  0.1317
 4276ntf    fn425260   4.037   2.153   1.448  0.3366 -0.2600 -0.2227
 4277ntf    cn125261   2.112   6.840   3.444  0.1692 -0.2457  0.3272
 4277ntf    sn225262   1.969   6.730   3.421 -0.0289  0.0536  0.1161
 4277ntf    nn325263   1.866   6.807   3.512 -0.0357  0.1366  0.0373
 4277ntf    sn225264   1.833   6.803   3.665 -0.0259  0.1919  0.0411
 4277ntf    cn125265   1.700   6.679   3.672  0.2183 -0.0714  0.0493
 4277ntf    fn425266   2.212   6.805   3.365 -0.4483 -0.2487 -0.4676
 4277ntf    fn425267   2.080   6.963   3.408  0.7106 -0.1785  0.0768
 4277ntf    fn425268   2.156   6.850   3.568  0.1085  0.3607  0.3010
 4277ntf    on525269   1.942   6.744   3.280 -0.3498  0.4599  0.2173
 4277ntf    on525270   2.020   6.603   3.468  0.4572  0.0193 -0.4898
 4277ntf    on525271   1.761   6.921   3.706 -0.7360 -0.2551  0.0913
 4277ntf    on525272   1.939   6.765   3.756 -0.1885  0.4814  0.3555
 4277ntf    fn425273   1.607   6.713   3.584  0.0424  0.0928  0.2939
 4277ntf    fn425274   1.730   6.553   3.645 -0.4950 -0.2286 -0.0422
 4277ntf    fn425275   1.647   6.676   3.793  0.8061 -0.3096  0.3038
 4278ntf    cn125276   5.158   1.250   4.740 -0.1583 -0.3002 -0.1930
 4278ntf    sn225277   5.257   1.130   4.834  0.6679  0.3860 -0.1640
 4278ntf    nn325278   5.157   1.096   4.951  0.6864 -0.9191 -0.5070
 4278ntf    sn225279   5.191   1.005   5.074 -0.3979 -0.3808  0.2089
 4278ntf    cn125280   5.133   0.842   5.021 -0.2870 -0.2123 -0.4350
 4278ntf    fn425281   5.213   1.289   4.626 -0.2382 -0.1944 -0.1951
 4278ntf    fn425282   5.037   1.203   4.715 -0.2241 -0.0529 -0.3405
 4278ntf    fn425283   5.141   1.369   4.796 -0.7110 -0.6146  0.3188
 4278ntf    on525284   5.270   1.016   4.746  0.6816  0.0220  0.3051
 4278ntf    on525285   5.371   1.206   4.878  0.2151  0.6131  0.6563
 4278ntf    on525286   5.103   1.026   5.186 -0.4520  0.2583  0.0509
 4278ntf    on525287   5.331   0.993   5.107 -0.2759  0.7795  0.1507
 4278ntf    fn425288   5.232   0.765   4.978 -0.0626 -0.1930  0.0413
 4278ntf    fn425289   5.081   0.764   5.114 -0.0931 -0.3034 -0.4021
 4278ntf    fn425290   5.045   0.842   4.922 -0.2746  0.2623 -0.4485
 4279ntf    cn125291   1.620   5.698   6.698  0.0413  0.3123  0.0449
 4279ntf    sn225292   1.794   5.726   6.655 -0.0234  0.1832 -0.2997
 4279ntf    nn325293   1.866   5.630   6.756  0.1749  0.0553 -0.5615
 4279ntf    sn225294   1.924   5.659   6.899 -0.3024 -0.0880 -0.3366
 4279ntf    cn125295   2.102   5.663   6.861 -0.2531 -0.3267 -0.1339
 4279ntf    fn425296   1.538   5.771   6.625 -0.1577 -0.4285 -0.4828
 4279ntf    fn425297   1.585   5.571   6.680 -0.2143  0.3361  0.3497
 4279ntf    fn425298   1.592   5.728   6.824 -0.4670 -0.6379  0.1684
 4279ntf    on525299   1.798   5.679   6.518 -0.0609  0.0569 -0.2579
 4279ntf    on525300   1.805   5.868   6.677 -0.2476  0.0889  0.4253
 4279ntf    on525301   1.921   5.549   6.992  0.0112  0.0142 -0.2033
 4279ntf    on525302   1.897   5.788   6.957  0.1729 -0.2260  0.2051
 4279ntf    fn425303   2.138   5.539   6.831  0.1071 -0.2687  0.0479
 4279ntf    fn425304   2.129   5.744   6.760 -0.0080  0.2662  0.3962
 4279ntf    fn425305   2.184   5.699   6.959  0.1874 -0.2594 -0.5251
 4280ntf    cn125306   2.057   6.312   1.725 -0.2226 -0.2780  0.4783
 4280ntf    sn225307   2.194   6.403   1.649 -0.4417 -0.3667 -0.0236
 4280ntf    nn325308   2.281   6.275   1.621  0.3806  0.2272 -0.2529
 4280ntf    sn225309   2.260   6.163   1.513 -0.0235  0.2372 -0.1891
 4280ntf    cn125310   2.423   6.087   1.485 -0.3572 -0.4321 -0.3495
 4280ntf    fn425311   1.980   6.259   1.632  0.2226 -0.1168  0.0141
 4280ntf    fn425312   2.102   6.210   1.796  0.2761 -0.6234 -0.3191
 4280ntf    fn425313   1.992   6.388   1.812 -0.3914 -0.1051  0.2038
 4280ntf    on525314   2.143   6.467   1.530  0.0989  0.0426 -0.0396
 4280ntf    on525315   2.251   6.482   1.755 -0.5486  0.2044 -0.3832
 4280ntf    on525316   2.230   6.217   1.383  0.1202  0.4098 -0.1511
 4280ntf    on525317   2.185   6.046   1.550  0.3271 -0.1595 -0.7003
 4280ntf    fn425318   2.417   5.985   1.402 -0.8140 -0.3973 -0.3601
 4280ntf    fn425319   2.518   6.165   1.434 -0.1385 -0.5825 -0.1772
 4280ntf    fn425320   2.482   6.040   1.594 -0.4478 -0.5536 -0.3528
 4281ntf    cn125321   3.689   2.833   3.947  0.0640 -0.3234 -0.2192
 4281ntf    sn225322   3.837   2.925   4.000 -0.0800  0.0491 -0.4605
 4281ntf    nn325323   3.953   2.827   3.961 -0.0474 -0.0103 -0.2157
 4281ntf    sn225324   4.038   2.723   4.042 -0.1934 -0.2184 -0.3278
 4281ntf    cn125325   4.125   2.645   3.903  0.2398 -0.2957 -0.0160
 4281ntf    fn425326   3.686   2.709   3.993 -0.2085 -0.3549 -0.3250
 4281ntf    fn425327   3.575   2.883   3.990  0.0186 -0.1751 -0.5099
 4281ntf    fn425328   3.683   2.819   3.816  0.0530 -0.7150 -0.1786
 4281ntf    on525329   3.823   3.035   3.907 -0.6991  0.3712  0.0051
 4281ntf    on525330   3.820   2.958   4.140  0.0730 -0.1458 -0.3950
 4281ntf    on525331   3.954   2.620   4.099  0.0541 -0.4140 -0.3142
 4281ntf    on525332   4.145   2.783   4.117  0.2901 -0.2964 -0.9425
 4281ntf    fn425333   4.039   2.588   3.820  0.0826  0.0235 -0.0722
 4281ntf    fn425334   4.194   2.731   3.829 -0.3859  0.6117  0.4487
 4281ntf    fn425335   4.213   2.554   3.941  0.3146 -0.1780  0.0957
 4282ntf    cn125336   0.606   6.528   4.727 -0.0805 -0.2868 -0.0373
 4282ntf    sn225337   0.708   6.559   4.874 -0.0268 -0.0202 -0.1293
 4282ntf    nn325338   0.668   6.708   4.901 -0.4165 -0.1565  0.0573
 4282ntf    sn225339   0.548   6.763   4.986 -0.3920  0.1896 -0.1282
 4282ntf    cn125340   0.629   6.785   5.146 -0.4223  0.0030 -0.0869
 4282ntf    fn425341   0.639   6.410   4.677  0.0535  0.0307 -0.7169
 4282ntf    fn425342   0.477   6.518   4.753 -0.1140 -0.0144 -0.0983
 4282ntf    fn425343   0.628   6.619   4.634  0.1220  0.3151  0.5875
 4282ntf    on525344   0.668   6.458   4.970 -0.4680  0.5451  0.2857
 4282ntf    on525345   0.841   6.547   4.819  0.3280 -0.1555  0.7305
 4282ntf    on525346   0.443   6.665   5.003  0.1317 -0.2810  0.4383
 4282ntf    on525347   0.503   6.896   4.953  0.1886  0.3572 -0.2534
 4282ntf    fn425348   0.692   6.672   5.176 -0.0095  0.2416 -0.0418
 4282ntf    fn425349   0.723   6.878   5.136  0.4829 -0.7996  0.6120
 4282ntf    fn425350   0.552   6.816   5.249 -0.2359  0.1383  0.0145
 4283ntf    cn125351   1.357   6.370   5.554 -0.3580  0.0423 -0.3330
 4283ntf    sn225352   1.501   6.442   5.468  0.0694 -0.2556  0.1334
 4283ntf    nn325353   1.619   6.365   5.539  0.4913  0.0684 -0.2107
 4283ntf    sn225354   1.691   6.393   5.676  0.0779 -0.4774  0.1236
 4283ntf    cn125355   1.830   6.490   5.610  0.1395 -0.5308  0.1753
 4283ntf    fn425356   1.243   6.427   5.518  0.0026  0.4501 -0.8504
 4283ntf    fn425357   1.341   6.241   5.533  0.2342 -0.1382  0.3043
 4283ntf    fn425358   1.368   6.385   5.685 -0.3092 -0.0482 -0.3271
 4283ntf    on525359   1.480   6.409   5.330 -0.6664  0.2014  0.1346
 4283ntf    on525360   1.497   6.582   5.503 -0.6870 -0.2731  0.1191
 4283ntf    on525361   1.759   6.275   5.723  0.4420 -0.3324 -0.0333
 4283ntf    on525362   1.637   6.491   5.766  0.1342 -0.1467 -0.1989
 4283ntf    fn425363   1.918   6.514   5.706  0.3682 -0.2449 -0.1016
 4283ntf    fn425364   1.891   6.423   5.513  0.8791  0.0527  0.2277
 4283ntf    fn425365   1.789   6.606   5.561  0.4813 -0.4191  0.1501
 4284ntf    cn125366   0.492   2.317   5.083  0.1287  0.1263  0.2920
 4284ntf    sn225367   0.482   2.486   5.019  0.3895 -0.0283 -0.1653
 4284ntf    nn325368   0.613   2.553   5.075  0.5794 -0.4704 -0.0802
 4284ntf    sn225369   0.721   2.637   4.999  0.3546  0.0056  0.1258
 4284ntf    cn125370   0.829   2.508   4.931  0.2505 -0.0003 -0.0307
 4284ntf    fn425371   0.517   2.317   5.214  0.2116  0.2147  0.2769
 4284ntf    fn425372   0.381   2.250   5.059  0.2362  0.2099 -0.4629
 4284ntf    fn425373   0.593   2.242   5.040  0.2902  0.2554  0.4426
 4284ntf    on525374   0.480   2.468   4.876 -0.3351  0.7011 -0.2591
 4284ntf    on525375   0.362   2.535   5.083  0.7176 -0.3451  0.7050
 4284ntf    on525376   0.805   2.699   5.098 -0.1261 -0.2478  0.6982
 4284ntf    on525377   0.684   2.725   4.890 -0.2779 -0.2931  0.0914
 4284ntf    fn425378   0.752   2.409   4.889 -0.2991  0.4365 -0.0620
 4284ntf    fn425379   0.908   2.555   4.837 -0.3868  0.2260 -0.4546
 4284ntf    fn425380   0.902   2.460   5.031  0.3044 -0.1281 -0.1308
 4285ntf    cn125381   7.296   5.175   6.285  0.5015 -0.2549  0.1016
 4285ntf    sn225382   7.144   5.096   6.346  0.3262  0.1920  0.2546
 4285ntf    nn325383   7.063   5.217   6.403 -0.1687 -0.0365  0.0431
 4285ntf    sn225384   6.909   5.247   6.416 -0.1538  0.0759 -0.0321
 4285ntf    cn125385   6.883   5.275   6.594  0.4546 -0.0879  0.0849
 4285ntf    fn425386   7.346   5.125   6.174 -0.1829 -0.6055 -0.0518
 4285ntf    fn425387   7.270   5.301   6.252 -0.4950 -0.4530  0.0957
 4285ntf    fn425388   7.392   5.179   6.375  0.6158  0.3459 -0.0382
 4285ntf    on525389   7.082   5.040   6.228 -0.1443  0.0820  0.5509
 4285ntf    on525390   7.204   5.011   6.446  0.1044 -0.1872  0.0689
 4285ntf    on525391   6.824   5.132   6.397 -0.4554  0.2685  0.1438
 4285ntf    on525392   6.871   5.369   6.350  0.0090 -0.0438 -0.3490
 4285ntf    fn425393   6.946   5.378   6.646 -0.3327  0.2537  0.3770
 4285ntf    fn425394   6.756   5.302   6.618  0.4522 -0.2782  0.2928
 4285ntf    fn425395   6.911   5.165   6.663  0.0656 -0.3856 -0.2235
 4286ntf    cn125396   3.215   0.776   6.183 -0.3600 -0.0133 -0.6166
 4286ntf    sn225397   3.035   0.753   6.196 -0.2524 -0.3457  0.3336
 4286ntf    nn325398   3.006   0.903   6.160  0.2416 -0.1536  0.7154
 4286ntf    sn225399   2.903   1.010   6.211 -0.1812 -0.3590  0.2996
 4286ntf    cn125400   3.021   1.145   6.239 -0.3602 -0.1134 -0.1266
 4286ntf    fn425401   3.244   0.829   6.065 -0.2285  0.6393 -0.2946
 4286ntf    fn425402   3.259   0.869   6.267  0.8434 -0.5549 -0.6210
 4286ntf    fn425403   3.289   0.667   6.201 -0.1134  0.2189 -0.1971
 4286ntf    on525404   2.995   0.659   6.094 -0.4171  0.2419 -0.1439
 4286ntf    on525405   3.031   0.707   6.333 -0.6300 -0.3775  0.3121
 4286ntf    on525406   2.843   0.964   6.334  0.1328 -0.1057  0.5514
 4286ntf    on525407   2.818   1.054   6.103  0.1355 -0.9142 -0.1790
 4286ntf    fn425408   2.965   1.250   6.297  0.3096 -0.0992  0.5114
 4286ntf    fn425409   3.115   1.117   6.328 -0.5130  0.2522  0.1525
 4286ntf    fn425410   3.079   1.177   6.124 -0.5958 -0.8474 -0.4563
 4287ntf    cn125411   3.928   1.743   4.440  0.0525  0.0221  0.1198
 4287ntf    sn225412   4.052   1.747   4.307 -0.0316 -0.4397  0.0250
 4287ntf    nn325413   4.010   1.874   4.223 -0.1590 -0.3991  0.1502
 4287ntf    sn225414   3.937   1.879   4.084 -0.0593 -0.3082  0.1019
 4287ntf    cn125415   3.862   2.044   4.101  0.2164 -0.1193 -0.4778
 4287ntf    fn425416   3.809   1.722   4.386  0.0826  0.7543 -0.2488
 4287ntf    fn425417   3.955   1.637   4.513  0.0206 -0.1744 -0.1505
 4287ntf    fn425418   3.925   1.845   4.524  0.1807  0.0292  0.1156
 4287ntf    on525419   4.166   1.775   4.391  0.0641  0.1916 -0.3038
 4287ntf    on525420   4.037   1.623   4.236 -0.2310 -0.2205 -0.3216
 4287ntf    on525421   3.826   1.790   4.069 -0.5178  0.2681  0.0361
 4287ntf    on525422   4.034   1.889   3.978 -0.1056  0.2226  0.1068
 4287ntf    fn425423   3.934   2.149   4.139  0.0249 -0.0871 -0.2041
 4287ntf    fn425424   3.810   2.073   3.983  0.6674  0.3831 -0.5593
 4287ntf    fn425425   3.753   2.037   4.175  0.3970  0.5698 -0.1392
 4288ntf    cn125426   6.400   2.645   6.538 -0.2888  0.1726  0.1031
 4288ntf    sn225427   6.490   2.568   6.400 -0.2172  0.1232  0.1780
 4288ntf    nn325428   6.620   2.514   6.469 -0.1370  0.3176  0.1791
 4288ntf    sn225429   6.673   2.366   6.470 -0.4497  0.2019 -0.1423
 4288ntf    cn125430   6.726   2.357   6.296 -0.1870  0.2710 -0.0670
 4288ntf    fn425431   6.481   2.723   6.606 -0.0237  0.4275 -0.4944
 4288ntf    fn425432   6.287   2.703   6.499 -0.2637  0.4166  0.3874
 4288ntf    fn425433   6.359   2.556   6.627  0.2409 -0.7630 -0.5697
 4288ntf    on525434   6.396   2.472   6.348  0.4009 -0.6751  0.5241
 4288ntf    on525435   6.519   2.683   6.317 -0.7782 -0.4825 -0.8822
 4288ntf    on525436   6.575   2.262   6.485 -0.0738 -0.1891 -0.3634
 4288ntf    on525437   6.794   2.366   6.549 -0.8195  0.5814  0.4266
 4288ntf    fn425438   6.843   2.407   6.262  0.3418 -0.1729  1.0406
 4288ntf    fn425439   6.731   2.228   6.265 -0.0321  0.3216 -0.2511
 4288ntf    fn425440   6.642   2.414   6.211 -0.3847 -0.3267 -0.2811
 4289ntf    cn125441   1.804   0.634   3.409 -0.1075  0.1767  0.0220
 4289ntf    sn225442   1.827   0.616   3.589 -0.0764 -0.0329 -0.0020
 4289ntf    nn325443   1.735   0.494   3.622  0.1455 -0.1127  0.3181
 4289ntf    sn225444   1.625   0.505   3.733 -0.0689 -0.0615  0.1007
 4289ntf    cn125445   1.703   0.558   3.889  0.1292 -0.1040  0.0161
 4289ntf    fn425446   1.679   0.656   3.374 -0.4324 -0.2577  0.8728
 4289ntf    fn425447   1.875   0.731   3.353 -0.0998  0.0382 -0.2095
 4289ntf    fn425448   1.838   0.528   3.338  0.3631  0.4912 -0.2221
 4289ntf    on525449   1.968   0.589   3.600  0.0186  0.1429 -0.7411
 4289ntf    on525450   1.775   0.743   3.632  0.1375  0.0616 -0.0186
 4289ntf    on525451   1.577   0.374   3.768  0.1063 -0.2283 -0.2822
 4289ntf    on525452   1.513   0.596   3.730 -0.4508 -0.5170  0.4335
 4289ntf    fn425453   1.832   0.532   3.906  0.0886 -0.2504  0.1022
 4289ntf    fn425454   1.682   0.682   3.928 -0.2403 -0.2542  0.3024
 4289ntf    fn425455   1.646   0.493   3.989 -0.9710 -0.0215 -0.5374
 4290ntf    cn125456   0.057   4.365   5.109 -0.0447  0.0395  0.3332
 4290ntf    sn225457  -0.009   4.523   5.169  0.1566  0.2238  0.0679
 4290ntf    nn325458   0.015   4.498   5.322  0.5822  0.0256 -0.0308
 4290ntf    sn225459   0.009   4.611   5.430  0.1678 -0.2214  0.2098
 4290ntf    cn125460   0.183   4.604   5.483  0.3372  0.3320 -0.2548
 4290ntf    fn425461   0.044   4.366   4.978 -0.7446 -0.4730  0.3913
 4290ntf    fn425462   0.184   4.344   5.139 -0.0445 -0.1209  0.2216
 4290ntf    fn425463  -0.017   4.262   5.148 -0.3500  0.1917  0.1598
 4290ntf    on525464   0.066   4.632   5.111  0.3794  0.1043  0.1328
 4290ntf    on525465  -0.149   4.511   5.137 -0.0061  0.0573  0.8229
 4290ntf    on525466  -0.069   4.565   5.542  0.2840  0.2477  0.4849
 4290ntf    on525467  -0.000   4.752   5.398 -0.8411 -0.1595  0.7367
 4290ntf    fn425468   0.263   4.601   5.377 -0.0238  0.1275 -0.5236
 4290ntf    fn425469   0.226   4.694   5.569 -0.2366 -0.2438  0.6478
 4290ntf    fn425470   0.205   4.489   5.546  0.0079  0.3886 -0.0328
 4291ntf    cn125471   6.204   2.177   3.463  0.4718 -0.2690  0.4477
 4291ntf    sn225472   6.343   2.155   3.348  0.1442 -0.2263  0.0370
 4291ntf    nn325473   6.329   2.276   3.248  0.1489 -0.0745  0.2193
 4291ntf    sn225474   6.398   2.416   3.247 -0.0255  0.0091 -0.1874
 4291ntf    cn125475   6.314   2.502   3.110  0.0950  0.4021 -0.0176
 4291ntf    fn425476   6.223   2.282   3.541  0.4224  0.0091  0.0924
 4291ntf    fn425477   6.084   2.187   3.407  0.5744 -0.4295  0.2006
 4291ntf    fn425478   6.202   2.075   3.546  0.5809 -0.0617  0.7052
 4291ntf    on525479   6.453   2.170   3.440  0.2151 -0.4672 -0.0088
 4291ntf    on525480   6.309   2.032   3.282 -0.2816  0.0041 -0.1759
 4291ntf    on525481   6.537   2.420   3.208 -0.0888  0.9488 -0.3379
 4291ntf    on525482   6.366   2.492   3.366 -0.4758 -0.5452  0.0504
 4291ntf    fn425483   6.355   2.628   3.115  0.4642  0.3028 -0.4241
 4291ntf    fn425484   6.351   2.455   2.992 -0.6109 -0.1607 -0.0258
 4291ntf    fn425485   6.183   2.497   3.128  0.1280  0.3894  0.2255
 4292ntf    cn125486   3.036   4.276   1.657  0.3699  0.1185 -0.0707
 4292ntf    sn225487   3.109   4.185   1.518  0.1799 -0.2843  0.0924
 4292ntf    nn325488   2.989   4.220   1.422  0.2390  0.2581  0.2117
 4292ntf    sn225489   2.977   4.333   1.314  0.3682  0.0267 -0.0467
 4292ntf    cn125490   2.971   4.224   1.168 -0.0629  0.3276 -0.2568
 4292ntf    fn425491   2.909   4.243   1.679  0.2671  0.3747 -0.2750
 4292ntf    fn425492   3.101   4.243   1.768  0.5776 -0.1638 -0.2771
 4292ntf    fn425493   3.045   4.407   1.642 -0.3027  0.1892  0.1079
 4292ntf    on525494   3.230   4.262   1.504 -0.4866  0.8224  0.2930
 4292ntf    on525495   3.109   4.049   1.566  1.1144 -0.0214  0.8586
 4292ntf    on525496   3.096   4.413   1.298  0.5638 -0.4293 -0.9459
 4292ntf    on525497   2.849   4.399   1.309  0.2015 -0.2820  0.0516
 4292ntf    fn425498   2.859   4.154   1.166  0.1133  0.0463 -0.3303
 4292ntf    fn425499   2.964   4.293   1.055  0.1384  0.6944 -0.0480
 4292ntf    fn425500   3.076   4.143   1.163 -0.4671 -0.2515  0.5038
 4293ntf    cn125501   0.632   6.577   7.212 -0.0545 -0.2121  0.1337
 4293ntf    sn225502   0.760   6.519   7.098  0.1136  0.0464  0.1895
 4293ntf    nn325503   0.825   6.408   7.188  0.0210  0.1717  0.4109
 4293ntf    sn225504   0.970   6.412   7.247  0.1152 -0.0009  0.1937
 4293ntf    cn125505   0.962   6.292   7.384 -0.2246  0.0412  0.2119
 4293ntf    fn425506   0.545   6.483   7.247  0.0227 -0.3239  0.0221
 4293ntf    fn425507   0.674   6.619   7.331 -0.1172  0.0153  0.0771
 4293ntf    fn425508   0.563   6.679   7.164  0.1393  0.0493  0.4050
 4293ntf    on525509   0.682   6.464   6.990 -0.0667  0.3859  0.1456
 4293ntf    on525510   0.838   6.634   7.059 -0.4769  0.4982  0.3309
 4293ntf    on525511   0.998   6.535   7.319 -0.1157  0.0780  0.1485
 4293ntf    on525512   1.077   6.358   7.167  0.3205  0.2446  0.2998
 4293ntf    fn425513   0.864   6.323   7.467  0.0547  0.8955  0.2407
 4293ntf    fn425514   0.943   6.170   7.337 -0.4609 -0.0460  0.5328
 4293ntf    fn425515   1.073   6.289   7.456  0.0951 -0.1644 -0.2804
 4294ntf    cn125516   4.047   1.525   1.770  0.0324  0.0638 -0.6144
 4294ntf    sn225517   4.223   1.570   1.758  0.0858  0.0444  0.0531
 4294ntf    nn325518   4.207   1.725   1.739  0.5539  0.1492  0.4812
 4294ntf    sn225519   4.202   1.820   1.614  0.2048 -0.3061  0.1495
 4294ntf    cn125520   4.377   1.847   1.576  0.2343 -0.2816  0.3064
 4294ntf    fn425521   4.032   1.404   1.822  0.2886  0.2905  0.0052
 4294ntf    fn425522   3.976   1.610   1.843 -0.2943 -0.2385 -0.5788
 4294ntf    fn425523   3.990   1.525   1.651 -0.3120  0.1018 -0.4496
 4294ntf    on525524   4.274   1.551   1.892 -0.2230  0.7931  0.2839
 4294ntf    on525525   4.276   1.491   1.650  0.1775 -0.0668  0.1800
 4294ntf    on525526   4.151   1.952   1.640  0.0433 -0.3992  0.3097
 4294ntf    on525527   4.147   1.756   1.496 -0.5455  0.1238  0.2610
 4294ntf    fn425528   4.446   1.899   1.677  0.4034  0.0226  0.0336
 4294ntf    fn425529   4.439   1.732   1.555  0.4270  0.0286 -0.8889
 4294ntf    fn425530   4.403   1.927   1.474  0.5531 -0.1390  0.4976
 4295ntf    cn125531   6.092   0.739   0.601 -0.4083  0.4872  0.3808
 4295ntf    sn225532   6.079   0.901   0.519  0.0401  0.2731 -0.1245
 4295ntf    nn325533   5.970   0.866   0.412 -0.0158  0.3987 -0.1096
 4295ntf    sn225534   5.994   0.803   0.270  0.3949  0.2916  0.0059
 4295ntf    cn125535   5.850   0.692   0.265  0.3918  0.3142 -0.5015
 4295ntf    fn425536   6.179   0.740   0.700 -0.1045  0.0185  0.1202
 4295ntf    fn425537   5.972   0.698   0.637 -0.3404  0.1105  0.1798
 4295ntf    fn425538   6.135   0.648   0.515 -0.6861  0.3959  0.3380
 4295ntf    on525539   6.029   0.989   0.622 -0.5402 -0.7884  0.5212
 4295ntf    on525540   6.208   0.925   0.460  0.2181 -0.0397  0.1352
 4295ntf    on525541   6.102   0.709   0.250  0.0923  0.0421 -0.4609
 4295ntf    on525542   5.968   0.896   0.163 -0.2624 -0.1630 -0.2347
 4295ntf    fn425543   5.740   0.760   0.292  0.3105  0.1339 -0.3732
 4295ntf    fn425544   5.835   0.625   0.152  0.3937 -0.6875  0.0819
 4295ntf    fn425545   5.850   0.601   0.362 -0.2200  0.6276 -0.2000
 4296ntf    cn125546   3.930   2.631   1.975  0.2375  0.0915 -0.2861
 4296ntf    sn225547   4.040   2.768   2.022 -0.0492  0.1326  0.2771
 4296ntf    nn325548   4.010   2.804   2.172 -0.4504 -0.5404  0.3619
 4296ntf    sn225549   4.081   2.910   2.264 -0.1677 -0.1774 -0.2690
 4296ntf    cn125550   4.192   2.802   2.359  0.0486  0.1406 -0.1621
 4296ntf    fn425551   3.942   2.586   1.852 -0.0384 -0.2291 -0.1976
 4296ntf    fn425552   3.942   2.527   2.056 -1.0064  0.2588  0.1269
 4296ntf    fn425553   3.806   2.675   1.985  0.2231 -0.0103  0.0109
 4296ntf    on525554   4.171   2.715   1.995 -0.2316 -0.1160 -0.1241
 4296ntf    on525555   4.003   2.879   1.937 -0.0328 -0.2147 -0.1885
 4296ntf    on525556   3.997   2.962   2.368  0.1112  0.1151 -0.1875
 4296ntf    on525557   4.162   3.002   2.189 -0.8558  0.1414 -0.6306
 4296ntf    fn425558   4.197   2.852   2.482  0.8334 -0.4676  0.0647
 4296ntf    fn425559   4.144   2.681   2.377  0.0036  0.1415 -0.2774
 4296ntf    fn425560   4.314   2.792   2.309  0.1801  0.1303  0.1529
 4297ntf    cn125561   0.750   2.380   2.336  0.4444 -0.0010 -0.0519
 4297ntf    sn225562   0.728   2.202   2.308  0.3196 -0.0289  0.2191
 4297ntf    nn325563   0.839   2.170   2.201  0.4712  0.0628  0.3482
 4297ntf    sn225564   0.983   2.113   2.224  0.3963 -0.2230  0.1244
 4297ntf    cn125565   0.965   1.948   2.150  0.4946 -0.3113  0.2951
 4297ntf    fn425566   0.691   2.428   2.444 -0.1547 -0.5869 -0.1101
 4297ntf    fn425567   0.878   2.407   2.356  0.5181  0.0121 -0.5208
 4297ntf    fn425568   0.698   2.459   2.244 -0.4422 -0.2075  0.2563
 4297ntf    on525569   0.757   2.151   2.440  0.1773  0.1844  0.3332
 4297ntf    on525570   0.592   2.201   2.259  0.4701  0.0806 -0.2011
 4297ntf    on525571   1.021   2.095   2.362 -0.1042 -0.1754  0.2691
 4297ntf    on525572   1.073   2.187   2.139 -0.0248  0.5200  0.3124
 4297ntf    fn425573   0.963   1.952   2.018 -0.3997 -0.4224  0.2989
 4297ntf    fn425574   1.071   1.877   2.185  0.4478 -0.1423  0.7865
 4297ntf    fn425575   0.858   1.884   2.193 -0.0435  0.2911 -0.1295
 4298ntf    cn125576   6.953   0.523   0.109  0.0120 -0.0816  0.0448
 4298ntf    sn225577   6.799   0.619   0.100  0.0258 -0.0335  0.2906
 4298ntf    nn325578   6.763   0.613  -0.053 -0.5063 -0.1191  0.4158
 4298ntf    sn225579   6.621   0.581  -0.112 -0.2709 -0.0364 -0.2077
 4298ntf    cn125580   6.604   0.720  -0.229  0.2396  0.0053 -0.2340
 4298ntf    fn425581   6.949   0.396   0.074 -0.6266  0.0778 -0.4669
 4298ntf    fn425582   7.042   0.571   0.024  0.1308 -0.4434 -0.0359
 4298ntf    fn425583   7.007   0.520   0.230 -0.0896 -0.5517  0.0769
 4298ntf    on525584   6.714   0.535   0.181 -0.1572  0.1690  0.3108
 4298ntf    on525585   6.834   0.748   0.154  0.5008 -0.2933  0.6083
 4298ntf    on525586   6.504   0.603  -0.030 -0.0813 -0.7469  0.2642
 4298ntf    on525587   6.631   0.467  -0.199 -0.0645 -0.8111  0.8182
 4298ntf    fn425588   6.557   0.835  -0.185  0.1946 -0.1369  0.0963
 4298ntf    fn425589   6.716   0.735  -0.298  0.3513  0.4450  0.0393
 4298ntf    fn425590   6.511   0.681  -0.314  0.2599  0.1930 -0.3414
 4299ntf    cn125591   3.538   5.319   0.299 -0.2713  0.4188  0.2302
 4299ntf    sn225592   3.690   5.227   0.261 -0.5235  0.1793 -0.2071
 4299ntf    nn325593   3.739   5.304   0.133  0.4100 -0.4954 -0.2647
 4299ntf    sn225594   3.839   5.422   0.108 -0.1406  0.0396  0.0146
 4299ntf    cn125595   3.967   5.338   0.009 -0.1282 -0.3016  0.3183
 4299ntf    fn425596   3.439   5.293   0.215 -0.2755 -0.4852  0.5077
 4299ntf    fn425597   3.486   5.298   0.419 -0.2045 -0.3290  0.1348
 4299ntf    fn425598   3.560   5.449   0.293  0.6049  0.2630 -0.0721
 4299ntf    on525599   3.775   5.237   0.378 -0.4364 -0.0518 -0.2492
 4299ntf    on525600   3.645   5.095   0.224 -0.3000  0.2195 -0.6198
 4299ntf    on525601   3.913   5.469   0.222 -0.1211  0.3567 -0.1290
 4299ntf    on525602   3.778   5.521   0.022 -0.2236 -0.1625 -0.1627
 4299ntf    fn425603   4.040   5.430  -0.052 -0.0817 -0.1911  0.5366
 4299ntf    fn425604   4.045   5.255   0.078  0.2949 -0.0839  0.1094
 4299ntf    fn425605   3.925   5.260  -0.089  0.4407 -0.3412  0.1036
 4300ntf    cn125606   1.876   2.253   3.061  0.2708  0.0003 -0.2306
 4300ntf    sn225607   1.895   2.112   2.948 -0.1956  0.1387 -0.4862
 4300ntf    nn325608   1.906   2.006   3.064 -0.0842 -0.1669 -0.7757
 4300ntf    sn225609   1.811   1.894   3.120 -0.0290  0.2816  0.2320
 4300ntf    cn125610   1.905   1.745   3.074  0.1607  0.3547  0.3810
 4300ntf    fn425611   1.987   2.280   3.128 -0.2383  0.8547  0.2780
 4300ntf    fn425612   1.844   2.359   2.988 -0.4770 -0.3192 -0.3704
 4300ntf    fn425613   1.779   2.242   3.150 -0.0358  0.3050 -0.5249
 4300ntf    on525614   1.779   2.114   2.864 -0.4487  0.4329 -0.1312
 4300ntf    on525615   2.028   2.129   2.894 -0.0693 -0.0184 -0.2297
 4300ntf    on525616   1.680   1.894   3.060  0.1591  0.3338 -0.1834
 4300ntf    on525617   1.820   1.895   3.264 -0.2202 -0.0081  0.2464
 4300ntf    fn425618   1.832   1.644   3.029  0.1383  0.4688  0.1589
 4300ntf    fn425619   1.973   1.771   2.964  0.0101 -0.3386  0.1163
 4300ntf    fn425620   1.990   1.701   3.165  0.1758 -0.5208 -0.0485
 4301ntf    cn125621   4.393   5.626   0.904  0.1536 -0.0819 -0.2903
 4301ntf    sn225622   4.523   5.532   0.817  0.1135 -0.1891 -0.2345
 4301ntf    nn325623   4.598   5.645   0.738 -0.3533  0.1878 -0.1420
 4301ntf    sn225624   4.742   5.699   0.768 -0.2019 -0.2783 -0.0195
 4301ntf    cn125625   4.868   5.582   0.711  0.1221  0.0053  0.1134
 4301ntf    fn425626   4.445   5.733   0.962  0.0336 -0.1563 -0.0466
 4301ntf    fn425627   4.290   5.674   0.836 -0.3817 -0.3357  0.3353
 4301ntf    fn425628   4.336   5.552   0.997  0.1696  0.3806  0.0878
 4301ntf    on525629   4.601   5.466   0.919 -0.4502 -0.0911  0.2707
 4301ntf    on525630   4.452   5.445   0.726  0.0305 -0.5088  0.1323
 4301ntf    on525631   4.776   5.725   0.906 -0.4187 -0.0197 -0.0135
 4301ntf    on525632   4.775   5.807   0.678 -0.4252  0.1922  0.4576
 4301ntf    fn425633   4.991   5.627   0.731 -0.0402  0.3987  0.2242
 4301ntf    fn425634   4.856   5.459   0.757 -0.4096 -0.0386 -0.1395
 4301ntf    fn425635   4.873   5.567   0.579 -0.2382  0.0892  0.0910
 4302ntf    cn125636   1.044   7.145   6.443 -0.2757 -0.3780 -0.0207
 4302ntf    sn225637   1.015   7.200   6.272  0.0761 -0.0478  0.0230
 4302ntf    nn325638   1.129   7.124   6.196  0.3651 -0.2265  0.6290
 4302ntf    sn225639   1.131   6.976   6.143  0.0220  0.0828 -0.2724
 4302ntf    cn125640   1.263   6.916   6.253 -0.2630  0.3802  0.2360
 4302ntf    fn425641   1.002   7.022   6.465 -0.1957 -0.3763  0.1370
 4302ntf    fn425642   1.176   7.149   6.453 -0.2921 -0.2839  0.1552
 4302ntf    fn425643   0.990   7.218   6.539  0.8602  0.0124  0.3372
 4302ntf    on525644   0.878   7.162   6.246  0.0111  0.3688 -0.2598
 4302ntf    on525645   1.035   7.343   6.278 -0.3548 -0.0161  0.7853
 4302ntf    on525646   1.181   6.966   6.008 -0.1803 -0.7791 -0.2876
 4302ntf    on525647   1.012   6.904   6.181  0.4626 -0.4119  0.1977
 4302ntf    fn425648   1.294   6.794   6.213 -0.4972  0.4814 -0.2636
 4302ntf    fn425649   1.375   6.986   6.248 -0.1678  0.2435  0.4705
 4302ntf    fn425650   1.218   6.915   6.377 -0.5278 -0.1708  0.1386
 4303ntf    cn125651   6.118   6.756   0.337 -0.2735  0.1448 -0.2429
 4303ntf    sn225652   6.236   6.809   0.209  0.2737 -0.0396  0.1797
 4303ntf    nn325653   6.157   6.789   0.075 -0.2071 -0.6760  0.5506
 4303ntf    sn225654   6.150   6.670  -0.028 -0.1607  0.0669 -0.3231
 4303ntf    cn125655   6.044   6.744  -0.156 -0.2399  0.1525 -0.2090
 4303ntf    fn425656   6.030   6.844   0.383 -0.5236 -0.0541 -0.3383
 4303ntf    fn425657   6.048   6.649   0.303  0.3235 -0.1732 -0.4864
 4303ntf    fn425658   6.183   6.712   0.444  0.1740  0.5542 -0.3429
 4303ntf    on525659   6.248   6.949   0.243 -0.3555  0.2446 -0.7458
 4303ntf    on525660   6.351   6.726   0.232  0.2817  0.0148  0.3408
 4303ntf    on525661   6.072   6.557   0.014 -0.0502  0.2463  0.3836
 4303ntf    on525662   6.277   6.652  -0.094 -0.1645  0.1836 -0.3618
 4303ntf    fn425663   5.916   6.722  -0.133 -0.1685  0.1389  0.1773
 4303ntf    fn425664   6.060   6.875  -0.164  0.7805 -0.0017 -0.8940
 4303ntf    fn425665   6.077   6.697  -0.275 -0.3607  0.1844 -0.2544
 4304ntf    cn125666   1.583   3.355   7.258  0.1364 -0.3022 -0.0363
 4304ntf    sn225667   1.528   3.400   7.091  0.0954  0.3577  0.1506
 4304ntf    nn325668   1.614   3.310   6.996  0.3299  0.0453  0.6538
 4304ntf    sn225669   1.754   3.341   6.932  0.0731 -0.1175  0.0070
 4304ntf    cn125670   1.847   3.185   6.939  0.0937 -0.1148 -0.1810
 4304ntf    fn425671   1.710   3.377   7.291 -0.0919  0.0157  0.6487
 4304ntf    fn425672   1.518   3.432   7.344 -0.4781 -0.6693 -0.1679
 4304ntf    fn425673   1.562   3.227   7.283 -0.0489 -0.1897  0.4040
 4304ntf    on525674   1.389   3.360   7.090  0.0608  0.4910 -0.3054
 4304ntf    on525675   1.550   3.542   7.078 -0.4104  0.4346  0.1126
 4304ntf    on525676   1.832   3.429   7.015 -0.2541 -0.0512  0.2456
 4304ntf    on525677   1.732   3.370   6.792 -0.1159  0.2161  0.1053
 4304ntf    fn425678   1.964   3.184   6.877  0.2611 -0.3162  0.1310
 4304ntf    fn425679   1.881   3.149   7.062 -0.2377 -0.4157 -0.1763
 4304ntf    fn425680   1.781   3.082   6.887 -0.2454 -0.0043  0.0254
 4305ntf    cn125681   0.836   6.077   4.951 -0.2527  0.2880 -0.0304
 4305ntf    sn225682   0.867   5.909   5.012 -0.2485  0.3503  0.1394
 4305ntf    nn325683   0.995   5.882   4.925 -0.1402  0.2746  0.3225
 4305ntf    sn225684   1.114   5.787   4.963 -0.0785  0.3125  0.2237
 4305ntf    cn125685   1.145   5.731   4.793 -0.4622  0.0672  0.2324
 4305ntf    fn425686   0.829   6.079   4.819 -0.2011  0.6083 -0.0303
 4305ntf    fn425687   0.717   6.120   4.990 -0.4884 -0.3623 -0.0262
 4305ntf    fn425688   0.920   6.172   4.988 -0.2214  0.2663 -0.0473
 4305ntf    on525689   0.897   5.930   5.152  0.5924 -0.1754  0.0475
 4305ntf    on525690   0.745   5.843   4.971  0.2840 -0.5747  0.0190
 4305ntf    on525691   1.083   5.672   5.046 -0.3996  0.1982 -0.0519
 4305ntf    on525692   1.233   5.863   4.991 -0.4214  0.6863  0.6773
 4305ntf    fn425693   1.191   5.607   4.792  0.0639  0.2591 -0.3997
 4305ntf    fn425694   1.033   5.733   4.722 -0.2150 -0.0369 -0.1663
 4305ntf    fn425695   1.233   5.803   4.725 -0.5365  0.2441  0.3236
 4306ntf    cn125696   1.427   5.403   0.757 -0.0711  0.0964 -0.3680
 4306ntf    sn225697   1.546   5.266   0.749  0.0312  0.1715 -0.1452
 4306ntf    nn325698   1.669   5.349   0.801 -0.1911  0.1647  0.4006
 4306ntf    sn225699   1.814   5.353   0.741 -0.3075  0.2210  0.1185
 4306ntf    cn125700   1.918   5.420   0.873 -0.3215  0.0972  0.1926
 4306ntf    fn425701   1.386   5.429   0.880  0.0108 -0.4836 -0.2144
 4306ntf    fn425702   1.481   5.519   0.726 -0.2838  0.1617 -0.4956
 4306ntf    fn425703   1.318   5.395   0.682 -0.2818  0.0392 -0.0576
 4306ntf    on525704   1.491   5.171   0.843 -0.3839  0.6579  0.1118
 4306ntf    on525705   1.551   5.242   0.607  0.0073  0.9914 -0.2878
 4306ntf    on525706   1.820   5.462   0.647  0.1377  0.5650  0.5437
 4306ntf    on525707   1.869   5.225   0.704 -0.1638  0.3576 -0.1380
 4306ntf    fn425708   1.870   5.536   0.915 -0.5308  0.2493 -0.4691
 4306ntf    fn425709   1.927   5.340   0.978 -0.1992  0.0809  0.1704
 4306ntf    fn425710   2.043   5.445   0.838 -0.2864 -0.1600  0.1321
 4307ntf    cn125711   6.788   6.679   6.908  0.0109  0.3256  0.4836
 4307ntf    sn225712   6.868   6.843   6.907  0.2090  0.2288  0.1200
 4307ntf    nn325713   6.937   6.860   7.047 -0.2242 -0.0590  0.3747
 4307ntf    sn225714   7.085   6.903   7.075 -0.2596  0.4129 -0.1453
 4307ntf    cn125715   7.184   6.753   7.048  0.1896  0.6617  0.1027
 4307ntf    fn425716   6.881   6.589   6.936  0.2335  0.2820 -0.3543
 4307ntf    fn425717   6.694   6.680   7.001 -0.5499  0.0397 -0.0744
 4307ntf    fn425718   6.739   6.640   6.792  0.0538  0.7824  0.3069
 4307ntf    on525719   6.957   6.831   6.795  0.3966 -0.1749  0.3109
 4307ntf    on525720   6.753   6.929   6.892  0.0405  0.1169  0.7275
 4307ntf    on525721   7.111   6.915   7.216  0.4796 -0.5116 -0.1919
 4307ntf    on525722   7.150   7.007   6.999 -0.3602  0.3462 -0.3209
 4307ntf    fn425723   7.170   6.694   6.931 -0.1692  0.2463  0.3532
 4307ntf    fn425724   7.312   6.778   7.070  0.2909  0.3329 -0.1080
 4307ntf    fn425725   7.160   6.652   7.129  0.2632  0.3703 -0.2356
 4308ntf    cn125726   5.536   2.176   1.109 -0.1710 -0.4354 -0.0309
 4308ntf    sn225727   5.584   2.100   1.267  0.2142  0.0838  0.1056
 4308ntf    nn325728   5.494   2.181   1.367  0.1970  0.3258 -0.1026
 4308ntf    sn225729   5.538   2.290   1.470 -0.0304  0.0696  0.2719
 4308ntf    cn125730   5.588   2.177   1.603  0.1166 -0.0074  0.1517
 4308ntf    fn425731   5.405   2.193   1.104 -0.0783  0.3221 -0.0793
 4308ntf    fn425732   5.593   2.292   1.079 -0.3416 -0.2691  0.2729
 4308ntf    fn425733   5.576   2.095   1.012  0.8016  0.3112 -0.2760
 4308ntf    on525734   5.538   1.965   1.248  0.3920 -0.0100  0.3477
 4308ntf    on525735   5.727   2.119   1.272  0.2488 -0.1072 -0.1258
 4308ntf    on525736   5.432   2.365   1.532 -0.1269 -0.1935  0.4253
 4308ntf    on525737   5.654   2.366   1.430  0.6512 -0.7895  0.5954
 4308ntf    fn425738   5.661   2.077   1.558 -0.0725 -0.1086  0.0737
 4308ntf    fn425739   5.656   2.245   1.695 -0.1335  0.3810  0.0555
 4308ntf    fn425740   5.487   2.125   1.670 -0.1698 -0.0485 -0.3077
 4309ntf    cn125741   3.437   2.972   1.293  0.0136  0.1364  0.3669
 4309ntf    sn225742   3.364   2.997   1.457 -0.3716  0.1101  0.2016
 4309ntf    nn325743   3.467   3.082   1.540 -0.3727  0.0465  0.2686
 4309ntf    sn225744   3.547   3.050   1.671 -0.1123 -0.0871  0.0760
 4309ntf    cn125745   3.521   3.203   1.764 -0.3069 -0.0346 -0.0646
 4309ntf    fn425746   3.559   2.920   1.288 -0.1315 -0.1846  0.1315
 4309ntf    fn425747   3.364   2.892   1.216  0.5496  0.4541 -0.4944
 4309ntf    fn425748   3.444   3.090   1.232  0.2112 -0.1360 -0.1455
 4309ntf    on525749   3.243   3.065   1.419 -0.3472  0.2413  0.3600
 4309ntf    on525750   3.347   2.861   1.503  0.4725 -0.0680  0.0055
 4309ntf    on525751   3.690   3.049   1.653 -0.0752  0.9322  0.2551
 4309ntf    on525752   3.501   2.940   1.752  0.6278 -0.7015 -0.3133
 4309ntf    fn425753   3.583   3.307   1.711 -0.3347 -0.1119 -0.2507
 4309ntf    fn425754   3.390   3.218   1.777 -0.2310  0.0689  0.6125
 4309ntf    fn425755   3.553   3.195   1.892  0.0727  0.0855 -0.1517
 4310ntf    cn125756   5.883   2.993   4.369  0.4460  0.2835 -0.0590
 4310ntf    sn225757   6.033   2.890   4.358  0.2890 -0.0093  0.5060
 4310ntf    nn325758   5.972   2.746   4.345  0.0919  0.1387 -0.2668
 4310ntf    sn225759   6.052   2.618   4.390 -0.1644  0.0588 -0.0368
 4310ntf    cn125760   5.961   2.586   4.544  0.0101  0.3969  0.1385
 4310ntf    fn425761   5.909   3.123   4.370 -0.4843  0.4794 -0.3860
 4310ntf    fn425762   5.798   2.966   4.271  0.1611  0.2346  0.2004
 4310ntf    fn425763   5.820   2.957   4.480  0.4361  0.2403 -0.0786
 4310ntf    on525764   6.082   2.941   4.232 -0.2774  0.0424  0.3029
 4310ntf    on525765   6.107   2.928   4.476 -0.3957  0.0100  0.9361
 4310ntf    on525766   6.190   2.636   4.427 -0.4645  0.8096  0.7494
 4310ntf    on525767   6.028   2.513   4.294 -0.7560  0.1499  0.0062
 4310ntf    fn425768   5.955   2.456   4.568 -0.1728  0.3299 -0.2732
 4310ntf    fn425769   6.005   2.658   4.646  0.1232 -0.1715  0.4981
 4310ntf    fn425770   5.839   2.633   4.527 -0.2262 -0.1848  0.2050
 4311ntf    cn125771   0.407   4.136   4.540  0.2313  0.0121  0.0034
 4311ntf    sn225772   0.251   4.116   4.450 -0.1003  0.2574  0.5205
 4311ntf    nn325773   0.256   4.235   4.348 -0.1179 -0.5700 -0.4558
 4311ntf    sn225774   0.229   4.231   4.193 -0.0409 -0.1475 -0.4824
 4311ntf    cn125775   0.393   4.213   4.116  0.1724 -0.0824 -0.0458
 4311ntf    fn425776   0.432   4.019   4.597 -0.1567  0.3194  0.8203
 4311ntf    fn425777   0.507   4.175   4.463  0.7734 -0.1988  0.5898
 4311ntf    fn425778   0.400   4.224   4.639  0.0880  0.5714 -0.4956
 4311ntf    on525779   0.247   3.982   4.398 -0.2649  0.3875  0.1920
 4311ntf    on525780   0.163   4.146   4.561  0.1480  0.4369  0.6689
 4311ntf    on525781   0.203   4.368   4.157  0.0853  0.0983  0.3240
 4311ntf    on525782   0.137   4.136   4.136  0.3570 -0.6452 -0.3044
 4311ntf    fn425783   0.450   4.104   4.163 -0.4872 -0.2574  0.3578
 4311ntf    fn425784   0.377   4.191   3.987 -0.1094  0.0938 -0.0422
 4311ntf    fn425785   0.471   4.320   4.125  0.3848 -0.2989  0.8462
 4312ntf    cn125786   3.128   5.225   6.383  0.1759  0.3569 -0.0648
 4312ntf    sn225787   3.186   5.058   6.341  0.0531  0.2463  0.1976
 4312ntf    nn325788   3.310   5.086   6.249 -0.1304  0.3855 -0.0094
 4312ntf    sn225789   3.462   5.076   6.288 -0.2235 -0.1316  0.2238
 4312ntf    cn125790   3.523   5.223   6.200  0.0384 -0.1760  0.3329
 4312ntf    fn425791   3.022   5.222   6.463  0.5189  0.3405  0.3959
 4312ntf    fn425792   3.215   5.313   6.432 -0.3591  0.8331  0.0452
 4312ntf    fn425793   3.079   5.288   6.278 -0.2072 -0.2010 -0.2251
 4312ntf    on525794   3.207   4.999   6.470  0.1133  0.2656  0.1966
 4312ntf    on525795   3.085   4.996   6.259 -0.0273  0.7492 -0.0877
 4312ntf    on525796   3.543   4.975   6.226 -0.7618 -0.5434  0.1906
 4312ntf    on525797   3.488   5.098   6.429  0.5198  0.3824  0.0158
 4312ntf    fn425798   3.505   5.218   6.070 -0.1398 -1.3386  0.3894
 4312ntf    fn425799   3.467   5.335   6.242 -0.1862 -0.1302 -0.0840
 4312ntf    fn425800   3.654   5.235   6.218  0.1372 -0.4829 -0.1667
 4313ntf    cn125801   4.278   6.046   5.738  0.2704 -0.4300  0.2656
 4313ntf    sn225802   4.167   5.903   5.729 -0.0919 -0.1226 -0.2064
 4313ntf    nn325803   4.235   5.821   5.844 -0.2080 -0.0228 -0.0669
 4313ntf    sn225804   4.299   5.678   5.842  0.1797  0.1520 -0.3897
 4313ntf    cn125805   4.198   5.573   5.950  0.2441  0.3712 -0.1164
 4313ntf    fn425806   4.245   6.142   5.653 -0.7572  0.0130  1.1410
 4313ntf    fn425807   4.290   6.103   5.857  0.3468  0.0133  0.0495
 4313ntf    fn425808   4.403   6.014   5.707  0.5544  0.7078  0.1790
 4313ntf    on525809   4.039   5.958   5.766 -0.1721 -0.5078  0.0963
 4313ntf    on525810   4.186   5.863   5.591 -0.6367  0.3326 -0.4157
 4313ntf    on525811   4.424   5.668   5.912  0.0434 -0.2500 -0.2008
 4313ntf    on525812   4.288   5.603   5.719  0.3235  0.3205 -0.5053
 4313ntf    fn425813   4.258   5.457   5.973 -0.0171  0.1217 -0.6904
 4313ntf    fn425814   4.181   5.637   6.065  0.0320  0.3352 -0.1271
 4313ntf    fn425815   4.076   5.556   5.902  0.2939  0.1392 -0.1602
 4314ntf    cn125816   4.161   4.600   0.880  0.3469 -0.0085  0.2302
 4314ntf    sn225817   4.044   4.725   0.941  0.1110 -0.0673 -0.0986
 4314ntf    nn325818   4.140   4.768   1.057 -0.6417  0.5455  0.3068
 4314ntf    sn225819   4.151   4.701   1.199 -0.3387 -0.1531 -0.0408
 4314ntf    cn125820   4.119   4.835   1.318  0.5049  0.3025 -0.3128
 4314ntf    fn425821   4.128   4.536   0.769 -0.1657 -0.0690  0.4139
 4314ntf    fn425822   4.273   4.662   0.845  0.3353 -0.2691 -0.2827
 4314ntf    fn425823   4.198   4.511   0.970  0.2399  0.0690  0.3508
 4314ntf    on525824   4.042   4.828   0.841  0.0094  0.1460  0.1230
 4314ntf    on525825   3.926   4.650   0.976 -0.0849 -0.0529 -0.7115
 4314ntf    on525826   4.289   4.665   1.226 -0.3320 -0.3021 -0.2703
 4314ntf    on525827   4.055   4.600   1.236 -0.2327 -0.6821 -1.1599
 4314ntf    fn425828   4.198   4.940   1.305  0.0916  0.7637  0.7382
 4314ntf    fn425829   3.994   4.877   1.300  0.3410  0.0788  0.2921
 4314ntf    fn425830   4.139   4.791   1.441  0.6147  0.1093 -0.3987
 4315ntf    cn125831   6.330   4.121   2.976  0.1644 -0.1426  0.2058
 4315ntf    sn225832   6.409   4.105   3.139  0.4030  0.5377  0.1601
 4315ntf    nn325833   6.281   4.083   3.228  0.2994 -0.4335 -0.2230
 4315ntf    sn225834   6.252   3.962   3.323  0.0451  0.0974  0.3835
 4315ntf    cn125835   6.325   4.036   3.472  0.4558  0.0991  0.1822
 4315ntf    fn425836   6.412   4.148   2.876 -0.4739 -0.0290 -0.2943
 4315ntf    fn425837   6.263   4.011   2.948  0.4441 -0.2621  0.0041
 4315ntf    fn425838   6.234   4.212   2.982  0.3215  0.0093  0.4641
 4315ntf    on525839   6.503   3.996   3.129 -0.0403  0.1952 -0.3210
 4315ntf    on525840   6.457   4.240   3.156  0.6541  0.4131  0.4553
 4315ntf    on525841   6.328   3.840   3.306  0.1695  0.2451 -0.1237
 4315ntf    on525842   6.113   3.944   3.358 -0.3495  0.2354 -1.0444
 4315ntf    fn425843   6.274   4.156   3.495 -0.0293 -0.0257 -0.2213
 4315ntf    fn425844   6.310   3.965   3.583  0.2571  0.3352  0.3077
 4315ntf    fn425845   6.456   4.048   3.456  0.3901  1.0696  0.2797
 4316ntf    cn125846   0.538   3.696   4.494  0.4666 -0.0911 -0.0606
 4316ntf    sn225847   0.715   3.657   4.487  0.5022  0.0654 -0.0453
 4316ntf    nn325848   0.769   3.802   4.511  0.3982  0.1096 -0.0758
 4316ntf    sn225849   0.814   3.908   4.404 -0.2879  0.1408 -0.3385
 4316ntf    cn125850   0.987   3.935   4.456 -0.3383  0.0230 -0.1085
 4316ntf    fn425851   0.468   3.584   4.491  0.3113 -0.0128  0.3975
 4316ntf    fn425852   0.508   3.748   4.613  0.1485  0.1052 -0.2234
 4316ntf    fn425853   0.484   3.776   4.403  0.2002  0.2071  0.3537
 4316ntf    on525854   0.746   3.570   4.598 -0.0316 -0.4621 -0.3008
 4316ntf    on525855   0.735   3.603   4.354  0.6285  0.1824 -0.0741
 4316ntf    on525856   0.745   4.031   4.434  0.2573  0.4158 -0.1899
 4316ntf    on525857   0.822   3.860   4.268 -0.2438  0.4636 -0.4506
 4316ntf    fn425858   1.029   4.039   4.386 -0.0726 -0.4638 -0.6805
 4316ntf    fn425859   0.991   3.969   4.583  0.0923 -0.3868 -0.0093
 4316ntf    fn425860   1.070   3.833   4.444  0.1251  0.3177  0.5951
 4317ntf    cn125861   2.053   6.948   5.498 -0.3491 -0.1404 -0.4082
 4317ntf    sn225862   2.060   6.817   5.623  0.2716  0.3069  0.0280
 4317ntf    nn325863   2.172   6.886   5.709  0.6975 -0.8343  0.4127
 4317ntf    sn225864   2.169   6.957   5.849  0.0905 -0.2108  0.0918
 4317ntf    cn125865   2.140   7.127   5.791 -0.0483 -0.3077 -0.1186
 4317ntf    fn425866   2.174   6.990   5.464 -0.3636  0.2648  0.0395
 4317ntf    fn425867   1.991   6.913   5.385 -0.4419 -0.0394 -0.3892
 4317ntf    fn425868   1.990   7.055   5.543  0.3316  0.1201 -0.0790
 4317ntf    on525869   1.930   6.827   5.685  0.2539  0.3769 -0.0211
 4317ntf    on525870   2.096   6.692   5.559  0.2671 -0.0123  0.6403
 4317ntf    on525871   2.301   6.963   5.907 -0.1608  0.4156  0.6196
 4317ntf    on525872   2.067   6.945   5.950  0.5238 -0.4074  0.5108
 4317ntf    fn425873   2.237   7.165   5.709  0.2247 -0.2547  0.2284
 4317ntf    fn425874   2.028   7.141   5.721  0.0757  0.3462 -0.1872
 4317ntf    fn425875   2.123   7.216   5.887 -0.2400 -0.3522 -0.1094
 4318ntf    cn125876   0.116   5.540   4.912  0.4920  0.0965  0.2031
 4318ntf    sn225877   0.094   5.698   4.824  0.0189 -0.0862 -0.0094
 4318ntf    nn325878   0.165   5.790   4.929  0.5515  0.2107 -0.6246
 4318ntf    sn225879   0.149   5.945   4.949 -0.0151  0.0467  0.2496
 4318ntf    cn125880   0.114   5.945   5.127 -0.0067 -0.1330  0.2511
 4318ntf    fn425881   0.246   5.516   4.910  0.3965 -0.4062 -0.0348
 4318ntf    fn425882   0.077   5.537   5.038  0.1673  0.1028  0.1017
 4318ntf    fn425883   0.045   5.446   4.852 -0.1624  0.2389  0.7453
 4318ntf    on525884   0.154   5.676   4.695 -0.1209 -0.5465  0.0012
 4318ntf    on525885  -0.049   5.710   4.829  0.0542  0.0944  0.5679
 4318ntf    on525886   0.028   6.005   4.897  0.1448 -0.0765 -0.2698
 4318ntf    on525887   0.273   6.018   4.933  0.1806 -0.4758 -0.7323
 4318ntf    fn425888  -0.005   5.893   5.152 -0.0004 -0.2267  0.0884
 4318ntf    fn425889   0.200   5.871   5.195  0.1883  0.0294  0.1804
 4318ntf    fn425890   0.117   6.059   5.193  0.3466 -0.1581  0.2810
 4319ntf    cn125891   3.086   3.768   3.232  0.1847  0.2201 -0.3361
 4319ntf    sn225892   3.249   3.689   3.214  0.1908  0.1599 -0.0218
 4319ntf    nn325893   3.287   3.744   3.072  0.2760 -0.4176 -0.2281
 4319ntf    sn225894   3.421   3.814   3.031  0.0327  0.1430 -0.0807
 4319ntf    cn125895   3.428   3.783   2.852  0.2765  0.3150 -0.1019
 4319ntf    fn425896   3.008   3.709   3.321  0.0415  0.5736 -0.2238
 4319ntf    fn425897   3.099   3.897   3.260  0.5179  0.0487  0.3212
 4319ntf    fn425898   3.012   3.760   3.123 -0.0411 -0.3823 -0.1465
 4319ntf    on525899   3.318   3.730   3.334  0.7864  0.1309 -0.3528
 4319ntf    on525900   3.213   3.549   3.218 -0.2491  0.2495 -0.7355
 4319ntf    on525901   3.540   3.752   3.085 -0.0573  0.4479  0.4741
 4319ntf    on525902   3.421   3.958   3.039  0.5515  0.2277 -1.2733
 4319ntf    fn425903   3.388   3.661   2.820  0.4499  0.1411  0.3396
 4319ntf    fn425904   3.341   3.860   2.788 -0.3872 -0.1360  0.2554
 4319ntf    fn425905   3.547   3.809   2.800  0.2461  0.2778 -0.1906
 4320ntf    cn125906   2.481   1.693   1.295  0.1041 -0.1490 -0.3507
 4320ntf    sn225907   2.540   1.862   1.327 -0.3490 -0.0786  0.1346
 4320ntf    nn325908   2.559   1.919   1.182 -0.1956  1.0301  0.5797
 4320ntf    sn225909   2.457   1.995   1.090 -0.0959  0.2861 -0.1540
 4320ntf    cn125910   2.563   2.128   1.025 -0.0457  0.1436 -0.3672
 4320ntf    fn425911   2.449   1.620   1.401  0.0359  0.6954  0.2199
 4320ntf    fn425912   2.368   1.701   1.227  0.0998  0.3050 -0.2917
 4320ntf    fn425913   2.557   1.613   1.222 -0.5159 -0.6590 -0.4519
 4320ntf    on525914   2.441   1.917   1.416 -0.2585 -0.0592  0.2231
 4320ntf    on525915   2.672   1.843   1.382 -0.2293  0.0367 -0.1117
 4320ntf    on525916   2.359   2.078   1.154  0.0752  0.1996  0.2182
 4320ntf    on525917   2.422   1.918   0.973  0.3167 -0.0825 -0.0352
 4320ntf    fn425918   2.576   2.235   1.102  0.0322 -0.0197 -0.1519
 4320ntf    fn425919   2.686   2.092   0.992  0.0788 -0.2660  0.5103
 4320ntf    fn425920   2.512   2.167   0.910 -0.3874  0.1464 -0.2144
   7.30933   7.30933   7.30933
