Converted from moscito
21600
    1SOL     ow    1   5.146   1.759   2.190 -0.5465  0.4496  0.3805
    1SOL     hw    2   5.096   1.828   2.146  0.0020  0.1765 -0.7192
    1SOL     hw    3   5.091   1.733   2.264 -0.4076  2.5988  1.3164
    1SOL     vw    4   5.132   1.764   2.194 -0.4559  0.6971  0.3589
    2SOL     ow    5   0.204   2.092   5.292  0.2293  0.7112 -0.2402
    2SOL     hw    6   0.297   2.084   5.314  0.3722  0.4537 -0.9324
    2SOL     hw    7   0.193   2.038   5.214 -1.0347 -1.4306  1.3048
    2SOL     vw    8   0.215   2.083   5.285  0.0814  0.3946 -0.1278
    3SOL     ow    9   1.294   1.754   4.493  0.3937  0.0201  0.2237
    3SOL     hw   10   1.302   1.813   4.568  1.6700 -0.7089  0.6869
    3SOL     hw   11   1.290   1.813   4.417 -0.0069  0.7334  0.7794
    3SOL     vw   12   1.294   1.770   4.493  0.5092  0.0180  0.3583
    4SOL     ow   13   5.891   3.365   5.491 -0.2927  0.2915  0.5712
    4SOL     hw   14   5.982   3.372   5.522 -0.0992  2.5737 -0.2663
    4SOL     hw   15   5.871   3.453   5.458 -2.2405 -0.6287 -0.8589
    4SOL     vw   16   5.901   3.378   5.491 -0.5243  0.4712  0.2723
    5SOL     ow   17   1.515   3.063   1.785  0.3664 -0.1407  0.1549
    5SOL     hw   18   1.574   3.052   1.859 -1.3641  0.4833  1.7095
    5SOL     hw   19   1.428   3.046   1.821 -0.4620 -0.6739 -1.9611
    5SOL     vw   20   1.511   3.060   1.799  0.0287 -0.1287  0.0808
    6SOL     ow   21   6.388   6.192   1.558 -0.3598 -0.4374  0.4182
    6SOL     hw   22   6.312   6.136   1.574 -1.1168  0.0757 -1.1715
    6SOL     hw   23   6.461   6.132   1.546 -0.7630 -0.9894  0.7046
    6SOL     vw   24   6.388   6.177   1.559 -0.5128 -0.4425  0.2463
    7SOL     ow   25   5.872   3.547   2.402  0.4820 -0.3004  0.1711
    7SOL     hw   26   5.814   3.541   2.478 -0.2566 -0.2270 -0.3658
    7SOL     hw   27   5.852   3.633   2.364  0.0226 -0.7894 -0.7328
    7SOL     vw   28   5.861   3.557   2.407  0.3242 -0.3554 -0.0190
    8SOL     ow   29   6.367   7.007   1.733  0.0429 -0.8588 -0.2392
    8SOL     hw   30   6.280   7.015   1.694  0.7217  0.0827 -1.6508
    8SOL     hw   31   6.379   6.913   1.745 -0.4874 -1.1258 -1.6609
    8SOL     vw   32   6.357   6.996   1.730  0.0627 -0.7699 -0.6130
    9SOL     ow   33   0.336   4.261   0.211  0.2200 -0.8685  0.1050
    9SOL     hw   34   0.330   4.345   0.165 -2.1413 -0.6689  0.6258
    9SOL     hw   35   0.424   4.259   0.246  0.8592  0.6592 -1.2812
    9SOL     vw   36   0.347   4.272   0.209 -0.0072 -0.6406 -0.0092
   10SOL     ow   37   5.043   5.961   4.941 -0.5398 -0.3987  0.2681
   10SOL     hw   38   5.030   5.940   4.849 -0.0579 -2.7293  0.6436
   10SOL     hw   39   5.109   5.898   4.970 -0.0418  0.8511  2.0129
   10SOL     vw   40   5.050   5.950   4.933 -0.4108 -0.5414  0.5476
   11SOL     ow   41   1.793   2.551   5.803  0.3617  0.0605 -0.1105
   11SOL     hw   42   1.851   2.627   5.808  0.0972  0.4027 -1.6753
   11SOL     hw   43   1.709   2.583   5.834  0.3911  0.2531 -0.2292
   11SOL     vw   44   1.790   2.565   5.808  0.3307  0.1311 -0.3326
   12SOL     ow   45   6.290   5.561   4.966  0.2251 -0.3891  0.0304
   12SOL     hw   46   6.323   5.632   4.911 -1.2534  0.2219 -0.1275
   12SOL     hw   47   6.359   5.495   4.964  1.2523  0.6559 -0.5560
   12SOL     vw   48   6.303   5.562   4.958  0.1655 -0.1707 -0.0677
   13SOL     ow   49   3.974   2.887   5.133  0.1057 -0.7196  0.2320
   13SOL     hw   50   3.988   2.793   5.119  1.6169 -0.5107  0.1194
   13SOL     hw   51   3.944   2.920   5.048  0.3804 -0.9733  0.0317
   13SOL     vw   52   3.972   2.879   5.120  0.3413 -0.7255  0.1907
   14SOL     ow   53   6.977   5.366   3.763  0.1205 -0.3554 -0.1226
   14SOL     hw   54   6.958   5.357   3.670  0.6346  3.4450 -0.7181
   14SOL     hw   55   6.895   5.339   3.806 -2.0790  2.7316 -1.9982
   14SOL     vw   56   6.964   5.361   3.757 -0.1018  0.5534 -0.4486
   15SOL     ow   57   6.609   3.960   4.193 -0.4730 -0.2414  0.1085
   15SOL     hw   58   6.660   3.880   4.203  1.0100  0.4596 -1.4251
   15SOL     hw   59   6.589   3.965   4.100 -1.2369  0.7780  0.3024
   15SOL     vw   60   6.613   3.950   4.182 -0.3781 -0.0144 -0.0682
   16SOL     ow   61   4.132   4.134   2.984 -0.2636  0.0188  0.1648
   16SOL     hw   62   4.197   4.137   2.914 -1.1159 -0.4160 -0.6497
   16SOL     hw   63   4.175   4.179   3.057 -0.0475  2.1373 -1.1888
   16SOL     vw   64   4.146   4.141   2.985 -0.3474  0.2410 -0.1215
   17SOL     ow   65   2.126   0.498   1.548  0.1210 -0.5953 -0.2291
   17SOL     hw   66   2.062   0.469   1.613 -0.1694  1.6554  0.5901
   17SOL     hw   67   2.082   0.488   1.464 -0.6391 -0.7563  0.1825
   17SOL     vw   68   2.112   0.493   1.546 -0.0178 -0.3196 -0.0666
   18SOL     ow   69   2.906   3.964   3.080 -0.1146 -0.8988 -0.0861
   18SOL     hw   70   2.872   3.996   2.997 -0.4493  0.9280  0.7203
   18SOL     hw   71   2.908   4.041   3.137  0.4534 -2.0309  1.4909
   18SOL     vw   72   2.902   3.978   3.076 -0.0838 -0.8072  0.2284
   19SOL     ow   73   1.044   0.929   3.354 -0.4751 -0.1974 -0.2649
   19SOL     hw   74   1.054   0.976   3.271  1.9737  2.2730  1.2466
   19SOL     hw   75   0.973   0.973   3.399 -1.2608 -1.0122 -0.6791
   19SOL     vw   76   1.036   0.941   3.349 -0.2557  0.0210 -0.1200
   20SOL     ow   77   3.817   0.899   2.137 -0.5143 -0.8080  0.1787
   20SOL     hw   78   3.873   0.872   2.065 -1.6053  0.0216 -1.0158
   20SOL     hw   79   3.730   0.866   2.115 -0.9515 -0.1806  0.8820
   20SOL     vw   80   3.813   0.891   2.125 -0.7160 -0.6158  0.1140
   21SOL     ow   81   1.816   2.035   6.973  0.0644 -0.4860  0.0706
   21SOL     hw   82   1.889   2.001   6.921  1.2488  0.6882  0.8793
   21SOL     hw   83   1.741   1.982   6.947  1.1998 -1.7487 -0.7956
   21SOL     vw   84   1.816   2.023   6.963  0.3704 -0.4976  0.0627
   22SOL     ow   85   4.553   0.109   4.070  0.0953 -0.1345  0.4977
   22SOL     hw   86   4.571   0.040   4.006  0.8754 -0.8922  1.4931
   22SOL     hw   87   4.476   0.078   4.117 -2.1447  1.6698 -1.7461
   22SOL     vw   88   4.546   0.095   4.068 -0.0975  0.0036  0.3328
   23SOL     ow   89   0.481   4.327   1.733 -0.0287  1.0036  0.3704
   23SOL     hw   90   0.501   4.329   1.639  0.7440  2.9151  0.5237
   23SOL     hw   91   0.566   4.330   1.776 -0.3923  0.5780  1.1480
   23SOL     vw   92   0.495   4.328   1.726  0.0253  1.1997  0.4932
   24SOL     ow   93   5.890   0.265   2.328 -0.0336  0.2049  0.0526
   24SOL     hw   94   5.838   0.244   2.251 -0.5100  1.3211  0.0599
   24SOL     hw   95   5.870   0.357   2.347  1.9658  0.6914  0.0297
   24SOL     vw   96   5.881   0.274   2.321  0.1671  0.4164  0.0505
   25SOL     ow   97   2.951   1.295   5.492 -0.0385 -0.0424 -0.1623
   25SOL     hw   98   2.952   1.329   5.402 -0.9441 -0.4308 -0.3409
   25SOL     hw   99   2.893   1.219   5.487  0.1300 -0.2313  0.6959
   25SOL     vw  100   2.943   1.289   5.479 -0.1357 -0.1186 -0.0727
   26SOL     ow  101   3.017   6.862   0.060  0.2670 -0.1040  0.6041
   26SOL     hw  102   2.986   6.856  -0.030 -1.0368  0.8384  0.9606
   26SOL     hw  103   2.975   6.788   0.104  1.8616 -1.2869  0.2046
   26SOL     vw  104   3.007   6.851   0.054  0.3053 -0.1354  0.5984
   27SOL     ow  105   2.124   2.170   4.319 -0.1048 -0.0987  0.1885
   27SOL     hw  106   2.056   2.237   4.323  1.0210  1.5430 -3.7015
   27SOL     hw  107   2.109   2.124   4.237  3.5322  0.6056 -1.0660
   27SOL     vw  108   2.113   2.173   4.309  0.5237  0.2106 -0.4902
   28SOL     ow  109   2.451   0.727   0.356  0.1289 -0.5437 -0.4780
   28SOL     hw  110   2.500   0.755   0.279 -0.1687  1.7660  0.1072
   28SOL     hw  111   2.514   0.676   0.407  0.7580 -0.8558 -1.5385
   28SOL     vw  112   2.465   0.724   0.353  0.1726 -0.2801 -0.5407
   29SOL     ow  113   5.081   1.704   1.558 -0.3661 -0.2401 -0.2356
   29SOL     hw  114   5.093   1.618   1.518  1.9147  0.2602 -0.7791
   29SOL     hw  115   5.043   1.758   1.488  0.4654 -0.2201 -0.6876
   29SOL     vw  116   5.078   1.700   1.543  0.0443 -0.1715 -0.3669
   30SOL     ow  117   3.523   3.807   6.944 -0.1246 -0.4088 -0.1965
   30SOL     hw  118   3.525   3.711   6.945 -0.1912 -0.4072  1.4974
   30SOL     hw  119   3.589   3.834   7.007 -1.2996  0.6292  0.6346
   30SOL     vw  120   3.532   3.798   6.952 -0.2884 -0.2717  0.1366
   31SOL     ow  121   5.824   0.525   2.427 -0.0757 -0.3637  0.0140
   31SOL     hw  122   5.855   0.588   2.362 -2.0126  0.1976 -0.4551
   31SOL     hw  123   5.728   0.533   2.423 -0.2768 -1.2059  2.0609
   31SOL     vw  124   5.815   0.535   2.418 -0.3579 -0.4008  0.2223
   32SOL     ow  125   3.976   0.031   6.421  0.4304  0.1293  0.2984
   32SOL     hw  126   3.938  -0.012   6.497  0.7471 -0.0375  0.3597
   32SOL     hw  127   3.916   0.104   6.403  0.4617  0.2815  0.8156
   32SOL     vw  128   3.963   0.035   6.428  0.4764  0.1274  0.3748
   33SOL     ow  129   5.656   1.201   0.288  0.3444  0.4478 -0.4041
   33SOL     hw  130   5.680   1.112   0.262 -0.5012  0.5211 -1.4882
   33SOL     hw  131   5.699   1.213   0.373  1.1172 -0.7061 -0.6038
   33SOL     vw  132   5.665   1.191   0.296  0.3350  0.3052 -0.5735
   34SOL     ow  133   6.839   6.989   4.101 -0.6178 -0.0717  0.0313
   34SOL     hw  134   6.925   6.949   4.111 -0.8849 -0.5922  0.2915
   34SOL     hw  135   6.792   6.932   4.041 -0.3015  1.0020 -1.2786
   34SOL     vw  136   6.844   6.976   4.095 -0.6113  0.0014 -0.1070
   35SOL     ow  137   3.258   5.805   5.770 -0.3130  0.0720  0.1758
   35SOL     hw  138   3.254   5.849   5.685 -2.1708  1.6892  1.0257
   35SOL     hw  139   3.203   5.728   5.759  1.4131 -1.1044 -0.7466
   35SOL     vw  140   3.250   5.800   5.757 -0.3303  0.1302  0.1664
   36SOL     ow  141   6.693   4.652   3.685  0.2358 -0.4192  0.1057
   36SOL     hw  142   6.728   4.687   3.767  0.2089 -0.2305  0.0369
   36SOL     hw  143   6.765   4.659   3.622 -0.2609  1.0439 -0.3441
   36SOL     vw  144   6.707   4.658   3.687  0.1669 -0.2015  0.0373
   37SOL     ow  145   0.930   5.408   0.619 -0.2531  0.0950 -0.2951
   37SOL     hw  146   0.964   5.491   0.652 -1.7543 -0.3549  2.7072
   37SOL     hw  147   0.901   5.361   0.697 -2.1148 -2.0482 -2.1216
   37SOL     vw  148   0.930   5.413   0.634 -0.6968 -0.2470 -0.1400
   38SOL     ow  149   4.119   6.834   4.878  0.6418  0.1196  0.1062
   38SOL     hw  150   4.096   6.745   4.904  2.4745 -0.7735 -1.1152
   38SOL     hw  151   4.200   6.853   4.925 -0.4498  1.7492  1.4607
   38SOL     vw  152   4.127   6.825   4.888  0.7398  0.2165  0.1237
   39SOL     ow  153   0.218   5.818   1.969  0.1082 -0.1022 -0.5664
   39SOL     hw  154   0.259   5.741   1.930  0.0052  0.0600 -1.0038
   39SOL     hw  155   0.185   5.868   1.894 -1.1025 -0.3418 -0.2076
   39SOL     vw  156   0.219   5.815   1.954 -0.0651 -0.1123 -0.5768
   40SOL     ow  157   2.679   5.001   5.759 -0.6803  0.0358  0.0378
   40SOL     hw  158   2.684   5.067   5.690 -0.8180 -1.5541 -1.5558
   40SOL     hw  159   2.588   4.973   5.760 -0.8004  0.4105  1.2560
   40SOL     vw  160   2.668   5.006   5.750 -0.7143 -0.1245 -0.0119
   41SOL     ow  161   2.469   4.916   2.336 -0.2053 -0.4898 -0.6728
   41SOL     hw  162   2.552   4.960   2.355 -0.4338  1.2029 -3.1503
   41SOL     hw  163   2.494   4.836   2.290  0.0983 -1.1525  0.6159
   41SOL     vw  164   2.483   4.912   2.332 -0.1954 -0.3541 -0.8297
   42SOL     ow  165   5.459   1.150   0.058 -0.7130 -0.7223  0.0579
   42SOL     hw  166   5.405   1.175  -0.017 -1.7859 -0.3098  0.9560
   42SOL     hw  167   5.435   1.059   0.076  0.2010 -1.1241 -0.6296
   42SOL     vw  168   5.449   1.141   0.051 -0.7341 -0.7209  0.0857
   43SOL     ow  169   4.588   0.193   0.098  0.6181 -0.3220 -0.0922
   43SOL     hw  170   4.541   0.177   0.180 -1.4960  1.7413 -0.7892
   43SOL     hw  171   4.561   0.121   0.041  0.2772 -0.4976  0.2846
   43SOL     vw  172   4.578   0.181   0.101  0.2942 -0.0730 -0.1345
   44SOL     ow  173   4.802   0.738   2.621 -0.1850  0.3351 -0.4173
   44SOL     hw  174   4.852   0.692   2.688  0.2180  2.3392  0.7459
   44SOL     hw  175   4.813   0.831   2.642 -1.9816  0.9515 -1.8910
   44SOL     vw  176   4.810   0.744   2.632 -0.3688  0.6808 -0.4582
   45SOL     ow  177   2.860   2.824   4.406  0.3322 -0.8060 -0.0237
   45SOL     hw  178   2.793   2.891   4.420  1.2156 -0.0108  0.5219
   45SOL     hw  179   2.861   2.775   4.489  2.1088  0.7566  0.9511
   45SOL     vw  180   2.851   2.826   4.419  0.6833 -0.4950  0.1767
   46SOL     ow  181   0.727   3.722   6.326  0.0386 -0.3924  0.7303
   46SOL     hw  182   0.708   3.718   6.232 -3.5320  2.2421  1.1395
   46SOL     hw  183   0.726   3.630   6.354 -1.2525 -1.1190 -1.4334
   46SOL     vw  184   0.724   3.709   6.317 -0.6028 -0.1407  0.4985
   47SOL     ow  185   0.365   1.516   0.050 -0.7850  0.3552 -0.1719
   47SOL     hw  186   0.405   1.434   0.078 -0.3916  0.4011 -0.5852
   47SOL     hw  187   0.406   1.582   0.105 -0.6702  0.3397 -0.2374
   47SOL     vw  188   0.375   1.514   0.061 -0.7179  0.3593 -0.2351
   48SOL     ow  189   1.892   3.171   1.549  0.0238 -0.7182  0.5308
   48SOL     hw  190   1.941   3.218   1.616 -0.1327 -1.4659  1.1795
   48SOL     hw  191   1.894   3.230   1.473  0.7918 -0.1672  0.9590
   48SOL     vw  192   1.899   3.185   1.547  0.1045 -0.7441  0.6729
   49SOL     ow  193   6.679   0.419   1.349  0.1797  0.0162 -0.2231
   49SOL     hw  194   6.671   0.328   1.379  0.3376  0.7253  2.1146
   49SOL     hw  195   6.590   0.444   1.324  0.0959 -0.7036 -0.6760
   49SOL     vw  196   6.666   0.410   1.350  0.1895  0.0148  0.0255
   50SOL     ow  197   5.449   6.290   6.183 -0.0550 -0.1011  0.0475
   50SOL     hw  198   5.492   6.254   6.105  1.5166 -0.0553  0.8419
   50SOL     hw  199   5.384   6.224   6.207  0.0499 -0.5250 -0.7870
   50SOL     vw  200   5.446   6.277   6.176  0.1664 -0.1509  0.0420
   51SOL     ow  201   6.545   1.596   4.395 -0.0874 -0.1062 -0.1222
   51SOL     hw  202   6.502   1.591   4.480  0.3744 -0.0317  0.1201
   51SOL     hw  203   6.558   1.690   4.380 -0.6466 -0.0875 -0.5215
   51SOL     vw  204   6.541   1.608   4.404 -0.1001 -0.0939 -0.1428
   52SOL     ow  205   0.737   3.382   5.266 -0.5199  0.0953  0.2833
   52SOL     hw  206   0.679   3.334   5.207 -3.3692  0.8346  2.2800
   52SOL     hw  207   0.773   3.315   5.324  0.9044 -0.3942 -1.0967
   52SOL     vw  208   0.734   3.367   5.266 -0.7079  0.1283  0.3645
   53SOL     ow  209   0.969   1.352   6.790  0.1790 -0.1398 -0.3576
   53SOL     hw  210   1.010   1.268   6.814 -0.5471 -0.6347 -0.7939
   53SOL     hw  211   0.932   1.336   6.703 -0.3486  0.5082 -0.2564
   53SOL     vw  212   0.970   1.338   6.781  0.0136 -0.1197 -0.4017
   54SOL     ow  213   0.072   5.222   6.436 -0.1919  0.1603 -0.8707
   54SOL     hw  214   0.166   5.238   6.432 -0.3336  0.7767 -2.2649
   54SOL     hw  215   0.034   5.285   6.375 -1.6113  0.5904  0.3798
   54SOL     vw  216   0.079   5.232   6.427 -0.3978  0.2983 -0.8898
   55SOL     ow  217   6.844   1.147   1.902  0.4990 -0.1165 -0.2590
   55SOL     hw  218   6.759   1.103   1.903  1.4864 -2.1833 -1.1469
   55SOL     hw  219   6.868   1.152   1.994  0.4949 -1.8664 -0.1120
   55SOL     vw  220   6.836   1.142   1.914  0.6287 -0.6201 -0.3569
   56SOL     ow  221   4.389   4.528   0.910  0.0498 -0.7749  0.2236
   56SOL     hw  222   4.423   4.478   0.984  1.7585  0.1790  0.1390
   56SOL     hw  223   4.456   4.594   0.893 -2.1790  1.7104  0.4683
   56SOL     vw  224   4.402   4.530   0.918 -0.0188 -0.3209  0.2447
   57SOL     ow  225   6.261   4.211   1.306 -0.2058  0.1261  0.1129
   57SOL     hw  226   6.270   4.148   1.234  0.2909 -1.8846  1.8017
   57SOL     hw  227   6.180   4.185   1.351 -0.5361  1.3704  0.2815
   57SOL     vw  228   6.251   4.199   1.303 -0.1841  0.0250  0.3579
   58SOL     ow  229   1.623   3.799   6.718  0.6103 -0.9826 -0.1488
   58SOL     hw  230   1.581   3.847   6.790  1.5506 -0.6260  0.1703
   58SOL     hw  231   1.579   3.832   6.640 -0.1129 -1.0424  0.2161
   58SOL     vw  232   1.612   3.810   6.718  0.6390 -0.9434 -0.0584
   59SOL     ow  233   6.789   4.472   0.325  0.2842  0.0093 -0.2662
   59SOL     hw  234   6.770   4.392   0.374  2.0202 -0.9652 -1.0794
   59SOL     hw  235   6.808   4.537   0.392 -2.7659  0.2727  0.4668
   59SOL     vw  236   6.789   4.470   0.340  0.1106 -0.0844 -0.2768
   60SOL     ow  237   6.853   1.415   3.942  0.2398 -0.2388 -0.1446
   60SOL     hw  238   6.914   1.394   4.013 -0.4473 -1.6245  0.0665
   60SOL     hw  239   6.775   1.449   3.987 -0.3831 -1.5717 -0.1608
   60SOL     vw  240   6.851   1.417   3.958  0.0668 -0.5975 -0.1190
   61SOL     ow  241   5.547   2.934   4.356  0.5233  0.0078  0.0383
   61SOL     hw  242   5.609   2.958   4.288  1.9835  0.0344  1.3228
   61SOL     hw  243   5.595   2.946   4.438 -0.8500 -0.9542  1.0362
   61SOL     vw  244   5.561   2.938   4.358  0.5348 -0.1158  0.3397
   62SOL     ow  245   4.444   4.807   2.769 -0.3863  0.3602  0.4930
   62SOL     hw  246   4.384   4.751   2.720  0.9453 -0.5784 -0.1389
   62SOL     hw  247   4.486   4.861   2.703  1.9005 -1.3730  0.4137
   62SOL     vw  248   4.442   4.807   2.754  0.0911  0.0076  0.3991
   63SOL     ow  249   4.184   1.891   2.828 -0.1123  0.0150 -0.0972
   63SOL     hw  250   4.135   1.966   2.863 -0.9168 -0.1714 -0.7791
   63SOL     hw  251   4.126   1.854   2.761 -0.8825 -2.7542  1.9182
   63SOL     vw  252   4.170   1.896   2.824 -0.3200 -0.3750  0.0787
   64SOL     ow  253   3.804   2.344   2.143 -0.1089  0.3863  0.8694
   64SOL     hw  254   3.825   2.275   2.206  2.3172  1.5160  1.4384
   64SOL     hw  255   3.777   2.418   2.197  1.4718  1.1918  0.6232
   64SOL     vw  256   3.804   2.344   2.159  0.4196  0.6417  0.9120
   65SOL     ow  257   3.209   6.147   4.966  0.6728 -0.4740  0.2305
   65SOL     hw  258   3.194   6.061   4.929  1.1180 -0.2677 -0.4429
   65SOL     hw  259   3.291   6.177   4.927  2.3891 -1.1520  3.0023
   65SOL     vw  260   3.218   6.140   4.956  0.9581 -0.5362  0.5074
   66SOL     ow  261   2.465   5.848   5.156  0.2286 -0.2509 -0.6645
   66SOL     hw  262   2.559   5.833   5.156  0.3723  0.4113  1.0031
   66SOL     hw  263   2.455   5.938   5.187 -0.9433 -0.1684 -1.2279
   66SOL     vw  264   2.476   5.857   5.160  0.0930 -0.1526 -0.5188
   67SOL     ow  265   0.733   1.622   1.594  0.0873 -0.0422  0.1186
   67SOL     hw  266   0.700   1.538   1.563  2.7537 -1.4078  0.6844
   67SOL     hw  267   0.690   1.635   1.678  0.6047 -1.5475  0.6569
   67SOL     vw  268   0.723   1.613   1.601  0.5074 -0.4210  0.2642
   68SOL     ow  269   2.168   5.411   5.070  0.8253 -0.0182  0.5280
   68SOL     hw  270   2.075   5.394   5.083  0.5505 -0.6927 -1.8845
   68SOL     hw  271   2.183   5.498   5.108 -0.9235  0.3808  0.3556
   68SOL     vw  272   2.158   5.420   5.077  0.5583 -0.0546  0.1872
   69SOL     ow  273   2.421   3.513   0.851 -0.1401 -0.7376  0.1978
   69SOL     hw  274   2.357   3.454   0.813 -0.0487  0.0626 -1.2786
   69SOL     hw  275   2.400   3.599   0.813  0.9759 -0.2118  0.7186
   69SOL     vw  276   2.410   3.517   0.841  0.0193 -0.5627  0.0717
   70SOL     ow  277   0.335   1.019   6.126 -1.0058 -0.0128  0.6055
   70SOL     hw  278   0.365   1.029   6.035 -0.9296  0.6314  0.6945
   70SOL     hw  279   0.307   0.928   6.132  2.6408 -1.2602  1.0097
   70SOL     vw  280   0.336   1.008   6.115 -0.5146 -0.0924  0.6704
   71SOL     ow  281   6.075   3.978   5.130  0.0927 -0.0075 -0.0499
   71SOL     hw  282   6.059   4.041   5.060  0.1687 -0.4732 -0.4942
   71SOL     hw  283   6.083   4.031   5.209  0.3377  0.5539 -0.4436
   71SOL     vw  284   6.074   3.993   5.131  0.1347  0.0051 -0.1605
   72SOL     ow  285   3.943   4.177   3.294 -0.0688 -0.0803 -0.1137
   72SOL     hw  286   3.911   4.221   3.373 -1.6982 -1.1419 -0.1392
   72SOL     hw  287   3.985   4.247   3.243  0.1333  0.8084  1.2284
   72SOL     vw  288   3.944   4.192   3.298 -0.2571 -0.1030  0.0598
   73SOL     ow  289   6.152   4.459   1.458 -0.1108  0.1622 -0.2371
   73SOL     hw  290   6.163   4.487   1.549  0.2872 -0.3888 -0.1132
   73SOL     hw  291   6.061   4.430   1.453 -0.3758  0.9587 -0.2314
   73SOL     vw  292   6.141   4.459   1.469 -0.0932  0.1945 -0.2200
   74SOL     ow  293   5.500   3.015   0.480 -0.3479 -0.0196 -0.7093
   74SOL     hw  294   5.471   3.098   0.442  1.7217  0.7988 -0.6729
   74SOL     hw  295   5.481   3.023   0.573 -1.4737 -0.2182 -0.9067
   74SOL     vw  296   5.494   3.027   0.487 -0.2232  0.0623 -0.7305
   75SOL     ow  297   0.576   1.475   5.723  0.1851  0.3116 -0.6304
   75SOL     hw  298   0.501   1.416   5.732 -0.2277  1.1413  2.7005
   75SOL     hw  299   0.644   1.436   5.778 -0.5425  3.3601  2.8126
   75SOL     vw  300   0.575   1.462   5.732  0.0346  0.8233  0.2635
   76SOL     ow  301   5.540   0.905   5.047  0.2617  0.0687  0.6814
   76SOL     hw  302   5.607   0.946   4.992 -0.6080  0.5055 -0.0850
   76SOL     hw  303   5.569   0.922   5.137  0.6004  1.2523  0.3751
   76SOL     vw  304   5.553   0.913   5.052  0.1915  0.2825  0.5400
   77SOL     ow  305   1.659   0.044   2.744  0.1465 -0.0079  0.3376
   77SOL     hw  306   1.620   0.013   2.663 -1.8100  0.0691  1.2031
   77SOL     hw  307   1.717  -0.028   2.772 -0.7396 -0.8989 -0.0747
   77SOL     vw  308   1.662   0.030   2.737 -0.2285 -0.1152  0.3974
   78SOL     ow  309   1.319   4.126   4.872 -0.1477 -0.5639  0.2204
   78SOL     hw  310   1.288   4.174   4.948 -1.4837 -2.3120  0.8473
   78SOL     hw  311   1.249   4.135   4.807  0.5799  0.1491 -0.4916
   78SOL     vw  312   1.306   4.133   4.874 -0.2280 -0.7002  0.2093
   79SOL     ow  313   0.191   0.113   0.794 -0.2331 -0.4400 -0.1464
   79SOL     hw  314   0.215   0.047   0.730  0.9609 -0.2755  0.1148
   79SOL     hw  315   0.217   0.196   0.754  0.1022 -0.3003  0.3534
   79SOL     vw  316   0.197   0.115   0.781 -0.0314 -0.3999 -0.0460
   80SOL     ow  317   5.069   0.098   1.105 -0.3729 -0.5453 -0.4781
   80SOL     hw  318   5.124   0.041   1.158  0.3437  0.4991 -0.0713
   80SOL     hw  319   5.077   0.062   1.016  1.8830  0.2246 -0.6472
   80SOL     vw  320   5.077   0.085   1.100  0.0191 -0.3059 -0.4467
   81SOL     ow  321   6.767   0.350   4.796  0.1271 -0.7884 -0.0152
   81SOL     hw  322   6.792   0.316   4.882 -0.2674  0.5939  0.6749
   81SOL     hw  323   6.696   0.292   4.767 -1.3356  0.0595  1.6516
   81SOL     vw  324   6.761   0.338   4.804 -0.1180 -0.4941  0.2959
   82SOL     ow  325   2.885   0.433   6.438 -0.5121 -0.0645 -0.3764
   82SOL     hw  326   2.795   0.444   6.468 -1.0722 -0.5801 -1.7684
   82SOL     hw  327   2.880   0.360   6.375  0.4464  1.3893 -2.2308
   82SOL     vw  328   2.873   0.425   6.433 -0.4596  0.0593 -0.8047
   83SOL     ow  329   4.065   2.115   2.920 -0.2356 -0.2935 -0.5641
   83SOL     hw  330   4.118   2.190   2.946  0.2888 -1.4120  1.8573
   83SOL     hw  331   3.976   2.136   2.948 -0.7093  0.5605 -2.4842
   83SOL     vw  332   4.060   2.128   2.927 -0.2291 -0.3284 -0.4978
   84SOL     ow  333   2.282   1.083   6.268 -0.2958 -0.4428  0.2891
   84SOL     hw  334   2.368   1.060   6.234 -0.8015 -2.2913  0.1546
   84SOL     hw  335   2.252   1.004   6.314 -2.0032  0.0643  0.1369
   84SOL     vw  336   2.289   1.069   6.270 -0.5878 -0.6199  0.2515
   85SOL     ow  337   4.110   6.037   0.609  0.1996 -0.4787 -0.1884
   85SOL     hw  338   4.138   6.091   0.683 -1.2299  0.4267 -0.2628
   85SOL     hw  339   4.190   5.996   0.577  0.9355 -0.4163  1.4827
   85SOL     vw  340   4.124   6.039   0.614  0.1082 -0.3510  0.0223
   86SOL     ow  341   4.218   1.088   0.497  0.0164 -0.0366 -0.1297
   86SOL     hw  342   4.177   1.100   0.582  1.1322 -0.1030  0.4381
   86SOL     hw  343   4.268   1.168   0.483 -1.4129  0.6746 -1.4781
   86SOL     vw  344   4.219   1.100   0.506 -0.0248  0.0485 -0.2327
   87SOL     ow  345   5.557   1.490   0.580  0.0906 -0.4274 -0.2733
   87SOL     hw  346   5.629   1.431   0.597 -0.7390 -0.8143  2.2154
   87SOL     hw  347   5.482   1.433   0.562 -0.3614 -0.1168  0.5811
   87SOL     vw  348   5.557   1.475   0.580 -0.0784 -0.4374  0.1678
   88SOL     ow  349   4.349   4.574   0.601 -0.1706 -0.1740 -0.5594
   88SOL     hw  350   4.377   4.654   0.646  0.7305 -0.7469 -0.0582
   88SOL     hw  351   4.374   4.587   0.510  1.6690 -0.6115 -0.1471
   88SOL     vw  352   4.356   4.586   0.595  0.1910 -0.3073 -0.4388
   89SOL     ow  353   5.271   2.957   3.156  0.3152  0.1350 -0.0116
   89SOL     hw  354   5.323   3.016   3.102  0.0101 -1.1095 -1.7389
   89SOL     hw  355   5.267   2.876   3.106  1.4453 -1.7110  2.6296
   89SOL     vw  356   5.278   2.954   3.142  0.4239 -0.2729  0.1090
   90SOL     ow  357   2.624   6.677   3.288 -0.4138  0.0897  0.2539
   90SOL     hw  358   2.662   6.741   3.228  0.0530 -0.5045 -0.0818
   90SOL     hw  359   2.542   6.719   3.317 -0.4703  0.5382 -0.5098
   90SOL     vw  360   2.618   6.691   3.284 -0.3597  0.0703  0.1088
   91SOL     ow  361   6.751   1.947   1.082  0.6043  0.0620  0.1483
   91SOL     hw  362   6.819   1.888   1.049 -0.5288 -0.9703 -0.4349
   91SOL     hw  363   6.764   2.028   1.034  2.3625  0.4130  1.1568
   91SOL     vw  364   6.762   1.950   1.071  0.6866 -0.0278  0.2044
   92SOL     ow  365   1.431   4.400   6.773  0.3180 -0.1240  0.0832
   92SOL     hw  366   1.446   4.347   6.851 -0.8914  0.7334  0.9296
   92SOL     hw  367   1.474   4.483   6.790  1.8668 -0.6442 -1.0780
   92SOL     vw  368   1.438   4.404   6.786  0.3628 -0.0796  0.0420
   93SOL     ow  369   2.460   4.688   0.984  0.1038  0.0592  0.2462
   93SOL     hw  370   2.388   4.625   0.978 -0.6166  0.7812  1.0226
   93SOL     hw  371   2.535   4.635   1.013  0.2668 -0.9426 -1.7833
   93SOL     vw  372   2.460   4.672   0.987  0.0303  0.0224  0.0808
   94SOL     ow  373   1.044   0.396   5.789  0.2458  0.2895  0.2947
   94SOL     hw  374   1.068   0.384   5.697 -0.8325 -0.7344  0.1216
   94SOL     hw  375   1.075   0.484   5.811  3.1411 -0.4951 -0.1771
   94SOL     vw  376   1.051   0.406   5.780  0.4855  0.0509  0.2093
   95SOL     ow  377   6.568   6.201   2.861  0.1238 -0.4534 -0.5600
   95SOL     hw  378   6.587   6.295   2.867  0.1693 -0.4457 -0.7979
   95SOL     hw  379   6.631   6.159   2.919 -0.5540 -0.2582  0.3333
   95SOL     vw  380   6.579   6.208   2.869  0.0405 -0.4268 -0.4734
   96SOL     ow  381   3.504   2.782   0.791  0.4611 -0.2197  0.1172
   96SOL     hw  382   3.577   2.770   0.851 -0.7838  2.0103  2.2463
   96SOL     hw  383   3.455   2.700   0.795  2.2203 -1.3920 -0.6245
   96SOL     vw  384   3.508   2.770   0.799  0.5289 -0.0800  0.3002
   97SOL     ow  385   3.078   0.104   0.840  0.6028 -0.4472  0.1046
   97SOL     hw  386   3.162   0.110   0.794  0.5924  1.3668  0.2433
   97SOL     hw  387   3.044   0.018   0.817  1.7586 -0.5752 -1.2703
   97SOL     vw  388   3.085   0.094   0.831  0.7540 -0.2247 -0.0585
   98SOL     ow  389   2.327   3.074   4.626 -0.1760 -0.3179  0.2460
   98SOL     hw  390   2.376   3.133   4.570 -1.2872  1.5994  1.2068
   98SOL     hw  391   2.365   3.086   4.713 -0.3329 -1.1286  0.4369
   98SOL     vw  392   2.338   3.083   4.630 -0.3432 -0.1718  0.3979
   99SOL     ow  393   3.448   2.914   5.468  0.4269 -0.1090  0.1231
   99SOL     hw  394   3.479   2.958   5.546  0.9212  1.6323 -0.9993
   99SOL     hw  395   3.525   2.866   5.436  1.0907  1.5002 -0.8199
   99SOL     vw  396   3.462   2.913   5.474  0.5796  0.3331 -0.1495
  100SOL     ow  397   2.289   2.327   4.493  0.1139 -0.0636  0.2856
  100SOL     hw  398   2.384   2.330   4.484  0.0150 -0.6858 -1.4138
  100SOL     hw  399   2.258   2.410   4.456  0.0260  0.5914  1.7779
  100SOL     vw  400   2.297   2.338   4.487  0.0893 -0.0594  0.2582
  101SOL     ow  401   3.944   3.587   3.537  0.3371  0.4248  0.4705
  101SOL     hw  402   3.948   3.539   3.619 -1.7885 -0.6568  0.0165
  101SOL     hw  403   3.865   3.555   3.494  0.1712  2.5642 -1.0083
  101SOL     vw  404   3.934   3.577   3.542  0.0347  0.5645  0.2154
  102SOL     ow  405   4.220   2.749   5.263  0.0610 -0.3011  0.2205
  102SOL     hw  406   4.288   2.743   5.330  0.5651 -2.2299 -0.4128
  102SOL     hw  407   4.211   2.660   5.229  0.6802  0.7635 -3.1221
  102SOL     vw  408   4.228   2.737   5.267  0.2093 -0.4152 -0.3040
  103SOL     ow  409   2.892   5.373   2.707  0.7435  0.1563  0.5836
  103SOL     hw  410   2.867   5.312   2.776 -0.0811  1.6194  1.6442
  103SOL     hw  411   2.929   5.318   2.638 -2.7091 -1.9546  0.1447
  103SOL     vw  412   2.894   5.358   2.707  0.1792  0.0710  0.6657
  104SOL     ow  413   5.653   0.499   3.047  0.3476 -0.1109  0.0599
  104SOL     hw  414   5.565   0.518   3.015 -0.2120 -2.5343 -0.0589
  104SOL     hw  415   5.662   0.550   3.127 -1.2278  0.0706  0.1464
  104SOL     vw  416   5.643   0.508   3.053  0.0660 -0.4067  0.0556
  105SOL     ow  417   2.754   2.630   5.961  0.9359 -0.0778 -0.4368
  105SOL     hw  418   2.785   2.539   5.969 -0.6828 -0.6240 -0.1663
  105SOL     hw  419   2.687   2.626   5.893  1.0749  1.0016 -0.6493
  105SOL     vw  420   2.749   2.617   5.953  0.7408 -0.0075 -0.4294
  106SOL     ow  421   4.632   3.158   2.691  0.3150 -0.2219 -0.2886
  106SOL     hw  422   4.685   3.201   2.758 -0.0111 -0.3606  0.0642
  106SOL     hw  423   4.649   3.064   2.703  1.7614 -0.1839 -1.6685
  106SOL     vw  424   4.641   3.151   2.701  0.4628 -0.2351 -0.4240
  107SOL     ow  425   5.113   2.243   5.151 -0.1382 -0.0923  0.9069
  107SOL     hw  426   5.052   2.172   5.133 -0.4775  0.4200 -0.0357
  107SOL     hw  427   5.090   2.311   5.088  1.0123  0.3505  0.9394
  107SOL     vw  428   5.102   2.242   5.140 -0.0308  0.0336  0.7868
  108SOL     ow  429   5.840   0.369   0.938 -0.0714  0.3698 -0.3070
  108SOL     hw  430   5.861   0.278   0.920 -0.1582  0.1536  0.6101
  108SOL     hw  431   5.921   0.416   0.919  0.6117 -0.1729  1.1090
  108SOL     vw  432   5.854   0.363   0.934  0.0074  0.2696  0.0008
  109SOL     ow  433   3.381   0.700   6.552 -0.5221 -0.1093  0.0168
  109SOL     hw  434   3.382   0.787   6.592 -0.0569 -0.3107  0.4595
  109SOL     hw  435   3.474   0.680   6.538 -0.6862  0.0361 -1.3547
  109SOL     vw  436   3.394   0.709   6.556 -0.4824 -0.1167 -0.1059
  110SOL     ow  437   1.969   0.416   2.516 -0.0649 -0.2598 -0.0813
  110SOL     hw  438   2.019   0.352   2.465 -2.0792 -0.6438 -1.7132
  110SOL     hw  439   1.955   0.488   2.455 -0.8527  0.1689  0.5907
  110SOL     vw  440   1.974   0.417   2.501 -0.4346 -0.2539 -0.2079
  111SOL     ow  441   1.708   0.701   3.861 -0.4496  0.2525 -0.0013
  111SOL     hw  442   1.614   0.716   3.861 -0.6615 -1.0104  0.2405
  111SOL     hw  443   1.746   0.786   3.885 -1.5690  0.4783  1.0436
  111SOL     vw  444   1.701   0.715   3.864 -0.6253  0.1157  0.1686
  112SOL     ow  445   0.467   6.537   0.992  0.5591 -0.2262  0.6493
  112SOL     hw  446   0.377   6.556   1.019 -0.1197 -0.9782 -0.9496
  112SOL     hw  447   0.498   6.472   1.056 -0.9330 -1.8440 -0.1681
  112SOL     vw  448   0.459   6.531   1.004  0.2727 -0.5388  0.3304
  113SOL     ow  449   3.785   5.284   5.433 -0.1539  0.3950  0.4114
  113SOL     hw  450   3.695   5.298   5.404  0.2553 -0.6398 -1.5487
  113SOL     hw  451   3.822   5.372   5.440 -1.4121  0.8634  1.7401
  113SOL     vw  452   3.778   5.297   5.430 -0.2660  0.3202  0.3281
  114SOL     ow  453   6.227   6.925   6.284  0.2069 -0.6056  0.0123
  114SOL     hw  454   6.231   7.011   6.242 -0.6690 -1.1141 -1.1636
  114SOL     hw  455   6.144   6.926   6.331 -0.0305 -0.9839 -0.4009
  114SOL     vw  456   6.217   6.937   6.284  0.0601 -0.7226 -0.1969
  115SOL     ow  457   4.415   3.875   3.428  0.0134 -0.0270  0.5586
  115SOL     hw  458   4.501   3.847   3.459  0.9556  1.8932 -0.1973
  115SOL     hw  459   4.429   3.906   3.339 -1.6339 -0.4538  0.1111
  115SOL     vw  460   4.428   3.875   3.421 -0.0799  0.1700  0.3998
  116SOL     ow  461   0.218   6.468   2.176  0.1043  0.5055  0.2907
  116SOL     hw  462   0.181   6.400   2.233 -1.1204  0.2330 -0.7734
  116SOL     hw  463   0.221   6.546   2.231 -0.1022  0.0147  1.0286
  116SOL     vw  464   0.214   6.469   2.191 -0.0845  0.4048  0.2477
  117SOL     ow  465   5.400   0.281   5.682  0.1716  0.0874 -0.1559
  117SOL     hw  466   5.304   0.278   5.681 -0.0023  2.2103  1.8816
  117SOL     hw  467   5.421   0.371   5.658  1.7347 -0.4706 -1.0289
  117SOL     vw  468   5.390   0.292   5.678  0.3550  0.2939 -0.0021
  118SOL     ow  469   3.774   1.454   5.841  0.6228 -0.3462  0.2669
  118SOL     hw  470   3.805   1.543   5.853  0.0095 -0.1801  0.6441
  118SOL     hw  471   3.679   1.461   5.845  0.3939 -0.5565 -2.7504
  118SOL     vw  472   3.766   1.467   5.843  0.5118 -0.3521 -0.0815
  119SOL     ow  473   5.665   2.900   3.737 -0.8545  0.0388  0.4089
  119SOL     hw  474   5.619   2.981   3.759 -2.2153 -0.8353  0.8855
  119SOL     hw  475   5.756   2.917   3.761 -1.2675  1.1477  1.2869
  119SOL     vw  476   5.671   2.913   3.743 -1.0884  0.0699  0.5876
  120SOL     ow  477   1.444   6.366   5.902  0.5567 -0.5160  0.3634
  120SOL     hw  478   1.390   6.300   5.858  1.5574 -0.3836 -1.1376
  120SOL     hw  479   1.415   6.449   5.864 -0.4850 -0.0671  2.0256
  120SOL     vw  480   1.433   6.368   5.891  0.5513 -0.4394  0.3848
  121SOL     ow  481   4.038   1.674   2.350  0.1550 -0.1061 -0.6622
  121SOL     hw  482   3.943   1.670   2.353 -0.0372  2.4418 -1.1926
  121SOL     hw  483   4.060   1.649   2.260 -0.2511  1.4434 -1.2401
  121SOL     vw  484   4.029   1.670   2.338  0.0761  0.4346 -0.8085
  122SOL     ow  485   6.116   2.156   6.339  0.5727  0.2289  0.4726
  122SOL     hw  486   6.106   2.062   6.325 -1.0260  0.2437  1.2440
  122SOL     hw  487   6.173   2.185   6.268  1.7984 -1.4440  0.7116
  122SOL     vw  488   6.122   2.148   6.328  0.5238  0.0100  0.6061
  123SOL     ow  489   2.999   0.901   2.135  0.0337 -0.8533  0.2504
  123SOL     hw  490   2.968   0.812   2.154 -0.3726 -0.4000  1.8486
  123SOL     hw  491   3.041   0.929   2.216  1.2850 -0.0391 -0.6542
  123SOL     vw  492   3.000   0.893   2.148  0.1452 -0.6860  0.3419
  124SOL     ow  493   1.321   0.841   3.469  0.1445  0.9628  0.6278
  124SOL     hw  494   1.373   0.832   3.390  2.2416 -2.3759  2.1564
  124SOL     hw  495   1.375   0.894   3.528  0.7431 -0.3653  1.3234
  124SOL     vw  496   1.335   0.847   3.466  0.5001  0.3471  0.9214
  125SOL     ow  497   0.076   3.202   3.535 -0.5844 -0.0943 -0.6162
  125SOL     hw  498   0.135   3.137   3.496 -0.7373  0.2203 -1.3741
  125SOL     hw  499   0.028   3.238   3.461 -0.6931  0.6919 -0.1649
  125SOL     vw  500   0.078   3.198   3.520 -0.6189  0.0509 -0.6565
  126SOL     ow  501   1.877   3.902   3.538  0.3118  0.9741 -0.2369
  126SOL     hw  502   1.806   3.912   3.601  0.5263 -0.6326  0.3019
  126SOL     hw  503   1.926   3.826   3.569  2.4113  2.1602 -0.4725
  126SOL     vw  504   1.874   3.893   3.550  0.6172  0.9186 -0.1971
  127SOL     ow  505   0.923   3.255   4.284 -0.1206  0.1373 -0.4919
  127SOL     hw  506   0.833   3.241   4.313 -0.2004  0.8494 -0.3830
  127SOL     hw  507   0.949   3.171   4.247 -0.8030 -0.1009 -0.4495
  127SOL     vw  508   0.914   3.242   4.283 -0.2212  0.1998 -0.4716
  128SOL     ow  509   3.928   1.353   6.021  0.8064 -0.4498 -0.4320
  128SOL     hw  510   3.968   1.278   5.976  0.2521 -0.5193 -0.8328
  128SOL     hw  511   3.871   1.392   5.955 -1.0686 -1.3436  0.5627
  128SOL     vw  512   3.926   1.348   6.006  0.4859 -0.5769 -0.3536
  129SOL     ow  513   4.904   6.977   2.625 -0.4931  0.4080  0.1921
  129SOL     hw  514   4.817   6.978   2.586  0.0857  1.6971 -1.1694
  129SOL     hw  515   4.895   6.921   2.703 -2.1974 -0.5333 -0.6215
  129SOL     vw  516   4.892   6.970   2.630 -0.6416  0.4539 -0.0950
  130SOL     ow  517   2.581   3.544   6.576 -0.4850 -0.1186  0.6706
  130SOL     hw  518   2.568   3.609   6.507  0.4147  0.2578  0.8312
  130SOL     hw  519   2.582   3.596   6.657  1.7382 -0.0803  0.6892
  130SOL     vw  520   2.580   3.560   6.578 -0.0731 -0.0639  0.6943
  131SOL     ow  521   0.493   3.552   0.775  0.5901  0.0801 -0.7170
  131SOL     hw  522   0.466   3.612   0.706  0.4702 -0.6841 -1.3499
  131SOL     hw  523   0.582   3.526   0.752  0.9866  0.7192  0.0544
  131SOL     vw  524   0.501   3.556   0.763  0.6266  0.0635 -0.6987
  132SOL     ow  525   2.657   3.940   4.488  0.1361 -0.2394 -0.2851
  132SOL     hw  526   2.578   3.987   4.515 -0.0313 -0.9260  0.4733
  132SOL     hw  527   2.628   3.884   4.416  0.3889  0.9631 -1.3487
  132SOL     vw  528   2.643   3.939   4.482  0.1473 -0.1713 -0.3252
  133SOL     ow  529   4.511   5.319   2.659  0.0169 -0.6233 -0.3519
  133SOL     hw  530   4.590   5.272   2.686  0.6904  1.0614  0.7984
  133SOL     hw  531   4.538   5.371   2.584 -0.3015 -0.8931 -0.6548
  133SOL     vw  532   4.525   5.319   2.653  0.0637 -0.4365 -0.2400
  134SOL     ow  533   0.412   6.606   6.807 -1.0597  0.2764  0.2952
  134SOL     hw  534   0.492   6.556   6.790 -1.4345 -0.1367 -0.2690
  134SOL     hw  535   0.423   6.687   6.758 -0.4020  0.8174  1.2999
  134SOL     vw  536   0.424   6.610   6.798 -1.0224  0.2933  0.3533
  135SOL     ow  537   4.033   1.208   0.969 -0.1792  0.7913 -0.4622
  135SOL     hw  538   4.068   1.122   0.992 -1.1141  0.9354  1.7120
  135SOL     hw  539   4.103   1.249   0.918  2.6104  0.7273  2.9039
  135SOL     vw  540   4.047   1.202   0.965  0.0658  0.8019  0.2688
  136SOL     ow  541   0.167   5.173   0.024  0.3165  0.3067  0.0484
  136SOL     hw  542   0.219   5.093   0.013 -0.4524 -0.0859 -1.0091
  136SOL     hw  543   0.140   5.172   0.116  1.1502 -0.1172  0.2967
  136SOL     vw  544   0.170   5.162   0.035  0.3251  0.1988 -0.0584
  137SOL     ow  545   6.279   3.698   3.503  0.0170  0.1985 -0.3295
  137SOL     hw  546   6.219   3.755   3.552 -0.8513 -1.1624  0.2455
  137SOL     hw  547   6.362   3.706   3.550  0.0866  1.4296 -0.6184
  137SOL     vw  548   6.282   3.707   3.516 -0.0882  0.1813 -0.2919
  138SOL     ow  549   6.924   6.134   5.638 -0.6203  0.7317  0.3973
  138SOL     hw  550   7.019   6.134   5.649 -0.6610  1.2705  0.7844
  138SOL     hw  551   6.910   6.162   5.548 -0.4144  0.7457  0.3686
  138SOL     vw  552   6.935   6.137   5.628 -0.5984  0.8047  0.4444
  139SOL     ow  553   3.959   3.898   5.273 -0.2423  0.2627 -0.1506
  139SOL     hw  554   3.969   3.912   5.179 -1.3571  0.4443 -0.2496
  139SOL     hw  555   3.961   3.802   5.283 -2.1214  0.1389 -0.6237
  139SOL     vw  556   3.961   3.887   5.262 -0.6374  0.2704 -0.2260
  140SOL     ow  557   4.145   0.114   4.616 -1.0757  0.1517 -0.2990
  140SOL     hw  558   4.223   0.060   4.606 -1.8944 -1.5500  1.8224
  140SOL     hw  559   4.075   0.062   4.578 -1.8971 -0.4207  1.8813
  140SOL     vw  560   4.146   0.100   4.609 -1.2922 -0.1484  0.2682
  141SOL     ow  561   2.354   4.743   4.063  0.5250  0.1034 -0.1298
  141SOL     hw  562   2.386   4.654   4.052  0.7540  0.2484 -0.6636
  141SOL     hw  563   2.394   4.774   4.144  0.0542 -0.4433  0.3262
  141SOL     vw  564   2.363   4.735   4.072  0.4932  0.0503 -0.1402
  142SOL     ow  565   2.849   6.931   3.733 -0.3714 -0.7581 -0.4185
  142SOL     hw  566   2.904   7.005   3.706 -2.3843  0.3588 -1.7019
  142SOL     hw  567   2.850   6.934   3.829  0.9682 -0.1759 -0.4269
  142SOL     vw  568   2.857   6.941   3.742 -0.4601 -0.5341 -0.5889
  143SOL     ow  569   2.635   6.349   6.565  0.0420 -0.1812  0.3434
  143SOL     hw  570   2.702   6.416   6.577  0.2519 -0.4662  0.7880
  143SOL     hw  571   2.598   6.337   6.653 -1.1553  0.5539 -0.0344
  143SOL     vw  572   2.639   6.356   6.578 -0.0883 -0.1218  0.3524
  144SOL     ow  573   4.891   2.019   3.510 -0.1070  0.2433  0.4516
  144SOL     hw  574   4.975   2.049   3.476 -0.1276 -0.3419 -0.1408
  144SOL     hw  575   4.875   1.936   3.464 -1.5055  0.8574 -0.2283
  144SOL     vw  576   4.900   2.012   3.500 -0.2942  0.2471  0.2837
  145SOL     ow  577   6.324   3.847   2.542  0.1893 -0.2150  0.5786
  145SOL     hw  578   6.389   3.800   2.489  0.9397  0.5501  0.7845
  145SOL     hw  579   6.375   3.885   2.613 -0.2391  1.5004  0.0289
  145SOL     vw  580   6.340   3.846   2.544  0.2317  0.1122  0.5332
  146SOL     ow  581   1.466   6.030   1.798 -0.0409 -0.6503  0.3541
  146SOL     hw  582   1.416   6.044   1.878  0.3464 -1.3739  0.7306
  146SOL     hw  583   1.404   5.992   1.737  0.2236 -2.3723  1.1005
  146SOL     vw  584   1.451   6.027   1.800  0.0451 -0.9727  0.5023
  147SOL     ow  585   4.760   5.396   3.512  0.3108  0.1939 -0.4293
  147SOL     hw  586   4.686   5.382   3.453 -0.3655  0.5523  0.3171
  147SOL     hw  587   4.732   5.467   3.570  1.1544  0.1898  0.0012
  147SOL     vw  588   4.746   5.403   3.512  0.3328  0.2403 -0.2741
  148SOL     ow  589   0.757   4.654   0.502  0.4796 -0.0717 -0.0107
  148SOL     hw  590   0.804   4.615   0.429 -0.6425 -0.7356 -0.3963
  148SOL     hw  591   0.671   4.676   0.467  0.1117  0.1075  0.9654
  148SOL     vw  592   0.752   4.652   0.488  0.2830 -0.1357  0.0672
  149SOL     ow  593   6.762   6.552   6.753 -0.0913  0.4040 -0.1687
  149SOL     hw  594   6.741   6.617   6.821  0.1597 -0.5337  0.8323
  149SOL     hw  595   6.857   6.551   6.750 -0.1030  0.8206 -0.9333
  149SOL     vw  596   6.772   6.561   6.762 -0.0596  0.3352 -0.1376
  150SOL     ow  597   3.773   6.174   3.825 -0.6653 -0.0926  0.0294
  150SOL     hw  598   3.861   6.187   3.860 -0.1182 -1.5471 -0.7043
  150SOL     hw  599   3.724   6.250   3.855  1.0712  1.2399 -0.3312
  150SOL     vw  600   3.778   6.185   3.833 -0.3641 -0.1082 -0.1149
  151SOL     ow  601   1.741   3.463   5.720 -0.0216  0.2388 -0.8638
  151SOL     hw  602   1.807   3.529   5.738  0.2309 -0.5042  1.1463
  151SOL     hw  603   1.695   3.451   5.803 -1.7236 -0.3275 -1.8301
  151SOL     vw  604   1.744   3.470   5.733 -0.2127  0.0660 -0.7260
  152SOL     ow  605   1.028   6.143   3.768 -0.1800  0.4320  0.0662
  152SOL     hw  606   1.033   6.060   3.719 -0.5419  1.3495 -1.6020
  152SOL     hw  607   1.119   6.173   3.773  0.2150 -0.8803  2.2665
  152SOL     vw  608   1.040   6.136   3.762 -0.1756  0.3798  0.1364
  153SOL     ow  609   4.835   3.437   1.229  0.1442 -0.1713  0.4935
  153SOL     hw  610   4.800   3.450   1.317 -2.2037  1.5658 -0.5918
  153SOL     hw  611   4.831   3.342   1.216 -0.5716 -0.3472  1.8136
  153SOL     vw  612   4.830   3.426   1.239 -0.2601  0.0347  0.5245
  154SOL     ow  613   1.437   6.899   2.879  0.5528  0.1807  0.5574
  154SOL     hw  614   1.439   6.823   2.936 -0.2115 -0.5546 -0.3648
  154SOL     hw  615   1.356   6.889   2.829  0.5680  1.4673  0.2410
  154SOL     vw  616   1.426   6.888   2.880  0.4539  0.2534  0.3940
  155SOL     ow  617   4.969   4.559   6.589 -0.2205  0.0804 -0.2455
  155SOL     hw  618   4.937   4.474   6.559  0.2722  0.7441 -2.9721
  155SOL     hw  619   5.064   4.553   6.578  0.0115  0.3538  1.4249
  155SOL     vw  620   4.978   4.547   6.583 -0.1252  0.2041 -0.3848
  156SOL     ow  621   2.972   3.059   6.945 -0.4770 -0.0477  0.0260
  156SOL     hw  622   2.985   2.967   6.968  1.9135  0.1859 -0.1185
  156SOL     hw  623   2.969   3.059   6.849  0.4636  0.0938 -0.0138
  156SOL     vw  624   2.973   3.047   6.935 -0.0376  0.0017  0.0019
  157SOL     ow  625   2.108   6.508   3.575  0.1537  0.1290 -0.2197
  157SOL     hw  626   2.086   6.587   3.525 -2.9118 -0.2926  0.2859
  157SOL     hw  627   2.169   6.539   3.641 -1.6027  2.3403  0.5086
  157SOL     vw  628   2.113   6.523   3.577 -0.4826  0.3650 -0.0570
  158SOL     ow  629   0.706   5.577   2.418 -0.1244 -0.4664  0.0482
  158SOL     hw  630   0.763   5.646   2.453  0.9706 -0.7541 -1.0559
  158SOL     hw  631   0.686   5.522   2.493  2.4547 -1.2954  0.2517
  158SOL     vw  632   0.711   5.579   2.432  0.3604 -0.6137 -0.0707
  159SOL     ow  633   1.830   2.275   0.565  0.0333 -0.1928  0.1151
  159SOL     hw  634   1.813   2.184   0.542  0.0860  0.1511 -1.3993
  159SOL     hw  635   1.810   2.281   0.659 -1.2983 -1.4390 -0.0597
  159SOL     vw  636   1.825   2.264   0.574 -0.1354 -0.3119 -0.1077
  160SOL     ow  637   5.641   3.249   5.723 -0.3172 -0.1498  0.1979
  160SOL     hw  638   5.587   3.320   5.758  0.2155 -0.3101  1.3804
  160SOL     hw  639   5.644   3.184   5.794  2.0218  0.1673  0.4654
  160SOL     vw  640   5.634   3.250   5.737  0.0618 -0.1291  0.3891
  161SOL     ow  641   6.333   5.083   6.037  0.2653 -0.4562 -0.0556
  161SOL     hw  642   6.310   5.170   6.003  1.7462 -0.1244 -0.2615
  161SOL     hw  643   6.289   5.023   5.977 -1.1796  0.1332  0.3749
  161SOL     vw  644   6.324   5.087   6.025  0.2699 -0.3345 -0.0260
  162SOL     ow  645   1.941   6.298   4.154  0.3089  0.6420  0.0125
  162SOL     hw  646   1.889   6.252   4.088  1.2594  1.1926 -1.1505
  162SOL     hw  647   2.017   6.331   4.107  2.0990 -0.6964  1.8010
  162SOL     vw  648   1.944   6.297   4.139  0.6705  0.5381  0.0949
  163SOL     ow  649   6.222   1.404   1.797  0.3978  0.6859 -0.1254
  163SOL     hw  650   6.185   1.356   1.871  0.6270 -0.5246 -0.7706
  163SOL     hw  651   6.267   1.338   1.745  0.5395  1.5672 -1.1711
  163SOL     vw  652   6.223   1.389   1.800  0.4468  0.6425 -0.3484
  164SOL     ow  653   2.548   2.860   6.036 -0.1250  0.6503 -0.5487
  164SOL     hw  654   2.464   2.844   5.992 -1.1467  0.0590  1.4669
  164SOL     hw  655   2.557   2.955   6.036 -0.3748  0.6866 -1.4991
  164SOL     vw  656   2.538   2.870   6.030 -0.2928  0.5771 -0.4079
  165SOL     ow  657   0.059   0.113   0.033 -0.7363  0.0060  0.0641
  165SOL     hw  658  -0.002   0.041   0.019 -0.7570 -0.1037  0.6940
  165SOL     hw  659   0.070   0.117   0.128  0.7062 -0.3585 -0.0737
  165SOL     vw  660   0.052   0.104   0.043 -0.5487 -0.0566  0.1292
  166SOL     ow  661   4.651   4.394   1.389  0.7377  0.1914 -0.5741
  166SOL     hw  662   4.600   4.445   1.452  3.6844  2.5936  0.1226
  166SOL     hw  663   4.608   4.408   1.305 -0.7751  0.5428  0.2341
  166SOL     vw  664   4.639   4.402   1.386  0.9272  0.5548 -0.3754
  167SOL     ow  665   0.455   0.101   0.409 -0.2216  0.7908  0.0587
  167SOL     hw  666   0.382   0.157   0.384 -0.6676 -0.1803 -0.9610
  167SOL     hw  667   0.416   0.013   0.416  0.3909  0.6371  1.9029
  167SOL     vw  668   0.440   0.097   0.406 -0.1996  0.6424  0.1674
  168SOL     ow  669   1.368   4.359   3.978 -0.2548  0.2577 -0.0822
  168SOL     hw  670   1.390   4.438   4.027 -1.9082 -0.8315  2.6273
  168SOL     hw  671   1.402   4.287   4.031 -0.2088 -0.9472 -1.6675
  168SOL     vw  672   1.375   4.360   3.991 -0.4669 -0.0451  0.0663
  169SOL     ow  673   5.067   3.963   4.093  0.0882  0.3394  0.0384
  169SOL     hw  674   5.089   4.033   4.155  1.0772  0.6549 -0.6549
  169SOL     hw  675   5.006   4.005   4.032 -2.7452 -0.5608  2.0158
  169SOL     vw  676   5.062   3.978   4.093 -0.1552  0.2623  0.2077
  170SOL     ow  677   6.309   1.302   5.937  0.0577 -0.4924  0.1093
  170SOL     hw  678   6.299   1.396   5.949  0.5965 -0.5124  0.7753
  170SOL     hw  679   6.401   1.285   5.956 -0.3860 -1.3870  1.6816
  170SOL     vw  680   6.320   1.312   5.941  0.0701 -0.6130  0.4046
  171SOL     ow  681   3.941   1.632   3.217 -0.3759  0.6407 -0.3126
  171SOL     hw  682   3.891   1.594   3.288 -1.8688  1.2022 -1.0165
  171SOL     hw  683   3.950   1.562   3.153  0.5888  0.2633  0.2214
  171SOL     vw  684   3.936   1.618   3.218 -0.4456  0.6649 -0.3350
  172SOL     ow  685   0.902   4.539   0.286 -0.5851 -0.1336 -0.0630
  172SOL     hw  686   0.883   4.485   0.209 -1.3355 -0.0504  0.0546
  172SOL     hw  687   0.961   4.607   0.254 -0.8661 -0.1201 -0.5558
  172SOL     vw  688   0.908   4.541   0.271 -0.7212 -0.1206 -0.1125
  173SOL     ow  689   5.056   5.454   3.618 -0.4598 -0.2417  0.0200
  173SOL     hw  690   4.989   5.443   3.686 -0.0129  0.7673  0.6368
  173SOL     hw  691   5.132   5.490   3.664  0.1435 -0.3545 -0.8658
  173SOL     vw  692   5.057   5.457   3.633 -0.3211 -0.1235 -0.0156
  174SOL     ow  693   5.252   3.492   5.660  0.5598  0.1465 -0.2647
  174SOL     hw  694   5.179   3.432   5.642 -0.0179  1.1056 -1.2495
  174SOL     hw  695   5.249   3.506   5.754 -1.0661  0.8098 -0.3734
  174SOL     vw  696   5.242   3.486   5.670  0.2689  0.3606 -0.4089
  175SOL     ow  697   7.003   1.554   0.544 -0.8224 -0.3885 -0.1738
  175SOL     hw  698   6.962   1.599   0.617 -1.6366 -1.5604  0.1333
  175SOL     hw  699   6.944   1.569   0.470 -1.0672 -0.8790 -0.0838
  175SOL     vw  700   6.990   1.562   0.544 -0.9620 -0.6078 -0.1214
  176SOL     ow  701   5.766   7.001   0.213 -0.5399 -0.8126  0.0213
  176SOL     hw  702   5.718   7.018   0.294  1.9579  1.4318  1.2003
  176SOL     hw  703   5.823   6.927   0.234 -0.8330 -1.0769 -0.1191
  176SOL     vw  704   5.768   6.994   0.226 -0.2489 -0.5514  0.1583
  177SOL     ow  705   1.722   3.241   3.461  0.3832  0.5112 -0.0682
  177SOL     hw  706   1.756   3.253   3.549  0.4655 -0.4737  0.0507
  177SOL     hw  707   1.631   3.270   3.466 -0.5452 -2.2131  1.1488
  177SOL     vw  708   1.715   3.246   3.473  0.2716  0.0218  0.1079
  178SOL     ow  709   3.458   4.610   2.159 -0.0887  0.6262  0.0891
  178SOL     hw  710   3.504   4.530   2.134 -0.1552  0.6467 -0.0991
  178SOL     hw  711   3.520   4.680   2.141 -0.9864  0.8837 -2.3685
  178SOL     vw  712   3.472   4.609   2.153 -0.2159  0.6628 -0.2601
  179SOL     ow  713   4.804   2.139   4.534 -0.1701  0.5148  0.3294
  179SOL     hw  714   4.758   2.056   4.521  2.7581 -1.0856 -0.7842
  179SOL     hw  715   4.860   2.148   4.457  1.2091  2.4192  1.4575
  179SOL     vw  716   4.805   2.129   4.522  0.3982  0.5548  0.3312
  180SOL     ow  717   4.610   5.782   6.153 -0.2883  0.3498  0.1160
  180SOL     hw  718   4.555   5.859   6.165 -1.3253 -0.3810  0.1355
  180SOL     hw  719   4.667   5.781   6.230 -1.5628  0.0630  1.0883
  180SOL     vw  720   4.611   5.792   6.165 -0.5932  0.2155  0.2468
  181SOL     ow  721   0.403   1.201   6.353 -0.8003  0.4464 -0.2737
  181SOL     hw  722   0.493   1.200   6.321 -1.1097  0.6041 -1.1674
  181SOL     hw  723   0.411   1.179   6.446  0.3812  2.6824  0.2236
  181SOL     vw  724   0.416   1.198   6.361 -0.6852  0.7622 -0.3259
  182SOL     ow  725   0.735   3.253   0.071 -0.1916 -0.3797  0.1959
  182SOL     hw  726   0.707   3.202   0.147 -0.3043  0.3875  0.6756
  182SOL     hw  727   0.653   3.287   0.033 -0.1820 -1.1901 -0.5901
  182SOL     vw  728   0.720   3.251   0.076 -0.2052 -0.3854  0.1555
  183SOL     ow  729   4.890   0.808   0.794 -0.5466 -0.1171 -0.1929
  183SOL     hw  730   4.834   0.750   0.742  0.1330 -2.1207  1.1824
  183SOL     hw  731   4.977   0.769   0.787  0.1915  1.4860 -0.2234
  183SOL     vw  732   4.894   0.795   0.786 -0.3598 -0.1699 -0.0154
  184SOL     ow  733   1.064   6.111   6.852  0.2408  0.2969  0.1354
  184SOL     hw  734   1.038   6.049   6.785  1.2174  1.2098 -1.1264
  184SOL     hw  735   1.156   6.131   6.833  0.8514 -0.0883  2.2895
  184SOL     vw  736   1.073   6.105   6.841  0.4502  0.3662  0.2532
  185SOL     ow  737   2.001   0.372   1.305 -0.2102  0.0182 -0.0788
  185SOL     hw  738   1.983   0.411   1.220 -0.6813  0.2063  0.1074
  185SOL     hw  739   1.945   0.294   1.308 -0.0660 -0.0849 -0.0061
  185SOL     vw  740   1.991   0.367   1.294 -0.2533  0.0294 -0.0446
  186SOL     ow  741   4.097   1.852   4.384  0.0249  0.2019  0.1003
  186SOL     hw  742   4.154   1.788   4.341 -0.7934  0.3313 -1.2140
  186SOL     hw  743   4.009   1.816   4.376 -0.4752  1.5492 -0.8351
  186SOL     vw  744   4.093   1.839   4.377 -0.1490  0.3967 -0.1967
  187SOL     ow  745   2.109   3.897   2.039  0.0341 -0.0574  0.6661
  187SOL     hw  746   2.147   3.981   2.014 -0.6769 -0.1711 -0.9164
  187SOL     hw  747   2.111   3.845   1.959  0.1920 -1.4580  1.5418
  187SOL     vw  748   2.114   3.901   2.025 -0.0389 -0.2573  0.5727
  188SOL     ow  749   4.797   0.242   6.900  0.0277  0.3835  0.0989
  188SOL     hw  750   4.751   0.262   6.818 -0.8188 -1.8628 -0.0274
  188SOL     hw  751   4.890   0.242   6.875 -0.1893  0.1869 -0.7463
  188SOL     vw  752   4.803   0.245   6.886 -0.1125  0.0612 -0.0293
  189SOL     ow  753   2.429   0.616   1.506  0.2322 -0.2486  0.2026
  189SOL     hw  754   2.525   0.622   1.507  0.3316 -1.1911 -1.2175
  189SOL     hw  755   2.405   0.629   1.415 -1.2735  2.9567  0.9322
  189SOL     vw  756   2.439   0.618   1.494  0.0465  0.0499  0.1115
  190SOL     ow  757   5.842   1.869   3.275  0.1620 -0.2010 -0.1920
  190SOL     hw  758   5.822   1.962   3.270  2.3170  0.2879 -0.3259
  190SOL     hw  759   5.857   1.852   3.368 -0.8049 -0.5908 -0.0830
  190SOL     vw  760   5.841   1.879   3.287  0.3188 -0.1879 -0.1953
  191SOL     ow  761   6.779   5.848   5.810  0.2286 -0.1037  0.3920
  191SOL     hw  762   6.691   5.809   5.802 -0.1294  0.4070  1.5311
  191SOL     hw  763   6.814   5.808   5.890  0.2985  1.0381  0.9526
  191SOL     vw  764   6.772   5.837   5.820  0.1903  0.1144  0.6163
  192SOL     ow  765   1.173   3.501   3.663  0.1516  0.7496 -0.0601
  192SOL     hw  766   1.128   3.417   3.667 -0.4981  1.0992  0.0336
  192SOL     hw  767   1.266   3.478   3.659  0.1032  0.0459  1.7786
  192SOL     vw  768   1.179   3.487   3.663  0.0595  0.7029  0.1949
  193SOL     ow  769   1.147   2.879   0.011 -0.5227 -0.3803  0.4327
  193SOL     hw  770   1.054   2.879   0.035 -0.3362  0.8513  1.2563
  193SOL     hw  771   1.168   2.972  -0.000  1.0980 -0.4690  2.3058
  193SOL     vw  772   1.137   2.891   0.013 -0.2843 -0.2295  0.7885
  194SOL     ow  773   1.230   2.332   1.976  0.2944  0.5624 -0.3610
  194SOL     hw  774   1.161   2.388   1.939 -0.1317  1.9519  2.3139
  194SOL     hw  775   1.253   2.273   1.904 -3.3619  0.3004 -1.5708
  194SOL     vw  776   1.224   2.331   1.962 -0.2442  0.7112 -0.1677
  195SOL     ow  777   5.165   6.060   3.409  0.2322  0.0137 -0.2116
  195SOL     hw  778   5.086   6.020   3.445 -0.3687  1.1112 -0.2402
  195SOL     hw  779   5.135   6.146   3.377  0.6027 -0.9780 -3.6855
  195SOL     vw  780   5.150   6.066   3.409  0.2019  0.0279 -0.6738
  196SOL     ow  781   4.790   3.347   2.434 -0.2974 -0.1928 -0.5065
  196SOL     hw  782   4.857   3.408   2.466 -0.8522  0.4602 -0.5597
  196SOL     hw  783   4.840   3.272   2.403  0.4438  0.4220 -0.8612
  196SOL     vw  784   4.806   3.345   2.434 -0.2728 -0.0254 -0.5604
  197SOL     ow  785   4.668   2.828   6.867 -0.4586  0.4637 -0.3093
  197SOL     hw  786   4.698   2.761   6.805  1.5583  2.1075 -1.2500
  197SOL     hw  787   4.583   2.856   6.832  0.1644  0.6261 -1.7599
  197SOL     vw  788   4.661   2.823   6.854 -0.1104  0.7019 -0.6251
  198SOL     ow  789   3.996   1.567   6.289 -0.4750 -0.1055  0.1627
  198SOL     hw  790   3.973   1.605   6.374 -1.7579 -0.4686 -0.0103
  198SOL     hw  791   4.070   1.620   6.259  0.5285 -0.4620  1.8410
  198SOL     vw  792   4.003   1.579   6.296 -0.5119 -0.2005  0.3612
  199SOL     ow  793   3.573   3.543   6.962 -0.0548 -0.0305  0.3793
  199SOL     hw  794   3.591   3.519   6.871 -0.0727 -0.0477  0.3805
  199SOL     hw  795   3.503   3.484   6.989  1.5181 -1.6439  1.1347
  199SOL     vw  796   3.566   3.532   6.953  0.1503 -0.2456  0.4792
  200SOL     ow  797   2.115   2.088   4.594 -0.2298  0.0315  0.1438
  200SOL     hw  798   2.086   2.107   4.684  0.0070 -1.0124  0.4537
  200SOL     hw  799   2.034   2.074   4.545 -0.3604  0.6198  0.1889
  200SOL     vw  800   2.101   2.089   4.600 -0.2158 -0.0285  0.1905
  201SOL     ow  801   6.344   0.265   5.383  0.2056 -0.0823 -0.2440
  201SOL     hw  802   6.407   0.244   5.452  0.9837  0.8400 -0.6484
  201SOL     hw  803   6.397   0.268   5.303 -0.4470  0.1848 -0.6715
  201SOL     vw  804   6.359   0.263   5.382  0.2220  0.0746 -0.3536
  202SOL     ow  805   0.330   0.824   4.627  0.3859  0.3205 -0.4337
  202SOL     hw  806   0.342   0.798   4.718 -2.1333  0.7961  0.0922
  202SOL     hw  807   0.353   0.917   4.626  0.5239  0.2886 -0.3050
  202SOL     vw  808   0.335   0.833   4.639  0.0717  0.3791 -0.3474
  203SOL     ow  809   0.114   0.241   3.290  0.3415 -0.7175 -0.3304
  203SOL     hw  810   0.046   0.302   3.318  1.4707  0.3480  0.1525
  203SOL     hw  811   0.165   0.223   3.369  1.1988 -0.7353 -0.8750
  203SOL     vw  812   0.111   0.247   3.304  0.6036 -0.5793 -0.3384
  204SOL     ow  813   2.722   1.310   1.083  0.5007  0.4863  0.1165
  204SOL     hw  814   2.673   1.294   1.163  0.9913  2.4325  0.8791
  204SOL     hw  815   2.691   1.244   1.021 -2.1760  0.8704  0.9329
  204SOL     vw  816   2.712   1.300   1.085  0.2123  0.7938  0.3248
  205SOL     ow  817   5.925   0.236   4.571  0.9439 -0.0498 -0.0983
  205SOL     hw  818   5.840   0.231   4.613  1.8666  0.3360  1.9579
  205SOL     hw  819   5.955   0.326   4.589  2.6200 -0.7869  1.0607
  205SOL     vw  820   5.918   0.248   4.579  1.2870 -0.0962  0.3259
  206SOL     ow  821   3.431   1.857   5.165  0.0881  0.5291  0.5746
  206SOL     hw  822   3.336   1.849   5.167  0.1050  0.2900  0.5122
  206SOL     hw  823   3.455   1.889   5.252  0.0147 -0.1551  0.8535
  206SOL     vw  824   3.421   1.860   5.177  0.0806  0.4073  0.6032
  207SOL     ow  825   1.556   5.481   5.930  0.1237 -0.2203 -0.0868
  207SOL     hw  826   1.583   5.414   5.868  1.2656  0.6413 -0.5504
  207SOL     hw  827   1.602   5.458   6.011  1.5099  0.6404 -0.5807
  207SOL     vw  828   1.566   5.469   5.933  0.4573  0.0072 -0.2129
  208SOL     ow  829   6.307   6.333   4.531  0.6423 -0.6736  0.0247
  208SOL     hw  830   6.297   6.250   4.485 -0.2583  0.1866 -1.4394
  208SOL     hw  831   6.402   6.346   4.539  0.7851 -1.6794 -0.0018
  208SOL     vw  832   6.318   6.324   4.526  0.5422 -0.6928 -0.1719
  209SOL     ow  833   5.197   5.256   4.555 -0.2867  0.1029 -0.3831
  209SOL     hw  834   5.268   5.231   4.614  1.0811  1.2947 -1.4626
  209SOL     hw  835   5.154   5.329   4.600 -0.5381 -0.2978  0.0424
  209SOL     vw  836   5.201   5.262   4.569 -0.1395  0.2074 -0.4692
  210SOL     ow  837   1.750   0.294   2.700 -0.2161  0.2719  0.3157
  210SOL     hw  838   1.802   0.313   2.778  1.3587 -2.7286  0.1587
  210SOL     hw  839   1.737   0.199   2.702 -0.8528  0.1845 -2.6137
  210SOL     vw  840   1.755   0.284   2.710 -0.0923 -0.1355 -0.0916
  211SOL     ow  841   0.879   6.937   3.558  0.3279  0.0621 -0.4952
  211SOL     hw  842   0.910   6.994   3.488 -2.0232  2.5062  0.2840
  211SOL     hw  843   0.927   6.966   3.636 -0.7436  0.9207 -0.1331
  211SOL     vw  844   0.889   6.948   3.559 -0.1237  0.4976 -0.3446
  212SOL     ow  845   6.939   2.208   5.272 -0.5058  0.2958 -0.0502
  212SOL     hw  846   6.854   2.244   5.297 -0.4935  0.9357 -0.8630
  212SOL     hw  847   6.923   2.115   5.260 -1.1291  0.4319 -0.3328
  212SOL     vw  848   6.926   2.200   5.274 -0.5865  0.3983 -0.1945
  213SOL     ow  849   0.252   0.574   4.500 -0.2477 -0.3301 -0.3207
  213SOL     hw  850   0.290   0.503   4.552  0.4263 -0.5907 -1.1426
  213SOL     hw  851   0.160   0.578   4.527  0.2610  0.1064  1.4923
  213SOL     vw  852   0.245   0.565   4.510 -0.0916 -0.3069 -0.1903
  214SOL     ow  853   5.070   1.845   5.255  0.0931 -0.6310 -0.4087
  214SOL     hw  854   5.017   1.904   5.201 -0.7042 -1.5704 -0.6879
  214SOL     hw  855   5.155   1.842   5.210 -0.5575 -1.4012 -1.6484
  214SOL     vw  856   5.074   1.852   5.242 -0.0980 -0.8565 -0.6092
  215SOL     ow  857   3.429   4.203   5.018  0.6986 -0.3715 -0.5838
  215SOL     hw  858   3.372   4.280   5.010 -0.2094 -1.1106 -1.4738
  215SOL     hw  859   3.370   4.132   5.042  1.4019 -0.9587 -0.5693
  215SOL     vw  860   3.413   4.204   5.020  0.6716 -0.5465 -0.6995
  216SOL     ow  861   3.784   0.304   4.860 -0.2006  0.0903 -0.0375
  216SOL     hw  862   3.720   0.280   4.927 -0.2703 -1.2883 -0.5658
  216SOL     hw  863   3.823   0.385   4.892 -0.1953 -0.5542  1.7025
  216SOL     vw  864   3.781   0.311   4.873 -0.2091 -0.1766  0.1225
  217SOL     ow  865   1.879   2.095   2.910 -0.1488 -0.6063 -0.2252
  217SOL     hw  866   1.915   2.175   2.950  1.8193 -0.8641 -1.3831
  217SOL     hw  867   1.803   2.126   2.861 -1.5655 -0.0214  2.1482
  217SOL     vw  868   1.874   2.110   2.909 -0.0760 -0.5631 -0.0647
  218SOL     ow  869   3.691   4.955   1.879  0.0055  0.5970  0.2773
  218SOL     hw  870   3.679   5.014   1.804 -1.6516 -0.2647 -0.1765
  218SOL     hw  871   3.776   4.981   1.916  0.1656  2.0392 -0.9874
  218SOL     vw  872   3.701   4.966   1.874 -0.1920  0.6735  0.0505
  219SOL     ow  873   2.985   4.631   5.213 -0.4969  0.6627 -0.5456
  219SOL     hw  874   2.943   4.546   5.229 -2.7899  1.8110 -0.1064
  219SOL     hw  875   3.020   4.624   5.124  1.2684 -1.4260  0.2034
  219SOL     vw  876   2.984   4.619   5.203 -0.5666  0.5388 -0.3889
  220SOL     ow  877   6.768   3.214   6.062 -0.3027  0.3054  0.5862
  220SOL     hw  878   6.795   3.123   6.076 -1.8496 -0.1206  1.0095
  220SOL     hw  879   6.682   3.220   6.104 -0.9570  1.5280 -0.8535
  220SOL     vw  880   6.760   3.203   6.070 -0.5932  0.4104  0.4523
  221SOL     ow  881   4.776   1.807   5.210  0.0074  0.0486  0.3118
  221SOL     hw  882   4.740   1.740   5.153  0.5660 -1.1071  1.2696
  221SOL     hw  883   4.719   1.883   5.198 -0.5413 -0.5416 -0.9119
  221SOL     vw  884   4.764   1.808   5.201  0.0088 -0.1818  0.2768
  222SOL     ow  885   2.086   3.528   4.354  0.2534 -0.1342 -0.4265
  222SOL     hw  886   2.011   3.568   4.399 -1.0479 -1.0881 -1.6448
  222SOL     hw  887   2.071   3.434   4.363  1.1977 -0.3416 -0.8945
  222SOL     vw  888   2.074   3.521   4.361  0.2064 -0.2875 -0.6487
  223SOL     ow  889   5.859   1.869   4.395 -0.4177  0.6768  0.5352
  223SOL     hw  890   5.953   1.863   4.412 -0.4480 -1.5781  0.2573
  223SOL     hw  891   5.819   1.831   4.473 -0.9194 -1.0351 -0.4858
  223SOL     vw  892   5.866   1.863   4.408 -0.4880  0.1535  0.3638
  224SOL     ow  893   0.232   3.612   0.452  0.0389  0.7721  0.2741
  224SOL     hw  894   0.243   3.531   0.502 -2.6636  0.9822  1.3921
  224SOL     hw  895   0.302   3.670   0.485  1.1006 -0.5801  0.5094
  224SOL     vw  896   0.243   3.609   0.463 -0.1776  0.6214  0.4527
  225SOL     ow  897   3.242   3.505   3.612  0.1557  0.0962  0.4138
  225SOL     hw  898   3.304   3.498   3.540  1.1804 -2.0612  1.4176
  225SOL     hw  899   3.198   3.420   3.614 -1.5813  0.9665  0.8501
  225SOL     vw  900   3.244   3.493   3.603  0.0619 -0.0738  0.6038
  226SOL     ow  901   5.228   6.911   3.937 -0.2692 -0.0889 -0.1042
  226SOL     hw  902   5.211   6.925   4.030 -1.9645 -0.4631 -0.3210
  226SOL     hw  903   5.192   6.989   3.894 -2.5178 -1.3215 -0.6595
  226SOL     vw  904   5.221   6.923   3.943 -0.7894 -0.3011 -0.2061
  227SOL     ow  905   1.347   2.308   5.037  0.0814 -0.0311  1.1648
  227SOL     hw  906   1.320   2.232   5.089  0.4587  0.1958  1.7005
  227SOL     hw  907   1.382   2.270   4.956 -2.0008 -0.3294  0.3543
  227SOL     vw  908   1.348   2.293   5.033 -0.1435 -0.0405  1.1289
  228SOL     ow  909   1.751   2.333   0.821 -0.0232  0.2611 -0.1747
  228SOL     hw  910   1.714   2.413   0.857  1.2902  0.2009  1.4392
  228SOL     hw  911   1.737   2.267   0.890 -1.4755 -1.0693 -1.6316
  228SOL     vw  912   1.744   2.335   0.835 -0.0415  0.0777 -0.1540
  229SOL     ow  913   1.056   2.319   3.266 -0.3980 -0.4464  0.6356
  229SOL     hw  914   1.065   2.378   3.340  2.3430  0.8944 -0.6344
  229SOL     hw  915   0.982   2.355   3.216  1.2596  2.1769 -0.1730
  229SOL     vw  916   1.047   2.332   3.269  0.1824  0.0765  0.3614
  230SOL     ow  917   3.382   3.997   1.817 -0.3748  0.0532  0.2483
  230SOL     hw  918   3.325   3.989   1.894  1.4860 -0.3012  1.6638
  230SOL     hw  919   3.433   4.076   1.832 -0.1535  0.1179 -0.7493
  230SOL     vw  920   3.381   4.006   1.829 -0.0999  0.0150  0.3034
  231SOL     ow  921   4.923   4.287   6.526  0.1675 -0.1585  0.1647
  231SOL     hw  922   4.831   4.265   6.544  0.0398 -0.5246 -0.8506
  231SOL     hw  923   4.969   4.262   6.606 -0.0818 -3.6311 -0.6167
  231SOL     vw  924   4.917   4.281   6.539  0.1178 -0.6649 -0.0722
  232SOL     ow  925   2.933   5.658   2.686 -0.5127 -0.2779 -0.3856
  232SOL     hw  926   3.015   5.631   2.644 -1.0462 -0.2198 -1.5131
  232SOL     hw  927   2.938   5.753   2.689  0.0321 -0.3209  0.7932
  232SOL     vw  928   2.945   5.667   2.681 -0.5113 -0.2759 -0.3788
  233SOL     ow  929   0.171   5.554   3.849  0.2766  0.3411  0.0679
  233SOL     hw  930   0.126   5.469   3.853  0.2306  0.3528 -0.1923
  233SOL     hw  931   0.260   5.532   3.820  0.2395  0.3884 -0.0859
  233SOL     vw  932   0.177   5.540   3.845  0.2656  0.3488  0.0132
  234SOL     ow  933   5.610   2.396   6.477 -0.2645  0.3666 -0.6732
  234SOL     hw  934   5.576   2.356   6.396 -0.6135 -3.1793  1.0572
  234SOL     hw  935   5.542   2.458   6.503 -0.4310  1.1260 -2.6928
  234SOL     vw  936   5.597   2.399   6.469 -0.3326 -0.0011 -0.7114
  235SOL     ow  937   3.121   5.518   5.972  0.3917 -0.1682  0.0072
  235SOL     hw  938   3.078   5.546   5.891  0.6906 -0.8969 -0.4045
  235SOL     hw  939   3.049   5.506   6.034  0.2058  0.9516  0.0420
  235SOL     vw  940   3.106   5.520   5.970  0.4065 -0.1166 -0.0424
  236SOL     ow  941   2.695   2.139   2.786 -0.3438  0.0090 -0.3977
  236SOL     hw  942   2.647   2.208   2.831  0.4105  0.2071  0.0992
  236SOL     hw  943   2.704   2.070   2.852 -0.1032 -0.1025 -0.5485
  236SOL     vw  944   2.690   2.139   2.801 -0.2126  0.0205 -0.3520
  237SOL     ow  945   3.784   5.445   6.389  0.5319 -0.1199 -0.4068
  237SOL     hw  946   3.694   5.466   6.416 -0.2176 -1.4181 -1.7007
  237SOL     hw  947   3.798   5.496   6.309  1.2393  0.6414  0.1890
  237SOL     vw  948   3.774   5.454   6.382  0.5264 -0.1905 -0.4988
  238SOL     ow  949   2.180   5.688   1.482 -0.2809 -0.0249 -0.4100
  238SOL     hw  950   2.191   5.635   1.560 -2.6632 -0.5143 -0.3134
  238SOL     hw  951   2.196   5.778   1.511 -1.6844 -0.1375  0.8349
  238SOL     vw  952   2.183   5.693   1.496 -0.7805 -0.1042 -0.2329
  239SOL     ow  953   1.888   1.555   0.037 -0.2104 -0.3636 -0.2006
  239SOL     hw  954   1.813   1.526   0.088  0.5913 -1.9617  0.1346
  239SOL     hw  955   1.858   1.551  -0.054 -0.9620  0.3932  0.0043
  239SOL     vw  956   1.874   1.551   0.032 -0.2038 -0.4746 -0.1293
  240SOL     ow  957   6.661   1.056   2.586 -0.0338 -0.3570 -0.1624
  240SOL     hw  958   6.659   1.142   2.629  0.7927 -1.2626  1.7565
  240SOL     hw  959   6.735   1.061   2.525  0.2110  0.1824  0.1749
  240SOL     vw  960   6.670   1.068   2.584  0.1073 -0.4053  0.1353
  241SOL     ow  961   5.967   0.599   6.629 -0.2880 -0.1652 -0.2540
  241SOL     hw  962   5.927   0.686   6.639  2.7600  1.4378 -0.8186
  241SOL     hw  963   6.007   0.581   6.714  2.1470  0.7436 -1.1225
  241SOL     vw  964   5.967   0.608   6.641  0.4356  0.1662 -0.4432
  242SOL     ow  965   4.058   5.170   5.449  0.0610  0.1133 -0.0066
  242SOL     hw  966   4.080   5.158   5.357 -0.6306 -1.3845 -0.0046
  242SOL     hw  967   4.118   5.238   5.480  2.2535 -1.3543 -0.8414
  242SOL     vw  968   4.069   5.177   5.441  0.2592 -0.2778 -0.1163
  243SOL     ow  969   0.604   3.950   6.388 -0.2042  0.1687  0.2746
  243SOL     hw  970   0.635   3.862   6.368 -1.2336  0.1247 -1.2633
  243SOL     hw  971   0.532   3.938   6.450 -0.2976 -0.0518  0.1197
  243SOL     vw  972   0.599   3.937   6.394 -0.3524  0.1339  0.0515
  244SOL     ow  973   0.056   0.396   6.987  0.6208  0.4595 -0.4846
  244SOL     hw  974   0.047   0.400   7.083  0.3938 -1.3078 -0.3852
  244SOL     hw  975   0.030   0.482   6.957  0.3189  0.9381  1.0340
  244SOL     vw  976   0.052   0.408   6.996  0.5510  0.2895 -0.2711
  245SOL     ow  977   5.277   4.957   5.806 -0.1916  0.4335 -0.0518
  245SOL     hw  978   5.258   4.889   5.741  2.7029 -0.3638 -0.1918
  245SOL     hw  979   5.212   5.025   5.789 -2.0435 -1.4935 -1.1003
  245SOL     vw  980   5.266   4.957   5.795 -0.0541  0.0741 -0.2089
  246SOL     ow  981   4.271   6.218   3.029  0.2708  0.3425  0.0352
  246SOL     hw  982   4.359   6.199   2.995 -0.0169 -1.6714  0.3103
  246SOL     hw  983   4.273   6.185   3.119 -0.7626  0.3247  0.0583
  246SOL     vw  984   4.283   6.211   3.037  0.0966  0.0746  0.0747
  247SOL     ow  985   5.729   2.128   4.505  0.0823  0.4516  0.0050
  247SOL     hw  986   5.762   2.076   4.578 -1.3770 -0.6165 -0.0621
  247SOL     hw  987   5.754   2.218   4.526  0.7161  0.0051  1.2185
  247SOL     vw  988   5.737   2.133   4.517 -0.0265  0.2518  0.1562
  248SOL     ow  989   3.910   5.613   4.765 -0.1045 -0.3365 -0.5360
  248SOL     hw  990   3.927   5.680   4.698 -1.7795 -0.1573 -0.8224
  248SOL     hw  991   3.816   5.618   4.780  0.2674 -0.1749  2.0725
  248SOL     vw  992   3.900   5.623   4.758 -0.2766 -0.2913 -0.2296
  249SOL     ow  993   4.427   4.517   4.363 -0.0334 -0.1502 -1.1669
  249SOL     hw  994   4.465   4.603   4.344  0.1413  0.0540  0.0633
  249SOL     hw  995   4.422   4.513   4.458  0.9348 -1.9106 -1.1379
  249SOL     vw  996   4.432   4.528   4.373  0.1173 -0.3557 -1.0009
  250SOL     ow  997   0.129   5.917   3.271  0.0373 -0.5177 -0.7304
  250SOL     hw  998   0.072   5.861   3.218 -0.2270 -0.4815 -0.4915
  250SOL     hw  999   0.073   5.946   3.343 -0.0018  0.5041 -1.1450
  250SOL     vw 1000   0.114   5.914   3.273 -0.0027 -0.3781 -0.7535
  251SOL     ow 1001   6.846   5.125   1.879 -0.1139 -0.0089 -0.4038
  251SOL     hw 1002   6.890   5.120   1.963 -0.6131 -0.3446 -0.1584
  251SOL     hw 1003   6.899   5.072   1.820 -0.8405 -1.4427  0.1820
  251SOL     vw 1004   6.859   5.118   1.882 -0.2759 -0.2422 -0.2943
  252SOL     ow 1005   6.004   0.715   6.374 -0.1593 -0.2266 -0.0028
  252SOL     hw 1006   5.995   0.807   6.401  0.0388 -0.5478  1.2181
  252SOL     hw 1007   5.955   0.709   6.292  1.5217  1.4459 -1.2187
  252SOL     vw 1008   5.996   0.727   6.367  0.0887 -0.0483 -0.0019
  253SOL     ow 1009   1.401   4.751   2.872 -0.0022  0.0318  0.0327
  253SOL     hw 1010   1.450   4.717   2.797  0.3709  1.5097 -0.4242
  253SOL     hw 1011   1.468   4.771   2.938 -0.2733 -0.6900  0.5348
  253SOL     vw 1012   1.416   4.749   2.871  0.0112  0.1316  0.0386
  254SOL     ow 1013   4.477   1.851   6.631  0.9148  0.0392 -0.1307
  254SOL     hw 1014   4.481   1.899   6.714  1.4410 -0.8355  0.3621
  254SOL     hw 1015   4.390   1.872   6.596  0.5538  0.1695  0.8008
  254SOL     vw 1016   4.466   1.860   6.637  0.9367 -0.0591  0.0575
  255SOL     ow 1017   1.997   1.388   3.391 -0.2192 -0.2518  0.0940
  255SOL     hw 1018   2.029   1.297   3.385  1.0027  0.0497  1.5952
  255SOL     hw 1019   1.998   1.419   3.300  2.5361 -0.7062 -0.1066
  255SOL     vw 1020   2.001   1.380   3.378  0.3057 -0.2719  0.2657
  256SOL     ow 1021   5.961   6.925   4.239  0.4058 -0.0139  0.7698
  256SOL     hw 1022   5.921   6.907   4.324  0.3577 -0.8838  0.5832
  256SOL     hw 1023   5.956   6.841   4.193 -0.8052  0.7565 -0.5942
  256SOL     vw 1024   5.955   6.911   4.244  0.2398 -0.0272  0.5653
  257SOL     ow 1025   4.203   4.318   0.727  0.2391  0.3436 -0.4136
  257SOL     hw 1026   4.239   4.237   0.691  0.1326 -0.0905  0.4269
  257SOL     hw 1027   4.176   4.295   0.816 -0.8249  1.0244 -0.5445
  257SOL     vw 1028   4.204   4.304   0.734  0.0846  0.3765 -0.3199
  258SOL     ow 1029   6.383   0.376   1.300 -0.2641 -0.4783  0.5568
  258SOL     hw 1030   6.304   0.353   1.350 -2.7611 -1.7843 -3.4881
  258SOL     hw 1031   6.408   0.294   1.257  0.0527  1.0062 -2.3028
  258SOL     vw 1032   6.376   0.362   1.301 -0.5517 -0.4547 -0.3542
  259SOL     ow 1033   3.653   4.795   2.135  0.3013 -0.3800  0.6305
  259SOL     hw 1034   3.676   4.878   2.176 -1.8475  0.5034  0.1821
  259SOL     hw 1035   3.737   4.751   2.120  1.3856  0.9303  2.4362
  259SOL     vw 1036   3.667   4.800   2.138  0.1608 -0.0906  0.8096
  260SOL     ow 1037   1.122   1.547   7.002  0.0782 -0.4813  0.0872
  260SOL     hw 1038   1.105   1.641   7.012 -2.0888 -0.5231 -2.2478
  260SOL     hw 1039   1.212   1.542   6.972  0.5708  0.7304  1.2387
  260SOL     vw 1040   1.131   1.559   7.000 -0.1428 -0.3270 -0.0689
  261SOL     ow 1041   1.574   3.961   2.943  0.7375  0.7893 -0.5050
  261SOL     hw 1042   1.504   3.958   3.008  0.3437  3.3707 -0.6932
  261SOL     hw 1043   1.633   4.029   2.975  2.2397 -0.1294 -1.2464
  261SOL     vw 1044   1.572   3.970   2.956  0.8838  1.0087 -0.6276
  262SOL     ow 1045   0.194   5.683   2.437 -0.1820 -0.5097 -0.5864
  262SOL     hw 1046   0.203   5.652   2.527  1.1564  0.4194 -0.3757
  262SOL     hw 1047   0.117   5.741   2.439  1.4520  1.7416  0.6450
  262SOL     vw 1048   0.185   5.687   2.449  0.2102 -0.0901 -0.3963
  263SOL     ow 1049   5.440   4.173   2.581 -0.2622 -0.8965 -0.4984
  263SOL     hw 1050   5.515   4.126   2.545 -1.5531 -3.3175 -0.2282
  263SOL     hw 1051   5.366   4.116   2.565 -2.0933  1.3605 -0.6441
  263SOL     vw 1052   5.440   4.160   2.574 -0.6742 -0.9184 -0.4820
  264SOL     ow 1053   2.108   2.896   1.498 -0.1878 -0.2457 -0.0577
  264SOL     hw 1054   2.194   2.931   1.474 -0.5623  0.2586 -0.6851
  264SOL     hw 1055   2.102   2.911   1.593  1.6716 -3.0637  0.6242
  264SOL     vw 1056   2.119   2.903   1.507  0.0082 -0.5511 -0.0505
  265SOL     ow 1057   3.329   1.619   3.459 -0.4411  0.1892 -0.6259
  265SOL     hw 1058   3.321   1.687   3.525 -1.5423  0.8838 -1.4302
  265SOL     hw 1059   3.400   1.648   3.402  0.2973 -0.2527  0.0588
  265SOL     vw 1060   3.337   1.631   3.460 -0.4889  0.2226 -0.6416
  266SOL     ow 1061   0.987   6.284   0.059 -0.1176 -0.7761 -0.3714
  266SOL     hw 1062   1.069   6.313   0.017 -0.4192  1.5837  0.4863
  266SOL     hw 1063   0.996   6.312   0.150 -2.3137  0.6548 -0.5127
  266SOL     vw 1064   0.999   6.292   0.065 -0.4471 -0.2759 -0.2769
  267SOL     ow 1065   3.388   3.932   1.047 -0.5476 -0.3173  0.0465
  267SOL     hw 1066   3.330   3.868   1.088 -1.5524  0.9705  0.6918
  267SOL     hw 1067   3.341   4.015   1.053  1.3001  0.7591  0.5093
  267SOL     vw 1068   3.374   3.934   1.053 -0.4364 -0.0054  0.1928
  268SOL     ow 1069   0.376   5.914   3.034 -0.0566  0.0992 -0.1544
  268SOL     hw 1070   0.425   5.950   2.960 -0.1911  1.0383  0.2022
  268SOL     hw 1071   0.401   5.822   3.036 -0.0058  0.0625 -1.3400
  268SOL     vw 1072   0.386   5.907   3.024 -0.0677  0.2182 -0.2637
  269SOL     ow 1073   1.711   0.009   6.642 -0.0177  0.0772  0.3328
  269SOL     hw 1074   1.786   0.064   6.662  1.0561 -0.3637 -2.2256
  269SOL     hw 1075   1.739  -0.080   6.664  0.6518 -0.2251 -1.6038
  269SOL     vw 1076   1.724   0.005   6.648  0.2123 -0.0209 -0.2604
  270SOL     ow 1077   3.762   0.410   2.450 -0.8100  0.0861  0.6394
  270SOL     hw 1078   3.703   0.371   2.385  0.1904 -0.8482  0.2433
  270SOL     hw 1079   3.729   0.498   2.464 -1.6303 -0.0376 -0.4120
  270SOL     vw 1080   3.750   0.416   2.443 -0.7863 -0.0535  0.4482
  271SOL     ow 1081   3.384   4.495   4.382  0.0382 -0.0229 -0.2611
  271SOL     hw 1082   3.479   4.492   4.388 -0.0236 -1.4425  0.5023
  271SOL     hw 1083   3.358   4.564   4.442  0.6289  1.4517 -1.6142
  271SOL     vw 1084   3.393   4.503   4.390  0.1079 -0.0157 -0.3386
  272SOL     ow 1085   2.206   2.566   4.398 -0.3356  0.4890 -0.0236
  272SOL     hw 1086   2.234   2.607   4.317 -1.0795 -0.7760 -0.9617
  272SOL     hw 1087   2.120   2.530   4.378 -0.4816  0.0352  1.2997
  272SOL     vw 1088   2.198   2.567   4.385 -0.4530  0.2621  0.0272
  273SOL     ow 1089   5.124   2.825   3.380 -0.3251  0.0657 -0.3005
  273SOL     hw 1090   5.088   2.776   3.306  0.7064 -1.6788  0.2890
  273SOL     hw 1091   5.054   2.826   3.445 -0.4458 -0.4422 -0.4149
  273SOL     vw 1092   5.110   2.819   3.378 -0.2050 -0.2314 -0.2378
  274SOL     ow 1093   3.426   2.844   1.087  0.0610 -0.6350 -0.3365
  274SOL     hw 1094   3.355   2.884   1.138 -0.1018  0.9968 -1.7249
  274SOL     hw 1095   3.437   2.757   1.124 -0.2866  0.3189  2.2068
  274SOL     vw 1096   3.418   2.838   1.099 -0.0064 -0.2937 -0.1842
  275SOL     ow 1097   1.160   0.791   1.755 -0.0261 -0.3888 -0.4067
  275SOL     hw 1098   1.078   0.840   1.756 -0.8152 -1.6488 -0.7877
  275SOL     hw 1099   1.211   0.829   1.683 -0.5794 -0.0551 -0.6235
  275SOL     vw 1100   1.156   0.802   1.746 -0.2032 -0.5110 -0.4855
  276SOL     ow 1101   5.811   5.726   6.944 -0.0551 -0.4448  0.2237
  276SOL     hw 1102   5.736   5.697   6.892 -0.7344  0.2751  0.7692
  276SOL     hw 1103   5.856   5.789   6.888  1.4900 -2.5229 -1.0079
  276SOL     vw 1104   5.807   5.731   6.930  0.0591 -0.6242  0.1333
  277SOL     ow 1105   1.447   6.958   6.537 -0.2002 -0.3662 -0.5997
  277SOL     hw 1106   1.354   6.940   6.554 -0.3788  0.3653 -0.7466
  277SOL     hw 1107   1.482   6.875   6.504 -0.3404 -1.2207  1.2492
  277SOL     vw 1108   1.439   6.945   6.535 -0.2422 -0.3827 -0.3753
  278SOL     ow 1109   5.609   5.157   3.620 -0.5504  0.0782 -0.2721
  278SOL     hw 1110   5.587   5.169   3.528  0.0300  0.9686 -0.3093
  278SOL     hw 1111   5.530   5.182   3.668 -0.1587  1.8169 -0.4605
  278SOL     vw 1112   5.596   5.162   3.614 -0.4222  0.4251 -0.3017
  279SOL     ow 1113   6.136   2.786   2.863  0.1127 -0.2838 -0.2102
  279SOL     hw 1114   6.194   2.710   2.851 -1.2251 -1.2855 -0.6060
  279SOL     hw 1115   6.173   2.832   2.939  1.7745 -0.5157 -0.8236
  279SOL     vw 1116   6.149   2.782   2.871  0.1554 -0.4466 -0.3434
  280SOL     ow 1117   5.812   1.957   0.709  0.3213 -0.3217  0.1488
  280SOL     hw 1118   5.871   2.025   0.743  1.2399 -0.4754 -1.0697
  280SOL     hw 1119   5.731   2.004   0.689  0.5359  0.1925  0.4554
  280SOL     vw 1120   5.809   1.972   0.711  0.4706 -0.2742  0.0285
  281SOL     ow 1121   5.169   6.931   2.447 -0.1257  0.2082 -0.1282
  281SOL     hw 1122   5.245   6.980   2.416 -1.5323  1.7615 -1.2860
  281SOL     hw 1123   5.161   6.857   2.387 -0.6173  1.1163 -1.2236
  281SOL     vw 1124   5.178   6.928   2.435 -0.3762  0.5331 -0.4255
  282SOL     ow 1125   4.594   0.360   5.048  0.2654  0.5157 -0.2266
  282SOL     hw 1126   4.629   0.328   4.965  0.8663 -0.0639  0.2420
  282SOL     hw 1127   4.530   0.426   5.023  0.4795  0.3842 -1.1504
  282SOL     vw 1128   4.590   0.365   5.034  0.3731  0.4219 -0.2866
  283SOL     ow 1129   1.046   6.630   4.994  0.0943  0.3213  0.5245
  283SOL     hw 1130   1.036   6.561   4.928  1.0158  2.0396 -1.5706
  283SOL     hw 1131   1.026   6.588   5.077 -1.0285 -2.0110 -0.8339
  283SOL     vw 1132   1.042   6.616   4.996  0.0678  0.2406  0.0691
  284SOL     ow 1133   6.418   0.587   0.177  0.0297  0.1342 -0.7748
  284SOL     hw 1134   6.412   0.681   0.164  1.2447  0.2768 -0.4414
  284SOL     hw 1135   6.333   0.561   0.211  0.1378  1.3370  0.4966
  284SOL     vw 1136   6.406   0.596   0.179  0.2043  0.3117 -0.5631
  285SOL     ow 1137   4.487   6.801   1.485 -0.4158  0.2753  0.3737
  285SOL     hw 1138   4.544   6.725   1.478  0.4282  0.7256  1.8489
  285SOL     hw 1139   4.451   6.813   1.397  0.6609 -0.8758 -0.2457
  285SOL     vw 1140   4.490   6.793   1.473 -0.1624  0.1829  0.4866
  286SOL     ow 1141   5.113   3.677   5.445 -0.2188 -0.5316 -0.1203
  286SOL     hw 1142   5.110   3.721   5.360 -1.0338 -0.3736 -0.0195
  286SOL     hw 1143   5.026   3.691   5.482  0.1197 -0.6201  0.7334
  286SOL     vw 1144   5.101   3.685   5.439 -0.2816 -0.5224  0.0057
  287SOL     ow 1145   0.815   1.195   5.439  0.0881 -0.0726  0.1989
  287SOL     hw 1146   0.809   1.281   5.481  0.5296  0.2922 -0.4655
  287SOL     hw 1147   0.853   1.138   5.506 -2.0185 -0.2573  1.3398
  287SOL     vw 1148   0.819   1.199   5.454 -0.1316 -0.0488  0.2618
  288SOL     ow 1149   0.432   1.908   1.624  0.3352  0.0282  0.0770
  288SOL     hw 1150   0.376   1.942   1.693 -0.7077 -0.3108 -0.5752
  288SOL     hw 1151   0.471   1.828   1.660 -1.1910 -0.8434 -0.1477
  288SOL     vw 1152   0.430   1.902   1.638 -0.0038 -0.1314 -0.0387
  289SOL     ow 1153   3.064   2.214   2.440 -0.4096  0.2765 -0.2646
  289SOL     hw 1154   3.062   2.308   2.455 -1.9253 -0.0014  1.6567
  289SOL     hw 1155   2.997   2.199   2.374 -0.9602  0.4318  0.2552
  289SOL     vw 1156   3.055   2.224   2.433 -0.6820  0.2604  0.0575
  290SOL     ow 1157   5.181   3.909   1.121 -0.4313 -0.4244  0.5753
  290SOL     hw 1158   5.238   3.977   1.086  0.6723 -0.5605  2.0440
  290SOL     hw 1159   5.130   3.880   1.045 -0.5324  1.6206 -0.1982
  290SOL     vw 1160   5.182   3.914   1.106 -0.2990 -0.1726  0.6670
  291SOL     ow 1161   2.972   5.966   3.623 -0.0459  0.1994 -0.8565
  291SOL     hw 1162   2.973   5.995   3.714  1.7130  0.8182 -1.0362
  291SOL     hw 1163   2.975   5.871   3.628  1.2595  0.2436 -0.2232
  291SOL     vw 1164   2.973   5.957   3.635  0.3583  0.2868 -0.7966
  292SOL     ow 1165   3.437   2.483   3.202  0.3235 -0.0854  0.7989
  292SOL     hw 1166   3.482   2.433   3.135  1.0780  0.7700  0.6510
  292SOL     hw 1167   3.346   2.489   3.172  0.7332  0.6081 -0.3428
  292SOL     vw 1168   3.431   2.477   3.189  0.4772  0.1190  0.6287
  293SOL     ow 1169   2.259   5.660   5.133 -0.6493 -0.2372 -0.2685
  293SOL     hw 1170   2.348   5.684   5.160 -0.2565 -2.2595  0.3644
  293SOL     hw 1171   2.245   5.710   5.052 -0.0207  2.2480  1.0410
  293SOL     vw 1172   2.269   5.670   5.126 -0.5144 -0.1760 -0.0124
  294SOL     ow 1173   6.541   3.745   2.380  0.5883 -0.2849  0.1923
  294SOL     hw 1174   6.591   3.827   2.378  0.1467 -0.0324 -1.0953
  294SOL     hw 1175   6.500   3.739   2.294  0.1837 -1.6039  0.4515
  294SOL     vw 1176   6.542   3.755   2.368  0.4766 -0.4256  0.0567
  295SOL     ow 1177   4.760   5.626   1.937  0.3317  0.6017 -0.1940
  295SOL     hw 1178   4.727   5.563   2.002  0.9707 -0.3324 -0.7521
  295SOL     hw 1179   4.715   5.604   1.856  0.6802  0.7581 -0.4349
  295SOL     vw 1180   4.750   5.615   1.935  0.4616  0.4990 -0.2995
  296SOL     ow 1181   4.223   1.321   0.800 -0.5443 -0.4173 -0.0815
  296SOL     hw 1182   4.293   1.386   0.805  0.8905 -1.9104  0.3727
  296SOL     hw 1183   4.162   1.356   0.736  0.8998  0.7275 -0.9015
  296SOL     vw 1184   4.224   1.334   0.792 -0.1645 -0.4632 -0.1298
  297SOL     ow 1185   5.406   3.426   1.325  0.3663 -0.6878  0.8057
  297SOL     hw 1186   5.368   3.375   1.253 -1.2383  2.2172 -0.5808
  297SOL     hw 1187   5.452   3.361   1.379 -0.9719 -3.4373 -1.1329
  297SOL     vw 1188   5.407   3.411   1.322 -0.0219 -0.6672  0.3670
  298SOL     ow 1189   4.044   6.443   0.186  0.2855 -0.1186 -0.4248
  298SOL     hw 1190   3.959   6.422   0.146  1.0721  0.4957 -2.5644
  298SOL     hw 1191   4.078   6.514   0.132  1.3558  0.9359  1.5482
  298SOL     vw 1192   4.037   6.450   0.173  0.5307  0.1016 -0.4468
  299SOL     ow 1193   6.845   0.189   4.289 -0.5566 -0.4402 -0.3867
  299SOL     hw 1194   6.799   0.257   4.241 -0.1505 -1.7464 -2.7885
  299SOL     hw 1195   6.937   0.212   4.281 -0.3250 -1.7655 -2.2012
  299SOL     vw 1196   6.851   0.201   4.281 -0.4725 -0.7874 -0.9429
  300SOL     ow 1197   1.678   3.713   2.906 -0.2327  0.3417  0.3888
  300SOL     hw 1198   1.667   3.805   2.930  1.4491  0.4833  0.7187
  300SOL     hw 1199   1.769   3.693   2.929 -0.4979 -1.3313  0.0725
  300SOL     vw 1200   1.688   3.723   2.912 -0.0457  0.1396  0.3905
  301SOL     ow 1201   3.640   2.684   4.725  0.3416 -0.4051 -0.7943
  301SOL     hw 1202   3.643   2.777   4.749 -1.3593 -0.3724 -0.5842
  301SOL     hw 1203   3.700   2.642   4.787  0.2285  0.3962 -0.1103
  301SOL     vw 1204   3.649   2.691   4.737  0.1023 -0.2949 -0.6766
  302SOL     ow 1205   0.786   3.500   0.242  0.2204  0.0335  0.0190
  302SOL     hw 1206   0.727   3.450   0.298 -0.4447  0.7588 -0.0162
  302SOL     hw 1207   0.755   3.590   0.250  0.1595  0.1659 -1.4455
  302SOL     vw 1208   0.774   3.505   0.250  0.1246  0.1465 -0.1789
  303SOL     ow 1209   6.355   5.305   6.205  0.2560 -0.3749 -0.7718
  303SOL     hw 1210   6.331   5.369   6.272  2.6411 -0.2018 -0.0029
  303SOL     hw 1211   6.352   5.355   6.123 -2.6170 -0.5734 -0.8969
  303SOL     vw 1212   6.352   5.320   6.203  0.1912 -0.3781 -0.6871
  304SOL     ow 1213   5.391   4.660   0.488  0.3875  0.7647  0.7212
  304SOL     hw 1214   5.419   4.625   0.573  0.7824 -0.2146  0.1991
  304SOL     hw 1215   5.319   4.719   0.510 -0.3949 -0.4619  1.6440
  304SOL     vw 1216   5.385   4.663   0.502  0.3364  0.4740  0.7740
  305SOL     ow 1217   5.218   5.892   4.038  0.4571 -0.1266  0.1746
  305SOL     hw 1218   5.262   5.945   3.971 -0.8284  1.7539  0.7325
  305SOL     hw 1219   5.233   5.802   4.011 -0.5905  0.5381 -3.0919
  305SOL     vw 1220   5.226   5.887   4.025  0.1495  0.2091 -0.1826
  306SOL     ow 1221   3.110   6.266   4.434  0.4161  0.1626 -0.6982
  306SOL     hw 1222   3.116   6.179   4.394  1.5340  0.2691 -0.7791
  306SOL     hw 1223   3.024   6.266   4.477  0.9096 -1.4569  0.4123
  306SOL     vw 1224   3.099   6.254   4.434  0.6287 -0.0370 -0.5624
  307SOL     ow 1225   2.802   0.536   4.542 -0.0222 -0.4819 -0.4419
  307SOL     hw 1226   2.754   0.611   4.506  0.3472  0.7929  1.5956
  307SOL     hw 1227   2.749   0.507   4.616  1.0186 -0.7197  0.2282
  307SOL     vw 1228   2.788   0.542   4.547  0.1638 -0.3451 -0.0849
  308SOL     ow 1229   5.709   3.359   1.696 -0.0892  0.4802 -0.1955
  308SOL     hw 1230   5.671   3.342   1.610 -0.2715  1.6593 -0.3683
  308SOL     hw 1231   5.663   3.438   1.727  0.4321  0.4480  0.6958
  308SOL     vw 1232   5.698   3.367   1.689 -0.0446  0.6316 -0.1007
  309SOL     ow 1233   3.061   6.625   1.915  0.7456  0.5131  0.4462
  309SOL     hw 1234   3.084   6.533   1.926 -0.2639  0.0153 -1.1012
  309SOL     hw 1235   3.129   6.673   1.961  1.0963 -1.0065  1.6059
  309SOL     vw 1236   3.073   6.619   1.922  0.6588  0.2470  0.3951
  310SOL     ow 1237   6.938   0.596   4.555 -0.1256 -0.4415 -0.7225
  310SOL     hw 1238   6.873   0.626   4.618  0.4879 -1.1460  0.2788
  310SOL     hw 1239   6.915   0.641   4.474 -0.1808  1.4874  0.2951
  310SOL     vw 1240   6.926   0.606   4.553 -0.0517 -0.2800 -0.4563
  311SOL     ow 1241   5.312   4.614   4.648 -0.4192  0.3280 -0.0209
  311SOL     hw 1242   5.357   4.683   4.697 -0.4454  0.7728 -0.6181
  311SOL     hw 1243   5.230   4.655   4.618 -0.3728  0.0792 -0.4921
  311SOL     vw 1244   5.307   4.629   4.650 -0.4165  0.3538 -0.1619
  312SOL     ow 1245   0.140   2.335   5.476 -0.1539  0.1990 -0.3933
  312SOL     hw 1246   0.086   2.397   5.525  0.4733  1.6807 -1.4990
  312SOL     hw 1247   0.216   2.320   5.532 -1.2685 -1.2727  0.8126
  312SOL     vw 1248   0.143   2.341   5.490 -0.2182  0.2003 -0.3800
  313SOL     ow 1249   5.642   4.753   1.488  0.0066 -0.1099 -0.7071
  313SOL     hw 1250   5.590   4.689   1.438 -0.9395  0.1284 -0.0572
  313SOL     hw 1251   5.625   4.731   1.580  1.8174 -0.6097 -0.4505
  313SOL     vw 1252   5.633   4.741   1.493  0.1206 -0.1440 -0.5875
  314SOL     ow 1253   1.959   2.691   1.334 -0.5226  0.0317 -0.6476
  314SOL     hw 1254   1.924   2.709   1.247 -0.8327  1.1210 -0.3133
  314SOL     hw 1255   1.989   2.600   1.329  0.7510  0.4856 -2.3274
  314SOL     vw 1256   1.959   2.681   1.322 -0.3955  0.2353 -0.8252
  315SOL     ow 1257   6.086   0.410   3.610 -0.3323 -0.0560 -0.0712
  315SOL     hw 1258   6.016   0.348   3.630 -1.8644  1.2621 -1.1247
  315SOL     hw 1259   6.104   0.397   3.517  0.9111 -0.4300  0.1997
  315SOL     vw 1260   6.079   0.400   3.601 -0.3703  0.0685 -0.1745
  316SOL     ow 1261   5.269   5.862   1.571 -0.2383  0.5067 -0.5180
  316SOL     hw 1262   5.199   5.843   1.634 -1.6849  0.5819 -2.0138
  316SOL     hw 1263   5.290   5.777   1.532  0.5253  0.4853 -0.0739
  316SOL     vw 1264   5.262   5.848   1.574 -0.3285  0.5140 -0.6568
  317SOL     ow 1265   1.842   1.720   6.262 -0.0345 -0.3425 -0.6543
  317SOL     hw 1266   1.929   1.753   6.284 -0.5011  0.2264  0.4191
  317SOL     hw 1267   1.829   1.646   6.321 -1.1902  1.0302  0.9317
  317SOL     vw 1268   1.852   1.715   6.273 -0.2486 -0.0864 -0.3033
  318SOL     ow 1269   1.817   0.617   4.779  0.4132 -0.1240  0.6606
  318SOL     hw 1270   1.757   0.681   4.817  0.4520  0.8875 -0.8693
  318SOL     hw 1271   1.895   0.621   4.835  0.5517  1.4561  0.4143
  318SOL     vw 1272   1.819   0.626   4.791  0.4365  0.2179  0.4258
  319SOL     ow 1273   2.381   0.275   4.438 -0.4422 -0.2747 -0.0823
  319SOL     hw 1274   2.361   0.355   4.487 -0.1150 -0.5895  0.5865
  319SOL     hw 1275   2.474   0.281   4.418 -0.5645 -0.1744 -0.6190
  319SOL     vw 1276   2.390   0.286   4.442 -0.4152 -0.3030 -0.0648
  320SOL     ow 1277   6.866   4.771   3.512 -0.2400  0.1604 -0.0627
  320SOL     hw 1278   6.953   4.803   3.534  0.2977 -0.8830 -0.6088
  320SOL     hw 1279   6.841   4.820   3.434 -0.1897  0.5284  0.1492
  320SOL     vw 1280   6.874   4.781   3.505 -0.1621  0.0715 -0.1069
  321SOL     ow 1281   1.204   5.419   6.425  0.5279 -0.0840  0.4204
  321SOL     hw 1282   1.285   5.465   6.444  1.0931 -1.0065  0.3174
  321SOL     hw 1283   1.186   5.367   6.503 -0.6255  1.0292  0.9171
  321SOL     vw 1284   1.212   5.418   6.438  0.4503 -0.0587  0.4723
  322SOL     ow 1285   2.190   2.324   3.581 -0.2074  0.1736 -0.5032
  322SOL     hw 1286   2.165   2.265   3.652  0.2999  0.7706  0.1782
  322SOL     hw 1287   2.107   2.349   3.540 -0.5650  0.5097  0.4170
  322SOL     vw 1288   2.176   2.319   3.585 -0.1876  0.2967 -0.2918
  323SOL     ow 1289   0.568   4.870   3.895 -0.2102 -0.1746 -0.0253
  323SOL     hw 1290   0.522   4.944   3.856  0.0154  0.1004  0.2209
  323SOL     hw 1291   0.584   4.896   3.985  0.4712 -0.2363 -0.1174
  323SOL     vw 1292   0.564   4.883   3.902 -0.0905 -0.1464 -0.0049
  324SOL     ow 1293   0.740   5.156   3.135 -0.4402  0.3006  0.2097
  324SOL     hw 1294   0.827   5.147   3.095  0.6320  0.3233  2.4235
  324SOL     hw 1295   0.735   5.084   3.198 -2.9409 -1.0387 -1.2980
  324SOL     vw 1296   0.751   5.145   3.138 -0.6287  0.1271  0.3030
  325SOL     ow 1297   4.923   0.531   4.962  0.5013  0.2288  0.1088
  325SOL     hw 1298   4.916   0.578   5.045  0.7894  0.4659  0.0013
  325SOL     hw 1299   4.923   0.439   4.987  2.4757  0.2926  0.5474
  325SOL     vw 1300   4.922   0.525   4.976  0.7999  0.2685  0.1523
  326SOL     ow 1301   6.841   1.862   1.571  0.2834  0.1492  0.2198
  326SOL     hw 1302   6.904   1.798   1.536 -0.3237 -0.0663 -0.5137
  326SOL     hw 1303   6.822   1.831   1.660  0.2607 -0.5004 -0.0066
  326SOL     vw 1304   6.847   1.849   1.578  0.2005  0.0350  0.0932
  327SOL     ow 1305   3.618   4.530   2.799  0.0510  0.5115  0.0484
  327SOL     hw 1306   3.598   4.529   2.705  1.1611  0.1495 -0.1950
  327SOL     hw 1307   3.713   4.530   2.803  0.0137  0.3608  1.1868
  327SOL     vw 1308   3.628   4.530   2.787  0.1925  0.4435  0.1664
  328SOL     ow 1309   1.928   1.690   5.705  0.0694  0.8041 -0.3249
  328SOL     hw 1310   1.936   1.691   5.610 -0.1041 -0.3822 -0.3592
  328SOL     hw 1311   1.879   1.610   5.725  0.4531  0.8286  0.7873
  328SOL     vw 1312   1.922   1.680   5.695  0.0972  0.6508 -0.1826
  329SOL     ow 1313   6.749   1.115   3.492 -0.1005 -0.2137 -0.3287
  329SOL     hw 1314   6.716   1.143   3.406 -0.5102  1.8644  0.4450
  329SOL     hw 1315   6.670   1.101   3.545  0.1674 -0.8065 -0.0708
  329SOL     vw 1316   6.734   1.117   3.487 -0.1192 -0.0177 -0.1928
  330SOL     ow 1317   0.522   6.789   0.990  0.4231  0.4997 -0.0938
  330SOL     hw 1318   0.609   6.792   0.949  0.8273  2.0458  0.8093
  330SOL     hw 1319   0.507   6.695   1.005 -0.3684 -0.3936 -4.8839
  330SOL     vw 1320   0.532   6.777   0.987  0.3720  0.5856 -0.6066
  331SOL     ow 1321   5.010   0.972   3.748  0.8069  0.3891 -0.0431
  331SOL     hw 1322   5.005   0.951   3.841  0.8032  0.8748  0.0656
  331SOL     hw 1323   5.100   1.004   3.735 -0.1196  3.5149  0.4721
  331SOL     vw 1324   5.021   0.973   3.759  0.6840  0.8656  0.0393
  332SOL     ow 1325   1.447   4.188   1.622 -0.3282 -0.0993  0.2068
  332SOL     hw 1326   1.428   4.267   1.673 -1.4389 -0.1088 -0.1549
  332SOL     hw 1327   1.520   4.146   1.668 -1.6358 -0.4048  2.1007
  332SOL     vw 1328   1.454   4.193   1.634 -0.6472 -0.1409  0.4089
  333SOL     ow 1329   2.364   0.452   3.121 -0.9239  0.6134  0.5000
  333SOL     hw 1330   2.395   0.371   3.081  0.6505  0.5667  1.7368
  333SOL     hw 1331   2.277   0.465   3.084 -1.2263 -1.6489  0.2772
  333SOL     vw 1332   2.357   0.443   3.111 -0.7560  0.3088  0.6338
  334SOL     ow 1333   2.567   2.052   5.162 -0.3291 -1.0531  0.1106
  334SOL     hw 1334   2.590   1.968   5.202  1.3831 -1.3702 -1.4104
  334SOL     hw 1335   2.553   2.032   5.070 -1.1699  0.1400 -0.0474
  334SOL     vw 1336   2.568   2.038   5.155 -0.2140 -0.9376 -0.1106
  335SOL     ow 1337   4.661   3.581   0.776  0.2829  0.2491  0.1558
  335SOL     hw 1338   4.693   3.668   0.754  0.2718  0.6425  1.6125
  335SOL     hw 1339   4.566   3.587   0.766  0.2947  0.3468  0.1021
  335SOL     vw 1340   4.653   3.593   0.771  0.2828  0.3139  0.3409
  336SOL     ow 1341   0.983   1.475   5.046 -0.5008  0.4664  0.2583
  336SOL     hw 1342   0.967   1.381   5.056 -2.0537  0.7119  0.3908
  336SOL     hw 1343   1.063   1.480   4.995 -2.0743 -1.0108 -2.6085
  336SOL     vw 1344   0.992   1.463   5.041 -0.9133  0.3039 -0.1023
  337SOL     ow 1345   6.884   4.235   4.855  0.1216  0.0160  0.0263
  337SOL     hw 1346   6.879   4.220   4.950  1.0867  0.9197  0.2334
  337SOL     hw 1347   6.950   4.173   4.825 -0.5445 -0.6257 -0.1540
  337SOL     vw 1348   6.892   4.225   4.864  0.1612  0.0508  0.0300
  338SOL     ow 1349   0.166   6.686   3.340  0.1365 -0.0068 -0.1980
  338SOL     hw 1350   0.147   6.598   3.373  0.4813 -0.0019  0.0160
  338SOL     hw 1351   0.217   6.672   3.261  0.1429 -0.0024 -0.1947
  338SOL     vw 1352   0.170   6.672   3.334  0.1828 -0.0052 -0.1693
  339SOL     ow 1353   2.393   3.397   3.013 -0.2012 -0.1131  0.3125
  339SOL     hw 1354   2.410   3.403   2.919  0.9150 -0.1419  0.5000
  339SOL     hw 1355   2.306   3.436   3.024 -0.5164 -0.4507 -0.7749
  339SOL     vw 1356   2.383   3.403   3.002 -0.0955 -0.1614  0.1937
  340SOL     ow 1357   6.421   4.212   2.349 -0.5388  0.4537  0.1773
  340SOL     hw 1358   6.413   4.143   2.283 -0.4298  0.2870  0.3374
  340SOL     hw 1359   6.502   4.193   2.395 -1.0083  0.1000  0.8932
  340SOL     vw 1360   6.430   4.200   2.347 -0.5865  0.3850  0.2929
  341SOL     ow 1361   3.467   6.454   2.776  0.7225 -0.3790 -0.0986
  341SOL     hw 1362   3.506   6.400   2.845 -1.2730 -0.8679  0.7217
  341SOL     hw 1363   3.462   6.542   2.814 -0.4590 -0.6660  0.4857
  341SOL     vw 1364   3.471   6.458   2.790  0.3034 -0.4814  0.0868
  342SOL     ow 1365   5.935   0.220   4.274 -0.6366  0.1665 -0.7196
  342SOL     hw 1366   5.933   0.258   4.362  0.1951 -1.4262  0.0129
  342SOL     hw 1367   5.932   0.296   4.216 -0.7619  1.2710  0.6703
  342SOL     vw 1368   5.934   0.235   4.278 -0.5429  0.1021 -0.4396
  343SOL     ow 1369   4.358   0.557   1.755 -0.3003 -0.0184  0.1615
  343SOL     hw 1370   4.421   0.486   1.764 -0.7101 -0.2903  0.9045
  343SOL     hw 1371   4.281   0.516   1.714  0.1013  0.3800 -1.0520
  343SOL     vw 1372   4.356   0.542   1.751 -0.3016 -0.0018  0.0994
  344SOL     ow 1373   2.963   2.069   2.632  0.0388  0.9283 -0.0627
  344SOL     hw 1374   2.978   1.976   2.620 -1.1738  0.9306 -2.0665
  344SOL     hw 1375   3.013   2.111   2.562  0.4315  1.7939  0.7111
  344SOL     vw 1376   2.971   2.062   2.621 -0.0694  1.0428 -0.2248
  345SOL     ow 1377   3.444   5.727   6.621 -0.5640  0.3049 -0.5617
  345SOL     hw 1378   3.397   5.778   6.556 -0.2338  0.1550 -0.9203
  345SOL     hw 1379   3.473   5.649   6.574 -1.5375 -0.4905  0.1066
  345SOL     vw 1380   3.442   5.723   6.606 -0.6489  0.1802 -0.5207
  346SOL     ow 1381   0.875   3.465   6.947  0.6290 -0.3458  0.2343
  346SOL     hw 1382   0.967   3.472   6.920  0.3648  1.6887 -0.2922
  346SOL     hw 1383   0.832   3.421   6.874  0.9220  0.0642 -0.1904
  346SOL     vw 1384   0.881   3.460   6.934  0.6328 -0.0232  0.1087
  347SOL     ow 1385   1.579   3.385   5.425  0.1259  0.1981 -0.3126
  347SOL     hw 1386   1.578   3.333   5.345  3.0807  1.0313 -1.0241
  347SOL     hw 1387   1.528   3.335   5.488  0.8837 -2.3859 -1.6293
  347SOL     vw 1388   1.572   3.372   5.422  0.6157 -0.0328 -0.5803
  348SOL     ow 1389   2.463   3.437   1.130  0.6027  0.2719  0.0249
  348SOL     hw 1390   2.470   3.487   1.211  1.5070  0.2259 -0.0155
  348SOL     hw 1391   2.428   3.352   1.156 -0.6169  0.7875  0.1427
  348SOL     vw 1392   2.460   3.433   1.144  0.5610  0.3339  0.0351
  349SOL     ow 1393   2.488   5.633   5.659 -0.0850 -0.2125 -0.2337
  349SOL     hw 1394   2.575   5.592   5.660 -0.0240 -0.3064 -2.6546
  349SOL     hw 1395   2.441   5.592   5.732  1.2034 -1.7868 -0.2318
  349SOL     vw 1396   2.493   5.622   5.669  0.0931 -0.4327 -0.5529
  350SOL     ow 1397   5.856   5.942   1.157 -0.2653  0.8693 -0.2856
  350SOL     hw 1398   5.855   6.006   1.086 -0.4652  1.1613 -0.0238
  350SOL     hw 1399   5.826   5.991   1.234  0.0153  0.5770  0.0168
  350SOL     vw 1400   5.852   5.957   1.158 -0.2549  0.8693 -0.2112
  351SOL     ow 1401   6.878   2.167   3.278  0.1273  0.0910 -0.0471
  351SOL     hw 1402   6.923   2.114   3.344 -0.2389 -1.2690 -0.8511
  351SOL     hw 1403   6.942   2.234   3.254  0.1130  0.9067  1.9717
  351SOL     vw 1404   6.893   2.169   3.284  0.0772  0.0191  0.1134
  352SOL     ow 1405   1.029   1.205   2.691 -0.0725 -0.4602 -0.6019
  352SOL     hw 1406   1.014   1.130   2.633 -0.0079 -1.4972  0.6640
  352SOL     hw 1407   1.123   1.205   2.707  0.0929  0.5695 -1.4227
  352SOL     vw 1408   1.039   1.195   2.685 -0.0421 -0.4612 -0.5431
  353SOL     ow 1409   2.975   4.339   6.919 -0.1217 -0.1201 -0.0261
  353SOL     hw 1410   3.057   4.340   6.968  0.0928 -0.1119 -0.3769
  353SOL     hw 1411   2.931   4.259   6.947  0.3791 -0.5504 -0.4393
  353SOL     vw 1412   2.980   4.329   6.929 -0.0273 -0.1755 -0.1268
  354SOL     ow 1413   4.918   4.418   1.501  0.6169  0.2303 -0.1412
  354SOL     hw 1414   4.961   4.458   1.426  0.9361  1.7109  0.7776
  354SOL     hw 1415   4.971   4.444   1.576 -0.3000 -0.2820  0.7164
  354SOL     vw 1416   4.931   4.427   1.501  0.5383  0.3579  0.0932
  355SOL     ow 1417   1.072   2.724   3.900 -0.3979 -0.3782  0.3915
  355SOL     hw 1418   1.031   2.656   3.954  0.2494  0.0966  1.4905
  355SOL     hw 1419   1.026   2.804   3.923 -1.1444 -0.4069 -0.8903
  355SOL     vw 1420   1.060   2.725   3.910 -0.4110 -0.3192  0.3674
  356SOL     ow 1421   1.316   2.870   2.882  0.3356  0.4986  0.1031
  356SOL     hw 1422   1.320   2.782   2.920 -0.5821  1.5492  2.9096
  356SOL     hw 1423   1.225   2.896   2.892  0.1977  1.1435 -2.3736
  356SOL     vw 1424   1.305   2.862   2.889  0.1963  0.7223  0.1466
  357SOL     ow 1425   0.783   4.103   6.230 -0.0513  0.7206 -0.0474
  357SOL     hw 1426   0.847   4.090   6.161  0.7501  1.3961  0.5465
  357SOL     hw 1427   0.708   4.050   6.203 -0.0494  1.5442 -1.7788
  357SOL     vw 1428   0.782   4.094   6.218  0.0547  0.9181 -0.1972
  358SOL     ow 1429   0.453   4.508   2.926 -0.6373 -0.6666 -0.1854
  358SOL     hw 1430   0.436   4.460   3.007 -1.7923  1.5907  0.9975
  358SOL     hw 1431   0.457   4.600   2.953  0.4823  0.0336 -2.4881
  358SOL     vw 1432   0.451   4.514   2.940 -0.6419 -0.2763 -0.3332
  359SOL     ow 1433   3.837   6.074   0.752 -0.2378  0.7923 -0.4311
  359SOL     hw 1434   3.871   6.126   0.824  0.9743  1.1339 -1.2074
  359SOL     hw 1435   3.744   6.098   0.746 -0.0449  1.7512  0.1729
  359SOL     vw 1436   3.829   6.084   0.760 -0.0525  0.9637 -0.4538
  360SOL     ow 1437   2.679   6.052   0.887 -0.1811  0.2757 -0.6503
  360SOL     hw 1438   2.703   6.035   0.978 -0.9055  1.6819 -0.1652
  360SOL     hw 1439   2.691   6.146   0.876 -1.9210  0.4587 -1.4264
  360SOL     vw 1440   2.684   6.062   0.897 -0.5063  0.4854 -0.6886
  361SOL     ow 1441   2.217   3.121   6.563 -0.3869 -0.0228 -0.4212
  361SOL     hw 1442   2.259   3.079   6.488 -1.3380  0.6391 -1.3644
  361SOL     hw 1443   2.128   3.084   6.564 -0.3773 -0.0403  0.3992
  361SOL     vw 1444   2.211   3.110   6.553 -0.5112  0.0622 -0.4375
  362SOL     ow 1445   4.381   5.927   6.866 -0.3267  0.2571 -0.2982
  362SOL     hw 1446   4.317   5.861   6.891 -2.0692  2.1601  0.5997
  362SOL     hw 1447   4.462   5.900   6.909 -0.5489 -2.0327 -1.1800
  362SOL     vw 1448   4.383   5.915   6.875 -0.5858  0.2060 -0.2961
  363SOL     ow 1449   2.762   1.290   2.645 -0.1833 -0.1227  0.3385
  363SOL     hw 1450   2.841   1.272   2.695 -0.7506  0.1833  1.3915
  363SOL     hw 1451   2.745   1.383   2.660  0.5663  0.4012 -1.8431
  363SOL     vw 1452   2.770   1.300   2.654 -0.1594 -0.0132  0.1897
  364SOL     ow 1453   1.977   5.675   5.147 -0.0614  0.1546  0.0784
  364SOL     hw 1454   1.912   5.605   5.153 -2.5266  2.0717 -2.0018
  364SOL     hw 1455   1.932   5.752   5.183  2.1375  0.9878  1.2060
  364SOL     vw 1456   1.962   5.676   5.153 -0.0965  0.5176 -0.0474
  365SOL     ow 1457   0.112   6.559   4.215 -0.5187  0.1787 -0.3750
  365SOL     hw 1458   0.163   6.561   4.296  0.5799 -0.2536 -1.0226
  365SOL     hw 1459   0.148   6.631   4.163 -0.4141 -0.2512 -0.9178
  365SOL     vw 1460   0.124   6.569   4.219 -0.3600  0.0651 -0.5322
  366SOL     ow 1461   0.171   2.371   5.166 -0.6545 -0.1494  0.4649
  366SOL     hw 1462   0.132   2.352   5.081 -0.2062 -3.3120  0.8111
  366SOL     hw 1463   0.265   2.374   5.150 -0.6340  0.4446  0.6763
  366SOL     vw 1464   0.178   2.369   5.153 -0.5926 -0.4883  0.5386
  367SOL     ow 1465   5.677   4.453   4.290  0.2710  0.1699  0.5769
  367SOL     hw 1466   5.666   4.378   4.232  1.4311 -0.5897  1.2953
  367SOL     hw 1467   5.768   4.479   4.279 -0.1204  1.4887  0.3393
  367SOL     vw 1468   5.688   4.446   4.281  0.3724  0.2437  0.6404
  368SOL     ow 1469   3.209   0.657   5.085 -0.1547 -0.0906  0.3977
  368SOL     hw 1470   3.147   0.725   5.112  0.2736  0.2743  0.4831
  368SOL     hw 1471   3.287   0.675   5.137 -0.0225 -0.6245  0.3847
  368SOL     vw 1472   3.211   0.668   5.096 -0.0807 -0.1130  0.4075
  369SOL     ow 1473   3.175   1.185   4.271 -0.6962 -0.3616  0.0827
  369SOL     hw 1474   3.142   1.174   4.182  1.4190  0.3537 -0.8504
  369SOL     hw 1475   3.270   1.185   4.262 -0.4261  0.2603  2.2787
  369SOL     vw 1476   3.183   1.184   4.258 -0.3815 -0.1851  0.2491
  370SOL     ow 1477   2.773   6.562   6.524  0.1815  0.0413  0.5128
  370SOL     hw 1478   2.817   6.642   6.552  1.1648 -0.8075  1.4669
  370SOL     hw 1479   2.800   6.551   6.433  1.0107  0.1619  0.7374
  370SOL     vw 1480   2.782   6.571   6.515  0.4206 -0.0548  0.6683
  371SOL     ow 1481   3.971   3.731   6.497  0.0078  0.4949 -0.7141
  371SOL     hw 1482   3.945   3.791   6.426 -1.2942  1.6715  0.6881
  371SOL     hw 1483   3.892   3.682   6.517  0.0255  0.9714  0.6402
  371SOL     vw 1484   3.958   3.733   6.490 -0.1616  0.7129 -0.3507
  372SOL     ow 1485   4.378   6.212   2.180  0.1569 -0.1517  0.1790
  372SOL     hw 1486   4.348   6.296   2.214 -0.9849 -0.3570 -0.2715
  372SOL     hw 1487   4.367   6.219   2.085  1.4140 -0.2999  0.0078
  372SOL     vw 1488   4.373   6.224   2.172  0.1719 -0.1981  0.0970
  373SOL     ow 1489   0.137   3.498   2.677  0.1286 -0.0901  0.5632
  373SOL     hw 1490   0.158   3.591   2.685  2.1782 -0.6851  3.9344
  373SOL     hw 1491   0.220   3.457   2.654 -0.5388 -1.2245  0.1042
  373SOL     vw 1492   0.151   3.505   2.675  0.3110 -0.3183  0.9476
  374SOL     ow 1493   1.266   5.417   2.150  0.1646 -0.0482  0.5096
  374SOL     hw 1494   1.304   5.336   2.118  0.0204 -0.5375  1.5393
  374SOL     hw 1495   1.333   5.483   2.133  0.3207 -0.3929 -0.2465
  374SOL     vw 1496   1.280   5.415   2.144  0.1662 -0.1581  0.5457
  375SOL     ow 1497   0.395   1.941   4.750 -0.2402 -0.0829 -0.7943
  375SOL     hw 1498   0.336   2.015   4.733 -1.2119 -0.9073 -1.1582
  375SOL     hw 1499   0.336   1.867   4.768  0.6999 -0.8460 -0.7467
  375SOL     vw 1500   0.379   1.941   4.750 -0.2444 -0.2924 -0.8359
  376SOL     ow 1501   5.053   5.095   4.335  0.4788 -0.1525  0.1501
  376SOL     hw 1502   4.961   5.121   4.335  0.6058  0.3025 -0.1537
  376SOL     hw 1503   5.058   5.021   4.274  0.5909  0.8296 -1.0674
  376SOL     vw 1504   5.041   5.088   4.327  0.5102  0.0370 -0.0508
  377SOL     ow 1505   4.164   4.908   1.122 -0.0047  0.3157 -0.2684
  377SOL     hw 1506   4.110   4.829   1.117 -0.5720  0.6401  0.4685
  377SOL     hw 1507   4.105   4.978   1.094 -1.4813  1.3332  4.3521
  377SOL     vw 1508   4.149   4.906   1.118 -0.2744  0.4926  0.4384
  378SOL     ow 1509   5.597   4.711   1.768  0.4653 -0.1149  0.2605
  378SOL     hw 1510   5.562   4.679   1.852  0.6462  0.9572  0.7596
  378SOL     hw 1511   5.680   4.752   1.791  0.0526  1.0582 -0.2844
  378SOL     vw 1512   5.603   4.712   1.782  0.4346  0.1814  0.2544
  379SOL     ow 1513   5.776   4.329   7.006  0.4510 -0.4416  0.1426
  379SOL     hw 1514   5.713   4.381   6.956 -1.1785 -2.6128 -0.2195
  379SOL     hw 1515   5.858   4.377   6.998 -1.3802  3.5930  2.1836
  379SOL     vw 1516   5.778   4.343   6.999 -0.0055 -0.1955  0.3643
  380SOL     ow 1517   1.858   4.606   2.059 -0.1336  0.0591 -0.1261
  380SOL     hw 1518   1.897   4.524   2.087  0.1034  0.2039 -0.0301
  380SOL     hw 1519   1.925   4.648   2.006 -1.5148 -1.4699 -3.3683
  380SOL     vw 1520   1.872   4.601   2.056 -0.2846 -0.1233 -0.5412
  381SOL     ow 1521   4.332   1.779   5.687 -0.1240 -0.6155 -0.0929
  381SOL     hw 1522   4.302   1.696   5.651 -0.3263 -0.0599 -1.2473
  381SOL     hw 1523   4.254   1.816   5.730  0.0816 -1.2116  0.8233
  381SOL     vw 1524   4.318   1.773   5.688 -0.1233 -0.6208 -0.1242
  382SOL     ow 1525   6.999   6.912   3.287 -0.4840 -0.4444  0.5292
  382SOL     hw 1526   6.910   6.919   3.254 -0.3993 -2.3175 -0.2055
  382SOL     hw 1527   7.054   6.944   3.215 -0.5406  1.7348  1.3651
  382SOL     vw 1528   6.995   6.918   3.273 -0.4799 -0.4041  0.5425
  383SOL     ow 1529   0.091   5.490   6.712 -0.0944 -0.8666 -0.6148
  383SOL     hw 1530   0.005   5.521   6.683  0.0620  0.4395  0.2113
  383SOL     hw 1531   0.149   5.565   6.697  0.3693 -0.8140  1.1652
  383SOL     vw 1532   0.087   5.504   6.706 -0.0126 -0.6874 -0.2708
  384SOL     ow 1533   0.866   5.647   5.366  0.2105 -0.1261 -0.3364
  384SOL     hw 1534   0.862   5.635   5.461 -1.5954 -1.2471 -0.5102
  384SOL     hw 1535   0.838   5.737   5.351 -1.0884 -0.4407  0.1162
  384SOL     vw 1536   0.862   5.657   5.377 -0.1992 -0.3154 -0.2995
  385SOL     ow 1537   6.516   2.067   5.020  0.0622 -0.0831  0.3478
  385SOL     hw 1538   6.572   2.076   5.097  1.0047  0.3052 -0.3652
  385SOL     hw 1539   6.576   2.049   4.948 -0.4084  2.9258 -0.9294
  385SOL     vw 1540   6.531   2.066   5.020  0.1242  0.3650  0.0851
  386SOL     ow 1541   5.201   0.968   4.402 -0.7770 -0.0886 -0.4891
  386SOL     hw 1542   5.283   0.966   4.352  0.1041  1.0046  0.8561
  386SOL     hw 1543   5.139   0.919   4.347  0.4467  0.0611 -2.0932
  386SOL     vw 1544   5.203   0.962   4.388 -0.4992  0.0754 -0.5231
  387SOL     ow 1545   2.617   2.838   2.625 -0.8228  0.2237 -0.0205
  387SOL     hw 1546   2.567   2.881   2.556 -0.2114  0.4404 -0.3437
  387SOL     hw 1547   2.622   2.746   2.599  0.2635  0.4844 -0.8072
  387SOL     vw 1548   2.611   2.832   2.612 -0.5987  0.2865 -0.1670
  388SOL     ow 1549   3.796   0.589   3.427  0.4317  0.0363 -0.5785
  388SOL     hw 1550   3.778   0.549   3.342  1.1139  1.3034 -1.3437
  388SOL     hw 1551   3.764   0.678   3.419  2.8201  0.9909 -0.4454
  388SOL     vw 1552   3.790   0.595   3.415  0.8368  0.3294 -0.6620
  389SOL     ow 1553   4.368   5.065   2.830 -0.0083  0.0584 -0.0026
  389SOL     hw 1554   4.378   4.973   2.806 -3.8451 -1.0094  1.5948
  389SOL     hw 1555   4.358   5.064   2.925 -0.2223  2.1349  0.0491
  389SOL     vw 1556   4.368   5.053   2.839 -0.5429  0.1915  0.2149
  390SOL     ow 1557   1.618   6.300   1.871  0.1448  0.0091  0.0099
  390SOL     hw 1558   1.575   6.373   1.827  0.9204  0.4040 -0.0934
  390SOL     hw 1559   1.579   6.299   1.959  0.6804  1.0207  0.2627
  390SOL     vw 1560   1.607   6.309   1.877  0.3179  0.1948  0.0297
  391SOL     ow 1561   1.100   2.836   1.255 -0.6810 -0.3165  0.4208
  391SOL     hw 1562   1.043   2.894   1.305  1.0948  0.0985  2.1029
  391SOL     hw 1563   1.074   2.850   1.164 -2.3068  0.8592  1.0049
  391SOL     vw 1564   1.089   2.846   1.250 -0.6613 -0.1068  0.7197
  392SOL     ow 1565   2.188   1.422   3.621  0.0023 -0.0650  0.6102
  392SOL     hw 1566   2.281   1.400   3.621 -0.0320 -0.2183  0.3510
  392SOL     hw 1567   2.144   1.344   3.652  0.0364  0.3874  1.8385
  392SOL     vw 1568   2.194   1.409   3.625  0.0023 -0.0255  0.7380
  393SOL     ow 1569   5.609   4.160   0.571 -0.0198  0.2586 -0.0089
  393SOL     hw 1570   5.612   4.236   0.629 -1.1723  1.1114 -1.0030
  393SOL     hw 1571   5.528   4.170   0.522  0.0459 -1.3658 -0.5349
  393SOL     vw 1572   5.599   4.171   0.572 -0.1633  0.1569 -0.2095
  394SOL     ow 1573   6.933   4.563   2.644 -0.4291  0.1034 -0.1533
  394SOL     hw 1574   6.939   4.469   2.627 -0.0731  0.1510 -0.2969
  394SOL     hw 1575   6.908   4.569   2.737  0.1526 -0.1273  0.0238
  394SOL     vw 1576   6.930   4.552   2.654 -0.3054  0.0789 -0.1489
  395SOL     ow 1577   4.389   1.221   4.904 -0.0620  0.1162 -0.3598
  395SOL     hw 1578   4.433   1.180   4.829 -1.7351  2.5968 -2.8988
  395SOL     hw 1579   4.440   1.300   4.922 -0.8260  0.5978 -0.2667
  395SOL     vw 1580   4.402   1.226   4.896 -0.3834  0.5069 -0.6826
  396SOL     ow 1581   2.338   0.423   3.431 -0.0770 -0.5135  0.5383
  396SOL     hw 1582   2.390   0.440   3.510 -0.4426  0.7269  0.5304
  396SOL     hw 1583   2.275   0.356   3.457 -0.6616  0.3980  1.5184
  396SOL     vw 1584   2.336   0.417   3.445 -0.2024 -0.2295  0.6665
  397SOL     ow 1585   4.017   4.816   6.270 -0.0118 -0.4431 -0.0449
  397SOL     hw 1586   3.945   4.840   6.328 -0.5226 -1.1048 -0.3847
  397SOL     hw 1587   4.095   4.855   6.310 -0.3060 -1.1201  1.2321
  397SOL     vw 1588   4.018   4.825   6.283 -0.1178 -0.6199  0.0787
  398SOL     ow 1589   3.376   5.981   6.004  0.0021  1.2262 -0.3541
  398SOL     hw 1590   3.405   6.054   5.949 -0.8388  0.9059 -1.2435
  398SOL     hw 1591   3.350   6.022   6.087  1.6092  1.6720 -0.0289
  398SOL     vw 1592   3.376   5.996   6.008  0.1032  1.2426 -0.4284
  399SOL     ow 1593   5.517   1.712   0.808 -0.0566  0.6225 -0.1327
  399SOL     hw 1594   5.553   1.650   0.871 -0.1273  0.8940  0.1763
  399SOL     hw 1595   5.472   1.777   0.861 -1.6061 -0.0802 -0.5288
  399SOL     vw 1596   5.516   1.712   0.823 -0.2701  0.5656 -0.1442
  400SOL     ow 1597   5.226   1.169   3.717 -0.4354  0.1639 -0.1026
  400SOL     hw 1598   5.292   1.212   3.772  0.7497  0.1531 -1.4743
  400SOL     hw 1599   5.144   1.211   3.741  0.2974  1.2602  0.5483
  400SOL     vw 1600   5.224   1.180   3.728 -0.1822  0.3071 -0.1978
  401SOL     ow 1601   0.678   4.171   6.558 -0.6542  0.0476  0.3051
  401SOL     hw 1602   0.719   4.204   6.637  1.8475  0.8946 -1.2336
  401SOL     hw 1603   0.608   4.233   6.539 -0.3167  0.6642  1.0650
  401SOL     vw 1604   0.674   4.183   6.566 -0.2796  0.2406  0.2024
  402SOL     ow 1605   2.649   0.343   4.297 -0.1088 -0.2437  0.5704
  402SOL     hw 1606   2.669   0.252   4.274  0.5312  0.1074 -0.3709
  402SOL     hw 1607   2.592   0.374   4.226  1.7448  0.8093 -0.5633
  402SOL     vw 1608   2.644   0.336   4.284  0.2203 -0.0585  0.2968
  403SOL     ow 1609   3.291   5.284   3.364 -0.3105  0.6027  0.2004
  403SOL     hw 1610   3.197   5.301   3.362 -0.4090  0.0662 -2.0433
  403SOL     hw 1611   3.331   5.371   3.362 -0.7186  0.8407  1.3790
  403SOL     vw 1612   3.284   5.298   3.363 -0.3774  0.5634  0.0598
  404SOL     ow 1613   1.828   2.631   5.436  0.0521 -0.0683 -0.5730
  404SOL     hw 1614   1.783   2.671   5.362 -0.5827  0.2090 -0.0437
  404SOL     hw 1615   1.895   2.576   5.396 -1.5080 -1.4353 -1.4272
  404SOL     vw 1616   1.831   2.629   5.421 -0.2375 -0.2120 -0.6156
  405SOL     ow 1617   5.610   5.056   5.840  0.2367  0.1228 -0.1332
  405SOL     hw 1618   5.668   5.077   5.767  0.4282  0.9341  0.2485
  405SOL     hw 1619   5.646   4.974   5.876  2.2123  1.4497  1.1453
  405SOL     vw 1620   5.623   5.048   5.835  0.5229  0.4048  0.0858
  406SOL     ow 1621   2.234   4.122   1.938  0.4949  0.1898  0.2936
  406SOL     hw 1622   2.315   4.074   1.920 -0.6859 -1.9045  0.1800
  406SOL     hw 1623   2.180   4.107   1.860 -0.7736 -0.2416  1.2248
  406SOL     vw 1624   2.238   4.114   1.925  0.1718 -0.1433  0.4015
  407SOL     ow 1625   4.856   6.647   5.009 -0.2144  0.6410 -0.3175
  407SOL     hw 1626   4.798   6.589   5.059 -0.1299 -0.1459 -1.1061
  407SOL     hw 1627   4.869   6.723   5.066 -1.0041  0.2610  0.3894
  407SOL     vw 1628   4.850   6.649   5.023 -0.3076  0.4869 -0.3283
  408SOL     ow 1629   5.270   3.784   2.122 -0.5572 -0.0029  0.0418
  408SOL     hw 1630   5.285   3.877   2.105 -0.2815  0.0065  0.3253
  408SOL     hw 1631   5.199   3.760   2.062  1.1150 -0.2346 -1.9399
  408SOL     vw 1632   5.263   3.793   2.112 -0.3002 -0.0323 -0.1824
  409SOL     ow 1633   3.123   1.746   4.226 -0.2475 -0.2727  0.3815
  409SOL     hw 1634   3.191   1.712   4.168  0.8338  0.9163  0.9129
  409SOL     hw 1635   3.153   1.724   4.314  1.0014  2.7070  0.8418
  409SOL     vw 1636   3.136   1.739   4.230  0.0600  0.2773  0.5124
  410SOL     ow 1637   5.997   1.349   1.617  0.7510  0.1945  0.3755
  410SOL     hw 1638   5.978   1.337   1.524  0.5429  0.7542  0.3410
  410SOL     hw 1639   5.972   1.266   1.658  1.5884 -0.3500 -0.1756
  410SOL     vw 1640   5.992   1.337   1.610  0.8342  0.1965  0.2982
  411SOL     ow 1641   6.934   0.395   5.233  0.4192  0.3870 -0.0472
  411SOL     hw 1642   6.944   0.484   5.200 -0.2266  0.1314 -0.9718
  411SOL     hw 1643   6.975   0.339   5.167 -0.6299 -0.1083 -0.3136
  411SOL     vw 1644   6.940   0.399   5.220  0.1957  0.2879 -0.2043
  412SOL     ow 1645   1.171   4.584   2.809  0.0157  0.0157 -0.0270
  412SOL     hw 1646   1.183   4.489   2.815 -2.9905 -0.5092 -0.5816
  412SOL     hw 1647   1.173   4.602   2.715 -0.6983  0.2503 -0.0075
  412SOL     vw 1648   1.173   4.574   2.797 -0.4751 -0.0226 -0.0976
  413SOL     ow 1649   4.378   4.531   5.559 -0.9056  0.0802 -0.0602
  413SOL     hw 1650   4.374   4.449   5.609  0.3270  0.2521  0.3523
  413SOL     hw 1651   4.292   4.538   5.518 -0.4733 -2.3779 -1.6242
  413SOL     vw 1652   4.366   4.521   5.560 -0.6862 -0.2215 -0.2122
  414SOL     ow 1653   5.278   3.754   4.213 -0.4466  0.1943 -0.5413
  414SOL     hw 1654   5.361   3.722   4.178 -1.2217 -1.3685 -1.0058
  414SOL     hw 1655   5.292   3.758   4.308  0.4850  1.0057 -0.6854
  414SOL     vw 1656   5.291   3.751   4.221 -0.4261  0.0951 -0.6216
  415SOL     ow 1657   3.079   0.876   4.722 -0.5236  0.7339 -0.2877
  415SOL     hw 1658   3.001   0.851   4.772 -0.3315 -0.4369 -0.5384
  415SOL     hw 1659   3.147   0.815   4.750 -0.3720  0.1352 -1.8399
  415SOL     vw 1660   3.078   0.865   4.732 -0.4781  0.5004 -0.5255
  416SOL     ow 1661   5.612   5.214   1.064  0.2826  0.5587  0.4596
  416SOL     hw 1662   5.575   5.142   1.014  2.0840  0.7276 -1.2506
  416SOL     hw 1663   5.571   5.207   1.150 -1.0397 -1.2952 -0.2510
  416SOL     vw 1664   5.602   5.204   1.069  0.3457  0.3366  0.1402
  417SOL     ow 1665   1.922   5.557   0.548 -0.3592 -0.0253  0.0613
  417SOL     hw 1666   1.922   5.472   0.592 -0.7783  0.0192  0.1518
  417SOL     hw 1667   2.005   5.597   0.573 -0.8944  0.2898  1.3926
  417SOL     vw 1668   1.933   5.551   0.557 -0.4851  0.0222  0.2489
  418SOL     ow 1669   2.169   2.881   4.480  0.1587 -0.3704 -0.4505
  418SOL     hw 1670   2.087   2.926   4.462 -0.4712 -0.5566  1.7202
  418SOL     hw 1671   2.224   2.947   4.523  0.7134 -0.5983 -0.7874
  418SOL     vw 1672   2.166   2.896   4.483  0.1488 -0.4251 -0.2086
  419SOL     ow 1673   4.334   2.683   6.766  0.1195  0.3816 -0.1000
  419SOL     hw 1674   4.399   2.747   6.737  0.3743 -0.4045 -1.3102
  419SOL     hw 1675   4.271   2.734   6.816  0.3881  1.5592 -0.9313
  419SOL     vw 1676   4.334   2.698   6.769  0.1884  0.4332 -0.3693
  420SOL     ow 1677   0.541   1.086   4.273 -0.0477  0.3190 -0.3423
  420SOL     hw 1678   0.549   1.140   4.194  0.1239  1.6513  0.5465
  420SOL     hw 1679   0.451   1.102   4.303 -0.7102 -1.5802 -1.2227
  420SOL     vw 1680   0.530   1.096   4.267 -0.1125  0.2442 -0.3412
  421SOL     ow 1681   5.291   3.077   3.451  0.1805 -0.4194  0.4884
  421SOL     hw 1682   5.264   3.095   3.542  0.8335  0.5437  0.5062
  421SOL     hw 1683   5.386   3.083   3.453  0.1386  1.3419 -0.5842
  421SOL     vw 1684   5.300   3.080   3.464  0.2611 -0.0600  0.3493
  422SOL     ow 1685   4.209   4.677   6.022  0.0515 -0.4782  0.3092
  422SOL     hw 1686   4.232   4.713   5.937  0.5811 -0.0691  0.6155
  422SOL     hw 1687   4.277   4.710   6.081  0.2206 -1.5195  0.7083
  422SOL     vw 1688   4.221   4.686   6.019  0.1435 -0.5615  0.4022
  423SOL     ow 1689   3.162   0.620   6.868  0.0485 -0.3089  0.2214
  423SOL     hw 1690   3.117   0.694   6.908  0.7054 -0.7268  1.8296
  423SOL     hw 1691   3.138   0.623   6.775  0.1482  1.9592  0.2286
  423SOL     vw 1692   3.153   0.630   6.861  0.1484 -0.0648  0.4344
  424SOL     ow 1693   6.162   4.953   0.394 -0.0932 -0.6227  0.3577
  424SOL     hw 1694   6.230   4.990   0.338 -0.9418 -0.1858 -0.4187
  424SOL     hw 1695   6.161   5.010   0.471 -0.5859  0.2926 -0.3021
  424SOL     vw 1696   6.171   4.966   0.396 -0.2701 -0.4447  0.1682
  425SOL     ow 1697   5.643   1.561   0.995 -0.1133  0.4822  0.5084
  425SOL     hw 1698   5.714   1.520   0.946 -0.6518  0.0638  0.0665
  425SOL     hw 1699   5.582   1.490   1.014  0.4251  0.4805  2.4637
  425SOL     vw 1700   5.644   1.546   0.991 -0.1135  0.4268  0.7081
  426SOL     ow 1701   0.646   0.411   6.117  0.2469  0.2295 -0.1428
  426SOL     hw 1702   0.616   0.325   6.087  0.0281  0.0583  0.5488
  426SOL     hw 1703   0.631   0.469   6.042  0.8362 -0.4182 -0.7847
  426SOL     vw 1704   0.640   0.407   6.103  0.2958  0.1214 -0.1361
  427SOL     ow 1705   4.013   3.197   5.901 -0.5730 -0.8023 -0.5264
  427SOL     hw 1706   3.985   3.141   5.829  0.9368 -0.2075 -1.6386
  427SOL     hw 1707   4.044   3.136   5.969 -2.3633 -1.3750 -0.1891
  427SOL     vw 1708   4.014   3.182   5.901 -0.6101 -0.7994 -0.6287
  428SOL     ow 1709   4.844   5.885   5.987  0.1993 -0.2488  0.7019
  428SOL     hw 1710   4.841   5.961   5.929 -0.7061 -1.0703 -0.3531
  428SOL     hw 1711   4.936   5.880   6.015  0.6774  0.1428 -0.7142
  428SOL     vw 1712   4.856   5.894   5.983  0.1428 -0.3052  0.3760
  429SOL     ow 1713   3.616   5.988   5.672  0.1303  0.3182 -0.5198
  429SOL     hw 1714   3.555   6.058   5.691  0.9431  1.0472 -0.5232
  429SOL     hw 1715   3.589   5.955   5.586 -0.4449  0.4206 -0.3774
  429SOL     vw 1716   3.604   5.993   5.663  0.1616  0.4280 -0.5016
  430SOL     ow 1717   0.160   0.742   1.907 -0.4606 -0.5725 -0.0775
  430SOL     hw 1718   0.066   0.757   1.896 -1.0153 -3.8164 -0.6380
  430SOL     hw 1719   0.166   0.671   1.971  1.6060 -0.6932 -0.3287
  430SOL     vw 1720   0.149   0.735   1.914 -0.2611 -1.0164 -0.1846
  431SOL     ow 1721   1.864   4.298   5.097  0.3112 -0.7333  0.3562
  431SOL     hw 1722   1.873   4.204   5.110  1.8903 -0.4538  1.5222
  431SOL     hw 1723   1.953   4.330   5.084 -0.2292  0.5698 -0.4779
  431SOL     vw 1724   1.877   4.290   5.097  0.4483 -0.5248  0.3998
  432SOL     ow 1725   2.631   5.092   1.363  0.1539 -0.6766 -0.4931
  432SOL     hw 1726   2.561   5.081   1.298  1.0086 -0.2411 -1.5243
  432SOL     hw 1727   2.652   5.185   1.360  0.8677 -0.8270 -0.3025
  432SOL     vw 1728   2.624   5.102   1.354  0.3608 -0.6390 -0.6040
  433SOL     ow 1729   2.484   5.054   6.826  0.0679  0.5092 -0.4012
  433SOL     hw 1730   2.494   5.128   6.766 -1.1783  0.8906 -0.1722
  433SOL     hw 1731   2.573   5.037   6.858  0.4698  1.4929 -0.9404
  433SOL     vw 1732   2.497   5.062   6.822 -0.0435  0.6895 -0.4423
  434SOL     ow 1733   1.061   4.731   0.875 -0.3900  0.5037 -0.2092
  434SOL     hw 1734   1.137   4.714   0.930  0.4788  0.2412 -1.4502
  434SOL     hw 1735   1.035   4.645   0.843 -1.4104  0.5539  0.4241
  434SOL     vw 1736   1.067   4.718   0.878 -0.4101  0.4756 -0.2894
  435SOL     ow 1737   5.418   4.419   4.175  0.0576 -0.7887  0.2352
  435SOL     hw 1738   5.429   4.434   4.081  1.7252  0.8000  0.6336
  435SOL     hw 1739   5.399   4.326   4.182  0.9616 -1.1575 -1.6106
  435SOL     vw 1740   5.417   4.409   4.163  0.3967 -0.6275  0.0443
  436SOL     ow 1741   6.109   5.839   1.186 -0.6153  0.1574 -0.5398
  436SOL     hw 1742   6.114   5.775   1.257 -0.3806  1.6465  0.8500
  436SOL     hw 1743   6.019   5.872   1.190 -0.5899  0.2775 -0.9124
  436SOL     vw 1744   6.098   5.835   1.196 -0.5810  0.3698 -0.4056
  437SOL     ow 1745   3.256   0.506   0.071 -0.0445 -0.4068  0.2600
  437SOL     hw 1746   3.178   0.498   0.126 -0.4823 -0.0227 -0.2813
  437SOL     hw 1747   3.221   0.535  -0.014  0.7214  0.0537  0.0987
  437SOL     vw 1748   3.241   0.509   0.067 -0.0011 -0.2953  0.1673
  438SOL     ow 1749   1.777   0.262   5.977 -0.1056 -0.2988 -0.2385
  438SOL     hw 1750   1.723   0.331   5.940  0.3511  0.4465  0.4424
  438SOL     hw 1751   1.747   0.182   5.934 -0.7156  0.3027 -0.9630
  438SOL     vw 1752   1.766   0.261   5.967 -0.1258 -0.1211 -0.2444
  439SOL     ow 1753   3.767   6.248   2.688  0.2656  0.2562 -0.4692
  439SOL     hw 1754   3.794   6.294   2.608 -1.0898 -0.3484 -1.3017
  439SOL     hw 1755   3.742   6.318   2.748  1.7273  0.7396 -0.3696
  439SOL     vw 1756   3.767   6.264   2.685  0.2797  0.2403 -0.5660
  440SOL     ow 1757   2.091   4.749   4.147  0.2369 -0.7330 -0.0050
  440SOL     hw 1758   2.041   4.730   4.068  0.2232 -0.4739 -0.0594
  440SOL     hw 1759   2.180   4.768   4.116 -0.2234  1.4102 -0.1731
  440SOL     vw 1760   2.096   4.749   4.133  0.1742 -0.4163 -0.0346
  441SOL     ow 1761   6.173   0.284   1.442 -0.2305 -0.0778  0.0720
  441SOL     hw 1762   6.195   0.197   1.473 -0.4914 -0.1081  0.1759
  441SOL     hw 1763   6.116   0.270   1.366 -0.3424  0.0025  0.1404
  441SOL     vw 1764   6.168   0.271   1.436 -0.2797 -0.0712  0.0947
  442SOL     ow 1765   0.978   3.356   1.839  0.0123 -0.3059  0.1446
  442SOL     hw 1766   1.058   3.399   1.872  0.5751 -1.1078 -0.1333
  442SOL     hw 1767   0.980   3.373   1.745  0.8188 -1.8097 -0.1420
  442SOL     vw 1768   0.989   3.364   1.831  0.1930 -0.6102  0.0702
  443SOL     ow 1769   1.180   3.124   6.064  0.1165 -0.5582  0.3358
  443SOL     hw 1770   1.133   3.185   6.121 -0.5354 -0.2265 -0.5449
  443SOL     hw 1771   1.231   3.180   6.006  0.0665 -0.8727 -0.0137
  443SOL     vw 1772   1.181   3.140   6.064  0.0238 -0.5559  0.1736
  444SOL     ow 1773   5.076   6.253   0.757 -0.1452  0.1100  0.0376
  444SOL     hw 1774   5.119   6.193   0.696  2.3897 -0.9557  2.6717
  444SOL     hw 1775   5.003   6.203   0.793  0.3256 -0.4565  0.2254
  444SOL     vw 1776   5.072   6.239   0.754  0.2515 -0.1054  0.4099
  445SOL     ow 1777   1.727   1.446   4.620 -0.2874  0.1823  0.1184
  445SOL     hw 1778   1.813   1.450   4.662 -0.3050 -0.3374  0.1988
  445SOL     hw 1779   1.669   1.492   4.680 -0.1622  0.1073  0.2963
  445SOL     vw 1780   1.731   1.453   4.633 -0.2733  0.1038  0.1526
  446SOL     ow 1781   4.433   0.634   3.224  0.0782 -0.1293  0.2771
  446SOL     hw 1782   4.511   0.629   3.170 -0.0745  0.1580  0.0235
  446SOL     hw 1783   4.465   0.650   3.312  0.4518 -2.5117  0.6509
  446SOL     vw 1784   4.447   0.635   3.228  0.1073 -0.4057  0.2929
  447SOL     ow 1785   2.214   4.680   4.435  0.0254  0.5649 -0.1640
  447SOL     hw 1786   2.285   4.736   4.401  0.7664  0.6212  1.3734
  447SOL     hw 1787   2.259   4.601   4.465 -0.5164  0.7341  1.1250
  447SOL     vw 1788   2.230   4.677   4.434  0.0517  0.5949  0.2086
  448SOL     ow 1789   5.522   3.654   2.349 -0.3803  0.4934 -0.1878
  448SOL     hw 1790   5.597   3.675   2.405 -0.1650 -2.1214  0.6797
  448SOL     hw 1791   5.536   3.563   2.324 -1.4827  0.9969 -3.0056
  448SOL     vw 1792   5.534   3.645   2.353 -0.4971  0.2148 -0.4451
  449SOL     ow 1793   4.764   0.322   5.351  0.1467  0.0327  0.2606
  449SOL     hw 1794   4.833   0.263   5.322  0.9960  0.3932  1.4372
  449SOL     hw 1795   4.808   0.380   5.414 -0.9514  1.0875  0.0826
  449SOL     vw 1796   4.779   0.322   5.356  0.1135  0.2194  0.3922
  450SOL     ow 1797   6.887   4.580   4.753 -0.1844 -0.1762  0.4019
  450SOL     hw 1798   6.934   4.586   4.669 -1.5297 -0.0549 -0.3808
  450SOL     hw 1799   6.914   4.657   4.802 -0.6087  0.6344 -0.6026
  450SOL     vw 1800   6.896   4.591   4.748 -0.4177 -0.0529  0.1662
  451SOL     ow 1801   4.418   3.559   1.928  0.1697  0.4987  0.2646
  451SOL     hw 1802   4.383   3.470   1.942  1.4192  0.0482  0.6262
  451SOL     hw 1803   4.506   3.545   1.893  0.6365  1.5996  0.9523
  451SOL     vw 1804   4.425   3.545   1.925  0.3960  0.5846  0.4030
  452SOL     ow 1805   0.436   5.209   2.938 -0.6162  0.6346 -0.6822
  452SOL     hw 1806   0.368   5.231   2.874  0.4269  1.8113 -1.4631
  452SOL     hw 1807   0.405   5.130   2.982 -2.3241  0.9805 -1.2174
  452SOL     vw 1808   0.423   5.202   2.935 -0.7039  0.8357 -0.8558
  453SOL     ow 1809   1.371   6.378   3.422  0.4202 -0.0019  0.0060
  453SOL     hw 1810   1.355   6.291   3.385  0.7513 -0.3573  0.6825
  453SOL     hw 1811   1.343   6.438   3.354  0.5943 -0.6417 -0.6463
  453SOL     vw 1812   1.365   6.374   3.408  0.4869 -0.1333  0.0092
  454SOL     ow 1813   0.435   3.963   0.793  0.2030  0.4892  0.5516
  454SOL     hw 1814   0.468   3.993   0.709 -0.5557  0.0802  0.0994
  454SOL     hw 1815   0.354   4.012   0.806  0.8881  1.4127  1.6060
  454SOL     vw 1816   0.429   3.974   0.784  0.1933  0.5569  0.6311
  455SOL     ow 1817   6.015   0.846   2.859  0.1945 -0.0036 -0.0758
  455SOL     hw 1818   5.998   0.939   2.873  0.7864 -0.1300  1.7420
  455SOL     hw 1819   6.047   0.814   2.943  1.1166 -1.6093 -0.9752
  455SOL     vw 1820   6.017   0.854   2.872  0.3943 -0.2321  0.0453
  456SOL     ow 1821   6.754   2.159   2.975 -0.7383 -0.7339  0.2001
  456SOL     hw 1822   6.837   2.141   2.930 -0.9607 -0.6245 -0.2588
  456SOL     hw 1823   6.687   2.139   2.910 -1.0296  0.5699  0.0828
  456SOL     vw 1824   6.756   2.154   2.961 -0.8061 -0.5474  0.1240
  457SOL     ow 1825   6.232   2.814   1.006  0.2561  0.0081 -0.4300
  457SOL     hw 1826   6.302   2.842   0.947  0.8076 -2.2594 -0.9447
  457SOL     hw 1827   6.158   2.870   0.983  1.3307  1.1669 -1.2002
  457SOL     vw 1828   6.232   2.825   0.995  0.4706 -0.1382 -0.5996
  458SOL     ow 1829   1.047   4.623   4.666  0.2433 -0.3247 -0.1244
  458SOL     hw 1830   1.080   4.666   4.745  0.6700 -2.9330  1.2314
  458SOL     hw 1831   1.121   4.621   4.606  0.4513  0.0699  0.1216
  458SOL     vw 1832   1.061   4.629   4.669  0.3270 -0.6168  0.0868
  459SOL     ow 1833   0.453   5.867   4.785 -0.2981 -0.0419 -0.1244
  459SOL     hw 1834   0.406   5.897   4.863  2.6383 -0.2085  1.8959
  459SOL     hw 1835   0.443   5.938   4.722 -1.4961  0.7915  0.9368
  459SOL     vw 1836   0.445   5.880   4.787 -0.0687  0.0460  0.2818
  460SOL     ow 1837   4.838   6.171   5.055  0.3111 -0.8450 -0.4434
  460SOL     hw 1838   4.815   6.184   5.147 -1.4896 -0.0417 -0.9694
  460SOL     hw 1839   4.838   6.259   5.017 -0.8570 -1.3003 -1.5968
  460SOL     vw 1840   4.835   6.184   5.062 -0.0811 -0.7992 -0.6649
  461SOL     ow 1841   3.886   6.027   4.166  0.0434 -0.1648  0.3408
  461SOL     hw 1842   3.831   6.049   4.241  0.8958  2.1846  0.3777
  461SOL     hw 1843   3.913   6.112   4.131  0.6017 -1.2035 -1.9480
  461SOL     vw 1844   3.882   6.041   4.171  0.2295  0.0079  0.0434
  462SOL     ow 1845   1.080   5.216   6.266 -0.2908  0.2244 -0.2698
  462SOL     hw 1846   1.091   5.193   6.358  2.0127 -2.8008 -1.1404
  462SOL     hw 1847   0.994   5.182   6.243 -0.6761  0.5631  0.5994
  462SOL     vw 1848   1.070   5.209   6.275 -0.0377 -0.1302 -0.2701
  463SOL     ow 1849   0.022   3.601   6.023  0.1586 -0.0532  0.2404
  463SOL     hw 1850   0.106   3.560   6.001 -1.0490 -1.1511 -3.0311
  463SOL     hw 1851   0.029   3.690   5.987  0.9642  1.0607  2.8795
  463SOL     vw 1852   0.034   3.607   6.015  0.1056 -0.0511  0.1571
  464SOL     ow 1853   0.580   2.232   0.644 -0.5367  0.1637  0.4356
  464SOL     hw 1854   0.616   2.160   0.592  2.0890  2.2741 -0.9413
  464SOL     hw 1855   0.643   2.243   0.715 -2.0051 -0.1422  1.8316
  464SOL     vw 1856   0.593   2.224   0.646 -0.3841  0.4019  0.4381
  465SOL     ow 1857   2.337   5.676   3.738  0.2785 -0.2438 -0.0250
  465SOL     hw 1858   2.269   5.694   3.672  0.7602  3.5262  0.3281
  465SOL     hw 1859   2.292   5.687   3.822  0.9370  0.6069  0.2217
  465SOL     vw 1860   2.322   5.680   3.740  0.4290  0.3657  0.0542
  466SOL     ow 1861   4.756   2.730   2.004 -0.4533 -0.5165  0.0865
  466SOL     hw 1862   4.727   2.820   2.018  1.7841  0.4119 -0.8800
  466SOL     hw 1863   4.750   2.717   1.909 -0.4133 -1.2869  0.1789
  466SOL     vw 1864   4.751   2.740   1.993 -0.1531 -0.4958 -0.0288
  467SOL     ow 1865   2.499   4.756   0.672  0.3007 -0.2106  0.2044
  467SOL     hw 1866   2.494   4.662   0.652  1.2837 -0.2200 -0.0327
  467SOL     hw 1867   2.538   4.795   0.594 -1.8911  0.7065 -0.5059
  467SOL     vw 1868   2.504   4.749   0.659  0.1413 -0.0906  0.0794
  468SOL     ow 1869   4.001   6.972   5.116  0.2121  0.4449  0.0405
  468SOL     hw 1870   4.072   7.025   5.150 -0.3443  0.5192  1.1329
  468SOL     hw 1871   3.927   6.989   5.175  0.3556 -2.4804  1.2378
  468SOL     vw 1872   4.000   6.981   5.128  0.1578  0.0687  0.3428
  469SOL     ow 1873   1.723   5.202   3.220 -0.1869 -0.5426 -0.7888
  469SOL     hw 1874   1.668   5.183   3.144 -3.5220 -0.1908  1.3130
  469SOL     hw 1875   1.748   5.116   3.253 -1.0633 -0.7857 -0.7370
  469SOL     vw 1876   1.719   5.188   3.214 -0.7426 -0.5281 -0.5046
  470SOL     ow 1877   2.465   5.047   4.684  0.4988  0.8067 -0.5951
  470SOL     hw 1878   2.412   5.122   4.658 -0.9436 -0.5750 -1.9205
  470SOL     hw 1879   2.530   5.038   4.614  1.5566  1.5928  0.2561
  470SOL     vw 1880   2.466   5.055   4.671  0.4481  0.7284 -0.6578
  471SOL     ow 1881   0.703   3.124   1.358 -0.3377 -0.0229 -0.4928
  471SOL     hw 1882   0.795   3.099   1.369 -0.7517 -1.3571  0.0917
  471SOL     hw 1883   0.697   3.209   1.401  0.4724 -0.2643  0.1311
  471SOL     vw 1884   0.714   3.132   1.365 -0.2855 -0.2309 -0.3333
  472SOL     ow 1885   4.276   5.686   4.389 -0.1484 -0.0316  0.3501
  472SOL     hw 1886   4.250   5.644   4.307 -2.0934  1.7188 -0.0238
  472SOL     hw 1887   4.347   5.631   4.423 -0.7777 -2.0585 -1.3818
  472SOL     vw 1888   4.282   5.673   4.383 -0.4883 -0.0684  0.0725
  473SOL     ow 1889   1.958   4.904   6.370  0.4746  0.3069 -0.0740
  473SOL     hw 1890   1.932   4.934   6.283 -1.3561 -2.1442 -0.4860
  473SOL     hw 1891   1.903   4.955   6.430 -1.7890 -1.2602 -0.6852
  473SOL     vw 1892   1.947   4.915   6.366 -0.0657 -0.2234 -0.2091
  474SOL     ow 1893   5.065   0.781   1.370  0.2868 -0.2338 -0.2073
  474SOL     hw 1894   5.002   0.737   1.427 -0.5996  1.5003  0.2253
  474SOL     hw 1895   5.145   0.786   1.422 -0.1666  0.3161  0.4418
  474SOL     vw 1896   5.067   0.776   1.384  0.1101  0.0676 -0.0646
  475SOL     ow 1897   0.125   1.701   0.135  0.2654 -0.3312  0.0743
  475SOL     hw 1898   0.139   1.794   0.153  1.2470 -0.6429  0.9879
  475SOL     hw 1899   0.074   1.669   0.209 -1.2696 -0.2598 -0.8964
  475SOL     vw 1900   0.120   1.709   0.147  0.1924 -0.3629  0.0668
  476SOL     ow 1901   1.752   4.143   3.008  0.4855  0.0744  0.0830
  476SOL     hw 1902   1.839   4.120   3.040  1.0544  2.1218  0.1329
  476SOL     hw 1903   1.707   4.182   3.083  0.0266  0.3280 -0.3156
  476SOL     vw 1904   1.757   4.145   3.022  0.5000  0.3779  0.0371
  477SOL     ow 1905   5.925   6.644   5.074 -0.3174  0.1249  0.3399
  477SOL     hw 1906   5.903   6.619   4.984 -0.0398  1.7017 -0.1967
  477SOL     hw 1907   5.911   6.564   5.125 -0.2522 -0.8620 -1.1321
  477SOL     vw 1908   5.920   6.630   5.069 -0.2718  0.2027  0.0751
  478SOL     ow 1909   0.343   4.741   3.477  0.1656 -0.1513  0.1064
  478SOL     hw 1910   0.361   4.653   3.445  0.2818 -0.7202  1.6429
  478SOL     hw 1911   0.276   4.729   3.545  0.3058  0.9153  0.4596
  478SOL     vw 1912   0.336   4.728   3.482  0.1995 -0.0854  0.3557
  479SOL     ow 1913   6.860   3.281   5.062  0.7400 -0.0032 -0.0219
  479SOL     hw 1914   6.836   3.311   4.974 -1.8355 -0.4466  0.4408
  479SOL     hw 1915   6.955   3.286   5.064  0.7384  2.8420 -1.8187
  479SOL     vw 1916   6.869   3.286   5.051  0.4001  0.3136 -0.1979
  480SOL     ow 1917   6.205   0.256   3.835  0.3209 -0.0934  0.2530
  480SOL     hw 1918   6.208   0.161   3.841  0.7559 -0.0314  1.1671
  480SOL     hw 1919   6.223   0.287   3.924 -0.4015  0.8331  0.1018
  480SOL     vw 1920   6.208   0.248   3.848  0.2832  0.0371  0.3537
  481SOL     ow 1921   1.163   4.948   6.201  0.4086  0.1027  0.4115
  481SOL     hw 1922   1.154   5.042   6.220  1.8533  0.3870 -0.1280
  481SOL     hw 1923   1.078   4.910   6.222  0.0779  1.3912  1.5103
  481SOL     vw 1924   1.151   4.956   6.206  0.5556  0.3104  0.4849
  482SOL     ow 1925   0.057   4.284   0.209 -0.6344  0.1555  0.8533
  482SOL     hw 1926   0.025   4.220   0.146 -1.6603  1.8136 -0.4204
  482SOL     hw 1927   0.148   4.259   0.225  0.0375  0.2615 -2.1561
  482SOL     vw 1928   0.064   4.272   0.203 -0.6811  0.3886  0.2882
  483SOL     ow 1929   0.550   0.742   2.697  0.0593 -0.1505  0.1840
  483SOL     hw 1930   0.564   0.652   2.727 -2.4047 -0.2728  1.1686
  483SOL     hw 1931   0.540   0.734   2.603  0.9218 -0.7268  0.1225
  483SOL     vw 1932   0.551   0.729   2.689 -0.1520 -0.2427  0.3059
  484SOL     ow 1933   2.262   0.031   0.181  0.4141  0.1975 -0.0370
  484SOL     hw 1934   2.184   0.076   0.213  1.9156  1.7367  1.6546
  484SOL     hw 1935   2.306   0.095   0.125  0.3798 -0.7503 -1.2015
  484SOL     vw 1936   2.258   0.045   0.178  0.6076  0.2755  0.0326
  485SOL     ow 1937   1.023   1.447   1.074 -0.8376  0.0937  0.2056
  485SOL     hw 1938   0.977   1.524   1.041  0.0230  0.1401 -0.9235
  485SOL     hw 1939   0.957   1.401   1.127 -1.6856  1.0067 -0.0216
  485SOL     vw 1940   1.008   1.451   1.077 -0.8359  0.2203  0.0266
  486SOL     ow 1941   6.621   6.443   6.064  0.1054 -0.4886 -0.3340
  486SOL     hw 1942   6.583   6.362   6.098  0.6549 -0.7509 -0.3426
  486SOL     hw 1943   6.574   6.458   5.981  0.1047 -0.8749 -0.4055
  486SOL     vw 1944   6.610   6.434   6.057  0.1779 -0.5744 -0.3445
  487SOL     ow 1945   1.790   5.629   5.758 -0.5393 -0.2479  0.4778
  487SOL     hw 1946   1.869   5.603   5.807 -0.4471  1.9010  1.6089
  487SOL     hw 1947   1.824   5.670   5.679 -0.4021  1.5171  1.3909
  487SOL     vw 1948   1.805   5.631   5.754 -0.5091  0.2682  0.7474
  488SOL     ow 1949   5.980   4.423   5.749  0.3713  0.4997 -0.2425
  488SOL     hw 1950   6.012   4.435   5.660 -0.5400  2.0426 -0.3973
  488SOL     hw 1951   6.024   4.491   5.800  0.2131  0.2037  0.2923
  488SOL     vw 1952   5.990   4.434   5.744  0.2298  0.6640 -0.1926
  489SOL     ow 1953   0.292   2.179   3.772 -0.5017 -0.4517  0.1681
  489SOL     hw 1954   0.376   2.220   3.752 -1.1184  0.3876 -0.7993
  489SOL     hw 1955   0.235   2.204   3.699 -1.7017 -0.7036  0.9943
  489SOL     vw 1956   0.296   2.187   3.760 -0.7414 -0.3743  0.1495
  490SOL     ow 1957   0.923   0.720   6.760 -0.1708  0.2710  0.2620
  490SOL     hw 1958   0.832   0.742   6.740 -0.6222 -0.6017  1.2630
  490SOL     hw 1959   0.974   0.776   6.702 -1.3546 -2.3282 -3.7232
  490SOL     vw 1960   0.918   0.730   6.749 -0.3865 -0.1871 -0.1318
  491SOL     ow 1961   6.308   6.082   4.084 -0.2731 -0.2061 -0.4948
  491SOL     hw 1962   6.349   6.168   4.072 -0.6831 -0.0865 -1.0946
  491SOL     hw 1963   6.215   6.098   4.071 -0.4983 -0.5247  0.5927
  491SOL     vw 1964   6.301   6.096   4.081 -0.3567 -0.2322 -0.4301
  492SOL     ow 1965   4.544   6.929   5.854  0.5978 -0.2061  0.1763
  492SOL     hw 1966   4.453   6.948   5.831  0.5202 -0.0467  0.5982
  492SOL     hw 1967   4.545   6.934   5.950  1.0671 -0.1396  0.1672
  492SOL     vw 1968   4.532   6.932   5.864  0.6495 -0.1760  0.2306
  493SOL     ow 1969   3.540   4.993   1.646  0.0993  0.2287 -0.3014
  493SOL     hw 1970   3.546   4.937   1.569 -0.9164  0.2403 -0.3984
  493SOL     hw 1971   3.456   5.037   1.637 -1.9132 -2.5836  2.7026
  493SOL     vw 1972   3.530   4.991   1.634 -0.3002 -0.1407  0.0822
  494SOL     ow 1973   2.755   1.869   0.791  0.0419  0.1639 -0.2103
  494SOL     hw 1974   2.829   1.811   0.772  0.4705  0.8889 -0.7928
  494SOL     hw 1975   2.679   1.811   0.789  0.7851 -1.0929  2.8484
  494SOL     vw 1976   2.755   1.853   0.788  0.1965  0.0938  0.1164
  495SOL     ow 1977   6.757   5.885   4.266  0.1781 -0.0575  0.0298
  495SOL     hw 1978   6.709   5.805   4.244 -0.2018  0.4668 -1.1091
  495SOL     hw 1979   6.759   5.886   4.362 -0.4264 -1.0663  0.0649
  495SOL     vw 1980   6.751   5.874   4.276  0.0482 -0.1214 -0.1159
  496SOL     ow 1981   3.897   3.980   3.104  0.1893 -0.3451  0.1474
  496SOL     hw 1982   3.809   3.944   3.116 -0.0705  0.8029  2.0500
  496SOL     hw 1983   3.914   4.031   3.183  1.1833  2.3820 -1.6689
  496SOL     vw 1984   3.888   3.982   3.116  0.2862  0.1661  0.1588
  497SOL     ow 1985   4.032   6.344   6.798 -0.1280 -0.6359  0.5058
  497SOL     hw 1986   4.023   6.437   6.779 -0.4405 -0.9922 -1.2170
  497SOL     hw 1987   3.957   6.323   6.854 -1.0420 -0.2054 -0.5308
  497SOL     vw 1988   4.021   6.354   6.803 -0.2899 -0.6263  0.1419
  498SOL     ow 1989   0.112   3.422   2.347  0.0961 -0.0292  0.2304
  498SOL     hw 1990   0.084   3.378   2.267  0.9867 -0.5267  0.1723
  498SOL     hw 1991   0.199   3.457   2.326 -0.9753  2.6756 -0.0509
  498SOL     vw 1992   0.120   3.421   2.334  0.0722  0.2621  0.1856
  499SOL     ow 1993   6.275   3.674   6.835  0.0406  0.0810  0.2209
  499SOL     hw 1994   6.289   3.759   6.794 -0.7396  0.3575  0.4984
  499SOL     hw 1995   6.334   3.674   6.911 -2.5451  1.9765  2.4396
  499SOL     vw 1996   6.285   3.685   6.840 -0.4036  0.3675  0.5500
  500SOL     ow 1997   4.522   4.683   5.777 -0.3569  0.0434  0.3382
  500SOL     hw 1998   4.589   4.704   5.842 -1.9643 -0.0478  2.1180
  500SOL     hw 1999   4.439   4.708   5.819 -1.4274  0.5387 -1.9396
  500SOL     vw 2000   4.520   4.689   5.791 -0.7100  0.0968  0.2723
  501SOL     ow 2001   5.425   0.149   5.995 -0.1411 -0.2992  0.0359
  501SOL     hw 2002   5.478   0.156   6.075  0.2618  3.4078 -0.3634
  501SOL     hw 2003   5.336   0.133   6.026  0.4019 -1.5308  1.0370
  501SOL     vw 2004   5.420   0.148   6.010 -0.0165  0.0274  0.1154
  502SOL     ow 2005   6.398   0.795   5.498 -0.2247  0.2443 -0.1057
  502SOL     hw 2006   6.429   0.760   5.582 -0.9054  0.8519  0.4112
  502SOL     hw 2007   6.333   0.861   5.522  0.6785  1.5371 -1.0611
  502SOL     vw 2008   6.393   0.799   5.512 -0.1955  0.4950 -0.1636
  503SOL     ow 2009   5.405   1.088   5.468  0.2547 -0.4000 -0.1381
  503SOL     hw 2010   5.450   1.086   5.553  1.8990  0.3056 -0.9403
  503SOL     hw 2011   5.328   1.033   5.480  0.5897 -0.5239  1.7327
  503SOL     vw 2012   5.401   1.081   5.481  0.5157 -0.3232  0.0031
  504SOL     ow 2013   3.811   3.316   1.904 -0.7053  0.0576 -0.2349
  504SOL     hw 2014   3.887   3.373   1.897 -0.1026 -0.8615 -1.6687
  504SOL     hw 2015   3.843   3.237   1.947 -0.9729 -0.1332 -0.3812
  504SOL     vw 2016   3.825   3.313   1.909 -0.6611 -0.0889 -0.4433
  505SOL     ow 2017   1.358   5.615   6.529 -0.3480  0.3619  0.1362
  505SOL     hw 2018   1.283   5.674   6.530 -3.0089 -2.7344  0.4460
  505SOL     hw 2019   1.350   5.565   6.611  1.0771 -1.1386 -0.5775
  505SOL     vw 2020   1.347   5.616   6.540 -0.5111 -0.2441  0.0830
  506SOL     ow 2021   2.143   5.909   1.864 -0.5699 -0.1038  0.3480
  506SOL     hw 2022   2.181   5.888   1.778 -0.2628 -0.2286  0.5103
  506SOL     hw 2023   2.085   5.835   1.882  0.0073 -0.5021  0.6211
  506SOL     vw 2024   2.141   5.896   1.855 -0.4534 -0.1729  0.4055
  507SOL     ow 2025   5.852   6.549   4.834  0.0617  0.6490 -0.3047
  507SOL     hw 2026   5.785   6.481   4.847  0.5240  0.4000  0.9438
  507SOL     hw 2027   5.808   6.617   4.783 -0.9157  0.1524 -0.1468
  507SOL     vw 2028   5.837   6.549   4.829 -0.0064  0.5505 -0.1192
  508SOL     ow 2029   6.805   6.450   0.972 -0.3865 -0.6878  0.3721
  508SOL     hw 2030   6.818   6.449   1.067 -0.5105 -3.3005  0.4510
  508SOL     hw 2031   6.873   6.390   0.939  0.1334  0.7497 -1.2890
  508SOL     vw 2032   6.816   6.442   0.980 -0.3343 -0.8430  0.1633
  509SOL     ow 2033   2.975   2.346   1.617 -0.4775 -0.2882 -0.3020
  509SOL     hw 2034   2.992   2.266   1.667 -0.6997  0.1008  0.4102
  509SOL     hw 2035   2.998   2.323   1.527 -0.2112 -1.0473 -0.0508
  509SOL     vw 2036   2.980   2.332   1.612 -0.4716 -0.3370 -0.1749
  510SOL     ow 2037   3.517   6.880   6.399 -0.2321 -0.0809  0.4293
  510SOL     hw 2038   3.532   6.958   6.452 -1.6851  0.8731 -0.5292
  510SOL     hw 2039   3.432   6.848   6.428 -0.0528 -0.8051  0.1691
  510SOL     vw 2040   3.508   6.886   6.410 -0.4003 -0.0505  0.2685
  511SOL     ow 2041   1.755   5.470   2.789  0.2366 -0.0130  0.3483
  511SOL     hw 2042   1.788   5.380   2.788 -1.1631 -0.5758 -1.0753
  511SOL     hw 2043   1.828   5.523   2.758 -0.0482 -1.2405 -2.8894
  511SOL     vw 2044   1.769   5.465   2.785  0.0144 -0.2489 -0.2668
  512SOL     ow 2045   4.236   3.056   5.142  0.1730  0.3108  0.0778
  512SOL     hw 2046   4.317   3.084   5.185  1.2358 -3.2126  0.7233
  512SOL     hw 2047   4.265   3.025   5.056 -1.0333  1.7180 -0.8931
  512SOL     vw 2048   4.250   3.056   5.136  0.1538  0.0314  0.0350
  513SOL     ow 2049   0.205   2.143   4.131  0.0468  0.3306 -0.0190
  513SOL     hw 2050   0.229   2.091   4.208  1.4208  0.7645 -0.1274
  513SOL     hw 2051   0.207   2.080   4.058  0.0476  0.1982  0.0948
  513SOL     vw 2052   0.208   2.128   4.131  0.2282  0.3704 -0.0184
  514SOL     ow 2053   6.746   2.021   1.341 -0.4744  0.2573  0.0447
  514SOL     hw 2054   6.793   2.103   1.326  0.0069 -0.1229 -0.5581
  514SOL     hw 2055   6.753   1.974   1.259  1.7784 -1.6623  1.2039
  514SOL     vw 2056   6.753   2.026   1.329 -0.1137 -0.0460  0.1181
  515SOL     ow 2057   4.264   6.919   0.348 -0.3609  0.0815 -0.1241
  515SOL     hw 2058   4.320   6.993   0.368  0.6540 -0.4491 -0.8886
  515SOL     hw 2059   4.277   6.904   0.254 -0.8401 -0.8090 -0.0590
  515SOL     vw 2060   4.273   6.927   0.338 -0.2902 -0.1061 -0.2164
  516SOL     ow 2061   6.363   6.547   6.631  0.7384 -0.1844 -0.0108
  516SOL     hw 2062   6.278   6.505   6.623  0.9458 -1.0164  1.7760
  516SOL     hw 2063   6.424   6.488   6.586  0.2492  1.0061 -2.3574
  516SOL     vw 2064   6.360   6.534   6.624  0.7010 -0.1371 -0.0846
  517SOL     ow 2065   5.904   6.367   2.982 -0.4211  0.2584 -0.0780
  517SOL     hw 2066   5.901   6.457   2.949 -1.0755 -0.0495 -0.8668
  517SOL     hw 2067   5.952   6.374   3.065 -1.6224  1.5428  0.5396
  517SOL     vw 2068   5.910   6.380   2.989 -0.6661  0.3872 -0.1006
  518SOL     ow 2069   4.848   4.136   1.393 -0.1246  0.1952  0.3647
  518SOL     hw 2070   4.907   4.142   1.317  1.0810  1.2035  1.3323
  518SOL     hw 2071   4.845   4.043   1.414  0.2861  0.0151 -0.3303
  518SOL     vw 2072   4.855   4.125   1.386  0.0889  0.3047  0.4006
  519SOL     ow 2073   1.665   5.899   4.121 -0.4958  0.2263  0.3523
  519SOL     hw 2074   1.675   5.960   4.048 -0.9293 -0.7327 -0.5410
  519SOL     hw 2075   1.618   5.948   4.188  1.8250  1.8523  0.9102
  519SOL     vw 2076   1.660   5.913   4.120 -0.2468  0.3142  0.3078
  520SOL     ow 2077   3.074   5.145   4.155 -0.3149 -0.0881  0.0510
  520SOL     hw 2078   2.984   5.117   4.137  0.5267 -3.4649  0.3592
  520SOL     hw 2079   3.114   5.155   4.068 -0.6726  0.1493 -0.0844
  520SOL     vw 2080   3.068   5.142   4.141 -0.2511 -0.5023  0.0739
  521SOL     ow 2081   5.708   6.988   2.885 -0.3130  0.4782  0.1452
  521SOL     hw 2082   5.791   6.989   2.837 -2.2278 -0.1277 -3.5950
  521SOL     hw 2083   5.728   6.945   2.968  3.0379  0.1854 -0.6642
  521SOL     vw 2084   5.722   6.983   2.890 -0.1235  0.3596 -0.4551
  522SOL     ow 2085   3.993   0.962   0.299  0.0002 -0.1409  0.1538
  522SOL     hw 2086   3.902   0.986   0.285 -0.5507 -1.4928  1.2349
  522SOL     hw 2087   4.014   0.903   0.226  0.6682  1.6946 -1.2236
  522SOL     vw 2088   3.984   0.957   0.287  0.0155 -0.0771  0.1147
  523SOL     ow 2089   2.972   0.284   3.016 -0.7364  0.1439 -0.5561
  523SOL     hw 2090   2.899   0.336   3.051 -0.0287 -0.4193  1.9626
  523SOL     hw 2091   2.939   0.194   3.017 -0.3249 -0.0042 -0.3061
  523SOL     vw 2092   2.958   0.279   3.021 -0.5888  0.0501 -0.1910
  524SOL     ow 2093   0.285   2.196   0.528 -0.3941  0.1094  0.2306
  524SOL     hw 2094   0.296   2.281   0.486  1.6559  0.0500  0.5725
  524SOL     hw 2095   0.221   2.151   0.473 -0.6570  1.4378 -0.6030
  524SOL     vw 2096   0.278   2.201   0.516 -0.1583  0.2769  0.1657
  525SOL     ow 2097   2.718   3.716   4.707  0.0337  0.0975 -0.0158
  525SOL     hw 2098   2.733   3.624   4.685  1.7780  0.5167 -0.7456
  525SOL     hw 2099   2.669   3.714   4.789  0.2423 -1.4721  0.0912
  525SOL     vw 2100   2.713   3.704   4.715  0.2913 -0.0542 -0.0980
  526SOL     ow 2101   5.573   5.079   3.039  0.7579  0.2632  0.2868
  526SOL     hw 2102   5.497   5.060   2.983  1.2561 -1.7908  0.2248
  526SOL     hw 2103   5.551   5.162   3.081 -0.5426  0.8411 -1.3838
  526SOL     vw 2104   5.560   5.087   3.037  0.6518  0.0687  0.0582
  527SOL     ow 2105   1.765   3.385   0.269 -0.1747  0.3065 -0.0310
  527SOL     hw 2106   1.781   3.292   0.251 -0.5461  0.2236  0.0617
  527SOL     hw 2107   1.852   3.425   0.265 -0.2567  0.3753 -2.4539
  527SOL     vw 2108   1.779   3.378   0.266 -0.2345  0.3047 -0.3384
  528SOL     ow 2109   0.879   4.990   1.390  0.4797  0.3443 -0.1967
  528SOL     hw 2110   0.822   5.043   1.447  0.1448 -0.3999  0.1679
  528SOL     hw 2111   0.965   5.031   1.399  0.3806  0.3982  0.6576
  528SOL     vw 2112   0.883   5.003   1.399  0.4224  0.2532 -0.0359
  529SOL     ow 2113   1.265   0.765   0.442  0.1688 -0.7426  0.3304
  529SOL     hw 2114   1.257   0.791   0.350  0.1054 -2.3470 -0.1468
  529SOL     hw 2115   1.330   0.695   0.441  0.9506 -0.0733  1.6690
  529SOL     vw 2116   1.273   0.759   0.430  0.2636 -0.8660  0.4441
  530SOL     ow 2117   4.419   0.704   5.972 -0.1308 -0.0234  0.1780
  530SOL     hw 2118   4.475   0.703   6.050  0.6701  1.4408 -0.3390
  530SOL     hw 2119   4.417   0.613   5.943  1.1064 -0.2882  0.8417
  530SOL     vw 2120   4.426   0.692   5.979  0.1380  0.1348  0.1972
  531SOL     ow 2121   1.678   4.360   4.925 -0.3210 -0.6811  0.3592
  531SOL     hw 2122   1.616   4.333   4.993  0.6486 -0.2520  1.4396
  531SOL     hw 2123   1.764   4.349   4.964  0.2183  0.8728 -0.2959
  531SOL     vw 2124   1.681   4.355   4.939 -0.1219 -0.4194  0.4153
  532SOL     ow 2125   6.446   4.264   6.146  0.1015  0.2704 -0.1149
  532SOL     hw 2126   6.413   4.290   6.232  1.0120  2.2316 -0.3086
  532SOL     hw 2127   6.438   4.343   6.092  1.1457 -0.4154 -1.3292
  532SOL     vw 2128   6.441   4.278   6.150  0.3595  0.4387 -0.3006
  533SOL     ow 2129   2.712   2.639   6.244  0.3011 -0.2953  0.0796
  533SOL     hw 2130   2.732   2.558   6.198  1.2486  0.8245 -1.6028
  533SOL     hw 2131   2.783   2.649   6.308  0.5624 -0.4666 -0.1805
  533SOL     vw 2132   2.724   2.630   6.246  0.4605 -0.1701 -0.1767
  534SOL     ow 2133   5.079   6.209   2.563  0.6107 -0.1025  0.0736
  534SOL     hw 2134   5.087   6.118   2.592  4.9694  0.1618  0.3646
  534SOL     hw 2135   5.092   6.205   2.468 -1.0014  0.1345 -0.1842
  534SOL     vw 2136   5.082   6.197   2.554  0.9730 -0.0365  0.0781
  535SOL     ow 2137   5.933   0.492   1.391 -0.0519 -0.8411  0.0355
  535SOL     hw 2138   5.838   0.507   1.397 -0.1825 -1.5733 -0.1779
  535SOL     hw 2139   5.943   0.429   1.319  0.5720 -1.0453  0.2978
  535SOL     vw 2140   5.922   0.486   1.382  0.0129 -0.9646  0.0418
  536SOL     ow 2141   4.896   6.340   2.773 -0.8304 -0.3401 -0.0620
  536SOL     hw 2142   4.888   6.416   2.830 -0.5489  0.1313 -0.6371
  536SOL     hw 2143   4.820   6.286   2.795 -0.3542 -0.5071  1.2324
  536SOL     vw 2144   4.885   6.343   2.783 -0.7305 -0.2999  0.0328
  537SOL     ow 2145   6.581   5.048   2.810 -0.3814  0.0772 -0.6353
  537SOL     hw 2146   6.546   5.040   2.898 -2.1879 -0.2523 -1.3467
  537SOL     hw 2147   6.554   4.968   2.765  1.3639 -0.2270 -1.2396
  537SOL     vw 2148   6.573   5.036   2.816 -0.3898 -0.0064 -0.8088
  538SOL     ow 2149   3.833   5.002   5.349 -0.0739  0.1580  0.1231
  538SOL     hw 2150   3.742   4.974   5.362 -0.0594  0.6538  1.4374
  538SOL     hw 2151   3.885   4.926   5.373 -0.1159 -1.1145 -3.2650
  538SOL     vw 2152   3.828   4.989   5.353 -0.0776  0.0556 -0.1507
  539SOL     ow 2153   2.505   4.684   2.227  0.8174  0.3061 -0.2093
  539SOL     hw 2154   2.471   4.660   2.141 -0.6980  0.7847  0.2393
  539SOL     hw 2155   2.600   4.682   2.216  0.8302 -3.3761 -0.8993
  539SOL     vw 2156   2.513   4.680   2.214  0.6191 -0.1166 -0.2410
  540SOL     ow 2157   5.612   6.437   2.878 -0.4045 -0.0358  0.3090
  540SOL     hw 2158   5.588   6.517   2.926  1.2450  1.0459 -0.5740
  540SOL     hw 2159   5.622   6.465   2.787  0.1249 -1.2771 -0.0391
  540SOL     vw 2160   5.610   6.451   2.872 -0.1171 -0.0570  0.1465
  541SOL     ow 2161   1.224   1.749   2.346  0.4678 -0.3431  0.2183
  541SOL     hw 2162   1.131   1.766   2.331  0.7502  1.3580  0.2543
  541SOL     hw 2163   1.247   1.805   2.420  1.6509 -0.2934 -0.1696
  541SOL     vw 2164   1.215   1.759   2.353  0.6612 -0.1121  0.1719
  542SOL     ow 2165   4.035   1.220   1.260 -0.5901  0.2102 -0.3038
  542SOL     hw 2166   4.120   1.263   1.249 -0.0890 -0.6378  0.1569
  542SOL     hw 2167   4.045   1.166   1.338 -0.9466 -1.3175 -1.2568
  542SOL     vw 2168   4.047   1.218   1.269 -0.5713 -0.1033 -0.3688
  543SOL     ow 2169   3.619   6.900   1.135 -0.2683 -0.0187 -0.3059
  543SOL     hw 2170   3.567   6.944   1.202  0.4866  0.4286  0.0045
  543SOL     hw 2171   3.573   6.918   1.053  0.9158  2.9082 -0.4513
  543SOL     vw 2172   3.606   6.908   1.133 -0.0123  0.4265 -0.2842
  544SOL     ow 2173   3.375   2.417   3.524 -0.1354  0.4115 -0.0347
  544SOL     hw 2174   3.342   2.420   3.614  0.2262  1.2099  0.0783
  544SOL     hw 2175   3.338   2.336   3.488  0.4723 -0.4160  1.1214
  544SOL     vw 2176   3.366   2.407   3.531 -0.0074  0.4077  0.1327
  545SOL     ow 2177   0.810   6.955   2.113  0.1036  0.3196  0.1483
  545SOL     hw 2178   0.795   6.979   2.022 -3.1846  1.0459  0.7466
  545SOL     hw 2179   0.773   7.028   2.163  0.6655 -0.6455  2.0725
  545SOL     vw 2180   0.803   6.968   2.108 -0.2561  0.2880  0.4810
  546SOL     ow 2181   0.057   4.576   0.338  0.9146 -0.1664 -0.2081
  546SOL     hw 2182   0.148   4.596   0.358  0.6039 -0.0254  1.1634
  546SOL     hw 2183   0.008   4.651   0.371  0.1833 -0.8782  0.3538
  546SOL     vw 2184   0.063   4.589   0.345  0.7771 -0.2418  0.0470
  547SOL     ow 2185   4.570   1.948   5.680  0.1603  0.0883  0.3124
  547SOL     hw 2186   4.533   2.006   5.747  0.5125 -0.0261  0.6074
  547SOL     hw 2187   4.646   1.996   5.646  0.6568 -0.3434  0.8006
  547SOL     vw 2188   4.575   1.962   5.685  0.2725  0.0162  0.4158
  548SOL     ow 2189   0.538   0.346   0.530  0.0717  0.2122  0.1463
  548SOL     hw 2190   0.597   0.404   0.579 -0.9222  1.9511 -0.6354
  548SOL     hw 2191   0.454   0.354   0.574  0.3315 -2.2331  1.2340
  548SOL     vw 2192   0.535   0.355   0.542 -0.0252  0.1190  0.1867
  549SOL     ow 2193   2.075   2.364   0.620 -0.0042  0.0758  0.4984
  549SOL     hw 2194   2.112   2.390   0.535 -0.0583  0.2976  0.5432
  549SOL     hw 2195   1.993   2.319   0.597 -1.4535  2.5237  0.5354
  549SOL     vw 2196   2.069   2.361   0.606 -0.2025  0.4280  0.5092
  550SOL     ow 2197   6.810   1.276   1.638  0.3050  0.2165  0.5190
  550SOL     hw 2198   6.799   1.356   1.586  1.4437 -1.4849 -2.6011
  550SOL     hw 2199   6.739   1.219   1.609 -0.0535 -0.2481  2.1713
  550SOL     vw 2200   6.799   1.279   1.628  0.4079 -0.0693  0.3254
  551SOL     ow 2201   4.784   1.675   0.579 -0.3279  0.5309  0.0643
  551SOL     hw 2202   4.857   1.619   0.606 -0.9759 -0.7041 -0.6069
  551SOL     hw 2203   4.732   1.688   0.658 -0.1718  0.1433  0.2344
  551SOL     vw 2204   4.787   1.669   0.593 -0.3927  0.3167 -0.0018
  552SOL     ow 2205   0.830   6.012   0.008 -0.0933  0.1027 -0.3577
  552SOL     hw 2206   0.791   5.952  -0.055  0.8191 -0.4381 -0.4281
  552SOL     hw 2207   0.819   5.968   0.093  0.8041 -0.3066 -0.4398
  552SOL     vw 2208   0.824   5.998   0.011  0.1455 -0.0226 -0.3778
  553SOL     ow 2209   5.613   2.768   2.669 -0.1551 -0.0028  0.4607
  553SOL     hw 2210   5.578   2.682   2.693  0.7365 -0.8523 -1.1137
  553SOL     hw 2211   5.543   2.829   2.691 -1.2501 -1.2543  0.5926
  553SOL     vw 2212   5.599   2.764   2.675 -0.1822 -0.2800  0.2704
  554SOL     ow 2213   0.047   1.093   1.681  0.2835  0.1184  0.1647
  554SOL     hw 2214   0.012   1.011   1.647 -0.1012  0.7624 -1.0665
  554SOL     hw 2215   0.107   1.123   1.613 -2.1682  2.5708 -1.1058
  554SOL     vw 2216   0.051   1.086   1.667 -0.0907  0.5270 -0.1655
  555SOL     ow 2217   1.241   3.322   4.406 -0.3424 -0.3567  0.5714
  555SOL     hw 2218   1.283   3.393   4.358 -1.6795  0.8148  1.0749
  555SOL     hw 2219   1.269   3.242   4.360  1.3198  0.4607  0.0956
  555SOL     vw 2220   1.250   3.321   4.393 -0.2995 -0.0943  0.5748
  556SOL     ow 2221   2.984   1.445   1.136  0.2227 -0.0312  0.2541
  556SOL     hw 2222   2.987   1.360   1.181  1.4038 -0.4453 -0.5553
  556SOL     hw 2223   3.071   1.483   1.151 -0.1585  0.8561  0.2660
  556SOL     vw 2224   2.996   1.439   1.144  0.3282  0.0313  0.1488
  557SOL     ow 2225   1.723   3.671   5.500 -0.3306  0.2264 -0.1284
  557SOL     hw 2226   1.697   3.713   5.419 -0.4780  0.8051  0.2138
  557SOL     hw 2227   1.721   3.741   5.566 -1.7845 -0.5485  0.7146
  557SOL     vw 2228   1.720   3.686   5.498 -0.5419  0.2005  0.0281
  558SOL     ow 2229   3.242   2.991   2.649 -0.1821  0.1217  0.3471
  558SOL     hw 2230   3.195   3.036   2.579  0.1678 -0.8487 -0.5221
  558SOL     hw 2231   3.223   2.898   2.636 -0.6940 -0.0290  1.9738
  558SOL     vw 2232   3.234   2.985   2.638 -0.2035 -0.0262  0.4470
  559SOL     ow 2233   4.245   6.802   3.930  0.0342  0.0977 -0.5280
  559SOL     hw 2234   4.295   6.720   3.927 -0.9343 -0.5025 -0.6461
  559SOL     hw 2235   4.235   6.821   4.023 -1.1501 -0.8266 -0.4368
  559SOL     vw 2236   4.250   6.794   3.942 -0.2499 -0.1032 -0.5316
  560SOL     ow 2237   6.095   0.093   2.241  0.0814 -0.0421  0.5299
  560SOL     hw 2238   6.189   0.073   2.244  0.0606 -0.1298  0.5859
  560SOL     hw 2239   6.058   0.026   2.185 -0.2423 -1.1513  2.0021
  560SOL     vw 2240   6.103   0.082   2.234  0.0360 -0.2000  0.7315
  561SOL     ow 2241   2.239   3.535   5.137 -0.4050 -0.4956  0.5427
  561SOL     hw 2242   2.224   3.626   5.162 -0.4557 -0.7893  1.6453
  561SOL     hw 2243   2.229   3.486   5.219  0.8737 -1.3439  0.2234
  561SOL     vw 2244   2.236   3.541   5.151 -0.2428 -0.6464  0.6464
  562SOL     ow 2245   4.241   1.534   2.514 -0.6342 -0.2716  0.2576
  562SOL     hw 2246   4.275   1.492   2.593  1.2252 -1.3137 -1.0004
  562SOL     hw 2247   4.253   1.468   2.445  0.0257  1.4146 -1.3240
  562SOL     vw 2248   4.247   1.520   2.515 -0.3018 -0.1866 -0.1171
  563SOL     ow 2249   2.057   1.530   1.317 -0.6213 -0.2600 -0.3943
  563SOL     hw 2250   2.139   1.481   1.318 -0.7538 -0.4960  0.9401
  563SOL     hw 2251   2.063   1.585   1.239  0.9665 -0.0169 -0.1483
  563SOL     vw 2252   2.069   1.531   1.307 -0.4292 -0.2592 -0.1858
  564SOL     ow 2253   0.974   3.072   1.367 -0.7645 -0.2141 -0.2525
  564SOL     hw 2254   1.013   3.134   1.307 -0.4433 -0.7867 -0.6448
  564SOL     hw 2255   1.026   3.079   1.447  0.0942 -0.8809 -0.7261
  564SOL     vw 2256   0.986   3.081   1.370 -0.6088 -0.3774 -0.3667
  565SOL     ow 2257   3.542   0.670   5.627 -0.6477 -0.2028  0.1412
  565SOL     hw 2258   3.479   0.739   5.605 -1.1908 -0.8483 -0.3324
  565SOL     hw 2259   3.621   0.694   5.578 -0.5219  0.5803  0.6964
  565SOL     vw 2260   3.545   0.683   5.618 -0.7027 -0.1846  0.1519
  566SOL     ow 2261   1.219   6.233   1.004  0.3292 -0.3429  0.4750
  566SOL     hw 2262   1.200   6.175   1.079 -3.5123 -1.6377 -1.2355
  566SOL     hw 2263   1.221   6.174   0.929  0.6148  1.3007 -0.8548
  566SOL     vw 2264   1.217   6.217   1.004 -0.1400 -0.2968  0.0740
  567SOL     ow 2265   0.746   0.878   2.590 -0.1721 -0.3309 -0.0675
  567SOL     hw 2266   0.802   0.801   2.594  1.4688  0.8181  0.0615
  567SOL     hw 2267   0.671   0.857   2.646 -0.2696 -2.1768 -0.8081
  567SOL     vw 2268   0.743   0.865   2.598  0.0315 -0.4228 -0.1481
  568SOL     ow 2269   5.695   4.984   1.279  0.2147  0.1913 -0.3054
  568SOL     hw 2270   5.717   4.967   1.187 -0.0315  1.8599 -0.7138
  568SOL     hw 2271   5.615   5.036   1.275  0.8329  1.2701  0.7836
  568SOL     vw 2272   5.688   4.989   1.266  0.2637  0.5538 -0.2155
  569SOL     ow 2273   6.754   2.026   2.600  0.0823 -0.5974 -0.4957
  569SOL     hw 2274   6.720   2.086   2.534  1.5889  0.3372 -0.4778
  569SOL     hw 2275   6.693   2.034   2.673 -1.0234 -0.8595 -1.3549
  569SOL     vw 2276   6.741   2.035   2.601  0.1347 -0.5085 -0.6067
  570SOL     ow 2277   3.786   6.909   4.895  0.3053  0.2101 -0.0736
  570SOL     hw 2278   3.739   6.901   4.812 -1.0024  0.2451  0.6333
  570SOL     hw 2279   3.724   6.953   4.953  0.7687 -0.7818  1.2309
  570SOL     vw 2280   3.771   6.913   4.892  0.1938  0.0837  0.1919
  571SOL     ow 2281   3.875   5.734   3.029  0.3082  0.1416 -0.9119
  571SOL     hw 2282   3.881   5.643   3.057 -1.2100  0.4597  0.6335
  571SOL     hw 2283   3.840   5.730   2.940  1.1450 -0.7859 -1.2134
  571SOL     vw 2284   3.871   5.722   3.021  0.2183  0.0613 -0.7479
  572SOL     ow 2285   4.535   4.362   0.688 -0.5292 -0.2334  0.6426
  572SOL     hw 2286   4.578   4.415   0.621 -0.3437  0.1920  1.0876
  572SOL     hw 2287   4.597   4.360   0.760 -0.0005 -2.1028  0.1812
  572SOL     vw 2288   4.549   4.369   0.689 -0.4349 -0.4241  0.6405
  573SOL     ow 2289   0.439   6.511   0.087 -0.7303  0.1846 -0.2766
  573SOL     hw 2290   0.524   6.483   0.120 -1.5430 -1.1331  0.7722
  573SOL     hw 2291   0.392   6.544   0.164 -1.1871  0.9000 -0.8408
  573SOL     vw 2292   0.444   6.512   0.102 -0.8978  0.1051 -0.2126
  574SOL     ow 2293   6.696   1.904   5.823  0.3379 -0.4444  0.0223
  574SOL     hw 2294   6.649   1.985   5.842  1.7090  0.6454 -1.0030
  574SOL     hw 2295   6.694   1.897   5.728 -1.3701 -2.6545  0.1707
  574SOL     vw 2296   6.690   1.914   5.813  0.2935 -0.5922 -0.0932
  575SOL     ow 2297   1.044   1.281   0.824  0.4784  0.3676 -0.2429
  575SOL     hw 2298   1.053   1.211   0.759 -0.8009 -1.5277  1.5139
  575SOL     hw 2299   0.951   1.285   0.843  0.7426  1.3214  1.0144
  575SOL     vw 2300   1.033   1.273   0.818  0.3444  0.2433  0.1548
  576SOL     ow 2301   0.141   5.291   4.796  0.2987  0.1872 -0.3995
  576SOL     hw 2302   0.155   5.237   4.718 -0.1401  0.9731 -1.0503
  576SOL     hw 2303   0.122   5.229   4.866  0.9672 -0.5492 -0.8608
  576SOL     vw 2304   0.140   5.276   4.795  0.3290  0.1936 -0.5462
  577SOL     ow 2305   4.168   5.925   3.043 -0.0111 -0.1842  0.3301
  577SOL     hw 2306   4.258   5.899   3.062  0.4285  0.4598 -0.7871
  577SOL     hw 2307   4.176   6.010   2.999 -1.3462  1.4223  2.9801
  577SOL     vw 2308   4.181   5.933   3.039 -0.1290  0.1128  0.5324
  578SOL     ow 2309   5.892   0.075   6.970 -0.2308  0.1553  0.5239
  578SOL     hw 2310   5.959   0.080   7.038 -0.3987  0.0352  0.6986
  578SOL     hw 2311   5.897  -0.014   6.937 -0.1829  0.1989  0.4138
  578SOL     vw 2312   5.901   0.064   6.975 -0.2470  0.1452  0.5324
  579SOL     ow 2313   3.782   1.774   0.630 -0.5450 -1.0424 -0.5179
  579SOL     hw 2314   3.725   1.739   0.699 -1.3867 -1.6059 -1.4756
  579SOL     hw 2315   3.865   1.728   0.643 -0.7024 -1.1709  0.0867
  579SOL     vw 2316   3.785   1.763   0.641 -0.6768 -1.1337 -0.5645
  580SOL     ow 2317   4.110   0.734   5.870  0.4661  0.0306  0.7777
  580SOL     hw 2318   4.027   0.781   5.879  1.0412  1.1885  0.2753
  580SOL     hw 2319   4.105   0.691   5.784  0.1601 -0.3782  0.9986
  580SOL     vw 2320   4.099   0.734   5.860  0.5016  0.1294  0.7405
  581SOL     ow 2321   6.617   5.315   2.808  0.1407 -0.1384  0.0194
  581SOL     hw 2322   6.712   5.325   2.796  0.1413 -0.6829 -0.4468
  581SOL     hw 2323   6.603   5.220   2.810 -0.3523 -0.0612  0.4585
  581SOL     vw 2324   6.628   5.304   2.807  0.0753 -0.2003  0.0159
  582SOL     ow 2325   3.478   1.208   6.542 -0.0021  0.1793  0.0946
  582SOL     hw 2326   3.416   1.160   6.487  0.3794 -1.3434  0.9483
  582SOL     hw 2327   3.563   1.196   6.498  0.2984 -1.0115  0.9421
  582SOL     vw 2328   3.481   1.200   6.529  0.0881 -0.1787  0.3192
  583SOL     ow 2329   6.652   6.762   2.725  0.0829 -0.2979  0.7133
  583SOL     hw 2330   6.667   6.820   2.799  0.3645 -0.4602  0.7845
  583SOL     hw 2331   6.675   6.815   2.648  1.3505 -0.6432  0.8373
  583SOL     vw 2332   6.657   6.777   2.725  0.2873 -0.3650  0.7391
  584SOL     ow 2333   6.735   0.316   6.655 -0.1662 -0.4553  0.3202
  584SOL     hw 2334   6.672   0.287   6.722 -0.6845  0.6702  0.3416
  584SOL     hw 2335   6.702   0.401   6.626  2.2372  1.0210  1.5634
  584SOL     vw 2336   6.722   0.323   6.660  0.0827 -0.1120  0.4871
  585SOL     ow 2337   4.115   3.474   4.424  0.7863  0.9531 -0.1374
  585SOL     hw 2338   4.179   3.530   4.379  0.3221  0.5389 -1.3465
  585SOL     hw 2339   4.068   3.430   4.353  0.3289 -0.0577  0.7743
  585SOL     vw 2340   4.117   3.476   4.408  0.6645  0.7652 -0.1764
  586SOL     ow 2341   5.297   3.618   3.096  0.4736  0.9577 -0.7089
  586SOL     hw 2342   5.203   3.626   3.080  0.1449 -1.3558 -0.3189
  586SOL     hw 2343   5.334   3.602   3.009  0.4655  1.5616 -0.8244
  586SOL     vw 2344   5.289   3.617   3.083  0.4292  0.7322 -0.6726
  587SOL     ow 2345   1.517   6.429   0.279 -0.0811  0.4705  0.3255
  587SOL     hw 2346   1.440   6.448   0.332 -1.4611 -1.7411 -0.7216
  587SOL     hw 2347   1.513   6.492   0.207 -0.3377  1.0103  0.8052
  587SOL     vw 2348   1.507   6.440   0.276 -0.2971  0.2496  0.2507
  588SOL     ow 2349   4.390   2.032   2.711 -0.1188 -0.3288  0.2042
  588SOL     hw 2350   4.333   2.107   2.691  2.3528  1.9180  1.0963
  588SOL     hw 2351   4.350   1.992   2.789 -0.3492  1.3972  1.0228
  588SOL     vw 2352   4.377   2.036   2.719  0.1769  0.1953  0.4300
  589SOL     ow 2353   1.834   2.313   6.751 -0.2639  0.2929  0.5027
  589SOL     hw 2354   1.871   2.305   6.664 -2.4031 -3.1848 -0.2988
  589SOL     hw 2355   1.751   2.358   6.738 -0.9814 -0.9731  0.5357
  589SOL     vw 2356   1.828   2.318   6.738 -0.6408 -0.3330  0.4010
  590SOL     ow 2357   0.061   4.644   4.571 -0.2103 -0.0565  0.2819
  590SOL     hw 2358   0.032   4.683   4.489 -0.2657 -0.4187  0.1289
  590SOL     hw 2359   0.156   4.659   4.572 -0.1594 -0.3503 -0.0095
  590SOL     vw 2360   0.070   4.651   4.560 -0.2109 -0.1431  0.2234
  591SOL     ow 2361   3.384   6.692   2.881 -0.5923 -0.1742 -0.2605
  591SOL     hw 2362   3.306   6.669   2.930 -1.7494  1.3637 -1.3079
  591SOL     hw 2363   3.443   6.731   2.946 -2.2499  2.2010 -0.0632
  591SOL     vw 2364   3.382   6.694   2.896 -0.9637  0.3419 -0.3724
  592SOL     ow 2365   1.308   3.759   2.289 -0.0281  0.4571 -0.5688
  592SOL     hw 2366   1.313   3.669   2.257 -0.5828  0.0223  0.5118
  592SOL     hw 2367   1.307   3.813   2.210 -1.0489 -0.5519 -1.2726
  592SOL     vw 2368   1.309   3.754   2.274 -0.2360  0.2666 -0.5192
  593SOL     ow 2369   6.393   0.776   0.889 -0.2100 -0.0868  0.1193
  593SOL     hw 2370   6.350   0.796   0.806 -0.7428 -0.9029  0.1834
  593SOL     hw 2371   6.427   0.860   0.920  0.1748  0.1945 -1.0198
  593SOL     vw 2372   6.392   0.790   0.882 -0.2296 -0.1574 -0.0225
  594SOL     ow 2373   6.162   5.457   6.529 -0.4922 -0.0512  0.0199
  594SOL     hw 2374   6.095   5.440   6.464 -3.0807  1.8764  1.9638
  594SOL     hw 2375   6.239   5.484   6.478 -1.5997 -0.9382 -2.2401
  594SOL     vw 2376   6.164   5.458   6.514 -0.9799  0.0861 -0.0219
  595SOL     ow 2377   1.984   0.160   5.768  0.0714 -0.0814 -0.4595
  595SOL     hw 2378   1.992   0.226   5.699  0.4973  0.3964  0.0360
  595SOL     hw 2379   2.002   0.077   5.724  0.5864  0.2427 -0.8721
  595SOL     vw 2380   1.987   0.158   5.753  0.1955  0.0244 -0.4487
  596SOL     ow 2381   3.028   0.166   1.158 -0.3900 -0.2048  0.7989
  596SOL     hw 2382   3.025   0.228   1.231  0.8899  0.9994 -0.0975
  596SOL     hw 2383   3.086   0.096   1.188 -3.1084 -1.9306  2.4393
  596SOL     vw 2384   3.035   0.165   1.171 -0.5800 -0.2736  0.8970
  597SOL     ow 2385   0.814   1.501   5.505  0.3222  0.3725  0.1997
  597SOL     hw 2386   0.868   1.561   5.557  1.1903  1.4506 -1.8340
  597SOL     hw 2387   0.861   1.492   5.422 -1.4108 -0.6458 -0.7320
  597SOL     vw 2388   0.827   1.507   5.501  0.2080  0.3804 -0.1917
  598SOL     ow 2389   2.229   4.781   3.836  0.1855 -0.1175  0.3645
  598SOL     hw 2390   2.203   4.691   3.818  1.8178 -0.4096 -0.7822
  598SOL     hw 2391   2.279   4.776   3.918 -1.3875  0.0953  1.3715
  598SOL     vw 2392   2.233   4.769   3.844  0.1932 -0.1276  0.3461
  599SOL     ow 2393   5.105   0.190   2.537  0.2111 -0.6962 -0.2090
  599SOL     hw 2394   5.099   0.274   2.583  1.5319 -0.4432 -0.4653
  599SOL     hw 2395   5.155   0.210   2.458  2.1767 -2.0647  0.6210
  599SOL     vw 2396   5.111   0.204   2.533  0.6447 -0.8433 -0.1333
  600SOL     ow 2397   3.198   5.626   6.739 -0.1732  0.0809 -0.1658
  600SOL     hw 2398   3.137   5.599   6.670 -1.4895  0.3009  0.8765
  600SOL     hw 2399   3.280   5.644   6.693 -0.7766 -0.5991 -1.5535
  600SOL     vw 2400   3.201   5.625   6.724 -0.4265  0.0203 -0.2112
  601SOL     ow 2401   4.042   3.002   5.395 -0.3669 -0.3912  0.3353
  601SOL     hw 2402   3.956   3.040   5.410 -0.1528  0.1532  0.2284
  601SOL     hw 2403   4.103   3.064   5.435  0.0755  0.0362 -0.9507
  601SOL     vw 2404   4.039   3.015   5.402 -0.2804 -0.2630  0.1514
  602SOL     ow 2405   5.379   6.042   1.827 -0.6926 -0.3196  0.2772
  602SOL     hw 2406   5.329   6.072   1.903  0.0905 -0.2463  0.7719
  602SOL     hw 2407   5.453   5.994   1.864  0.3195  0.6662 -0.3921
  602SOL     vw 2408   5.382   6.040   1.842 -0.4559 -0.1795  0.2542
  603SOL     ow 2409   5.898   5.925   0.159 -0.5481  0.2207  0.0948
  603SOL     hw 2410   5.949   5.939   0.239 -0.4479  1.4749 -0.1672
  603SOL     hw 2411   5.925   5.996   0.101  0.5766 -1.5724 -1.7016
  603SOL     vw 2412   5.908   5.936   0.162 -0.3865  0.1495 -0.1768
  604SOL     ow 2413   3.974   5.810   4.982  0.4240  0.1217  0.5238
  604SOL     hw 2414   3.891   5.835   5.022  0.7865 -1.3138  2.3354
  604SOL     hw 2415   4.033   5.883   5.002  0.5443 -0.4698  2.5860
  604SOL     vw 2416   3.971   5.823   4.990  0.4877 -0.1459  1.0350
  605SOL     ow 2417   2.528   3.097   3.104  0.3982 -0.4550 -0.3687
  605SOL     hw 2418   2.457   3.034   3.113  0.4919 -0.6082 -0.6966
  605SOL     hw 2419   2.589   3.076   3.175 -0.4983  0.5001  0.7437
  605SOL     vw 2420   2.526   3.086   3.115  0.2923 -0.3492 -0.2654
  606SOL     ow 2421   3.411   4.969   3.375  0.2888 -0.1320  0.0221
  606SOL     hw 2422   3.476   4.943   3.439 -1.1263 -0.4026  1.3885
  606SOL     hw 2423   3.351   4.895   3.369 -1.8818  1.3940  1.4627
  606SOL     vw 2424   3.412   4.956   3.382 -0.1843  0.0339  0.3924
  607SOL     ow 2425   4.245   1.858   1.147 -0.0980  0.2609 -0.4867
  607SOL     hw 2426   4.160   1.846   1.107 -0.3809  0.3831  0.0649
  607SOL     hw 2427   4.303   1.799   1.099 -0.2260  1.0676 -1.6662
  607SOL     vw 2428   4.242   1.849   1.136 -0.1521  0.3834 -0.5695
  608SOL     ow 2429   6.477   5.023   4.243  0.4349  0.8523 -0.4981
  608SOL     hw 2430   6.483   4.933   4.212 -0.2523  0.5989  0.0816
  608SOL     hw 2431   6.535   5.073   4.185  0.4088  0.1286 -1.1533
  608SOL     vw 2432   6.486   5.018   4.231  0.3405  0.7236 -0.5078
  609SOL     ow 2433   3.851   2.331   3.744  0.2503 -0.4823  0.9634
  609SOL     hw 2434   3.845   2.244   3.705  2.7600 -0.6789  0.8176
  609SOL     hw 2435   3.761   2.356   3.762 -0.6482 -2.4165 -0.4958
  609SOL     vw 2436   3.839   2.322   3.741  0.4629 -0.7634  0.7517
  610SOL     ow 2437   6.750   2.521   6.578 -0.5950  0.0270  0.0335
  610SOL     hw 2438   6.798   2.468   6.642 -0.1074 -0.1154 -0.4456
  610SOL     hw 2439   6.811   2.590   6.553 -0.7827  0.0821 -0.2789
  610SOL     vw 2440   6.764   2.523   6.583 -0.5553  0.0155 -0.0710
  611SOL     ow 2441   1.197   0.399   2.171 -0.7803 -0.2474 -0.6877
  611SOL     hw 2442   1.227   0.479   2.214  0.2564 -0.7312 -0.4998
  611SOL     hw 2443   1.174   0.340   2.243 -0.0205 -0.6893 -0.8025
  611SOL     vw 2444   1.198   0.402   2.186 -0.5432 -0.3695 -0.6779
  612SOL     ow 2445   0.757   0.095   0.500 -0.2336 -0.2286  0.1355
  612SOL     hw 2446   0.842   0.096   0.543  0.6887  0.5943 -1.6351
  612SOL     hw 2447   0.767   0.035   0.427 -1.4019 -0.6540  0.3037
  612SOL     vw 2448   0.769   0.088   0.496 -0.2660 -0.1762 -0.0759
  613SOL     ow 2449   2.423   5.891   0.983  0.1347 -0.5306 -0.4259
  613SOL     hw 2450   2.462   5.947   1.050 -0.5455  0.2020 -0.6253
  613SOL     hw 2451   2.466   5.806   0.995  0.6166 -0.1868  0.3955
  613SOL     vw 2452   2.434   5.887   0.993  0.1086 -0.3884 -0.3439
  614SOL     ow 2453   4.171   6.030   4.765  0.1755 -0.0956  0.0633
  614SOL     hw 2454   4.125   6.103   4.723 -0.1662 -1.0907 -1.3649
  614SOL     hw 2455   4.205   6.068   4.846 -0.2218  1.5779 -0.4900
  614SOL     vw 2456   4.169   6.045   4.770  0.0780 -0.0064 -0.1979
  615SOL     ow 2457   5.766   2.589   3.669  0.2828  0.0618 -0.1620
  615SOL     hw 2458   5.822   2.527   3.716 -0.4014 -0.4913 -0.0777
  615SOL     hw 2459   5.763   2.555   3.579  1.0138  0.7331 -0.4617
  615SOL     vw 2460   5.773   2.577   3.663  0.2890  0.0774 -0.1904
  616SOL     ow 2461   3.573   1.535   6.466  0.1116 -0.1486  0.0289
  616SOL     hw 2462   3.614   1.578   6.391 -0.3759 -0.9551 -0.7175
  616SOL     hw 2463   3.631   1.555   6.540 -0.4892  2.4017 -0.1157
  616SOL     vw 2464   3.586   1.543   6.466 -0.0321  0.0815 -0.0887
  617SOL     ow 2465   0.317   5.814   6.266 -0.0747  0.5232  0.2980
  617SOL     hw 2466   0.269   5.735   6.243 -2.5540  2.4223 -1.6708
  617SOL     hw 2467   0.250   5.876   6.293  1.6428  2.3237  0.6478
  617SOL     vw 2468   0.302   5.812   6.266 -0.1752  1.0116  0.0844
  618SOL     ow 2469   1.720   0.296   1.493 -0.0616  0.5204  0.4136
  618SOL     hw 2470   1.753   0.383   1.475  1.5202  0.5551  2.9469
  618SOL     hw 2471   1.798   0.240   1.493 -0.2864  0.0216  3.3358
  618SOL     vw 2472   1.735   0.300   1.491  0.1174  0.4591  1.1334
  619SOL     ow 2473   6.094   1.747   3.646  0.3782 -0.4282 -0.3665
  619SOL     hw 2474   6.098   1.651   3.648 -0.9417 -0.5122  1.7584
  619SOL     hw 2475   6.012   1.767   3.602  0.1234 -0.3147  0.1560
  619SOL     vw 2476   6.084   1.737   3.641  0.1707 -0.4243 -0.0172
  620SOL     ow 2477   2.449   0.066   5.242 -0.0066  0.0548  0.3529
  620SOL     hw 2478   2.516   0.106   5.297 -0.5405  3.1051 -1.0228
  620SOL     hw 2479   2.419   0.137   5.185 -2.5792 -1.8475 -0.8547
  620SOL     vw 2480   2.454   0.080   5.242 -0.4165  0.2063  0.0122
  621SOL     ow 2481   3.142   0.355   6.580 -0.1112 -0.8670  0.0961
  621SOL     hw 2482   3.227   0.325   6.612 -0.2388  0.1633  1.4855
  621SOL     hw 2483   3.082   0.284   6.603 -0.0647 -0.4697  1.5047
  621SOL     vw 2484   3.145   0.341   6.587 -0.1218 -0.6786  0.4654
  622SOL     ow 2485   5.354   3.748   5.579 -0.1044  0.6059 -0.0813
  622SOL     hw 2486   5.421   3.817   5.575  0.5147  0.0116 -0.2061
  622SOL     hw 2487   5.365   3.710   5.666 -0.1449  0.3727 -0.1789
  622SOL     vw 2488   5.365   3.752   5.590 -0.0281  0.4967 -0.1104
  623SOL     ow 2489   3.798   3.546   4.459  0.0384  0.1653  0.3568
  623SOL     hw 2490   3.738   3.530   4.386 -2.3629  2.3782  1.7283
  623SOL     hw 2491   3.773   3.482   4.526  0.8581 -0.4643  0.0932
  623SOL     vw 2492   3.787   3.535   4.458 -0.1704  0.3742  0.5031
  624SOL     ow 2493   5.537   4.408   6.878 -0.1544  0.1394 -0.1009
  624SOL     hw 2494   5.489   4.334   6.841 -3.0783  2.1387 -0.6803
  624SOL     hw 2495   5.502   4.484   6.832  1.1177  2.0874  1.9506
  624SOL     vw 2496   5.526   4.408   6.867 -0.3724  0.6599  0.0932
  625SOL     ow 2497   6.433   2.022   0.448 -0.6617 -0.2548  0.4593
  625SOL     hw 2498   6.419   2.016   0.353  0.5456 -0.4807  0.2889
  625SOL     hw 2499   6.528   2.023   0.458 -0.7816  0.1189  1.6528
  625SOL     vw 2500   6.443   2.022   0.437 -0.5183 -0.2353  0.5942
  626SOL     ow 2501   3.699   2.016   0.449  0.2844  0.2125 -0.2779
  626SOL     hw 2502   3.662   2.027   0.536 -1.8781 -2.2117 -0.7511
  626SOL     hw 2503   3.651   2.077   0.394  1.0991  1.1795  0.0602
  626SOL     vw 2504   3.688   2.025   0.453  0.1068  0.0203 -0.2957
  627SOL     ow 2505   0.544   6.208   0.949 -0.1709  0.3495 -0.4908
  627SOL     hw 2506   0.485   6.220   1.024 -0.0529  2.4027 -0.6625
  627SOL     hw 2507   0.563   6.114   0.948 -1.6841 -0.0158  0.8940
  627SOL     vw 2508   0.539   6.197   0.959 -0.3550  0.5724 -0.3308
  628SOL     ow 2509   4.961   4.655   1.840 -0.3054 -0.1853  0.6544
  628SOL     hw 2510   4.875   4.663   1.799  0.6745  1.5313 -1.2814
  628SOL     hw 2511   5.011   4.599   1.781  0.5190  0.6168  0.5623
  628SOL     vw 2512   4.957   4.649   1.827 -0.0672  0.1469  0.3868
  629SOL     ow 2513   4.559   3.990   2.425  0.2024 -0.0038  0.1469
  629SOL     hw 2514   4.596   4.003   2.513 -0.1787  2.2137  0.0258
  629SOL     hw 2515   4.482   3.935   2.440 -0.5248  1.2789  1.4049
  629SOL     vw 2516   4.554   3.984   2.439  0.0563  0.4579  0.2970
  630SOL     ow 2517   3.526   4.101   6.830  0.0365  0.0466  0.2752
  630SOL     hw 2518   3.532   4.160   6.755 -1.0392  0.7177  0.6862
  630SOL     hw 2519   3.486   4.154   6.899 -2.5061 -1.5570  0.1782
  630SOL     vw 2520   3.521   4.116   6.829 -0.4410 -0.0765  0.3164
  631SOL     ow 2521   3.227   0.031   5.685 -0.8791 -0.1120  0.1983
  631SOL     hw 2522   3.156   0.074   5.638  0.8609 -0.2416 -2.8304
  631SOL     hw 2523   3.306   0.053   5.635  1.4423  0.8050  3.8938
  631SOL     vw 2524   3.228   0.039   5.672 -0.3432 -0.0081  0.2861
  632SOL     ow 2525   6.839   3.171   5.754  0.0484 -0.3663 -0.7470
  632SOL     hw 2526   6.835   3.229   5.678  2.8088 -1.1736 -1.6224
  632SOL     hw 2527   6.874   3.089   5.720  0.9489 -0.8973  1.2934
  632SOL     vw 2528   6.843   3.168   5.740  0.5317 -0.5429 -0.5932
  633SOL     ow 2529   1.931   6.011   6.481  0.3708 -0.7091  0.1962
  633SOL     hw 2530   1.948   5.946   6.412  1.8771  0.2806 -0.4113
  633SOL     hw 2531   1.860   6.065   6.445  0.8796 -0.4413 -0.4364
  633SOL     vw 2532   1.924   6.009   6.467  0.6366 -0.5434  0.0327
  634SOL     ow 2533   3.207   5.377   1.269  0.3638 -0.2066 -0.3494
  634SOL     hw 2534   3.226   5.338   1.355 -0.0257 -0.4460 -0.3670
  634SOL     hw 2535   3.115   5.402   1.275  0.4414  0.1285 -0.5663
  634SOL     vw 2536   3.197   5.375   1.281  0.3227 -0.1941 -0.3803
  635SOL     ow 2537   3.977   5.048   3.943 -0.6179 -0.1708 -0.0772
  635SOL     hw 2538   3.915   5.118   3.959  0.0231  0.3143  0.3532
  635SOL     hw 2539   3.979   4.998   4.025  0.9231  0.9263  0.6165
  635SOL     vw 2540   3.969   5.051   3.956 -0.3299  0.0384  0.0712
  636SOL     ow 2541   6.712   2.187   1.587 -0.4528  0.1527  0.2315
  636SOL     hw 2542   6.637   2.245   1.601 -0.6075  0.2714 -0.9733
  636SOL     hw 2543   6.784   2.229   1.635 -0.3513  1.8181 -1.2548
  636SOL     vw 2544   6.712   2.201   1.595 -0.4599  0.3883 -0.1236
  637SOL     ow 2545   2.156   3.954   5.693  0.2942 -0.1211 -0.5758
  637SOL     hw 2546   2.206   3.943   5.612  1.3761  0.7793 -0.0623
  637SOL     hw 2547   2.219   3.935   5.762 -0.2224  0.5237  0.0818
  637SOL     vw 2548   2.171   3.950   5.691  0.3687  0.0830 -0.4213
  638SOL     ow 2549   5.124   2.111   6.482 -0.5166 -0.2587 -0.1979
  638SOL     hw 2550   5.172   2.055   6.420  1.5694  1.1845  0.0137
  638SOL     hw 2551   5.102   2.189   6.432 -2.2731 -0.6911 -0.1387
  638SOL     vw 2552   5.128   2.114   6.467 -0.4733 -0.1253 -0.1621
  639SOL     ow 2553   5.574   2.090   0.640  0.0114 -0.4372 -0.8372
  639SOL     hw 2554   5.501   2.032   0.661 -0.0992  0.4665  1.4914
  639SOL     hw 2555   5.580   2.150   0.714  2.4903  0.1658 -1.4296
  639SOL     vw 2556   5.565   2.090   0.652  0.3240 -0.2383 -0.6082
  640SOL     ow 2557   3.766   6.698   0.937  0.0447  0.5663 -0.0585
  640SOL     hw 2558   3.844   6.644   0.926  1.4732  2.1802  1.6204
  640SOL     hw 2559   3.777   6.770   0.875  0.0241  0.9455  0.3767
  640SOL     vw 2560   3.778   6.700   0.927  0.2304  0.8292  0.2205
  641SOL     ow 2561   4.030   5.604   0.848  0.1458 -0.3987  0.3567
  641SOL     hw 2562   3.962   5.625   0.911  0.5678  0.7484  0.4587
  641SOL     hw 2563   4.112   5.623   0.893  0.4826 -0.3490 -0.2592
  641SOL     vw 2564   4.032   5.609   0.862  0.2458 -0.2410  0.2889
  642SOL     ow 2565   4.430   4.272   2.412 -0.2772  0.0222 -0.0656
  642SOL     hw 2566   4.370   4.341   2.384 -0.2472 -0.5183 -1.5113
  642SOL     hw 2567   4.471   4.308   2.492 -0.1182  1.7521 -0.8685
  642SOL     vw 2568   4.427   4.286   2.419 -0.2525  0.1793 -0.3623
  643SOL     ow 2569   2.059   4.229   5.818 -0.8031 -0.2402 -0.0316
  643SOL     hw 2570   2.022   4.314   5.795 -1.4042 -0.9019 -1.5952
  643SOL     hw 2571   2.148   4.249   5.846 -0.0402  0.7150 -2.8089
  643SOL     vw 2572   2.066   4.243   5.819 -0.7817 -0.2012 -0.6042
  644SOL     ow 2573   6.816   2.658   1.607  0.0047  0.0196  0.1755
  644SOL     hw 2574   6.779   2.601   1.674 -0.9944  0.9486  0.4367
  644SOL     hw 2575   6.827   2.601   1.531 -0.0303 -0.7507  0.7438
  644SOL     vw 2576   6.812   2.643   1.606 -0.1316  0.0404  0.2849
  645SOL     ow 2577   2.413   5.192   2.339  0.5164 -0.0612 -0.0594
  645SOL     hw 2578   2.374   5.271   2.377 -0.2260 -1.0046  1.2306
  645SOL     hw 2579   2.465   5.154   2.410 -0.2290 -1.4383 -0.2142
  645SOL     vw 2580   2.415   5.197   2.353  0.3201 -0.3674  0.0905
  646SOL     ow 2581   3.864   6.076   5.656  0.4014 -0.3607  0.7452
  646SOL     hw 2582   3.871   6.145   5.722 -0.2580 -1.9251  2.5334
  646SOL     hw 2583   3.771   6.058   5.650  0.2838  0.5793 -1.6130
  646SOL     vw 2584   3.853   6.083   5.664  0.2990 -0.4430  0.6700
  647SOL     ow 2585   6.927   0.154   6.797  0.1501 -0.7083  0.5140
  647SOL     hw 2586   6.868   0.203   6.740  0.3336 -2.2444 -1.0825
  647SOL     hw 2587   6.915   0.063   6.771  0.5181 -1.4374  2.7292
  647SOL     vw 2588   6.918   0.149   6.786  0.2232 -1.0072  0.5958
  648SOL     ow 2589   0.811   6.147   2.591  0.4546  0.2075  0.4381
  648SOL     hw 2590   0.882   6.084   2.577 -0.5866 -1.2122  1.2451
  648SOL     hw 2591   0.842   6.202   2.663  0.2523 -1.2360  1.6824
  648SOL     vw 2592   0.824   6.146   2.599  0.2906 -0.1702  0.7088
  649SOL     ow 2593   1.544   4.815   1.679 -0.3694  0.1065  0.1638
  649SOL     hw 2594   1.458   4.794   1.714 -0.0807  0.7977  1.3177
  649SOL     hw 2595   1.577   4.731   1.646 -1.0321 -0.3712  0.6939
  649SOL     vw 2596   1.537   4.801   1.679 -0.4188  0.1345  0.3859
  650SOL     ow 2597   6.142   4.110   6.073 -0.2721 -0.3671 -0.1949
  650SOL     hw 2598   6.199   4.101   5.997 -2.2237 -0.6575 -1.7089
  650SOL     hw 2599   6.200   4.135   6.145  1.5273  0.7070 -1.9460
  650SOL     vw 2600   6.157   4.112   6.073 -0.2921 -0.2637 -0.6258
  651SOL     ow 2601   3.746   5.070   5.627  0.1337  0.1641 -0.4357
  651SOL     hw 2602   3.686   4.997   5.611  1.0910 -0.9111  0.6814
  651SOL     hw 2603   3.693   5.135   5.673 -0.2183 -0.7324  0.4693
  651SOL     vw 2604   3.731   5.069   5.631  0.2136 -0.0961 -0.1688
  652SOL     ow 2605   0.484   2.191   1.454  0.1861 -0.0882  0.5373
  652SOL     hw 2606   0.413   2.155   1.400  2.2043 -1.0185 -1.7270
  652SOL     hw 2607   0.541   2.235   1.391  1.4859  0.8773  2.3064
  652SOL     vw 2608   0.482   2.192   1.438  0.6239 -0.0836  0.4719
  653SOL     ow 2609   5.310   4.245   4.968 -0.3613  0.4129 -0.2646
  653SOL     hw 2610   5.235   4.201   5.008 -0.9775  2.3622  0.8075
  653SOL     hw 2611   5.360   4.173   4.928 -0.7036 -1.4099  2.3365
  653SOL     vw 2612   5.306   4.229   4.968 -0.4880  0.4296  0.2201
  654SOL     ow 2613   1.423   2.631   2.657 -0.5854  0.6593  0.5851
  654SOL     hw 2614   1.515   2.624   2.631 -1.0226 -0.6529 -0.6984
  654SOL     hw 2615   1.419   2.588   2.742 -0.1180  0.1432  0.3541
  654SOL     vw 2616   1.435   2.625   2.665 -0.5814  0.4179  0.3853
  655SOL     ow 2617   4.017   6.902   1.656  0.1095  0.3423 -0.1635
  655SOL     hw 2618   4.041   6.863   1.571 -0.7780 -1.9030  0.5472
  655SOL     hw 2619   3.973   6.984   1.633 -0.4508 -0.4009 -1.9163
  655SOL     vw 2620   4.014   6.908   1.642 -0.0815 -0.0520 -0.3009
  656SOL     ow 2621   6.182   2.036   0.626 -0.3342 -0.1045 -0.4020
  656SOL     hw 2622   6.118   2.087   0.676  0.9656 -0.2462  1.4962
  656SOL     hw 2623   6.263   2.087   0.632  0.4687 -1.3667 -0.2671
  656SOL     vw 2624   6.185   2.050   0.633 -0.0567 -0.2898 -0.1337
  657SOL     ow 2625   3.229   4.290   4.256 -0.1645 -0.2469  0.3080
  657SOL     hw 2626   3.159   4.324   4.312  0.4759  1.3010  0.2067
  657SOL     hw 2627   3.265   4.216   4.305 -0.9168 -0.1533  1.0230
  657SOL     vw 2628   3.225   4.284   4.269 -0.1793 -0.0303  0.3886
  658SOL     ow 2629   0.706   5.696   1.738  0.2685 -0.1813 -0.5254
  658SOL     hw 2630   0.754   5.660   1.813 -0.7945 -1.7769 -0.5544
  658SOL     hw 2631   0.615   5.671   1.754 -0.4332  1.8834 -0.9781
  658SOL     vw 2632   0.700   5.688   1.750  0.0356 -0.1192 -0.5890
  659SOL     ow 2633   0.507   1.582   2.709  0.1414 -0.0063  1.0344
  659SOL     hw 2634   0.485   1.575   2.616  1.0798  0.6670  0.7445
  659SOL     hw 2635   0.456   1.513   2.751  1.3613 -1.8132 -0.2902
  659SOL     vw 2636   0.497   1.572   2.702  0.4261 -0.1559  0.8214
  660SOL     ow 2637   4.996   5.174   3.488 -0.3511  0.2909  0.2235
  660SOL     hw 2638   4.923   5.111   3.488 -1.6747  1.5802 -3.1147
  660SOL     hw 2639   5.065   5.131   3.437  0.1460  0.1949  0.9612
  660SOL     vw 2640   4.995   5.160   3.481 -0.4599  0.4487 -0.1197
  661SOL     ow 2641   4.347   3.119   1.505 -0.4877  0.6564  0.2255
  661SOL     hw 2642   4.261   3.094   1.473  0.0125  0.4499 -0.9992
  661SOL     hw 2643   4.331   3.153   1.593 -1.9177  1.4307 -0.3110
  661SOL     vw 2644   4.334   3.120   1.513 -0.6104  0.7312 -0.0069
  662SOL     ow 2645   0.829   5.929   5.291 -0.0950 -0.3287  0.6644
  662SOL     hw 2646   0.753   5.952   5.237  0.7042  1.7231  0.3249
  662SOL     hw 2647   0.827   5.992   5.363  0.4922 -1.1853  1.4582
  662SOL     vw 2648   0.819   5.940   5.294  0.0879 -0.1712  0.7243
  663SOL     ow 2649   0.938   1.401   2.916  0.5714  0.3391  0.5264
  663SOL     hw 2650   1.019   1.447   2.896  0.4294  1.5568  2.4524
  663SOL     hw 2651   0.949   1.371   3.006 -0.0744 -1.8901 -0.0895
  663SOL     vw 2652   0.950   1.403   2.925  0.4675  0.2056  0.6992
  664SOL     ow 2653   2.926   1.397   1.921 -0.1594  0.2329  1.0023
  664SOL     hw 2654   3.021   1.389   1.917 -0.2658 -0.8099 -1.5100
  664SOL     hw 2655   2.910   1.492   1.919  0.8013  0.4466  2.3015
  664SOL     vw 2656   2.936   1.409   1.920 -0.0466  0.1235  0.8423
  665SOL     ow 2657   3.598   3.451   1.736  0.1092  0.2932  0.6536
  665SOL     hw 2658   3.571   3.395   1.664  2.5419 -2.2293  1.5248
  665SOL     hw 2659   3.636   3.528   1.694 -0.2159 -0.2618 -0.7013
  665SOL     vw 2660   3.599   3.454   1.721  0.3873 -0.1129  0.5898
  666SOL     ow 2661   2.836   1.938   4.289  0.5519  0.1191 -0.3366
  666SOL     hw 2662   2.786   2.018   4.310  0.1588 -0.1268 -0.3318
  666SOL     hw 2663   2.776   1.866   4.308  0.5634 -0.1517 -1.2613
  666SOL     vw 2664   2.821   1.939   4.294  0.5016  0.0509 -0.4582
  667SOL     ow 2665   0.935   1.055   2.503 -0.4794 -0.2083  0.0394
  667SOL     hw 2666   0.909   1.078   2.413 -2.5486  0.5257  0.7691
  667SOL     hw 2667   0.864   0.999   2.534 -0.1987  0.2169  1.4992
  667SOL     vw 2668   0.922   1.051   2.495 -0.7154 -0.0554  0.3282
  668SOL     ow 2669   3.729   0.537   3.747  0.2777  0.0350 -0.5921
  668SOL     hw 2670   3.660   0.526   3.812 -1.4385  0.5930 -2.2460
  668SOL     hw 2671   3.759   0.627   3.758  2.5171 -0.8476  1.6902
  668SOL     vw 2672   3.724   0.547   3.757  0.3469 -0.0078 -0.5093
  669SOL     ow 2673   5.472   2.846   0.205 -0.1111 -0.0103 -0.1581
  669SOL     hw 2674   5.406   2.794   0.251  0.5863 -0.2240  0.6326
  669SOL     hw 2675   5.423   2.915   0.162 -0.8140  0.0746  0.7566
  669SOL     vw 2676   5.457   2.848   0.206 -0.1121 -0.0273  0.0669
  670SOL     ow 2677   6.237   0.539   6.552 -0.0144 -0.0701 -0.1636
  670SOL     hw 2678   6.303   0.602   6.579  1.1116 -0.9017 -0.9050
  670SOL     hw 2679   6.249   0.465   6.611  0.8486 -0.8994 -1.3472
  670SOL     vw 2680   6.247   0.538   6.563  0.2480 -0.2892 -0.4177
  671SOL     ow 2681   5.058   2.850   6.282  0.2461  0.0986 -0.3943
  671SOL     hw 2682   5.124   2.903   6.327  1.5713 -2.5996  1.0779
  671SOL     hw 2683   5.093   2.762   6.283 -1.6080 -0.8159 -3.2026
  671SOL     vw 2684   5.071   2.846   6.288  0.1762 -0.3781 -0.5705
  672SOL     ow 2685   5.881   0.737   2.609 -0.4680  0.1888  0.5564
  672SOL     hw 2686   5.884   0.806   2.543  0.0343 -0.1084  0.2648
  672SOL     hw 2687   5.852   0.660   2.561  0.5725 -0.1969  0.5246
  672SOL     vw 2688   5.878   0.736   2.594 -0.2644  0.0987  0.5138
  673SOL     ow 2689   1.665   5.273   1.476  0.6128  0.0749  0.2557
  673SOL     hw 2690   1.728   5.346   1.474  1.2958 -0.4263  1.7038
  673SOL     hw 2691   1.621   5.282   1.561 -4.1210  2.6476 -2.1215
  673SOL     vw 2692   1.668   5.284   1.487  0.0784  0.3483  0.1331
  674SOL     ow 2693   1.785   5.535   1.465  0.2730 -0.3134  0.3391
  674SOL     hw 2694   1.715   5.598   1.448 -1.1331 -1.9553 -0.2651
  674SOL     hw 2695   1.810   5.551   1.555 -0.2113  0.9483  0.2749
  674SOL     vw 2696   1.779   5.546   1.474  0.0235 -0.3633  0.2509
  675SOL     ow 2697   1.587   4.534   0.336  0.3535 -0.3685  0.0796
  675SOL     hw 2698   1.536   4.464   0.296 -0.4212 -0.4492  1.1707
  675SOL     hw 2699   1.674   4.497   0.348  0.3814 -0.6079 -0.7764
  675SOL     vw 2700   1.592   4.520   0.332  0.2550 -0.4106  0.1107
  676SOL     ow 2701   2.423   2.434   3.377  0.3579  0.0113 -0.3792
  676SOL     hw 2702   2.414   2.361   3.316 -0.1638 -0.0888 -0.1906
  676SOL     hw 2703   2.484   2.494   3.334  0.2502 -0.2108 -0.8474
  676SOL     vw 2704   2.430   2.432   3.364  0.2750 -0.0312 -0.4160
  677SOL     ow 2705   3.266   1.412   6.400  0.1177 -0.2533  0.1428
  677SOL     hw 2706   3.285   1.367   6.318 -1.4025 -0.2983 -0.1981
  677SOL     hw 2707   3.173   1.399   6.415 -0.2616  2.1663  0.3831
  677SOL     vw 2708   3.256   1.404   6.391 -0.1329  0.0600  0.1297
  678SOL     ow 2709   4.953   1.109   0.793 -0.0009 -0.0302  0.1163
  678SOL     hw 2710   4.942   1.129   0.886 -2.5479  2.1842 -0.5449
  678SOL     hw 2711   5.045   1.129   0.775  0.1078  1.1458  1.7889
  678SOL     vw 2712   4.964   1.114   0.803 -0.3223  0.4172  0.2498
  679SOL     ow 2713   5.965   0.248   1.660 -0.0118 -0.3524  0.4109
  679SOL     hw 2714   5.871   0.233   1.672 -0.2160 -0.0042 -0.6634
  679SOL     hw 2715   5.999   0.259   1.749 -1.0755  0.0453  0.7824
  679SOL     vw 2716   5.957   0.247   1.673 -0.1791 -0.2540  0.3182
  680SOL     ow 2717   1.185   0.580   1.930 -0.3746  0.0480  0.2372
  680SOL     hw 2718   1.170   0.656   1.874  1.1395 -0.0797 -0.3856
  680SOL     hw 2719   1.245   0.611   1.997  0.6094 -0.7016 -0.2860
  680SOL     vw 2720   1.191   0.594   1.932 -0.0450 -0.0678  0.0861
  681SOL     ow 2721   6.111   1.251   4.467 -0.5198 -0.2085  0.2024
  681SOL     hw 2722   6.173   1.207   4.526 -1.0467 -0.2447  0.7425
  681SOL     hw 2723   6.066   1.315   4.523 -1.6146 -0.8178  0.0571
  681SOL     vw 2724   6.113   1.253   4.482 -0.7334 -0.2937  0.2546
  682SOL     ow 2725   3.439   0.677   6.941  0.5828  0.1501  0.3029
  682SOL     hw 2726   3.356   0.663   6.894  0.6194 -0.9870  0.5495
  682SOL     hw 2727   3.496   0.719   6.877  0.6305 -1.3699 -0.6901
  682SOL     vw 2728   3.435   0.681   6.926  0.5940 -0.2005  0.2046
  683SOL     ow 2729   2.539   0.770   2.600 -0.4212 -0.6018  0.0439
  683SOL     hw 2730   2.510   0.764   2.509 -0.5906 -1.7119  0.1560
  683SOL     hw 2731   2.618   0.716   2.604  0.3358  0.4970  0.2725
  683SOL     vw 2732   2.545   0.762   2.589 -0.3436 -0.6033  0.0889
  684SOL     ow 2733   0.202   3.953   4.928  0.0883  0.3123  0.1655
  684SOL     hw 2734   0.262   4.022   4.958  0.5842 -0.2528  0.5071
  684SOL     hw 2735   0.199   3.891   5.001  0.1743 -0.3563 -0.3857
  684SOL     vw 2736   0.210   3.954   4.942  0.1651  0.1495  0.1378
  685SOL     ow 2737   5.269   3.834   2.424 -0.0251  0.7603 -0.4811
  685SOL     hw 2738   5.223   3.914   2.448 -0.8870  0.2181 -0.2426
  685SOL     hw 2739   5.325   3.815   2.499 -1.4155  0.0142  0.4277
  685SOL     vw 2740   5.270   3.842   2.437 -0.3223  0.5902 -0.3297
  686SOL     ow 2741   1.825   5.252   4.464  0.3854  0.9423  0.0766
  686SOL     hw 2742   1.750   5.312   4.464  1.2944  2.1340 -1.3251
  686SOL     hw 2743   1.877   5.279   4.388  2.0409 -0.1131  0.7933
  686SOL     vw 2744   1.822   5.264   4.454  0.7238  0.9601 -0.0136
  687SOL     ow 2745   1.521   6.134   0.144 -0.1697  0.0932 -0.0531
  687SOL     hw 2746   1.438   6.102   0.108 -0.5476  0.0890  0.8049
  687SOL     hw 2747   1.564   6.055   0.177  0.6798 -0.0624 -1.4581
  687SOL     vw 2748   1.516   6.119   0.143 -0.1075  0.0722 -0.1252
  688SOL     ow 2749   6.006   6.890   5.244 -0.0917  0.6569 -0.0464
  688SOL     hw 2750   6.013   6.855   5.333  1.3527 -0.6974 -0.6440
  688SOL     hw 2751   5.914   6.916   5.235 -1.6447 -3.8510  0.2260
  688SOL     vw 2752   5.995   6.889   5.254 -0.1061 -0.1163 -0.0892
  689SOL     ow 2753   6.317   3.516   6.633  0.5316 -0.0683 -0.2897
  689SOL     hw 2754   6.397   3.519   6.581  1.8769 -0.5985  1.6246
  689SOL     hw 2755   6.324   3.592   6.691 -2.2106  2.0822 -2.4709
  689SOL     vw 2756   6.329   3.527   6.634  0.3476  0.1454 -0.3250
  690SOL     ow 2757   1.988   3.721   4.157  0.3948  0.2288 -0.2245
  690SOL     hw 2758   1.960   3.774   4.082  2.5395  1.9299  0.0635
  690SOL     hw 2759   1.935   3.751   4.230  1.0811  1.5146 -0.2283
  690SOL     vw 2760   1.978   3.732   4.156  0.7683  0.6227 -0.1869
  691SOL     ow 2761   2.427   5.814   5.416  0.3466  0.2765 -0.3870
  691SOL     hw 2762   2.436   5.826   5.322  1.5349 -0.2451 -0.3609
  691SOL     hw 2763   2.358   5.875   5.442 -0.0797  0.3389 -1.6016
  691SOL     vw 2764   2.419   5.823   5.407  0.4472  0.2160 -0.5438
  692SOL     ow 2765   0.172   4.377   4.063 -0.4810 -0.1709  0.4319
  692SOL     hw 2766   0.262   4.381   4.096  0.1613  0.6723 -1.2889
  692SOL     hw 2767   0.126   4.446   4.110  0.3021  0.7324 -0.0760
  692SOL     vw 2768   0.178   4.387   4.074 -0.2929  0.0591  0.1380
  693SOL     ow 2769   3.541   3.184   1.821 -1.0173 -0.3852  0.1961
  693SOL     hw 2770   3.548   3.108   1.878  0.2632 -0.9921 -0.7369
  693SOL     hw 2771   3.558   3.151   1.733 -0.9553  0.8790 -0.2980
  693SOL     vw 2772   3.544   3.170   1.817 -0.8402 -0.2986  0.0078
  694SOL     ow 2773   5.949   5.392   6.393  0.0279  0.2828 -0.7286
  694SOL     hw 2774   5.863   5.429   6.373 -0.2701  0.1850  0.3061
  694SOL     hw 2775   5.968   5.334   6.320 -0.7270  0.4152 -1.0363
  694SOL     vw 2776   5.941   5.390   6.381 -0.1109  0.2873 -0.6328
  695SOL     ow 2777   1.459   0.989   3.651 -0.1548 -0.9040  0.1741
  695SOL     hw 2778   1.472   1.082   3.669 -0.3384 -1.0707  1.1886
  695SOL     hw 2779   1.532   0.966   3.593  0.0809 -0.2164  0.1850
  695SOL     vw 2780   1.470   0.998   3.645 -0.1479 -0.8353  0.3093
  696SOL     ow 2781   2.003   2.842   5.528 -0.0464 -0.4765 -0.0891
  696SOL     hw 2782   2.005   2.815   5.620  0.5194  1.5116  0.5505
  696SOL     hw 2783   1.950   2.776   5.484  1.6182 -2.8303  1.1900
  696SOL     vw 2784   1.997   2.830   5.534  0.2480 -0.5246  0.1638
  697SOL     ow 2785   1.955   3.458   4.080  0.2837  0.6665  0.6066
  697SOL     hw 2786   1.872   3.506   4.093  0.5358  1.4616 -0.5254
  697SOL     hw 2787   1.928   3.374   4.045 -0.1340  0.1712  2.0250
  697SOL     vw 2788   1.940   3.453   4.077  0.2618  0.7060  0.6444
  698SOL     ow 2789   0.948   3.348   4.547  0.7057  0.1471  0.2372
  698SOL     hw 2790   0.957   3.256   4.570 -0.4961 -0.2417 -0.8034
  698SOL     hw 2791   0.880   3.381   4.605 -0.3963 -0.1655 -0.8533
  698SOL     vw 2792   0.940   3.340   4.558  0.4017  0.0546 -0.0441
  699SOL     ow 2793   3.535   2.759   4.437 -0.3043  0.1581  0.3437
  699SOL     hw 2794   3.447   2.792   4.452  0.2301  1.4558  0.6808
  699SOL     hw 2795   3.546   2.762   4.342 -0.3426  0.7266  0.3592
  699SOL     vw 2796   3.525   2.764   4.426 -0.2389  0.4044  0.3901
  700SOL     ow 2797   0.796   5.818   6.089 -0.0193 -0.5597  0.2337
  700SOL     hw 2798   0.789   5.772   6.005  0.1210 -1.5772  0.7639
  700SOL     hw 2799   0.843   5.898   6.068  2.8059 -2.1722 -0.1771
  700SOL     vw 2800   0.801   5.822   6.075  0.3720 -0.9067  0.2494
  701SOL     ow 2801   0.193   1.974   3.894 -0.5963 -0.1061 -0.4009
  701SOL     hw 2802   0.101   1.973   3.866 -0.2928  1.4983 -1.6188
  701SOL     hw 2803   0.225   2.060   3.866  0.3101  0.9270  3.2199
  701SOL     vw 2804   0.185   1.985   3.887 -0.4367  0.2419 -0.0839
  702SOL     ow 2805   4.515   1.680   5.516 -0.3436  0.5797  0.3424
  702SOL     hw 2806   4.549   1.591   5.517  0.3602  0.8330  0.0038
  702SOL     hw 2807   4.473   1.688   5.430 -1.0753  0.3399  0.6705
  702SOL     vw 2808   4.514   1.669   5.505 -0.3471  0.5814  0.3409
  703SOL     ow 2809   5.957   3.363   5.746 -0.1590  0.0066 -0.2474
  703SOL     hw 2810   6.016   3.317   5.806  0.1442  1.6360  0.7728
  703SOL     hw 2811   5.896   3.410   5.803 -1.6994 -0.6636 -1.2708
  703SOL     vw 2812   5.957   3.363   5.761 -0.3221  0.1332 -0.2480
  704SOL     ow 2813   5.365   1.665   2.312  0.0019 -0.1263 -0.3266
  704SOL     hw 2814   5.347   1.571   2.307 -0.9431 -0.0902  1.4884
  704SOL     hw 2815   5.284   1.707   2.283 -0.2911  0.0859  0.7424
  704SOL     vw 2816   5.352   1.658   2.308 -0.1614 -0.0935  0.0539
  705SOL     ow 2817   6.898   1.325   0.699 -0.1997 -0.3869  0.3978
  705SOL     hw 2818   6.837   1.278   0.641  1.5910 -2.3547 -0.0131
  705SOL     hw 2819   6.846   1.346   0.776 -2.4571  1.6165 -1.5003
  705SOL     vw 2820   6.883   1.322   0.701 -0.2611 -0.3822  0.0931
  706SOL     ow 2821   1.052   5.865   3.088 -0.0923 -0.4396  0.0104
  706SOL     hw 2822   1.019   5.824   3.168  0.8985 -0.2503  0.5434
  706SOL     hw 2823   1.044   5.959   3.103  0.9051 -0.3789  0.2771
  706SOL     vw 2824   1.047   5.872   3.101  0.1699 -0.4065  0.1159
  707SOL     ow 2825   4.295   0.912   0.237  0.2726  0.5927  0.3500
  707SOL     hw 2826   4.376   0.963   0.239  0.5753  0.1325  0.0384
  707SOL     hw 2827   4.247   0.947   0.161  0.3931  0.5429  0.2506
  707SOL     vw 2828   4.299   0.924   0.227  0.3285  0.5254  0.2958
  708SOL     ow 2829   5.563   5.733   5.625  0.6638 -0.3098  0.4066
  708SOL     hw 2830   5.637   5.674   5.616  1.6384  0.9326  0.0530
  708SOL     hw 2831   5.547   5.737   5.719  1.9515  0.4671  0.6161
  708SOL     vw 2832   5.570   5.725   5.636  0.9625 -0.0436  0.3877
  709SOL     ow 2833   3.283   1.643   2.541  0.6272  0.4148  0.0132
  709SOL     hw 2834   3.370   1.664   2.577  0.0810  0.6893  1.2211
  709SOL     hw 2835   3.269   1.551   2.564  0.3767  0.5213  0.2865
  709SOL     vw 2836   3.293   1.634   2.549  0.5221  0.4652  0.2086
  710SOL     ow 2837   5.800   2.147   6.061 -0.0546  0.2879 -0.1654
  710SOL     hw 2838   5.833   2.060   6.085 -0.4196  0.0514 -0.5194
  710SOL     hw 2839   5.872   2.188   6.013  0.4236  0.4971  0.7103
  710SOL     vw 2840   5.814   2.141   6.058 -0.0396  0.2842 -0.0966
  711SOL     ow 2841   2.676   2.556   2.553 -0.1547 -0.0564 -0.2891
  711SOL     hw 2842   2.593   2.510   2.567 -2.1259  3.1199 -0.5093
  711SOL     hw 2843   2.680   2.572   2.459 -0.1779  1.2912 -0.0770
  711SOL     vw 2844   2.666   2.552   2.543 -0.4179  0.5404 -0.2900
  712SOL     ow 2845   5.703   2.205   0.401 -0.8227  0.3884  0.4994
  712SOL     hw 2846   5.660   2.165   0.477  0.3050 -0.0960  0.9041
  712SOL     hw 2847   5.718   2.132   0.341  0.0051  0.4398  0.6404
  712SOL     vw 2848   5.699   2.190   0.403 -0.5648  0.3313  0.5714
  713SOL     ow 2849   6.026   3.562   6.867 -0.3149 -0.3360 -0.1211
  713SOL     hw 2850   6.108   3.611   6.876 -0.3235 -0.3761  0.1729
  713SOL     hw 2851   5.961   3.616   6.913 -1.0954  1.2061 -2.7597
  713SOL     vw 2852   6.028   3.576   6.874 -0.4191 -0.1379 -0.4303
  714SOL     ow 2853   5.273   3.533   2.273 -0.2810  0.6152 -0.2293
  714SOL     hw 2854   5.179   3.549   2.275 -0.3371  0.4375 -1.1594
  714SOL     hw 2855   5.282   3.443   2.241  0.1537 -0.0440  1.6260
  714SOL     vw 2856   5.262   3.523   2.269 -0.2310  0.5047 -0.1073
  715SOL     ow 2857   0.625   6.909   3.775 -0.0666  0.5912 -0.3190
  715SOL     hw 2858   0.578   6.981   3.817  1.5562  0.5519  1.7381
  715SOL     hw 2859   0.577   6.831   3.801  1.1901  0.5191  2.0572
  715SOL     vw 2860   0.613   6.908   3.784  0.3133  0.5767  0.2660
  716SOL     ow 2861   4.788   5.430   3.124  0.2291 -0.2146 -0.0956
  716SOL     hw 2862   4.718   5.410   3.186  0.9560  0.0008  0.8151
  716SOL     hw 2863   4.761   5.513   3.085 -1.6339 -1.6882 -2.1889
  716SOL     vw 2864   4.775   5.439   3.127  0.0794 -0.3808 -0.2517
  717SOL     ow 2865   5.214   3.697   6.657  0.5786 -0.0361  0.2373
  717SOL     hw 2866   5.225   3.720   6.749 -0.1005 -1.5519  0.7408
  717SOL     hw 2867   5.215   3.780   6.610  0.8341  0.7649  1.6262
  717SOL     vw 2868   5.215   3.711   6.663  0.5229 -0.1304  0.4871
  718SOL     ow 2869   3.725   4.124   4.912  0.0035 -0.6002 -0.4588
  718SOL     hw 2870   3.811   4.129   4.872  0.8900 -1.1367  1.2709
  718SOL     hw 2871   3.700   4.032   4.905  0.6903 -0.9506  1.1476
  718SOL     vw 2872   3.733   4.113   4.906  0.2111 -0.7172 -0.0188
  719SOL     ow 2873   2.235   4.374   6.751  0.0563  0.2098 -0.3491
  719SOL     hw 2874   2.185   4.320   6.813 -0.2510 -0.0707 -0.8364
  719SOL     hw 2875   2.243   4.319   6.673  0.3571  0.5997 -0.5931
  719SOL     vw 2876   2.229   4.360   6.749  0.0554  0.2244 -0.4456
  720SOL     ow 2877   3.732   2.747   1.721 -0.4595 -0.4324  0.3981
  720SOL     hw 2878   3.807   2.805   1.732 -0.2553 -0.0220 -2.4991
  720SOL     hw 2879   3.663   2.788   1.773  1.2015 -0.7698  3.0416
  720SOL     vw 2880   3.732   2.760   1.729 -0.2135 -0.4227  0.3647
  721SOL     ow 2881   1.014   3.097   4.638  0.0419 -0.0260 -0.6982
  721SOL     hw 2882   1.104   3.098   4.606  0.4117  2.1092  0.2434
  721SOL     hw 2883   0.971   3.029   4.586  2.1562 -1.0524 -1.2078
  721SOL     vw 2884   1.020   3.088   4.627  0.3697  0.1203 -0.6411
  722SOL     ow 2885   6.406   5.566   0.943  0.3182 -0.9317 -0.5056
  722SOL     hw 2886   6.351   5.642   0.963  2.0191  0.4435 -0.7678
  722SOL     hw 2887   6.439   5.537   1.028  0.8075 -0.4628 -0.5342
  722SOL     vw 2888   6.403   5.572   0.957  0.6070 -0.6886 -0.5439
  723SOL     ow 2889   6.428   4.060   4.462  0.2243 -0.5692  0.8545
  723SOL     hw 2890   6.498   4.025   4.518  2.2671  2.7345  0.6702
  723SOL     hw 2891   6.363   4.095   4.523  0.1999 -1.0279  1.0902
  723SOL     vw 2892   6.429   4.060   4.477  0.4907 -0.1938  0.8612
  724SOL     ow 2893   4.764   5.870   2.053  0.3018 -0.6243 -0.7509
  724SOL     hw 2894   4.779   5.783   2.015  0.3431 -1.0635  0.2256
  724SOL     hw 2895   4.847   5.892   2.094  0.5091  0.1993 -1.6014
  724SOL     vw 2896   4.777   5.861   2.053  0.3345 -0.5736 -0.7342
  725SOL     ow 2897   4.390   0.337   3.126 -0.2454  0.1331  0.4728
  725SOL     hw 2898   4.406   0.283   3.203  2.1668 -0.2124 -0.1674
  725SOL     hw 2899   4.352   0.276   3.062 -0.7779  0.0458  0.8660
  725SOL     vw 2900   4.387   0.321   3.128  0.0026  0.0760  0.4401
  726SOL     ow 2901   3.182   6.833   5.958  0.8052 -0.3266 -0.2029
  726SOL     hw 2902   3.209   6.904   6.018  1.3593 -0.4413 -0.3202
  726SOL     hw 2903   3.178   6.756   6.014  0.1081 -0.1904 -0.0548
  726SOL     vw 2904   3.185   6.832   5.974  0.7863 -0.3238 -0.1988
  727SOL     ow 2905   4.870   1.841   5.500 -0.4164 -0.1062 -0.6783
  727SOL     hw 2906   4.935   1.819   5.566  1.2579  1.3758 -1.7660
  727SOL     hw 2907   4.850   1.934   5.516  0.7227  0.5570 -2.7489
  727SOL     vw 2908   4.876   1.851   5.511 -0.0448  0.1768 -1.0951
  728SOL     ow 2909   0.435   1.826   2.862  0.0020  0.3586  0.0207
  728SOL     hw 2910   0.359   1.768   2.853  1.2238 -1.1710 -1.0882
  728SOL     hw 2911   0.410   1.905   2.814 -0.8301 -0.1863 -0.4832
  728SOL     vw 2912   0.422   1.829   2.854  0.0534  0.0849 -0.1922
  729SOL     ow 2913   6.371   5.829   4.245  0.1996 -0.1564 -0.3478
  729SOL     hw 2914   6.298   5.787   4.199  0.7460  0.0663 -1.4326
  729SOL     hw 2915   6.429   5.756   4.268 -0.7860 -0.4505  1.3485
  729SOL     vw 2916   6.369   5.814   4.242  0.1419 -0.1657 -0.2670
  730SOL     ow 2917   3.890   5.696   6.462  0.3226 -0.8409  0.4102
  730SOL     hw 2918   3.835   5.634   6.414 -0.7399  0.7032 -0.4636
  730SOL     hw 2919   3.843   5.710   6.545 -0.7175  0.5238 -0.3606
  730SOL     vw 2920   3.876   5.689   6.467  0.0453 -0.4573  0.1934
  731SOL     ow 2921   0.749   5.952   0.272  0.2075 -0.0451 -0.0735
  731SOL     hw 2922   0.690   6.017   0.311 -0.4757 -1.1592  0.7917
  731SOL     hw 2923   0.827   5.954   0.328 -0.0119 -0.3199  0.2419
  731SOL     vw 2924   0.751   5.961   0.284  0.0885 -0.2284  0.0823
  732SOL     ow 2925   0.185   3.121   4.775  0.3831 -0.1901 -0.4688
  732SOL     hw 2926   0.206   3.187   4.709  0.6938 -1.2634 -1.4808
  732SOL     hw 2927   0.206   3.163   4.859 -2.6682  2.2774 -0.7290
  732SOL     vw 2928   0.191   3.135   4.777  0.0215 -0.0062 -0.6368
  733SOL     ow 2929   1.003   0.289   4.674  0.3945 -0.3229 -1.0048
  733SOL     hw 2930   0.910   0.297   4.692  0.9443  1.5738  1.6629
  733SOL     hw 2931   1.010   0.291   4.579 -2.2122  0.1062 -1.2568
  733SOL     vw 2932   0.992   0.290   4.664  0.1231 -0.0160 -0.6864
  734SOL     ow 2933   1.614   2.275   5.326 -0.4234 -0.6089 -0.5810
  734SOL     hw 2934   1.539   2.238   5.372 -0.3795 -0.3769 -0.3223
  734SOL     hw 2935   1.601   2.249   5.235 -1.7525  0.9290 -0.8799
  734SOL     vw 2936   1.603   2.267   5.320 -0.5929 -0.3754 -0.5865
  735SOL     ow 2937   5.874   6.347   5.639  0.6641  0.3043  0.0586
  735SOL     hw 2938   5.788   6.377   5.609  0.8901  0.2128 -0.6843
  735SOL     hw 2939   5.927   6.426   5.643  0.1217  0.6252  2.0643
  735SOL     vw 2940   5.869   6.362   5.636  0.6225  0.3347  0.2253
  736SOL     ow 2941   4.963   3.959   6.137  0.1234 -0.6462  0.5387
  736SOL     hw 2942   4.888   3.945   6.080 -0.7573 -0.5285  1.6490
  736SOL     hw 2943   5.031   3.902   6.102 -0.2174 -0.1804 -0.9440
  736SOL     vw 2944   4.962   3.950   6.125 -0.0377 -0.5692  0.4900
  737SOL     ow 2945   5.444   3.218   4.655 -0.3424 -0.6555  0.0236
  737SOL     hw 2946   5.426   3.125   4.669  1.1693 -0.7248  1.8805
  737SOL     hw 2947   5.421   3.233   4.563 -0.6272 -2.8442 -0.3218
  737SOL     vw 2948   5.439   3.208   4.645 -0.1805 -0.9536  0.2234
  738SOL     ow 2949   4.796   3.342   4.511 -0.2590 -0.6191  0.2903
  738SOL     hw 2950   4.716   3.380   4.474 -0.6696  0.0714  1.8232
  738SOL     hw 2951   4.790   3.249   4.490 -0.6413 -0.3220 -1.0353
  738SOL     vw 2952   4.785   3.335   4.503 -0.3633 -0.4888  0.3173
  739SOL     ow 2953   6.432   4.195   3.089  0.0424  0.0573  0.1582
  739SOL     hw 2954   6.497   4.247   3.042  0.5047  0.1452  0.8747
  739SOL     hw 2955   6.480   4.117   3.116 -0.2435 -0.0334  0.4048
  739SOL     vw 2956   6.447   4.192   3.086  0.0658  0.0567  0.2854
  740SOL     ow 2957   0.382   0.091   3.133  0.1309  0.0774  0.2879
  740SOL     hw 2958   0.418   0.009   3.099  1.5123  0.6758  0.2196
  740SOL     hw 2959   0.423   0.159   3.079  0.2660  0.8925  1.3837
  740SOL     vw 2960   0.392   0.089   3.121  0.3310  0.2639  0.4236
  741SOL     ow 2961   0.836   3.331   2.112 -0.0406  0.2254  0.4610
  741SOL     hw 2962   0.861   3.405   2.168  0.3141 -0.2705  0.9636
  741SOL     hw 2963   0.758   3.295   2.154 -1.5172  1.5962 -0.9482
  741SOL     vw 2964   0.829   3.336   2.125 -0.1887  0.3408  0.3414
  742SOL     ow 2965   0.262   0.846   2.262 -0.4362 -0.1294  0.1062
  742SOL     hw 2966   0.293   0.920   2.313 -1.3141 -0.5702  1.3395
  742SOL     hw 2967   0.209   0.795   2.324 -0.5401 -1.3320 -0.9331
  742SOL     vw 2968   0.259   0.849   2.277 -0.5657 -0.3462  0.1318
  743SOL     ow 2969   1.550   3.303   1.645 -0.2129  0.3377  0.1968
  743SOL     hw 2970   1.538   3.372   1.710  0.2799 -0.4640  1.1663
  743SOL     hw 2971   1.545   3.221   1.695 -0.9023 -0.3551 -0.9378
  743SOL     vw 2972   1.547   3.301   1.660 -0.2388  0.1405  0.1751
  744SOL     ow 2973   5.223   3.819   3.330 -0.0596 -0.1639  0.7945
  744SOL     hw 2974   5.174   3.838   3.410 -0.5464  1.6314  0.1323
  744SOL     hw 2975   5.205   3.894   3.273  2.1262 -0.2592 -0.1232
  744SOL     vw 2976   5.214   3.831   3.333  0.1647  0.0603  0.5860
  745SOL     ow 2977   6.186   4.630   2.242 -0.0130  0.1839  0.3191
  745SOL     hw 2978   6.195   4.707   2.297  0.0494  0.3619  0.0640
  745SOL     hw 2979   6.105   4.644   2.192 -0.6658 -0.4907  1.1590
  745SOL     vw 2980   6.177   4.642   2.243 -0.0911  0.1183  0.3961
  746SOL     ow 2981   0.513   4.783   1.619  0.4184 -0.5219 -0.0735
  746SOL     hw 2982   0.491   4.789   1.712 -0.6068  0.0411 -0.3373
  746SOL     hw 2983   0.432   4.755   1.577  0.3098  1.0520 -1.0148
  746SOL     vw 2984   0.499   4.780   1.626  0.2688 -0.2398 -0.2325
  747SOL     ow 2985   0.238   3.228   4.524  0.6016 -0.2214  0.0558
  747SOL     hw 2986   0.321   3.192   4.493  0.9315  1.5614 -1.2866
  747SOL     hw 2987   0.220   3.301   4.465 -1.6384 -0.1848  0.6890
  747SOL     vw 2988   0.247   3.233   4.512  0.3496  0.0186 -0.0377
  748SOL     ow 2989   2.265   5.066   6.991 -0.9485 -0.5048  0.5415
  748SOL     hw 2990   2.182   5.059   6.943 -0.4274 -0.5545 -0.3604
  748SOL     hw 2991   2.333   5.054   6.925  0.0193  4.7449  0.1397
  748SOL     vw 2992   2.263   5.063   6.976 -0.7520  0.1814  0.3698
  749SOL     ow 2993   0.622   6.495   4.567 -0.0192  0.4624 -0.1600
  749SOL     hw 2994   0.564   6.456   4.632  4.6991 -1.4836  3.5319
  749SOL     hw 2995   0.619   6.435   4.493 -1.4845 -0.3995  0.5474
  749SOL     vw 2996   0.614   6.482   4.566  0.4100  0.0920  0.4203
  750SOL     ow 2997   2.130   0.218   6.349  0.0524 -0.2091 -0.6326
  750SOL     hw 2998   2.101   0.140   6.396 -0.2268  0.3470  0.1329
  750SOL     hw 2999   2.068   0.286   6.375  1.7374  0.9034  0.7157
  750SOL     vw 3000   2.118   0.216   6.359  0.2378  0.0111 -0.3536
  751SOL     ow 3001   2.503   5.551   5.323  0.3337  0.7511  0.0359
  751SOL     hw 3002   2.450   5.477   5.294 -0.5702  1.5460 -0.4140
  751SOL     hw 3003   2.570   5.561   5.255  1.4025 -0.5533  0.8459
  751SOL     vw 3004   2.505   5.543   5.310  0.3555  0.6838  0.0834
  752SOL     ow 3005   4.909   6.410   4.857 -0.3799  0.1265 -0.2343
  752SOL     hw 3006   4.849   6.460   4.803  0.4154  1.7537  0.3326
  752SOL     hw 3007   4.958   6.356   4.795 -1.4000 -0.1292 -0.8344
  752SOL     vw 3008   4.908   6.409   4.842 -0.4094  0.3078 -0.2387
  753SOL     ow 3009   1.243   0.439   3.993 -0.3595  0.1748  0.2339
  753SOL     hw 3010   1.181   0.384   4.040 -0.6841  0.1714 -0.1983
  753SOL     hw 3011   1.259   0.394   3.911 -0.0476  0.3490  0.1952
  753SOL     vw 3012   1.237   0.426   3.989 -0.3611  0.1973  0.1719
  754SOL     ow 3013   0.411   3.752   0.620 -0.0255  0.0418  0.3845
  754SOL     hw 3014   0.499   3.762   0.582 -0.5779  0.4902 -0.8117
  754SOL     hw 3015   0.410   3.814   0.693  0.7039 -0.0874  0.5144
  754SOL     vw 3016   0.423   3.762   0.625 -0.0022  0.0838  0.2438
  755SOL     ow 3017   4.500   3.225   2.448 -0.3616 -0.0587  0.2676
  755SOL     hw 3018   4.489   3.135   2.477 -1.9724  0.2723  0.8039
  755SOL     hw 3019   4.520   3.219   2.354  2.9455 -1.0635  0.8884
  755SOL     vw 3020   4.501   3.213   2.439 -0.1378 -0.1477  0.4202
  756SOL     ow 3021   1.057   0.754   3.618  0.4291 -0.3020 -0.0336
  756SOL     hw 3022   1.007   0.825   3.658  0.0034 -1.5160  1.6642
  756SOL     hw 3023   0.996   0.681   3.612  0.7676 -0.4795 -2.0750
  756SOL     vw 3024   1.043   0.754   3.622  0.4176 -0.4856 -0.0789
  757SOL     ow 3025   2.363   2.017   2.056 -0.1878  0.0036 -0.1188
  757SOL     hw 3026   2.329   2.063   2.133 -1.3120  1.6325 -1.5124
  757SOL     hw 3027   2.366   1.925   2.082  0.8844  0.6442  2.3496
  757SOL     vw 3028   2.359   2.011   2.069 -0.1947  0.3031  0.0230
  758SOL     ow 3029   4.200   3.935   6.588  0.5143  0.4935 -0.5582
  758SOL     hw 3030   4.286   3.970   6.611  0.2436  0.2681  0.8806
  758SOL     hw 3031   4.139   4.007   6.605  0.4497  0.8592 -2.1508
  758SOL     vw 3032   4.203   3.949   6.593  0.4702  0.5119 -0.5786
  759SOL     ow 3033   3.557   2.445   0.356 -0.6765  0.0035  0.0067
  759SOL     hw 3034   3.540   2.392   0.279 -2.0852 -1.7126  1.4128
  759SOL     hw 3035   3.472   2.451   0.400  0.5331 -1.3499  2.7754
  759SOL     vw 3036   3.544   2.439   0.352 -0.7026 -0.4015  0.5575
  760SOL     ow 3037   0.027   2.611   0.370  0.4635  0.2745  0.1314
  760SOL     hw 3038   0.092   2.544   0.392  1.1517  1.1067  0.6895
  760SOL     hw 3039   0.073   2.670   0.310 -0.2598  0.0496 -0.6591
  760SOL     vw 3040   0.042   2.610   0.365  0.4589  0.3548  0.1007
  761SOL     ow 3041   6.496   0.985   5.238 -0.4793 -0.6461 -0.4679
  761SOL     hw 3042   6.482   1.078   5.219  0.6597 -0.4455 -0.4000
  761SOL     hw 3043   6.460   0.939   5.162  0.4552 -0.0455 -1.3090
  761SOL     vw 3044   6.490   0.991   5.225 -0.2060 -0.5404 -0.5698
  762SOL     ow 3045   3.162   4.810   6.262  0.3804  0.0371 -0.3610
  762SOL     hw 3046   3.081   4.794   6.309  0.4164  0.3513 -0.1891
  762SOL     hw 3047   3.171   4.906   6.259  0.3982  0.0259 -0.9716
  762SOL     vw 3048   3.153   4.821   6.268  0.3874  0.0772 -0.4189
  763SOL     ow 3049   6.362   5.027   4.537 -0.4402  0.1986  0.2407
  763SOL     hw 3050   6.281   5.075   4.520 -0.8736 -0.3500  0.7131
  763SOL     hw 3051   6.382   5.046   4.628 -0.7651 -0.7116  0.5158
  763SOL     vw 3052   6.354   5.036   4.547 -0.5403  0.0057  0.3395
  764SOL     ow 3053   6.706   6.709   0.898  0.4489  0.1210 -0.1292
  764SOL     hw 3054   6.759   6.784   0.923 -0.8376  1.4748 -1.2838
  764SOL     hw 3055   6.627   6.747   0.860 -0.2462 -1.8256 -0.7537
  764SOL     vw 3056   6.703   6.724   0.896  0.1874  0.0427 -0.3639
  765SOL     ow 3057   2.376   6.073   2.067 -0.3423 -0.6797  0.3320
  765SOL     hw 3058   2.388   6.125   2.147 -3.0673  0.7226 -0.0714
  765SOL     hw 3059   2.441   6.107   2.006 -2.6730  3.3477 -0.3229
  765SOL     vw 3060   2.386   6.084   2.070 -1.0092  0.0367  0.1923
  766SOL     ow 3061   5.208   0.938   1.150 -0.5657  0.1600 -0.4293
  766SOL     hw 3062   5.291   0.899   1.177 -0.6026 -0.3514 -1.0264
  766SOL     hw 3063   5.233   1.007   1.089 -0.5787 -0.0094 -0.6270
  766SOL     vw 3064   5.222   0.942   1.145 -0.5724  0.0702 -0.5342
  767SOL     ow 3065   4.143   5.140   5.188  0.0967  0.1752 -0.3390
  767SOL     hw 3066   4.229   5.176   5.166 -0.1206  0.7245 -0.2955
  767SOL     hw 3067   4.162   5.051   5.217  0.7109  0.4511  0.1379
  767SOL     vw 3068   4.157   5.133   5.189  0.1490  0.2840 -0.2706
  768SOL     ow 3069   6.204   0.111   4.149 -0.0646  0.2075 -0.4359
  768SOL     hw 3070   6.231   0.200   4.125  0.3552  0.4584  0.8746
  768SOL     hw 3071   6.254   0.054   4.091 -0.2650  0.8205 -1.2264
  768SOL     vw 3072   6.214   0.115   4.138 -0.0355  0.3215 -0.3674
  769SOL     ow 3073   5.608   1.651   2.528  0.4101 -0.2100 -0.2354
  769SOL     hw 3074   5.564   1.585   2.581  1.0819 -0.0251  0.5616
  769SOL     hw 3075   5.681   1.605   2.487  0.8926  0.0382  0.3394
  769SOL     vw 3076   5.611   1.637   2.529  0.5622 -0.1528 -0.0545
  770SOL     ow 3077   5.931   3.760   0.028  0.1084  0.0817  0.2533
  770SOL     hw 3078   6.005   3.767   0.089 -0.7998 -1.5539  1.6211
  770SOL     hw 3079   5.854   3.752   0.085 -1.0638  1.0155 -1.1349
  770SOL     vw 3080   5.931   3.760   0.044 -0.1664 -0.0108  0.2506
  771SOL     ow 3081   1.390   6.411   5.557 -0.1437 -0.3351 -0.3524
  771SOL     hw 3082   1.395   6.324   5.597 -0.9101 -0.0611  0.3451
  771SOL     hw 3083   1.302   6.416   5.521 -0.3983  0.4767  0.3621
  771SOL     vw 3084   1.379   6.400   5.557 -0.2784 -0.1919 -0.1659
  772SOL     ow 3085   4.655   1.778   0.335 -0.0709  0.7681 -0.5201
  772SOL     hw 3086   4.628   1.804   0.247 -1.5392  0.2348 -0.2707
  772SOL     hw 3087   4.598   1.703   0.356  0.5611  0.5999  0.7044
  772SOL     vw 3088   4.644   1.771   0.326 -0.1812  0.6756 -0.3256
  773SOL     ow 3089   4.559   4.246   4.285  0.4737 -0.0933 -0.4365
  773SOL     hw 3090   4.574   4.171   4.228 -0.3602 -1.6920  1.3271
  773SOL     hw 3091   4.552   4.208   4.373  0.5074  2.1176  0.5863
  773SOL     vw 3092   4.560   4.231   4.289  0.3684 -0.0126 -0.0689
  774SOL     ow 3093   2.859   4.215   3.688  0.1430  0.6282  0.1592
  774SOL     hw 3094   2.879   4.180   3.601  1.1795 -0.9570  0.9925
  774SOL     hw 3095   2.782   4.270   3.675 -0.1190 -0.1136 -1.6461
  774SOL     vw 3096   2.852   4.218   3.675  0.2452  0.3214  0.0309
  775SOL     ow 3097   4.986   0.083   2.299 -0.0302  0.2045 -0.1741
  775SOL     hw 3098   4.955  -0.006   2.283 -0.6881  0.5728 -1.0024
  775SOL     hw 3099   4.993   0.122   2.212  0.1390  1.0050  0.1884
  775SOL     vw 3100   4.983   0.076   2.285 -0.0947  0.3587 -0.2354
  776SOL     ow 3101   0.088   1.250   0.461 -0.0621 -0.2466 -0.1263
  776SOL     hw 3102   0.029   1.178   0.441  1.5668 -2.0911  1.2468
  776SOL     hw 3103   0.175   1.210   0.459  1.0162  1.9759 -0.4504
  776SOL     vw 3104   0.092   1.235   0.459  0.2951 -0.1967  0.0121
  777SOL     ow 3105   3.789   2.713   1.424 -0.4696  0.5048 -0.0796
  777SOL     hw 3106   3.788   2.734   1.331 -1.8135  0.5289 -0.0818
  777SOL     hw 3107   3.881   2.707   1.447 -0.1272  0.0918 -1.5040
  777SOL     vw 3108   3.801   2.715   1.415 -0.6016  0.4536 -0.2679
  778SOL     ow 3109   5.534   3.572   1.742  0.0626  0.0353 -0.2925
  778SOL     hw 3110   5.476   3.544   1.813 -0.1904  1.5644  0.1541
  778SOL     hw 3111   5.546   3.666   1.757  0.3299  0.3162 -2.0502
  778SOL     vw 3112   5.528   3.581   1.753  0.0646  0.2741 -0.4655
  779SOL     ow 3113   6.716   1.736   2.468  0.6002 -0.2476  0.8454
  779SOL     hw 3114   6.683   1.669   2.528  1.2656 -0.9853  0.4033
  779SOL     hw 3115   6.774   1.689   2.409 -0.3808  0.3920 -0.6764
  779SOL     vw 3116   6.719   1.721   2.468  0.5584 -0.2606  0.5864
  780SOL     ow 3117   3.351   5.662   6.006  0.2243  0.3656 -0.3767
  780SOL     hw 3118   3.432   5.614   5.986  0.4079 -0.5584  2.1954
  780SOL     hw 3119   3.281   5.597   5.993  0.1553  0.3607  0.0285
  780SOL     vw 3120   3.352   5.647   6.001  0.2395  0.2427  0.0160
  781SOL     ow 3121   6.458   5.031   6.328 -0.6310 -0.2239 -0.3455
  781SOL     hw 3122   6.432   5.036   6.420 -0.8533 -1.8475 -0.2911
  781SOL     hw 3123   6.506   4.949   6.321  0.8673  0.6835 -1.3461
  781SOL     vw 3124   6.461   5.021   6.339 -0.4628 -0.3183 -0.4704
  782SOL     ow 3125   1.677   0.940   3.515  0.2220 -0.0609  0.4043
  782SOL     hw 3126   1.748   0.876   3.514 -0.0053 -0.3413 -1.7532
  782SOL     hw 3127   1.721   1.025   3.507  0.3683 -0.3021 -2.5289
  782SOL     vw 3128   1.692   0.943   3.514  0.2114 -0.1298 -0.2674
  783SOL     ow 3129   4.960   1.208   4.388  0.4220  0.2124  0.0701
  783SOL     hw 3130   4.931   1.295   4.415  0.7078 -0.0657  1.3243
  783SOL     hw 3131   4.900   1.184   4.317  0.3887  1.4531 -0.3378
  783SOL     vw 3132   4.948   1.216   4.382  0.4556  0.3394  0.1817
  784SOL     ow 3133   3.571   0.463   0.113 -0.5185  0.8174  0.2677
  784SOL     hw 3134   3.588   0.413   0.193 -0.0550 -2.6559 -1.7887
  784SOL     hw 3135   3.645   0.524   0.106  0.4769 -0.1928  1.5165
  784SOL     vw 3136   3.583   0.465   0.122 -0.3262  0.2258  0.1611
  785SOL     ow 3137   5.585   4.442   2.544  0.1332  0.2043 -0.8443
  785SOL     hw 3138   5.642   4.506   2.586 -0.5900  1.0969 -1.1518
  785SOL     hw 3139   5.643   4.387   2.492  0.9189 -0.2878  0.5362
  785SOL     vw 3140   5.600   4.443   2.543  0.1416  0.2570 -0.7026
  786SOL     ow 3141   2.614   2.172   0.847  0.4040 -0.2755  0.3500
  786SOL     hw 3142   2.608   2.196   0.755 -1.5662 -1.0735  0.2306
  786SOL     hw 3143   2.572   2.245   0.894  0.7582 -0.2060  0.5647
  786SOL     vw 3144   2.608   2.185   0.841  0.1907 -0.3717  0.3626
  787SOL     ow 3145   2.374   2.496   6.700  0.2794 -0.1756  0.0134
  787SOL     hw 3146   2.355   2.499   6.794  0.1286  0.0957 -0.0266
  787SOL     hw 3147   2.296   2.531   6.658  0.2080 -0.6181 -0.2334
  787SOL     vw 3148   2.361   2.501   6.707  0.2501 -0.1981 -0.0246
  788SOL     ow 3149   0.408   6.037   3.297 -0.6922 -0.0158 -0.3459
  788SOL     hw 3150   0.501   6.024   3.278 -0.4230 -0.5950  1.2635
  788SOL     hw 3151   0.404   6.122   3.339 -0.2182 -1.6794  3.4315
  788SOL     vw 3152   0.420   6.047   3.300 -0.5941 -0.3121  0.3648
  789SOL     ow 3153   2.718   4.799   5.148  0.1349 -0.8622 -0.3669
  789SOL     hw 3154   2.711   4.832   5.059  0.3454  1.4687  0.4193
  789SOL     hw 3155   2.627   4.787   5.176 -0.1009  1.5412  0.1306
  789SOL     vw 3156   2.705   4.802   5.140  0.1316 -0.2375 -0.1974
  790SOL     ow 3157   4.843   2.258   4.833 -0.0101  0.3325  0.2468
  790SOL     hw 3158   4.825   2.258   4.927 -1.4581 -2.2240  0.0571
  790SOL     hw 3159   4.935   2.231   4.827 -0.1005 -0.1691  0.9291
  790SOL     vw 3160   4.853   2.254   4.845 -0.2129 -0.0709  0.3121
  791SOL     ow 3161   3.583   2.979   2.550  0.5320 -0.5532 -0.3257
  791SOL     hw 3162   3.595   3.013   2.462  1.0321  0.4282  0.1076
  791SOL     hw 3163   3.670   2.948   2.575  0.2164 -1.6132 -0.4792
  791SOL     vw 3164   3.596   2.979   2.542  0.5563 -0.5636 -0.2887
  792SOL     ow 3165   4.412   4.079   2.203  0.4306 -0.6231 -0.2883
  792SOL     hw 3166   4.321   4.080   2.232  0.7782  0.8194  0.8917
  792SOL     hw 3167   4.413   4.133   2.124  0.4865  0.7781  0.6221
  792SOL     vw 3168   4.400   4.086   2.196  0.4838 -0.2480 -0.0125
  793SOL     ow 3169   2.812   6.775   3.444 -0.3312 -0.0252 -0.0520
  793SOL     hw 3170   2.749   6.722   3.395 -0.7934  1.1491 -0.7880
  793SOL     hw 3171   2.890   6.776   3.388 -1.1020  1.9069 -1.1849
  793SOL     vw 3172   2.814   6.768   3.430 -0.4938  0.3846 -0.2986
  794SOL     ow 3173   3.953   1.936   3.259 -0.5955 -0.0655  0.0377
  794SOL     hw 3174   4.016   2.008   3.260  0.0158 -0.5890  1.2071
  794SOL     hw 3175   3.881   1.968   3.205  0.5336  0.6619 -1.0934
  794SOL     vw 3176   3.952   1.949   3.252 -0.3659 -0.0386  0.0427
  795SOL     ow 3177   0.876   0.283   6.004 -0.2459  0.1977  0.3153
  795SOL     hw 3178   0.810   0.349   6.027  0.8999  0.7756  2.2446
  795SOL     hw 3179   0.861   0.212   6.066 -0.3269 -0.5807 -0.5802
  795SOL     vw 3180   0.865   0.283   6.015 -0.1054  0.1712  0.4518
  796SOL     ow 3181   0.152   2.341   4.354 -0.4426  0.3121 -0.4957
  796SOL     hw 3182   0.198   2.386   4.424 -2.5682 -0.0651  1.2411
  796SOL     hw 3183   0.068   2.388   4.346 -0.8075 -0.5101 -1.8296
  796SOL     vw 3184   0.147   2.353   4.362 -0.7712  0.1538 -0.4427
  797SOL     ow 3185   0.511   1.849   3.257  0.0351 -0.1051  0.0282
  797SOL     hw 3186   0.600   1.819   3.240 -0.2563  0.1487 -2.2810
  797SOL     hw 3187   0.492   1.910   3.186 -1.7245  0.4367  0.9012
  797SOL     vw 3188   0.520   1.853   3.245 -0.2355 -0.0001 -0.1613
  798SOL     ow 3189   4.088   1.307   6.264  0.6364  0.7317 -0.0600
  798SOL     hw 3190   4.182   1.321   6.275  0.4629  0.4562  2.2451
  798SOL     hw 3191   4.058   1.277   6.350 -1.7551  1.8313 -0.4290
  798SOL     vw 3192   4.097   1.305   6.277  0.2980  0.8404  0.1955
  799SOL     ow 3193   0.886   3.037   6.347  0.4613 -0.5590 -0.5257
  799SOL     hw 3194   0.841   3.092   6.411  3.5363  0.4411  0.9748
  799SOL     hw 3195   0.875   3.084   6.264  1.6227  1.5406  0.4316
  799SOL     vw 3196   0.879   3.051   6.345  1.0202 -0.1501 -0.2017
  800SOL     ow 3197   6.328   4.080   1.080  0.1932  0.0544  0.0251
  800SOL     hw 3198   6.401   4.110   1.026  1.7528 -0.5945  1.6785
  800SOL     hw 3199   6.262   4.050   1.018  1.5069  0.2704 -1.5151
  800SOL     vw 3200   6.329   4.080   1.065  0.5722 -0.0026  0.0401
  801SOL     ow 3201   4.719   6.452   6.318  0.2170 -0.3907 -0.3116
  801SOL     hw 3202   4.661   6.506   6.372  0.0286  0.2460 -1.1180
  801SOL     hw 3203   4.668   6.373   6.300  0.5396 -0.9171  0.9764
  801SOL     vw 3204   4.705   6.449   6.322  0.2346 -0.3757 -0.2480
  802SOL     ow 3205   6.526   4.003   6.025  0.3540  0.1061 -0.2795
  802SOL     hw 3206   6.489   3.917   6.008 -0.9152  0.8899 -1.7646
  802SOL     hw 3207   6.557   4.033   5.939  1.0711  0.9979  0.2765
  802SOL     vw 3208   6.526   3.996   6.011  0.2811  0.3272 -0.4020
  803SOL     ow 3209   4.858   0.162   4.078  0.1326  0.1832 -0.2731
  803SOL     hw 3210   4.855   0.070   4.107 -0.2777  0.3718  0.2852
  803SOL     hw 3211   4.920   0.161   4.005  1.7657 -0.1672  1.0766
  803SOL     vw 3212   4.866   0.149   4.072  0.2935  0.1619 -0.0215
  804SOL     ow 3213   1.628   4.767   1.925 -0.1343 -0.4073  0.1192
  804SOL     hw 3214   1.613   4.798   1.835 -0.2246 -0.9584 -0.0577
  804SOL     hw 3215   1.631   4.847   1.977  1.7836  0.0591 -0.6230
  804SOL     vw 3216   1.626   4.782   1.920  0.1068 -0.4184 -0.0020
  805SOL     ow 3217   1.666   4.476   1.885 -0.3525  0.4289  0.4464
  805SOL     hw 3218   1.577   4.460   1.853 -0.0472 -0.5979  0.0782
  805SOL     hw 3219   1.712   4.514   1.811 -1.1137  3.4273  1.3571
  805SOL     vw 3220   1.660   4.479   1.871 -0.4126  0.6890  0.5180
  806SOL     ow 3221   1.820   2.968   1.393 -0.1721 -0.7363 -0.2647
  806SOL     hw 3222   1.795   2.987   1.302 -0.6266 -0.7914 -0.1527
  806SOL     hw 3223   1.828   3.054   1.434 -1.4940 -0.7513  0.0465
  806SOL     vw 3224   1.818   2.982   1.386 -0.4065 -0.7455 -0.2089
  807SOL     ow 3225   0.072   2.685   1.743 -0.7193 -0.0083  0.6408
  807SOL     hw 3226   0.155   2.676   1.695 -2.0598  0.1385 -1.8162
  807SOL     hw 3227   0.099   2.693   1.835  2.1839  2.8630 -0.2870
  807SOL     vw 3228   0.087   2.685   1.749 -0.5131  0.3898  0.1942
  808SOL     ow 3229   4.143   0.773   0.451 -0.4433 -0.3334  0.4944
  808SOL     hw 3230   4.048   0.768   0.467 -0.4285 -0.4369  0.5446
  808SOL     hw 3231   4.175   0.684   0.464 -0.4633 -0.4651 -0.3006
  808SOL     vw 3232   4.134   0.761   0.454 -0.4437 -0.3645  0.3961
  809SOL     ow 3233   6.239   2.172   2.408 -0.3273  0.3086  0.7428
  809SOL     hw 3234   6.224   2.221   2.327 -0.6566 -0.6824  0.1784
  809SOL     hw 3235   6.291   2.230   2.463 -0.9008  1.3652  0.1918
  809SOL     vw 3236   6.244   2.186   2.405 -0.4463  0.3173  0.5957
  810SOL     ow 3237   2.423   3.349   4.990  0.0662  0.2883 -0.0567
  810SOL     hw 3238   2.506   3.386   5.019 -0.6214  1.6029  0.3052
  810SOL     hw 3239   2.447   3.266   4.948  1.6977  1.2305 -1.0772
  810SOL     vw 3240   2.437   3.343   4.988  0.1909  0.5860 -0.1435
  811SOL     ow 3241   6.754   4.757   6.043  0.4803  0.1778 -0.2758
  811SOL     hw 3242   6.703   4.689   5.998  0.7739 -0.3234  0.1474
  811SOL     hw 3243   6.698   4.787   6.114 -0.1952  1.3310 -1.2538
  811SOL     vw 3244   6.740   4.752   6.046  0.4296  0.2642 -0.3490
  812SOL     ow 3245   0.903   1.258   6.545 -0.6620 -0.3546 -0.2453
  812SOL     hw 3246   0.813   1.288   6.535 -1.0519 -1.8999 -1.7985
  812SOL     hw 3247   0.950   1.299   6.473 -0.2339 -0.0287  0.2116
  812SOL     vw 3248   0.897   1.268   6.535 -0.6570 -0.5155 -0.3898
  813SOL     ow 3249   6.479   5.521   0.615 -0.1832 -0.4847  0.1475
  813SOL     hw 3250   6.465   5.430   0.588 -0.5855 -0.3935  0.0345
  813SOL     hw 3251   6.428   5.572   0.552 -1.0006 -0.2582  0.9702
  813SOL     vw 3252   6.470   5.515   0.603 -0.3440 -0.4425  0.2411
  814SOL     ow 3253   2.358   5.056   1.617 -0.1299  0.1960  0.0987
  814SOL     hw 3254   2.317   5.137   1.647  0.5137  0.6232 -0.1281
  814SOL     hw 3255   2.312   4.986   1.663  0.5235  0.7918  1.7243
  814SOL     vw 3256   2.347   5.058   1.627  0.0411  0.3307  0.2832
  815SOL     ow 3257   6.493   0.768   2.534 -0.1338 -0.5520  0.5417
  815SOL     hw 3258   6.540   0.736   2.611 -2.3202 -1.3194  1.6301
  815SOL     hw 3259   6.415   0.712   2.529 -1.4983  1.3568 -0.5376
  815SOL     vw 3260   6.489   0.756   2.543 -0.6025 -0.4014  0.5429
  816SOL     ow 3261   1.372   3.442   1.432 -0.0876 -0.5067 -0.4581
  816SOL     hw 3262   1.361   3.482   1.518 -1.4356  1.4753 -1.4698
  816SOL     hw 3263   1.287   3.451   1.390  0.6314 -1.1006 -2.1306
  816SOL     vw 3264   1.360   3.449   1.438 -0.1706 -0.3235 -0.8122
  817SOL     ow 3265   2.458   4.444   7.000  0.3668  0.0563  0.7020
  817SOL     hw 3266   2.500   4.358   7.006 -0.2900 -0.2519  0.9781
  817SOL     hw 3267   2.424   4.461   7.088  0.4537  0.5803  0.6379
  817SOL     vw 3268   2.459   4.435   7.012  0.2916  0.0846  0.7298
  818SOL     ow 3269   1.659   2.147   3.991 -0.1539  0.1897  0.2291
  818SOL     hw 3270   1.567   2.129   4.011 -0.6121 -0.2773 -1.9515
  818SOL     hw 3271   1.680   2.227   4.039 -1.7800  0.4595  0.5345
  818SOL     vw 3272   1.650   2.155   4.000 -0.4289  0.1637 -0.0182
  819SOL     ow 3273   1.914   3.925   2.270  0.1106 -0.1311  0.5771
  819SOL     hw 3274   1.892   4.018   2.277 -1.5652 -0.5126  0.8933
  819SOL     hw 3275   1.845   3.889   2.214 -0.0448 -1.4197  1.5644
  819SOL     vw 3276   1.902   3.933   2.264 -0.1311 -0.3514  0.7491
  820SOL     ow 3277   0.307   4.646   1.500 -0.0324 -0.6552 -0.1751
  820SOL     hw 3278   0.216   4.645   1.532 -0.8296  1.1262 -2.1644
  820SOL     hw 3279   0.323   4.556   1.471 -1.3545 -0.8803 -0.2789
  820SOL     vw 3280   0.297   4.634   1.501 -0.3120 -0.4501 -0.4512
  821SOL     ow 3281   3.054   1.905   6.712 -0.1934 -0.1002  0.3942
  821SOL     hw 3282   3.078   1.981   6.765  0.7207 -1.4223  1.9436
  821SOL     hw 3283   2.966   1.882   6.742 -1.3509  1.4950 -1.5094
  821SOL     vw 3284   3.046   1.912   6.723 -0.2255 -0.0642  0.3474
  822SOL     ow 3285   0.125   7.001   3.077 -0.3854  0.0609 -0.1273
  822SOL     hw 3286   0.075   7.021   2.998  2.1591  1.5514 -1.4723
  822SOL     hw 3287   0.191   6.937   3.049 -0.0267 -0.1108  1.0395
  822SOL     vw 3288   0.127   6.995   3.063 -0.0023  0.2346 -0.1509
  823SOL     ow 3289   5.224   4.475   3.715  0.7812 -0.5962  0.2935
  823SOL     hw 3290   5.207   4.428   3.633 -0.2306 -0.6714  0.5273
  823SOL     hw 3291   5.145   4.527   3.729  1.4075  0.2757  0.6475
  823SOL     vw 3292   5.211   4.475   3.706  0.7303 -0.4911  0.3711
  824SOL     ow 3293   5.609   6.228   3.061 -0.2568  0.0113  0.1035
  824SOL     hw 3294   5.679   6.186   3.111  0.0178  1.2778  0.8314
  824SOL     hw 3295   5.561   6.155   3.021  0.3363 -0.9717  1.1185
  824SOL     vw 3296   5.612   6.212   3.063 -0.1423  0.0489  0.3334
  825SOL     ow 3297   1.960   4.249   4.324 -0.5709 -0.4461 -0.5167
  825SOL     hw 3298   1.897   4.181   4.302 -0.8655 -0.0042 -1.0475
  825SOL     hw 3299   2.036   4.201   4.359 -1.4925 -0.9411  0.9114
  825SOL     vw 3300   1.962   4.234   4.326 -0.7313 -0.4530 -0.3982
  826SOL     ow 3301   0.296   1.194   4.341 -0.1730  0.4089 -0.1707
  826SOL     hw 3302   0.205   1.170   4.357  0.0112  1.6141  3.8044
  826SOL     hw 3303   0.292   1.263   4.275 -1.9876 -0.3442 -0.9147
  826SOL     vw 3304   0.284   1.200   4.335 -0.3881  0.4686  0.2556
  827SOL     ow 3305   0.053   6.724   5.583  0.3793  0.4302  0.2637
  827SOL     hw 3306   0.138   6.741   5.624 -0.9050  1.3228  2.8194
  827SOL     hw 3307  -0.010   6.765   5.642 -1.8800 -0.4887 -1.3645
  827SOL     vw 3308   0.056   6.732   5.596 -0.0883  0.4268  0.3860
  828SOL     ow 3309   2.897   3.073   3.963  0.6364 -0.6075  0.9650
  828SOL     hw 3310   2.866   3.163   3.961  1.3487 -0.3597 -0.8970
  828SOL     hw 3311   2.835   3.024   3.908  0.5389 -1.1695  1.5536
  828SOL     vw 3312   2.885   3.078   3.955  0.7174 -0.6489  0.7973
  829SOL     ow 3313   0.986   1.674   1.667 -0.3989 -0.7424 -0.4153
  829SOL     hw 3314   0.899   1.662   1.631 -0.0031 -1.1608 -1.2647
  829SOL     hw 3315   0.973   1.673   1.762 -1.5471  1.0957 -0.5063
  829SOL     vw 3316   0.973   1.672   1.675 -0.4981 -0.5550 -0.5394
  830SOL     ow 3317   0.084   5.242   6.776  0.1394  0.3773 -0.6957
  830SOL     hw 3318   0.114   5.223   6.865  0.3113 -0.1289 -0.8587
  830SOL     hw 3319   0.087   5.338   6.770 -1.1016  0.5022  0.2640
  830SOL     vw 3320   0.088   5.252   6.787 -0.0016  0.3271 -0.5906
  831SOL     ow 3321   4.999   5.416   3.317 -0.6977  0.1636  0.5057
  831SOL     hw 3322   5.076   5.379   3.274  1.0032  1.2561  2.4330
  831SOL     hw 3323   4.942   5.442   3.244  0.9296 -0.2843 -1.0110
  831SOL     vw 3324   5.002   5.415   3.301 -0.2587  0.2487  0.5599
  832SOL     ow 3325   3.562   5.788   5.851  0.3184 -0.0744 -0.7382
  832SOL     hw 3326   3.589   5.850   5.782  2.2700 -0.8492 -0.7302
  832SOL     hw 3327   3.644   5.755   5.887 -0.6824 -1.0148  0.7866
  832SOL     vw 3328   3.576   5.792   5.846  0.4438 -0.3004 -0.5360
  833SOL     ow 3329   4.939   5.666   6.733  0.6322 -0.2069 -0.7539
  833SOL     hw 3330   4.984   5.624   6.660  0.1282 -1.2031 -0.5123
  833SOL     hw 3331   4.958   5.759   6.723  1.8782 -0.5016 -1.2366
  833SOL     vw 3332   4.947   5.673   6.722  0.7303 -0.3772 -0.7856
  834SOL     ow 3333   2.361   2.435   0.685 -0.0628  0.3728  0.0157
  834SOL     hw 3334   2.321   2.516   0.715 -0.6159 -0.2708  1.0938
  834SOL     hw 3335   2.454   2.454   0.680 -0.3769  1.6688 -1.7843
  834SOL     vw 3336   2.368   2.448   0.688 -0.1773  0.4588 -0.0795
  835SOL     ow 3337   6.623   4.097   1.742  0.6346 -0.5942  0.2050
  835SOL     hw 3338   6.646   4.017   1.790 -0.0791 -0.9486 -0.0260
  835SOL     hw 3339   6.698   4.155   1.754  0.4140 -0.6170  1.8678
  835SOL     vw 3340   6.636   4.094   1.750  0.5112 -0.6440  0.3939
  836SOL     ow 3341   2.432   4.780   4.856 -0.2645  0.5370  0.0343
  836SOL     hw 3342   2.510   4.729   4.875  0.2991 -0.6665 -4.3230
  836SOL     hw 3343   2.359   4.725   4.885  0.4563 -0.0647  0.7181
  836SOL     vw 3344   2.432   4.766   4.862 -0.0952  0.2990 -0.4506
  837SOL     ow 3345   5.378   5.935   3.588 -0.0761 -0.0961  0.4664
  837SOL     hw 3346   5.462   5.934   3.633 -0.5632 -0.6443  1.3857
  837SOL     hw 3347   5.318   5.978   3.649 -0.3389  0.8719 -0.4445
  837SOL     vw 3348   5.381   5.940   3.602 -0.1748 -0.0410  0.4675
  838SOL     ow 3349   1.324   5.907   3.027 -0.1403  0.3893  0.4480
  838SOL     hw 3350   1.232   5.881   3.025 -0.4038  0.9507  2.5426
  838SOL     hw 3351   1.322   6.002   3.018  0.3398  0.3192 -0.5519
  838SOL     vw 3352   1.311   5.916   3.026 -0.1117  0.4542  0.5924
  839SOL     ow 3353   3.477   5.506   0.092 -0.0987  0.0556  0.5102
  839SOL     hw 3354   3.442   5.549   0.170 -1.6470 -1.6448  0.8178
  839SOL     hw 3355   3.566   5.541   0.083  0.7301 -0.7923  3.9411
  839SOL     vw 3356   3.484   5.516   0.101 -0.1937 -0.2809  1.0033
  840SOL     ow 3357   5.371   4.386   2.772  0.1333  0.2977  0.1335
  840SOL     hw 3358   5.321   4.344   2.842  1.3925  2.0196  2.2017
  840SOL     hw 3359   5.346   4.478   2.775  1.7243  0.7880 -0.2709
  840SOL     vw 3360   5.361   4.393   2.782  0.5093  0.5894  0.3530
  841SOL     ow 3361   0.253   0.254   3.510 -0.5415 -0.5513 -0.1261
  841SOL     hw 3362   0.254   0.350   3.505  2.8449 -0.3606  1.5874
  841SOL     hw 3363   0.221   0.234   3.597 -1.7982 -1.0470 -0.6821
  841SOL     vw 3364   0.249   0.264   3.521 -0.2605 -0.5915  0.0267
  842SOL     ow 3365   1.654   5.569   4.074  0.0493  0.1751 -0.4813
  842SOL     hw 3366   1.628   5.480   4.099  0.2665  0.5432  1.1681
  842SOL     hw 3367   1.747   5.561   4.052 -0.3999 -0.3652 -2.3934
  842SOL     vw 3368   1.663   5.556   4.074  0.0187  0.1526 -0.5162
  843SOL     ow 3369   4.231   3.441   5.952 -0.0628 -0.4526 -0.1784
  843SOL     hw 3370   4.230   3.536   5.945  1.6931 -0.4437 -0.9052
  843SOL     hw 3371   4.273   3.423   6.036 -2.1417 -0.6330  0.8971
  843SOL     vw 3372   4.236   3.451   5.962 -0.1054 -0.4753 -0.1326
  844SOL     ow 3373   4.724   6.461   5.145 -0.3875  0.1553 -0.8580
  844SOL     hw 3374   4.736   6.444   5.239 -1.8383  0.5142 -0.5911
  844SOL     hw 3375   4.643   6.415   5.123 -0.1639  0.2493 -1.9018
  844SOL     vw 3376   4.715   6.453   5.155 -0.5493  0.2151 -0.9601
  845SOL     ow 3377   2.811   2.904   6.155 -0.7007  0.1311 -0.1880
  845SOL     hw 3378   2.818   2.967   6.083 -0.3897  0.5196  0.1753
  845SOL     hw 3379   2.852   2.949   6.229 -0.6974 -0.4074  0.1365
  845SOL     vw 3380   2.817   2.918   6.155 -0.6592  0.1112 -0.0975
  846SOL     ow 3381   0.879   3.577   5.079 -0.1240  0.2135  0.5358
  846SOL     hw 3382   0.912   3.496   5.039 -1.3942 -0.2912  0.4552
  846SOL     hw 3383   0.937   3.645   5.047 -0.2560 -0.3842 -1.0758
  846SOL     vw 3384   0.891   3.575   5.069 -0.3090  0.0678  0.3126
  847SOL     ow 3385   5.592   4.095   6.944 -0.1965  0.0974  0.3248
  847SOL     hw 3386   5.501   4.079   6.971 -0.8292  2.3999 -0.2160
  847SOL     hw 3387   5.589   4.092   6.849  0.3329  0.0120  0.3119
  847SOL     vw 3388   5.579   4.093   6.935 -0.2100  0.3898  0.2518
  848SOL     ow 3389   1.717   1.955   6.098 -0.1523 -0.6195  0.0491
  848SOL     hw 3390   1.636   1.968   6.147  0.3959  1.9102  0.4284
  848SOL     hw 3391   1.779   2.016   6.137  1.0375 -0.2692 -2.1950
  848SOL     vw 3392   1.714   1.965   6.110  0.0770 -0.2394 -0.1969
  849SOL     ow 3393   6.839   2.986   4.995  0.8090  0.0357 -0.3736
  849SOL     hw 3394   6.857   2.895   5.017  0.5618  0.4085  1.4694
  849SOL     hw 3395   6.766   2.982   4.934 -0.7886 -0.9308  1.5190
  849SOL     vw 3396   6.832   2.974   4.990  0.5655 -0.0427  0.1192
  850SOL     ow 3397   2.957   4.088   5.499  0.2343 -0.3703  0.3185
  850SOL     hw 3398   2.863   4.101   5.483  0.0215 -1.5795  0.4625
  850SOL     hw 3399   2.992   4.060   5.414  0.2357 -1.0322  0.5319
  850SOL     vw 3400   2.949   4.086   5.486  0.2065 -0.6173  0.3657
  851SOL     ow 3401   1.733   3.764   0.790 -0.2750 -0.2234  0.0440
  851SOL     hw 3402   1.722   3.807   0.705  1.0329  0.8087  0.3607
  851SOL     hw 3403   1.758   3.675   0.768  1.0084  0.2921 -0.6845
  851SOL     vw 3404   1.735   3.758   0.776  0.0669 -0.0192 -0.0104
  852SOL     ow 3405   6.362   5.506   2.918  0.5083  0.0760 -0.7756
  852SOL     hw 3406   6.374   5.557   2.838  2.0830  1.3518  0.1989
  852SOL     hw 3407   6.301   5.557   2.971  0.8599  0.1734 -0.4532
  852SOL     vw 3408   6.356   5.519   2.915  0.7627  0.2573 -0.6044
  853SOL     ow 3409   2.403   1.631   5.104  0.8068  0.3740  0.1517
  853SOL     hw 3410   2.324   1.578   5.118  0.5668  0.9361  0.9799
  853SOL     hw 3411   2.410   1.637   5.008  0.1450 -0.1246  0.0613
  853SOL     vw 3412   2.393   1.625   5.093  0.6878  0.3824  0.2489
  854SOL     ow 3413   1.135   0.495   6.796  0.1726  0.3750 -0.1531
  854SOL     hw 3414   1.198   0.567   6.782  1.4377 -0.5367  0.5768
  854SOL     hw 3415   1.166   0.453   6.876 -0.1422 -1.3923 -0.9227
  854SOL     vw 3416   1.148   0.499   6.805  0.2979  0.0216 -0.1585
  855SOL     ow 3417   4.882   4.947   1.912 -0.1331 -0.4225  0.0227
  855SOL     hw 3418   4.862   4.943   1.818 -0.3935 -1.7816  0.1165
  855SOL     hw 3419   4.801   4.978   1.952 -0.2485 -0.5146 -0.1373
  855SOL     vw 3420   4.868   4.951   1.905 -0.1831 -0.6142  0.0139
  856SOL     ow 3421   2.824   1.531   0.929 -0.3321  0.4771 -0.1662
  856SOL     hw 3422   2.867   1.602   0.977  0.9892 -0.3713 -0.0270
  856SOL     hw 3423   2.742   1.569   0.899  0.2756  2.0347  0.0036
  856SOL     vw 3424   2.819   1.546   0.931 -0.0777  0.5707 -0.1254
  857SOL     ow 3425   5.146   1.207   4.629 -0.0210  0.3512 -0.7932
  857SOL     hw 3426   5.089   1.212   4.705 -1.5021 -1.1092 -1.7363
  857SOL     hw 3427   5.179   1.296   4.617  1.3230  0.3722  2.2929
  857SOL     vw 3428   5.143   1.219   4.637 -0.0391  0.1613 -0.5105
  858SOL     ow 3429   4.283   6.230   6.784 -0.4291 -0.6904  0.2512
  858SOL     hw 3430   4.313   6.246   6.695  0.6707  1.2594  0.9197
  858SOL     hw 3431   4.202   6.280   6.792  0.2838  0.4077  0.7855
  858SOL     vw 3432   4.277   6.238   6.773 -0.1898 -0.2882  0.4098
  859SOL     ow 3433   6.102   0.190   2.543 -0.2640 -0.2910  0.8935
  859SOL     hw 3434   6.161   0.250   2.496 -1.9922 -0.4473 -1.6634
  859SOL     hw 3435   6.160   0.120   2.573  1.0713  0.1340 -0.4985
  859SOL     vw 3436   6.118   0.188   2.541 -0.3161 -0.2555  0.3726
  860SOL     ow 3437   2.989   5.924   2.602 -0.2990  0.0257  0.2885
  860SOL     hw 3438   2.988   5.992   2.534 -0.5649 -0.6790 -0.4208
  860SOL     hw 3439   3.012   5.971   2.682 -0.0588  0.8853 -0.2705
  860SOL     vw 3440   2.992   5.939   2.603 -0.3023  0.0463  0.1211
  861SOL     ow 3441   3.968   6.304   3.003 -0.0456  0.0563 -0.2618
  861SOL     hw 3442   3.891   6.328   2.951  1.6485  0.8564 -2.5272
  861SOL     hw 3443   3.954   6.347   3.087 -2.1860 -0.0403 -0.5075
  861SOL     vw 3444   3.956   6.312   3.007 -0.1044  0.1493 -0.5931
  862SOL     ow 3445   4.745   2.119   1.177  0.6616 -0.2095 -0.0381
  862SOL     hw 3446   4.713   2.170   1.252 -0.0664 -0.5040 -0.1468
  862SOL     hw 3447   4.829   2.159   1.156 -0.2990  1.5752 -0.7030
  862SOL     vw 3448   4.752   2.131   1.184  0.4389 -0.0129 -0.1402
  863SOL     ow 3449   1.206   2.046   3.301 -0.4518 -0.1450  0.3870
  863SOL     hw 3450   1.209   2.080   3.391  1.8561  0.5804  0.1158
  863SOL     hw 3451   1.221   1.952   3.310 -2.9755 -0.5796  0.8797
  863SOL     vw 3452   1.209   2.038   3.314 -0.4803 -0.1067  0.4162
  864SOL     ow 3453   1.830   2.017   5.369  0.0741 -0.4008 -0.1224
  864SOL     hw 3454   1.792   2.088   5.317  0.9928 -0.7055 -1.2485
  864SOL     hw 3455   1.754   1.968   5.401 -0.5265 -0.2829 -1.3046
  864SOL     vw 3456   1.815   2.020   5.366  0.1161 -0.4253 -0.4268
  865SOL     ow 3457   1.984   5.832   1.266  0.4658 -0.1662 -0.0659
  865SOL     hw 3458   1.889   5.827   1.257  0.5564 -0.0295 -1.3017
  865SOL     hw 3459   2.006   5.919   1.233  1.0426 -0.3133 -0.0818
  865SOL     vw 3460   1.974   5.843   1.260  0.5538 -0.1676 -0.2311
  866SOL     ow 3461   4.944   3.548   6.738  0.2918  0.1990  0.1727
  866SOL     hw 3462   4.876   3.597   6.784  0.5539  1.6214 -0.8870
  866SOL     hw 3463   4.912   3.457   6.738 -0.5698  0.4645  1.5193
  866SOL     vw 3464   4.931   3.542   6.744  0.2127  0.4219  0.2108
  867SOL     ow 3465   1.123   3.773   3.642 -0.4827 -0.4072  0.0466
  867SOL     hw 3466   1.081   3.858   3.628  1.5191  0.8728  1.3302
  867SOL     hw 3467   1.175   3.759   3.564  1.6292  1.1332  1.0876
  867SOL     vw 3468   1.124   3.783   3.630  0.0600 -0.0350  0.3532
  868SOL     ow 3469   6.209   0.564   5.468 -0.2642  0.3703  0.3478
  868SOL     hw 3470   6.134   0.602   5.423  0.4534  0.5643 -0.7198
  868SOL     hw 3471   6.260   0.639   5.498 -0.3819  0.2389  0.8888
  868SOL     vw 3472   6.206   0.579   5.466 -0.1848  0.3786  0.2780
  869SOL     ow 3473   1.258   4.800   5.909  0.4250  0.1119  0.0223
  869SOL     hw 3474   1.198   4.858   5.862  1.0457 -0.3896 -1.4226
  869SOL     hw 3475   1.210   4.718   5.918  0.0467  0.4193  0.8991
  869SOL     vw 3476   1.244   4.797   5.904  0.4569  0.0863 -0.0525
  870SOL     ow 3477   3.718   2.580   0.177  0.3830  0.1386 -0.3388
  870SOL     hw 3478   3.759   2.496   0.157  1.5291 -0.0760  2.5066
  870SOL     hw 3479   3.776   2.646   0.139 -0.2803 -0.2680 -2.1714
  870SOL     vw 3480   3.731   2.578   0.169  0.4467  0.0567 -0.2052
  871SOL     ow 3481   4.667   2.017   2.596 -0.4225  0.0214 -0.1308
  871SOL     hw 3482   4.726   1.949   2.630  0.9796  2.0511  1.7578
  871SOL     hw 3483   4.655   1.994   2.504  2.1417 -1.3172 -0.2229
  871SOL     vw 3484   4.673   2.005   2.589  0.1009  0.1127  0.1063
  872SOL     ow 3485   6.743   2.844   3.218 -0.1313  0.0752 -0.0215
  872SOL     hw 3486   6.807   2.821   3.151  2.1716  0.7051  1.8483
  872SOL     hw 3487   6.745   2.940   3.221  1.5948  0.0496  2.4639
  872SOL     vw 3488   6.751   2.854   3.209  0.4003  0.1551  0.5530
  873SOL     ow 3489   1.121   5.253   0.440 -0.2180  0.5038 -0.2260
  873SOL     hw 3490   1.190   5.263   0.374 -0.1075  2.5060  0.1103
  873SOL     hw 3491   1.157   5.189   0.502  0.6649  0.3383 -0.8744
  873SOL     vw 3492   1.135   5.246   0.439 -0.0870  0.7460 -0.2672
  874SOL     ow 3493   3.164   3.904   5.889  0.7487  0.0758 -0.3200
  874SOL     hw 3494   3.245   3.853   5.898  0.4158 -0.4540 -0.2364
  874SOL     hw 3495   3.157   3.952   5.972  1.0254  0.1893 -0.3639
  874SOL     vw 3496   3.174   3.903   5.901  0.7411  0.0210 -0.3145
  875SOL     ow 3497   6.141   1.634   1.590 -0.1911  0.1187 -0.0469
  875SOL     hw 3498   6.186   1.702   1.639  0.7571 -0.0333 -0.6881
  875SOL     hw 3499   6.198   1.616   1.515 -0.6867 -0.9908 -0.1790
  875SOL     vw 3500   6.154   1.640   1.586 -0.1314 -0.0477 -0.1489
  876SOL     ow 3501   3.150   1.659   3.215  0.3396 -0.0731 -0.3439
  876SOL     hw 3502   3.124   1.752   3.216 -0.2402 -0.1926  2.2762
  876SOL     hw 3503   3.244   1.660   3.202  0.1664  0.8024 -1.6754
  876SOL     vw 3504   3.159   1.672   3.213  0.2402  0.0266 -0.1739
  877SOL     ow 3505   1.375   0.525   0.495  0.2203  0.3672  0.0037
  877SOL     hw 3506   1.378   0.499   0.403 -0.2114  1.5866 -0.3739
  877SOL     hw 3507   1.299   0.479   0.530 -0.3607  0.8684 -0.5712
  877SOL     vw 3508   1.365   0.516   0.487  0.0867  0.5942 -0.1220
  878SOL     ow 3509   4.140   5.608   1.476  0.2084 -0.0193  0.0057
  878SOL     hw 3510   4.083   5.618   1.400 -0.9594  2.5473  1.0704
  878SOL     hw 3511   4.090   5.553   1.536 -0.7606  1.3038  0.4811
  878SOL     vw 3512   4.126   5.602   1.474 -0.0734  0.4940  0.2089
  879SOL     ow 3513   5.715   0.833   2.833  0.3036  0.3286 -0.2372
  879SOL     hw 3514   5.716   0.906   2.895  1.3216  2.1506 -2.2657
  879SOL     hw 3515   5.622   0.815   2.820  0.0492 -0.4206  2.0709
  879SOL     vw 3516   5.703   0.840   2.840  0.4044  0.4702 -0.2003
  880SOL     ow 3517   6.994   0.383   5.490  0.0610  0.1251  0.0541
  880SOL     hw 3518   6.919   0.331   5.518  0.2271 -0.7839 -1.0914
  880SOL     hw 3519   6.985   0.389   5.395  2.2501 -1.3466 -0.3127
  880SOL     vw 3520   6.983   0.377   5.481  0.3719 -0.1890 -0.1454
  881SOL     ow 3521   4.785   2.083   5.584 -0.1155  0.1255  0.2152
  881SOL     hw 3522   4.746   2.155   5.535 -0.3863  0.5391  1.0300
  881SOL     hw 3523   4.845   2.125   5.646 -1.1601 -0.2365  1.5216
  881SOL     vw 3524   4.788   2.098   5.586 -0.2890  0.1322  0.4950
  882SOL     ow 3525   3.367   0.008   4.376 -0.2896 -0.2787  0.3172
  882SOL     hw 3526   3.278  -0.023   4.394 -1.9669  5.0089  3.1550
  882SOL     hw 3527   3.360   0.052   4.291 -0.7638  1.0356  1.0125
  882SOL     vw 3528   3.354   0.010   4.367 -0.5735  0.5923  0.7832
  883SOL     ow 3529   4.684   4.774   2.897  0.1322 -0.2538  0.3451
  883SOL     hw 3530   4.720   4.708   2.838 -1.0566 -1.2109  0.6339
  883SOL     hw 3531   4.596   4.790   2.863  0.0633  0.4819  0.8467
  883SOL     vw 3532   4.677   4.767   2.885 -0.0336 -0.2830  0.4495
  884SOL     ow 3533   3.187   1.677   0.188  0.0839  0.3916  0.2117
  884SOL     hw 3534   3.135   1.605   0.222 -1.3885  1.2328 -0.1674
  884SOL     hw 3535   3.124   1.749   0.176  1.0460  0.9965 -1.6351
  884SOL     vw 3536   3.172   1.677   0.191  0.0167  0.5824 -0.0819
  885SOL     ow 3537   0.432   4.384   2.063 -0.1533 -0.2053  0.1708
  885SOL     hw 3538   0.450   4.473   2.093  0.0406  0.2035 -1.0797
  885SOL     hw 3539   0.432   4.331   2.143 -3.1037  1.3162  1.3284
  885SOL     vw 3540   0.434   4.388   2.077 -0.5170  0.0494  0.1584
  886SOL     ow 3541   2.040   0.744   0.609 -0.4650  0.0577 -0.2483
  886SOL     hw 3542   2.013   0.835   0.612  0.6506  0.4080 -0.4887
  886SOL     hw 3543   2.077   0.727   0.696 -0.0495  0.0373 -0.4277
  886SOL     vw 3544   2.041   0.753   0.621 -0.2631  0.1012 -0.3037
  887SOL     ow 3545   4.763   0.899   2.354 -0.4285 -0.1006  0.2251
  887SOL     hw 3546   4.794   0.983   2.323 -1.2328 -1.0816 -3.7813
  887SOL     hw 3547   4.690   0.920   2.412  0.5124  1.9288  0.7338
  887SOL     vw 3548   4.757   0.913   2.358 -0.4103  0.0377 -0.2364
  888SOL     ow 3549   5.388   1.389   5.509 -0.3074 -0.4623 -0.2517
  888SOL     hw 3550   5.395   1.483   5.494 -0.0064 -0.5473 -0.6602
  888SOL     hw 3551   5.430   1.374   5.594  1.2152 -0.4616 -0.9819
  888SOL     vw 3552   5.395   1.399   5.518 -0.0668 -0.4734 -0.4020
  889SOL     ow 3553   1.046   1.207   6.088  0.0015  0.2810 -0.3177
  889SOL     hw 3554   1.028   1.300   6.080  3.6240  1.2040  0.3807
  889SOL     hw 3555   0.998   1.166   6.016 -0.9050  2.7692 -1.2155
  889SOL     vw 3556   1.037   1.214   6.078  0.3597  0.7311 -0.3440
  890SOL     ow 3557   3.746   0.612   1.414 -0.2561  0.1507  0.2283
  890SOL     hw 3558   3.657   0.603   1.447 -0.5173 -0.1404 -0.5333
  890SOL     hw 3559   3.744   0.688   1.356 -0.5712 -1.0798 -1.4911
  890SOL     vw 3560   3.734   0.621   1.410 -0.3321 -0.0501 -0.0989
  891SOL     ow 3561   1.579   2.346   0.512  0.1722 -0.3833  0.5444
  891SOL     hw 3562   1.545   2.263   0.546  0.6201 -2.2102 -2.9364
  891SOL     hw 3563   1.674   2.337   0.518  0.2442  0.8424  1.9811
  891SOL     vw 3564   1.587   2.334   0.517  0.2408 -0.4627  0.2747
  892SOL     ow 3565   0.209   1.800   5.980 -0.0741 -0.7606  0.2964
  892SOL     hw 3566   0.218   1.807   6.075 -1.4401 -0.8340  0.4521
  892SOL     hw 3567   0.262   1.872   5.946 -1.6252  0.8982  1.2261
  892SOL     vw 3568   0.217   1.810   5.988 -0.4590 -0.5515  0.4396
  893SOL     ow 3569   3.771   6.439   2.860 -0.4015  0.3797 -0.1828
  893SOL     hw 3570   3.725   6.462   2.941 -1.2858  0.7065 -0.7687
  893SOL     hw 3571   3.783   6.523   2.815 -0.2133  0.1611 -0.5416
  893SOL     vw 3572   3.766   6.453   2.865 -0.4933  0.3939 -0.3073
  894SOL     ow 3573   6.476   4.781   3.511  1.1905 -0.0871 -0.2875
  894SOL     hw 3574   6.528   4.859   3.530  1.6726  0.1095 -2.2368
  894SOL     hw 3575   6.486   4.768   3.417 -2.7885  0.3016 -0.9113
  894SOL     vw 3576   6.484   4.789   3.501  0.7291 -0.0098 -0.6269
  895SOL     ow 3577   4.674   6.991   1.644  0.0015 -0.1643  0.0690
  895SOL     hw 3578   4.708   7.047   1.715 -0.6158  0.0488  0.1998
  895SOL     hw 3579   4.749   6.936   1.620  1.2863  2.0756 -1.4809
  895SOL     vw 3580   4.689   6.991   1.651  0.0896  0.1595 -0.1183
  896SOL     ow 3581   1.807   2.134   3.681 -0.3715 -0.3648 -0.4647
  896SOL     hw 3582   1.823   2.219   3.723  3.7490 -0.4066 -1.5646
  896SOL     hw 3583   1.787   2.156   3.590  1.3424 -0.5152 -0.9062
  896SOL     vw 3584   1.806   2.148   3.675  0.3983 -0.3901 -0.6680
  897SOL     ow 3585   2.927   6.194   4.800  0.4126 -0.4372  0.2746
  897SOL     hw 3586   2.837   6.215   4.825  1.1419 -0.8753  3.8518
  897SOL     hw 3587   2.918   6.134   4.726 -2.2216 -0.3614  0.4255
  897SOL     vw 3588   2.914   6.189   4.794  0.1614 -0.4849  0.7665
  898SOL     ow 3589   0.838   4.466   1.185 -0.1382 -0.1775 -0.2114
  898SOL     hw 3590   0.801   4.436   1.268 -0.2300 -0.9892 -0.5287
  898SOL     hw 3591   0.871   4.386   1.144  1.0503  0.3882 -0.3941
  898SOL     vw 3592   0.837   4.451   1.190  0.0065 -0.2100 -0.2773
  899SOL     ow 3593   1.633   1.493   2.438  0.2899  0.1701 -0.3241
  899SOL     hw 3594   1.722   1.469   2.411  0.3568  0.8864 -0.7696
  899SOL     hw 3595   1.607   1.423   2.498  1.2443  0.0813  0.0071
  899SOL     vw 3596   1.642   1.480   2.442  0.4247  0.2529 -0.3392
  900SOL     ow 3597   3.033   6.462   0.602  0.5618 -0.4139 -0.0295
  900SOL     hw 3598   2.960   6.489   0.657  0.2612 -1.0578 -0.0973
  900SOL     hw 3599   3.009   6.491   0.514 -0.7829 -2.6941 -0.5032
  900SOL     vw 3600   3.020   6.469   0.597  0.3446 -0.7997 -0.1009
  901SOL     ow 3601   5.422   5.560   5.395 -0.4872  0.2141  0.4912
  901SOL     hw 3602   5.343   5.546   5.343 -0.2601 -2.7019  0.7743
  901SOL     hw 3603   5.493   5.530   5.338  0.2206  0.9914  0.9513
  901SOL     vw 3604   5.421   5.554   5.381 -0.3641 -0.0682  0.5889
  902SOL     ow 3605   0.183   5.517   0.164  0.0393 -0.1752 -0.0935
  902SOL     hw 3606   0.133   5.522   0.245 -0.6996  2.8786 -0.6266
  902SOL     hw 3607   0.119   5.533   0.094  1.3305  1.9501 -0.9105
  902SOL     vw 3608   0.168   5.520   0.165  0.1122  0.5081 -0.2717
  903SOL     ow 3609   4.074   3.232   3.139 -0.2322 -0.4995 -0.2346
  903SOL     hw 3610   4.001   3.249   3.198 -0.4786  0.5706 -0.8122
  903SOL     hw 3611   4.152   3.236   3.195 -0.3730  1.5114 -0.1021
  903SOL     vw 3612   4.075   3.235   3.154 -0.2832 -0.0930 -0.2935
  904SOL     ow 3613   0.962   4.705   1.199  0.1716 -0.0797  0.4366
  904SOL     hw 3614   1.049   4.679   1.169  0.0912 -0.7194  0.7379
  904SOL     hw 3615   0.910   4.624   1.194 -0.2498  0.1620  0.8137
  904SOL     vw 3616   0.966   4.691   1.194  0.1054 -0.1321  0.5261
  905SOL     ow 3617   0.597   1.873   3.578 -0.2736  0.2750  0.0556
  905SOL     hw 3618   0.548   1.868   3.660  0.3751 -1.1272  0.3824
  905SOL     hw 3619   0.602   1.967   3.559 -1.6561  0.5410  0.8585
  905SOL     vw 3620   0.591   1.885   3.586 -0.3704  0.1251  0.2047
  906SOL     ow 3621   1.077   0.894   6.149 -0.4757 -0.3876  0.2962
  906SOL     hw 3622   1.121   0.866   6.069 -0.9247 -1.7778  0.5038
  906SOL     hw 3623   1.099   0.827   6.214 -1.0164  0.1239  1.0259
  906SOL     vw 3624   1.085   0.882   6.147 -0.6062 -0.5036  0.4199
  907SOL     ow 3625   2.686   3.075   6.845 -0.0067  0.0325  0.7558
  907SOL     hw 3626   2.699   3.051   6.754  1.0596 -0.1887  0.9603
  907SOL     hw 3627   2.596   3.048   6.864 -0.4373  0.5930 -0.3763
  907SOL     vw 3628   2.676   3.068   6.836  0.0770  0.0772  0.6335
  908SOL     ow 3629   0.695   5.758   4.656  0.6782  0.7300 -0.1313
  908SOL     hw 3630   0.614   5.791   4.694  0.5412 -0.2204  0.4474
  908SOL     hw 3631   0.761   5.771   4.724  1.1793  2.1098 -0.8440
  908SOL     vw 3632   0.693   5.764   4.670  0.7263  0.7865 -0.1493
  909SOL     ow 3633   3.509   2.735   1.532 -0.1658  0.8718 -0.0734
  909SOL     hw 3634   3.461   2.695   1.459 -0.4859  0.7554  0.1969
  909SOL     hw 3635   3.509   2.829   1.512 -2.4369  1.1727  0.9873
  909SOL     vw 3636   3.502   2.742   1.520 -0.5075  0.8961  0.1022
  910SOL     ow 3637   3.290   2.824   5.179  0.1865 -0.1978 -0.2370
  910SOL     hw 3638   3.279   2.861   5.092  1.6811 -1.8033 -1.1900
  910SOL     hw 3639   3.306   2.731   5.163  1.7024 -0.3221  1.6612
  910SOL     vw 3640   3.291   2.816   5.165  0.5836 -0.4261 -0.1125
  911SOL     ow 3641   6.798   2.718   0.207 -0.2111  0.0255 -0.2511
  911SOL     hw 3642   6.773   2.708   0.115 -1.2847 -1.4813  0.1618
  911SOL     hw 3643   6.729   2.774   0.243  0.7090  1.3913 -0.5215
  911SOL     vw 3644   6.786   2.724   0.199 -0.2313  0.0069 -0.2323
  912SOL     ow 3645   2.199   6.240   3.399 -0.4571 -0.0566  0.2804
  912SOL     hw 3646   2.176   6.148   3.383  0.5201 -0.2144 -0.2700
  912SOL     hw 3647   2.285   6.236   3.441 -0.1126  0.6316 -0.3408
  912SOL     vw 3648   2.207   6.227   3.403 -0.2829  0.0136  0.1259
  913SOL     ow 3649   3.940   3.394   3.723  0.0562 -0.3136 -0.0018
  913SOL     hw 3650   3.898   3.367   3.642  1.4908  0.7654 -1.1725
  913SOL     hw 3651   4.029   3.358   3.718  0.7161  1.1726  0.2501
  913SOL     vw 3652   3.946   3.386   3.712  0.3325  0.0248 -0.1231
  914SOL     ow 3653   3.166   2.440   1.831  0.1513  0.2889  0.3436
  914SOL     hw 3654   3.225   2.367   1.817 -1.4375 -1.3432  1.5878
  914SOL     hw 3655   3.156   2.445   1.926 -1.5059  0.6375  0.1872
  914SOL     vw 3656   3.172   2.431   1.842 -0.2769  0.1196  0.4871
  915SOL     ow 3657   2.921   2.820   4.153  0.1931  0.2818  0.6842
  915SOL     hw 3658   2.905   2.811   4.247  1.0770 -0.1734  0.8053
  915SOL     hw 3659   2.901   2.733   4.117 -1.9815  0.9402  0.1331
  915SOL     vw 3660   2.916   2.807   4.161  0.0226  0.3086  0.6275
  916SOL     ow 3661   0.721   2.422   5.902  0.1074 -0.0497 -0.0358
  916SOL     hw 3662   0.801   2.370   5.903  1.1588  1.2741 -2.7193
  916SOL     hw 3663   0.651   2.359   5.885  0.9799 -0.9364 -0.4482
  916SOL     vw 3664   0.723   2.407   5.900  0.3613  0.0079 -0.4444
  917SOL     ow 3665   3.853   2.066   3.669 -0.6453 -0.7202 -0.5545
  917SOL     hw 3666   3.768   2.031   3.696 -1.2532 -0.1200 -1.6296
  917SOL     hw 3667   3.907   2.058   3.747 -2.1361  0.2977  0.6661
  917SOL     vw 3668   3.849   2.060   3.683 -0.9222 -0.5066 -0.5354
  918SOL     ow 3669   1.132   1.527   4.469  0.3095 -0.0602  0.1566
  918SOL     hw 3670   1.193   1.599   4.486 -0.7697  0.5254  1.7144
  918SOL     hw 3671   1.159   1.458   4.530 -0.6912  0.2889  1.0228
  918SOL     vw 3672   1.144   1.527   4.479  0.0351  0.0631  0.4764
  919SOL     ow 3673   3.973   0.113   4.839 -0.5260 -0.1732 -1.0798
  919SOL     hw 3674   4.022   0.128   4.759 -0.9014  1.1211 -1.0838
  919SOL     hw 3675   3.898   0.173   4.834  0.3271  1.2034  0.9858
  919SOL     vw 3676   3.970   0.123   4.828 -0.4630  0.1792 -0.8078
  920SOL     ow 3677   4.747   3.669   0.165 -0.9233  0.3259  0.3999
  920SOL     hw 3678   4.753   3.722   0.085 -0.6079  1.2669  1.0249
  920SOL     hw 3679   4.827   3.616   0.164 -2.0793 -1.5455 -1.1468
  920SOL     vw 3680   4.759   3.669   0.154 -1.0343  0.2031  0.2783
  921SOL     ow 3681   5.407   3.661   1.527  0.0131 -0.0161 -0.4258
  921SOL     hw 3682   5.400   3.755   1.544  1.2443  0.1732 -0.8922
  921SOL     hw 3683   5.471   3.630   1.591 -0.6625 -0.6229 -0.0228
  921SOL     vw 3684   5.415   3.669   1.538  0.0863 -0.0713 -0.4342
  922SOL     ow 3685   2.451   5.308   0.150 -0.2815 -0.2424 -0.8067
  922SOL     hw 3686   2.521   5.300   0.215 -2.0593  1.2334  1.4676
  922SOL     hw 3687   2.464   5.393   0.109 -0.9155  0.2113 -0.0961
  922SOL     vw 3688   2.462   5.318   0.153 -0.5999  0.0124 -0.4129
  923SOL     ow 3689   1.487   4.036   2.694  0.3098  0.1282  0.4928
  923SOL     hw 3690   1.523   3.990   2.770 -2.0373 -0.1258  1.5388
  923SOL     hw 3691   1.478   3.969   2.627  0.6190 -0.0587  0.6346
  923SOL     vw 3692   1.490   4.021   2.695  0.0409  0.0699  0.6496
  924SOL     ow 3693   5.873   5.567   6.634  0.1531 -0.4181  0.0504
  924SOL     hw 3694   5.839   5.484   6.600 -0.1273 -0.2945  0.0343
  924SOL     hw 3695   5.819   5.634   6.593 -0.8971 -0.3054  1.5399
  924SOL     vw 3696   5.862   5.565   6.624 -0.0224 -0.3870  0.2449
  925SOL     ow 3697   0.494   5.988   6.025  0.5413  0.5500  0.2327
  925SOL     hw 3698   0.503   5.952   5.936  2.9003 -0.6081  0.8566
  925SOL     hw 3699   0.530   6.077   6.018  1.5296  0.1563  0.1821
  925SOL     vw 3700   0.500   5.995   6.012  0.9829  0.3452  0.3083
  926SOL     ow 3701   6.596   0.243   1.721  0.0917 -0.0685  0.1350
  926SOL     hw 3702   6.649   0.297   1.779 -0.1902 -0.8505  1.1560
  926SOL     hw 3703   6.659   0.202   1.662  0.2477  1.8765 -1.1289
  926SOL     vw 3704   6.611   0.245   1.721  0.0753  0.0850  0.1029
  927SOL     ow 3705   1.887   0.738   3.580  0.8243 -0.3254  0.1478
  927SOL     hw 3706   1.955   0.805   3.577 -0.1515  0.6651 -1.0941
  927SOL     hw 3707   1.905   0.682   3.504 -0.8072  1.0938 -1.3720
  927SOL     vw 3708   1.899   0.739   3.570  0.4803 -0.0075 -0.2166
  928SOL     ow 3709   0.112   6.891   3.605  0.7313  0.1544  0.0970
  928SOL     hw 3710   0.148   6.863   3.689 -0.7710 -0.7872  0.4826
  928SOL     hw 3711   0.090   6.983   3.617  1.2641  0.2373  0.4590
  928SOL     vw 3712   0.114   6.899   3.617  0.6033  0.0410  0.1955
  929SOL     ow 3713   3.504   4.482   3.095  0.1603 -0.5367 -0.0279
  929SOL     hw 3714   3.477   4.419   3.162  0.0676  0.8474  1.2985
  929SOL     hw 3715   3.584   4.521   3.131 -0.0180  0.3921 -0.6231
  929SOL     vw 3716   3.511   4.479   3.109  0.1246 -0.2315  0.0685
  930SOL     ow 3717   6.151   5.113   6.329  0.1180  0.4094 -0.1007
  930SOL     hw 3718   6.060   5.111   6.297  0.6320  2.7118 -1.9930
  930SOL     hw 3719   6.143   5.107   6.424 -2.1464  1.7229 -0.1250
  930SOL     vw 3720   6.138   5.112   6.338 -0.1128  0.8867 -0.3536
  931SOL     ow 3721   0.502   4.019   5.287  0.3306 -0.5238  0.6132
  931SOL     hw 3722   0.447   4.092   5.314  0.1876 -0.6938  0.7906
  931SOL     hw 3723   0.578   4.059   5.245  0.2947 -0.2730  0.7868
  931SOL     vw 3724   0.505   4.034   5.285  0.3070 -0.5133  0.6595
  932SOL     ow 3725   1.857   0.360   4.423 -0.6821 -0.3555  0.0842
  932SOL     hw 3726   1.927   0.295   4.426 -0.0864  0.2661 -0.2406
  932SOL     hw 3727   1.870   0.406   4.340  0.5517  2.0036  1.4875
  932SOL     vw 3728   1.868   0.357   4.412 -0.4408  0.0377  0.2265
  933SOL     ow 3729   5.202   6.116   4.308 -0.0566 -0.1541  0.3841
  933SOL     hw 3730   5.296   6.125   4.325 -0.0958  0.4216  0.3076
  933SOL     hw 3731   5.181   6.188   4.249 -0.1809 -1.3662 -1.1224
  933SOL     vw 3732   5.212   6.127   4.302 -0.0780 -0.2379  0.1750
  934SOL     ow 3733   2.201   0.698   0.337 -0.1462 -0.2019 -0.7644
  934SOL     hw 3734   2.195   0.694   0.241 -0.2305  2.2674 -0.9262
  934SOL     hw 3735   2.293   0.717   0.354 -0.5185  1.4801 -0.5025
  934SOL     vw 3736   2.213   0.700   0.326 -0.2064  0.3458 -0.7512
  935SOL     ow 3737   6.074   2.300   4.893 -0.0964 -0.0370 -0.4716
  935SOL     hw 3738   6.006   2.346   4.845 -0.4931  0.7489  0.8038
  935SOL     hw 3739   6.143   2.285   4.828 -0.8869  0.3892 -1.4387
  935SOL     vw 3740   6.074   2.304   4.878 -0.2530  0.1230 -0.4308
  936SOL     ow 3741   4.114   4.000   3.497  0.7235  0.9673 -0.1560
  936SOL     hw 3742   4.064   4.046   3.430  1.7623  0.0305 -1.6263
  936SOL     hw 3743   4.110   4.058   3.574 -0.7298  1.9304 -0.9031
  936SOL     vw 3744   4.107   4.014   3.498  0.6685  0.9708 -0.4486
  937SOL     ow 3745   0.126   6.688   1.978  0.2845 -0.4494 -0.1778
  937SOL     hw 3746   0.048   6.725   2.020  0.5162 -1.3358  1.0850
  937SOL     hw 3747   0.156   6.757   1.919 -0.2228  0.7380  0.9095
  937SOL     vw 3748   0.120   6.702   1.975  0.2481 -0.4096  0.1323
  938SOL     ow 3749   2.127   5.973   6.741  0.3597  0.4262  0.1765
  938SOL     hw 3750   2.151   6.064   6.756 -0.9293  1.0074 -1.1181
  938SOL     hw 3751   2.209   5.924   6.756  1.6773  2.0235 -1.3690
  938SOL     vw 3752   2.141   5.978   6.745  0.3635  0.7136 -0.1984
  939SOL     ow 3753   2.130   4.821   6.566 -0.0611  0.6181 -0.6133
  939SOL     hw 3754   2.069   4.829   6.639  1.2155 -1.4926  0.7722
  939SOL     hw 3755   2.152   4.912   6.544 -0.6826  1.3375  1.4551
  939SOL     vw 3756   2.125   4.834   6.573  0.0254  0.4346 -0.1576
  940SOL     ow 3757   2.593   1.780   5.214  0.1834 -0.0457  0.3918
  940SOL     hw 3758   2.676   1.777   5.167  0.1077  0.3126  0.2239
  940SOL     hw 3759   2.535   1.723   5.164  0.5121 -0.8218  0.8889
  940SOL     vw 3760   2.596   1.772   5.201  0.2168 -0.1008  0.4351
  941SOL     ow 3761   6.104   6.505   4.752  0.1857 -0.2105 -0.0773
  941SOL     hw 3762   6.145   6.434   4.802 -0.7349 -1.1591 -0.6226
  941SOL     hw 3763   6.013   6.505   4.783  0.2591  0.9755  0.1607
  941SOL     vw 3764   6.097   6.495   4.763  0.0739 -0.1791 -0.1180
  942SOL     ow 3765   6.576   1.999   2.816  0.0419  0.4524  0.5005
  942SOL     hw 3766   6.565   1.908   2.843  0.5675  0.8521  2.2014
  942SOL     hw 3767   6.490   2.038   2.830 -0.4911  0.0120 -1.2699
  942SOL     vw 3768   6.563   1.992   2.821  0.0408  0.4470  0.4914
  943SOL     ow 3769   2.026   3.422   0.208  0.1580  0.0579 -0.1827
  943SOL     hw 3770   2.059   3.369   0.281 -0.3093 -0.3607 -0.2667
  943SOL     hw 3771   2.062   3.380   0.130 -1.5160 -1.1646 -0.3641
  943SOL     vw 3772   2.035   3.409   0.207 -0.1246 -0.1587 -0.2177
  944SOL     ow 3773   4.464   0.734   1.978  0.5892  0.0120  0.0316
  944SOL     hw 3774   4.532   0.675   2.010  1.0109  0.9687  0.9681
  944SOL     hw 3775   4.452   0.798   2.049  0.4191  1.2671 -1.0819
  944SOL     vw 3776   4.471   0.735   1.992  0.6225  0.3038  0.0082
  945SOL     ow 3777   4.813   0.532   4.688  0.7414  0.3361  0.1646
  945SOL     hw 3778   4.737   0.479   4.713  0.3408  0.8222  0.0033
  945SOL     hw 3779   4.870   0.530   4.764  1.3668 -1.4175 -0.2977
  945SOL     vw 3780   4.810   0.525   4.701  0.7708  0.1688  0.0823
  946SOL     ow 3781   4.701   4.171   5.986 -0.0639  0.3669  0.2460
  946SOL     hw 3782   4.784   4.185   5.941 -0.2720  1.5123  0.1979
  946SOL     hw 3783   4.697   4.076   6.000  1.2237  0.2899  0.2025
  946SOL     vw 3784   4.711   4.160   5.982  0.0784  0.5078  0.2339
  947SOL     ow 3785   0.961   1.573   5.279  0.1731 -0.7763  0.0838
  947SOL     hw 3786   0.966   1.540   5.189  0.7058  0.7347 -0.4798
  947SOL     hw 3787   0.993   1.663   5.273  0.9752 -0.8932  1.9431
  947SOL     vw 3788   0.966   1.581   5.266  0.3492 -0.5924  0.2549
  948SOL     ow 3789   0.451   3.025   1.213 -0.0177  0.4717 -0.2955
  948SOL     hw 3790   0.364   3.065   1.212 -0.1928  0.1817  1.2685
  948SOL     hw 3791   0.463   2.993   1.124 -1.8185 -0.1228 -0.3638
  948SOL     vw 3792   0.441   3.026   1.201 -0.2784  0.3550 -0.0982
  949SOL     ow 3793   4.386   4.487   4.649  0.2847  0.4332 -0.9085
  949SOL     hw 3794   4.357   4.397   4.635 -0.5875  0.5081  0.2721
  949SOL     hw 3795   4.307   4.533   4.677  0.9055  1.3770 -0.6955
  949SOL     vw 3796   4.372   4.481   4.651  0.2515  0.5679 -0.7246
  950SOL     ow 3797   3.269   1.315   1.541  0.4485  0.5689 -0.3172
  950SOL     hw 3798   3.261   1.392   1.598  0.0354  1.1720 -1.1611
  950SOL     hw 3799   3.182   1.304   1.504  1.1385  1.4199 -2.3461
  950SOL     vw 3800   3.256   1.324   1.543  0.4851  0.7607 -0.6962
  951SOL     ow 3801   4.954   6.427   6.578 -0.0026  0.0947 -0.5263
  951SOL     hw 3802   4.987   6.339   6.595  2.2147  0.8698 -0.4065
  951SOL     hw 3803   4.977   6.477   6.657 -1.3001  0.7811 -0.5508
  951SOL     vw 3804   4.962   6.422   6.591  0.1185  0.2878 -0.5138
  952SOL     ow 3805   0.386   2.448   6.516 -0.1188 -0.4732  0.4212
  952SOL     hw 3806   0.310   2.490   6.475  0.5657  0.9776  0.5723
  952SOL     hw 3807   0.427   2.398   6.446 -0.4674 -0.1940  0.0124
  952SOL     vw 3808   0.381   2.447   6.502 -0.0745 -0.2449  0.3874
  953SOL     ow 3809   1.791   4.609   5.462  0.4929  0.0218  0.2718
  953SOL     hw 3810   1.743   4.691   5.470 -0.8355 -0.5720 -1.0432
  953SOL     hw 3811   1.813   4.604   5.369 -0.1307 -1.4670  0.1846
  953SOL     vw 3812   1.788   4.619   5.451  0.2354 -0.2530  0.0865
  954SOL     ow 3813   5.592   5.886   0.118 -0.1994 -0.5100  0.2693
  954SOL     hw 3814   5.512   5.903   0.068 -0.0853  0.0864  0.2740
  954SOL     hw 3815   5.570   5.913   0.207  0.0791 -0.1019  0.2206
  954SOL     vw 3816   5.578   5.892   0.123 -0.1476 -0.3774  0.2635
  955SOL     ow 3817   0.224   2.433   0.371  0.0325 -0.6443  0.2908
  955SOL     hw 3818   0.196   2.357   0.319 -0.9369  0.1195 -0.3407
  955SOL     hw 3819   0.306   2.461   0.330 -0.1791 -0.6946 -0.1830
  955SOL     vw 3820   0.231   2.427   0.358 -0.1233 -0.5502  0.1450
  956SOL     ow 3821   0.852   4.417   0.693  0.2407 -0.3930 -0.1490
  956SOL     hw 3822   0.829   4.341   0.640  0.2780 -1.8508  1.8105
  956SOL     hw 3823   0.941   4.400   0.723 -0.1771 -0.1934  1.2908
  956SOL     vw 3824   0.861   4.405   0.690  0.1905 -0.5591  0.2995
  957SOL     ow 3825   0.993   0.681   0.016  0.2362 -0.4767  0.2081
  957SOL     hw 3826   0.969   0.635   0.096 -2.2841  1.9289  1.0067
  957SOL     hw 3827   1.057   0.746   0.044  0.1358 -0.3167  0.0709
  957SOL     vw 3828   0.998   0.684   0.030 -0.1096 -0.1382  0.2954
  958SOL     ow 3829   1.098   6.020   0.163  0.0574  0.4242  0.3768
  958SOL     hw 3830   1.179   5.970   0.168 -0.5443 -0.5795  0.3076
  958SOL     hw 3831   1.053   6.000   0.245 -1.8154 -2.0567 -1.1162
  958SOL     vw 3832   1.103   6.011   0.174 -0.2691 -0.0355  0.1707
  959SOL     ow 3833   3.257   6.943   0.233 -0.4353  0.3187  0.1693
  959SOL     hw 3834   3.336   6.920   0.186  0.0319 -0.3075  1.2264
  959SOL     hw 3835   3.288   6.993   0.309 -1.0284 -0.1138  0.7063
  959SOL     vw 3836   3.271   6.947   0.237 -0.4519  0.1793  0.3796
  960SOL     ow 3837   4.864   0.616   1.507  0.0123 -0.0328 -0.0708
  960SOL     hw 3838   4.883   0.546   1.570 -1.5035  0.9539  1.5984
  960SOL     hw 3839   4.772   0.602   1.483  0.0604  0.6612 -0.6820
  960SOL     vw 3840   4.854   0.605   1.512 -0.1812  0.1889  0.0688
  961SOL     ow 3841   2.386   0.044   6.324  0.1323  0.2089  0.3014
  961SOL     hw 3842   2.358  -0.027   6.266  0.8954 -0.2527  0.4763
  961SOL     hw 3843   2.440   0.000   6.390  0.1109  0.8708  0.7623
  961SOL     vw 3844   2.390   0.029   6.325  0.2302  0.2354  0.3853
  962SOL     ow 3845   6.610   6.204   0.561  0.7298 -0.1363 -0.0844
  962SOL     hw 3846   6.564   6.127   0.527 -3.0076  2.2626 -1.0632
  962SOL     hw 3847   6.678   6.221   0.497 -0.1861 -1.0715 -1.3670
  962SOL     vw 3848   6.613   6.196   0.548  0.1159  0.0567 -0.3828
  963SOL     ow 3849   4.255   4.742   5.781  0.4056 -0.1992  0.1192
  963SOL     hw 3850   4.201   4.711   5.708 -1.5270  0.5234  1.1868
  963SOL     hw 3851   4.263   4.836   5.766  1.6732 -0.3315 -0.1782
  963SOL     vw 3852   4.249   4.750   5.769  0.3183 -0.1211  0.2208
  964SOL     ow 3853   1.390   6.905   0.650 -0.1114  0.5480  0.6002
  964SOL     hw 3854   1.350   6.821   0.629  1.5247 -0.4087  1.0921
  964SOL     hw 3855   1.329   6.947   0.710 -1.4319  0.1669 -0.4412
  964SOL     vw 3856   1.377   6.899   0.655 -0.0697  0.3717  0.5277
  965SOL     ow 3857   2.651   1.983   1.062  0.3230  0.2711  0.5055
  965SOL     hw 3858   2.637   1.904   1.115  0.0563 -0.1665 -0.1978
  965SOL     hw 3859   2.579   2.041   1.086  0.3485  0.1773  0.8100
  965SOL     vw 3860   2.640   1.980   1.072  0.2911  0.2009  0.4529
  966SOL     ow 3861   6.990   2.842   4.791 -0.2631 -0.5845 -0.1476
  966SOL     hw 3862   6.900   2.835   4.759 -0.4395  1.9184 -0.3989
  966SOL     hw 3863   6.984   2.819   4.884 -0.6723 -2.7784 -0.6526
  966SOL     vw 3864   6.978   2.838   4.799 -0.3402 -0.5438 -0.2472
  967SOL     ow 3865   6.999   3.618   0.241 -0.6720  0.0057  0.0913
  967SOL     hw 3866   6.914   3.601   0.283 -1.3625  2.1389 -0.2904
  967SOL     hw 3867   6.979   3.619   0.147 -0.5637  1.8541  0.0488
  967SOL     vw 3868   6.985   3.616   0.234 -0.7488  0.5310  0.0354
  968SOL     ow 3869   6.295   0.331   2.428 -0.2821  0.4703 -0.0387
  968SOL     hw 3870   6.349   0.335   2.507  0.8703 -0.3844 -0.7588
  968SOL     hw 3871   6.321   0.409   2.378  1.0224 -0.3973 -0.8004
  968SOL     vw 3872   6.306   0.342   2.432  0.0420  0.2431 -0.2341
  969SOL     ow 3873   5.476   0.872   3.460 -0.7688 -0.0259  0.3178
  969SOL     hw 3874   5.556   0.898   3.505  0.2538 -2.0884 -0.1921
  969SOL     hw 3875   5.494   0.890   3.367 -1.9480  1.9471  0.4108
  969SOL     vw 3876   5.489   0.878   3.454 -0.7894 -0.0377  0.2629
  970SOL     ow 3877   4.463   0.877   3.438  0.1678  0.1335  0.3055
  970SOL     hw 3878   4.483   0.815   3.507  1.5562 -1.9448 -1.8293
  970SOL     hw 3879   4.375   0.852   3.408  0.2744 -0.0716  0.1688
  970SOL     vw 3880   4.454   0.866   3.443  0.3650 -0.1677  0.0057
  971SOL     ow 3881   1.119   0.251   4.960 -0.2006 -0.1324  0.0822
  971SOL     hw 3882   1.086   0.162   4.969 -0.9014 -0.1378 -2.0823
  971SOL     hw 3883   1.118   0.286   5.049 -2.3994 -1.4236  0.6293
  971SOL     vw 3884   1.114   0.244   4.973 -0.5832 -0.3034 -0.1311
  972SOL     ow 3885   0.687   0.898   4.402  0.0998  0.0382 -0.2338
  972SOL     hw 3886   0.629   0.952   4.348  0.9791  1.4639  0.1968
  972SOL     hw 3887   0.678   0.935   4.490  0.6942 -0.5593  0.0823
  972SOL     vw 3888   0.678   0.910   4.406  0.2942  0.1475 -0.1354
  973SOL     ow 3889   6.084   3.959   2.368 -0.0876 -0.4862 -0.2585
  973SOL     hw 3890   6.138   4.007   2.305  0.7710  1.1246  1.6300
  973SOL     hw 3891   6.003   4.010   2.374  0.7882  0.7833  1.6792
  973SOL     vw 3892   6.080   3.972   2.360  0.1411 -0.1063  0.2464
  974SOL     ow 3893   0.899   5.602   5.017  0.0691 -0.7523  0.3370
  974SOL     hw 3894   0.923   5.530   4.959 -0.0770 -1.1149  0.7233
  974SOL     hw 3895   0.894   5.679   4.960  0.5255 -0.9899 -0.0233
  974SOL     vw 3896   0.902   5.603   5.002  0.1100 -0.8314  0.3402
  975SOL     ow 3897   1.273   0.526   4.407  0.5833 -0.1408 -0.6460
  975SOL     hw 3898   1.210   0.458   4.429  0.9802  0.3780  2.5560
  975SOL     hw 3899   1.255   0.597   4.469  0.7339  2.3977 -3.2634
  975SOL     vw 3900   1.262   0.527   4.418  0.6555  0.2626 -0.5689
  976SOL     ow 3901   4.544   5.947   2.163  0.0817 -0.2007 -0.1599
  976SOL     hw 3902   4.626   5.927   2.118  0.3100 -2.0206  0.9510
  976SOL     hw 3903   4.499   5.862   2.168 -1.6988  0.6864 -0.3942
  976SOL     vw 3904   4.549   5.933   2.157 -0.1230 -0.3238 -0.0442
  977SOL     ow 3905   4.162   4.582   4.771 -0.3221 -0.1124 -0.1266
  977SOL     hw 3906   4.092   4.516   4.769 -1.4140  0.9920  0.2391
  977SOL     hw 3907   4.170   4.606   4.863  0.6760 -0.3483 -0.1438
  977SOL     vw 3908   4.154   4.576   4.783 -0.3345  0.0021 -0.0803
  978SOL     ow 3909   3.611   5.870   0.155  0.7148  0.6138  0.2357
  978SOL     hw 3910   3.589   5.957   0.121  1.1491  1.5602  2.2280
  978SOL     hw 3911   3.552   5.859   0.230 -0.6138 -1.6323 -1.0088
  978SOL     vw 3912   3.600   5.880   0.160  0.5968  0.4423  0.3344
  979SOL     ow 3913   1.913   4.625   4.395  0.4443 -0.5762  0.1358
  979SOL     hw 3914   1.845   4.645   4.331  1.6846  0.7569 -0.8313
  979SOL     hw 3915   1.866   4.584   4.467 -1.4175  0.4101 -0.4365
  979SOL     vw 3916   1.897   4.622   4.396  0.3623 -0.2701 -0.0672
  980SOL     ow 3917   3.649   4.118   1.059 -0.7319  0.2916  0.2646
  980SOL     hw 3918   3.573   4.167   1.029 -1.5537  0.2450  2.1041
  980SOL     hw 3919   3.701   4.181   1.108 -0.0887  0.0981 -0.1682
  980SOL     vw 3920   3.645   4.133   1.062 -0.7557  0.2599  0.4501
  981SOL     ow 3921   1.023   3.154   0.415  0.0036  0.3679 -0.2422
  981SOL     hw 3922   0.937   3.121   0.441  0.3767 -0.3474  0.1384
  981SOL     hw 3923   1.069   3.168   0.498  0.9901 -1.3390 -0.4378
  981SOL     vw 3924   1.018   3.151   0.429  0.1829  0.0483 -0.2178
  982SOL     ow 3925   1.995   3.166   5.442 -0.1225 -0.5625  0.0847
  982SOL     hw 3926   1.950   3.154   5.359 -1.9548 -2.2589  1.2653
  982SOL     hw 3927   2.087   3.177   5.417 -0.8104  0.5422 -2.2323
  982SOL     vw 3928   2.002   3.166   5.427 -0.4551 -0.6405 -0.0651
  983SOL     ow 3929   4.934   0.795   1.070 -0.6458  0.2628  0.3960
  983SOL     hw 3930   4.848   0.785   1.111 -0.4867 -2.2928  0.2917
  983SOL     hw 3931   4.916   0.815   0.979 -1.1453 -0.1703  0.3957
  983SOL     vw 3932   4.920   0.796   1.064 -0.6907 -0.1315  0.3822
  984SOL     ow 3933   0.290   0.365   4.680 -0.2261  0.3116 -0.4528
  984SOL     hw 3934   0.298   0.274   4.709 -1.2001  0.4630  0.3577
  984SOL     hw 3935   0.333   0.416   4.748 -0.0367  0.4886 -0.7028
  984SOL     vw 3936   0.297   0.360   4.693 -0.3296  0.3549 -0.3788
  985SOL     ow 3937   2.837   4.394   3.924  0.1132 -0.2293  0.2908
  985SOL     hw 3938   2.873   4.475   3.889  0.6440 -1.1947 -1.4815
  985SOL     hw 3939   2.744   4.415   3.939 -0.0617  0.3315 -1.3951
  985SOL     vw 3940   2.829   4.408   3.921  0.1601 -0.2828 -0.1656
  986SOL     ow 3941   4.133   5.938   4.312  0.1754  0.5391  0.6882
  986SOL     hw 3942   4.051   5.962   4.268  0.0587 -0.3576  0.3862
  986SOL     hw 3943   4.202   5.975   4.257  0.0013  0.1276  0.1791
  986SOL     vw 3944   4.131   5.946   4.299  0.1369  0.3667  0.5813
  987SOL     ow 3945   3.599   5.222   3.362 -0.2849  0.0842  0.1688
  987SOL     hw 3946   3.642   5.199   3.445  0.7879  3.1809  0.6074
  987SOL     hw 3947   3.671   5.243   3.302 -1.0313  2.2496 -0.0789
  987SOL     vw 3948   3.614   5.222   3.365 -0.2419  0.7782  0.1940
  988SOL     ow 3949   5.876   0.578   2.908 -0.2593 -0.0744 -0.2033
  988SOL     hw 3950   5.953   0.545   2.954 -0.5007  0.7568  0.8544
  988SOL     hw 3951   5.802   0.556   2.965 -0.7805 -0.6030 -1.0628
  988SOL     vw 3952   5.876   0.571   2.922 -0.3595 -0.0344 -0.1773
  989SOL     ow 3953   0.166   0.074   1.278 -0.0071  0.2142 -1.0140
  989SOL     hw 3954   0.172   0.040   1.367 -0.1473 -0.6472 -1.3247
  989SOL     hw 3955   0.235   0.140   1.273 -0.2565  0.5521 -0.1508
  989SOL     vw 3956   0.176   0.078   1.289 -0.0585  0.1451 -0.9411
  990SOL     ow 3957   6.176   3.318   6.751 -0.4538  0.0458  0.1680
  990SOL     hw 3958   6.219   3.359   6.676 -0.6663 -0.2008 -0.0911
  990SOL     hw 3959   6.145   3.234   6.717 -1.2323  0.2644  0.3259
  990SOL     vw 3960   6.178   3.312   6.737 -0.5846  0.0421  0.1545
  991SOL     ow 3961   2.117   4.462   4.238  0.1327  0.2529  0.1218
  991SOL     hw 3962   2.184   4.450   4.170 -1.6713  0.6971 -1.8274
  991SOL     hw 3963   2.076   4.377   4.247 -0.7780  0.5934 -0.6500
  991SOL     vw 3964   2.121   4.449   4.230 -0.2255  0.3562 -0.2370
  992SOL     ow 3965   6.411   3.086   2.280  0.2085 -0.1797  0.1412
  992SOL     hw 3966   6.319   3.112   2.272  0.5026  0.5098 -1.5166
  992SOL     hw 3967   6.459   3.169   2.283  0.8587 -0.5184 -0.4268
  992SOL     vw 3968   6.406   3.101   2.279  0.3333 -0.1334 -0.1525
  993SOL     ow 3969   2.834   2.347   2.602 -0.1837 -0.0003  0.1633
  993SOL     hw 3970   2.885   2.373   2.679 -1.3730  0.3489  0.8599
  993SOL     hw 3971   2.773   2.419   2.588 -2.2812 -1.5115  0.9846
  993SOL     vw 3972   2.833   2.359   2.611 -0.6173 -0.1537  0.3636
  994SOL     ow 3973   5.396   2.209   5.225 -0.7440 -0.3744  0.5959
  994SOL     hw 3974   5.420   2.145   5.158 -2.5791 -0.3559 -0.1578
  994SOL     hw 3975   5.450   2.187   5.300  0.7964 -0.9115 -0.6157
  994SOL     vw 3976   5.406   2.198   5.226 -0.7827 -0.4427  0.3364
  995SOL     ow 3977   5.796   3.549   6.417 -0.1324  0.0590 -1.1258
  995SOL     hw 3978   5.731   3.578   6.352 -0.3277 -0.8834 -1.3769
  995SOL     hw 3979   5.745   3.502   6.482 -0.0739  1.8746  0.3030
  995SOL     vw 3980   5.781   3.547   6.417 -0.1504  0.1743 -0.9704
  996SOL     ow 3981   3.372   5.902   1.762 -0.3905 -0.5460  0.7085
  996SOL     hw 3982   3.412   5.936   1.842  1.6978 -1.6186  0.1970
  996SOL     hw 3983   3.436   5.839   1.728 -0.8329  0.4518 -2.2453
  996SOL     vw 3984   3.386   5.898   1.768 -0.1734 -0.5558  0.2513
  997SOL     ow 3985   4.480   2.049   1.136  0.3036 -0.0362 -0.1777
  997SOL     hw 3986   4.571   2.076   1.144  0.7253 -1.2027 -0.8430
  997SOL     hw 3987   4.473   2.012   1.048 -1.2980  1.7471 -0.8698
  997SOL     vw 3988   4.491   2.048   1.126  0.1478  0.0452 -0.3568
  998SOL     ow 3989   6.370   0.092   2.241 -0.3174 -0.1520  0.7306
  998SOL     hw 3990   6.383   0.176   2.286 -0.2559 -1.1611  2.6732
  998SOL     hw 3991   6.434   0.033   2.281 -1.3556 -1.5179  0.4421
  998SOL     vw 3992   6.380   0.096   2.252 -0.4466 -0.4654  0.9489
  999SOL     ow 3993   3.560   1.378   6.883 -0.5565 -0.1318  0.0150
  999SOL     hw 3994   3.623   1.429   6.832 -0.2195 -0.2996  0.2632
  999SOL     hw 3995   3.614   1.325   6.942 -0.9440  0.1335  0.6164
  999SOL     vw 3996   3.576   1.378   6.884 -0.5633 -0.1190  0.1271
 1000SOL     ow 3997   1.856   3.794   1.056  0.2395  0.6634 -0.4960
 1000SOL     hw 3998   1.878   3.744   1.135 -0.0190  2.2172  0.6200
 1000SOL     hw 3999   1.940   3.829   1.026  0.4193 -0.3982 -1.2724
 1000SOL     vw 4000   1.870   3.792   1.063  0.2291  0.7282 -0.4513
 1001SOL     ow 4001   6.987   1.808   2.471 -0.1875 -0.5524 -0.2002
 1001SOL     hw 4002   7.005   1.726   2.426  1.9586 -0.6854  0.7882
 1001SOL     hw 4003   7.005   1.876   2.406 -0.1306 -0.8163 -0.4590
 1001SOL     vw 4004   6.992   1.806   2.456  0.1030 -0.6047 -0.1040
 1002SOL     ow 4005   0.851   1.661   4.505  0.2137  0.4261 -0.1512
 1002SOL     hw 4006   0.870   1.576   4.544 -1.4696  0.0077 -0.1554
 1002SOL     hw 4007   0.930   1.683   4.455  0.3479 -1.5317 -0.8623
 1002SOL     vw 4008   0.864   1.653   4.504  0.0093  0.1126 -0.2453
 1003SOL     ow 4009   3.673   3.806   1.134 -0.5473 -0.0793  0.3914
 1003SOL     hw 4010   3.756   3.840   1.167  0.0634 -0.7256 -0.4302
 1003SOL     hw 4011   3.697   3.727   1.086 -1.6086 -0.1212 -0.1059
 1003SOL     vw 4012   3.687   3.800   1.132 -0.6068 -0.1702  0.2174
 1004SOL     ow 4013   1.724   4.236   2.762  0.0102  0.5738  0.3777
 1004SOL     hw 4014   1.746   4.231   2.854  1.0182 -1.6838  0.0688
 1004SOL     hw 4015   1.785   4.300   2.726 -1.2261  2.4450  1.4314
 1004SOL     vw 4016   1.735   4.244   2.769 -0.0199  0.5229  0.4760
 1005SOL     ow 4017   3.613   5.887   3.701  0.3665 -0.4384 -0.9027
 1005SOL     hw 4018   3.660   5.870   3.620  0.8862 -0.8682 -0.5154
 1005SOL     hw 4019   3.566   5.806   3.720  1.1237 -0.7195 -0.1951
 1005SOL     vw 4020   3.613   5.874   3.693  0.5350 -0.5322 -0.7582
 1006SOL     ow 4021   4.869   4.182   6.275 -0.1675 -0.4066  0.4079
 1006SOL     hw 4022   4.903   4.097   6.248  1.1521 -0.2545  1.4621
 1006SOL     hw 4023   4.928   4.210   6.345 -0.2850  1.6022 -0.2417
 1006SOL     vw 4024   4.881   4.174   6.281 -0.0091 -0.1216  0.4613
 1007SOL     ow 4025   6.645   6.912   6.469  0.5456 -0.4053 -0.3616
 1007SOL     hw 4026   6.660   6.909   6.564 -2.8366 -0.0169  0.2968
 1007SOL     hw 4027   6.718   6.863   6.432  1.5205 -1.3136  2.4823
 1007SOL     vw 4028   6.657   6.905   6.477  0.2279 -0.4740  0.1009
 1008SOL     ow 4029   2.586   5.514   3.813 -0.3427  0.2415 -0.0005
 1008SOL     hw 4030   2.638   5.435   3.799 -0.9948  0.0461 -1.6313
 1008SOL     hw 4031   2.592   5.532   3.906  0.5563 -1.2204  0.2425
 1008SOL     vw 4032   2.593   5.506   3.823 -0.3102  0.0231 -0.1837
 1009SOL     ow 4033   4.786   3.320   5.114 -0.0595  0.4038 -0.0173
 1009SOL     hw 4034   4.863   3.269   5.140 -0.8688 -0.5564  0.5516
 1009SOL     hw 4035   4.790   3.399   5.168  0.3015  0.1657  0.3073
 1009SOL     vw 4036   4.797   3.324   5.125 -0.1187  0.2457  0.1006
 1010SOL     ow 4037   3.119   4.661   0.943  0.0453 -0.4276  0.1070
 1010SOL     hw 4038   3.045   4.600   0.936  0.0141 -0.4465  0.5771
 1010SOL     hw 4039   3.149   4.672   0.852 -0.9729  0.1182 -0.1788
 1010SOL     vw 4040   3.113   4.654   0.930 -0.0932 -0.3583  0.1313
 1011SOL     ow 4041   1.275   6.848   5.032 -0.1190 -0.0284 -0.2832
 1011SOL     hw 4042   1.343   6.911   5.006 -0.1604  0.7560  1.3851
 1011SOL     hw 4043   1.245   6.879   5.117  0.8889 -3.1243  1.3552
 1011SOL     vw 4044   1.280   6.861   5.040  0.0085 -0.3333  0.1533
 1012SOL     ow 4045   3.839   6.671   1.235  0.5952 -0.2732  0.4068
 1012SOL     hw 4046   3.860   6.580   1.212  0.6313 -0.2128  0.2004
 1012SOL     hw 4047   3.922   6.717   1.229  0.6294 -0.2802  0.7859
 1012SOL     vw 4048   3.853   6.665   1.231  0.6044 -0.2663  0.4295
 1013SOL     ow 4049   6.123   4.664   5.118 -0.1375 -0.1078 -0.1634
 1013SOL     hw 4050   6.139   4.575   5.148  1.2061 -0.1266 -0.8302
 1013SOL     hw 4051   6.150   4.663   5.026  0.4667  1.1307 -0.0161
 1013SOL     vw 4052   6.129   4.652   5.110  0.1194  0.0529 -0.2322
 1014SOL     ow 4053   2.031   6.390   1.474  0.3481  0.5480  0.7228
 1014SOL     hw 4054   2.096   6.454   1.503  1.2457  0.1433 -0.3388
 1014SOL     hw 4055   1.973   6.439   1.416  1.3561  0.3249 -0.5293
 1014SOL     vw 4056   2.032   6.405   1.470  0.5995  0.4654  0.4175
 1015SOL     ow 4057   5.453   3.529   4.655 -0.7104  0.4010 -0.7918
 1015SOL     hw 4058   5.461   3.617   4.692  1.0063  0.5175 -1.3320
 1015SOL     hw 4059   5.535   3.516   4.608 -1.0543 -1.3919 -0.9580
 1015SOL     vw 4060   5.465   3.539   4.654 -0.5295  0.1798 -0.8848
 1016SOL     ow 4061   0.262   7.011   1.027 -0.2390 -0.4827  0.4159
 1016SOL     hw 4062   0.201   7.028   1.098  0.1030  0.5478  0.4770
 1016SOL     hw 4063   0.225   7.055   0.951 -1.6469 -3.2283 -0.6282
 1016SOL     vw 4064   0.249   7.019   1.027 -0.3796 -0.7090  0.2862
 1017SOL     ow 4065   5.345   0.487   6.614 -0.3503  0.0958 -0.6319
 1017SOL     hw 4066   5.439   0.470   6.614 -0.3343  0.1862 -0.3063
 1017SOL     hw 4067   5.310   0.430   6.545 -0.0756 -0.0315 -0.6643
 1017SOL     vw 4068   5.353   0.477   6.605 -0.3119  0.0910 -0.5932
 1018SOL     ow 4069   6.884   0.336   4.527 -0.2089  0.4314 -0.2645
 1018SOL     hw 4070   6.846   0.291   4.451 -1.3420 -0.9390  1.0498
 1018SOL     hw 4071   6.871   0.429   4.508  0.5421  0.1870 -2.2244
 1018SOL     vw 4072   6.877   0.343   4.515 -0.2592  0.2184 -0.3498
 1019SOL     ow 4073   0.904   0.749   4.217 -0.0018  0.4210  0.4332
 1019SOL     hw 4074   0.826   0.769   4.267 -2.0644 -1.6537 -1.6895
 1019SOL     hw 4075   0.897   0.802   4.138  0.9758  0.5248  0.3998
 1019SOL     vw 4076   0.893   0.758   4.213 -0.1450  0.1610  0.1488
 1020SOL     ow 4077   5.675   2.425   0.249 -0.6225 -0.2613  0.0838
 1020SOL     hw 4078   5.693   2.470   0.167 -1.1895  1.4246  0.8442
 1020SOL     hw 4079   5.611   2.357   0.225 -2.3309  1.4814 -0.5872
 1020SOL     vw 4080   5.669   2.422   0.235 -0.9229  0.1911  0.0956
 1021SOL     ow 4081   2.405   0.677   3.315 -0.0633 -0.0051 -0.2835
 1021SOL     hw 4082   2.309   0.669   3.308 -0.3352  0.1026  2.3768
 1021SOL     hw 4083   2.420   0.770   3.333  0.1463 -0.5163  2.7986
 1021SOL     vw 4084   2.394   0.689   3.316 -0.0714 -0.0584  0.4742
 1022SOL     ow 4085   4.065   2.622   6.635  0.5453  0.2101 -0.1057
 1022SOL     hw 4086   4.060   2.685   6.564  0.9154  2.8004  2.0261
 1022SOL     hw 4087   3.986   2.568   6.625 -0.9086  2.3437 -0.8366
 1022SOL     vw 4088   4.054   2.623   6.624  0.4022  0.8334  0.0787
 1023SOL     ow 4089   0.617   4.269   2.719  0.2837 -0.0644  0.7190
 1023SOL     hw 4090   0.531   4.232   2.701  0.3288 -0.7298  1.8281
 1023SOL     hw 4091   0.678   4.213   2.671  0.1767 -0.1554  0.6901
 1023SOL     vw 4092   0.614   4.257   2.710  0.2756 -0.1640  0.8615
 1024SOL     ow 4093   5.833   2.792   5.353  0.4271  0.1312 -0.5300
 1024SOL     hw 4094   5.908   2.836   5.393 -0.3389  0.4184  0.6383
 1024SOL     hw 4095   5.805   2.728   5.418 -0.8931  0.6583 -0.5438
 1024SOL     vw 4096   5.840   2.789   5.367  0.1519  0.2385 -0.3777
 1025SOL     ow 4097   1.467   2.595   0.407 -0.8438  0.4565 -0.1571
 1025SOL     hw 4098   1.381   2.566   0.379 -0.6542 -0.0581 -0.2117
 1025SOL     hw 4099   1.462   2.691   0.407 -0.9627  0.4705 -1.5754
 1025SOL     vw 4100   1.455   2.604   0.403 -0.8343  0.3904 -0.3514
 1026SOL     ow 4101   4.299   2.058   1.390 -0.3284 -0.0362 -0.0084
 1026SOL     hw 4102   4.236   2.022   1.451 -0.6734 -0.3859 -0.5617
 1026SOL     hw 4103   4.330   2.139   1.431 -1.6020  0.4725 -0.0131
 1026SOL     vw 4104   4.295   2.064   1.403 -0.5419 -0.0151 -0.0820
 1027SOL     ow 4105   0.977   5.498   2.303  0.0068  0.2351  0.7131
 1027SOL     hw 4106   0.917   5.426   2.285 -0.8929  1.1132  0.0864
 1027SOL     hw 4107   0.920   5.572   2.324  0.9113  0.1947  3.8583
 1027SOL     vw 4108   0.962   5.499   2.303  0.0075  0.3455  1.0453
 1028SOL     ow 4109   3.549   0.602   5.962 -0.0147  0.5572 -0.0925
 1028SOL     hw 4110   3.555   0.542   6.036  0.3759 -0.6021 -1.0217
 1028SOL     hw 4111   3.577   0.686   5.997  0.3011  0.0031  1.0376
 1028SOL     vw 4112   3.554   0.605   5.976  0.0784  0.3311 -0.0663
 1029SOL     ow 4113   0.816   2.465   3.196  0.1372  0.1010  0.1483
 1029SOL     hw 4114   0.787   2.404   3.264 -0.8607  0.0683 -0.2911
 1029SOL     hw 4115   0.864   2.533   3.243 -1.0070  0.3737  0.9589
 1029SOL     vw 4116   0.819   2.466   3.211 -0.1454  0.1328  0.1974
 1030SOL     ow 4117   2.486   3.133   4.831 -0.5815  0.1969 -0.7997
 1030SOL     hw 4118   2.488   3.053   4.884  0.6986  1.0835  0.5688
 1030SOL     hw 4119   2.575   3.141   4.796 -0.9329  0.5894 -1.6410
 1030SOL     vw 4120   2.498   3.123   4.833 -0.4590  0.3656 -0.7298
 1031SOL     ow 4121   5.424   1.779   0.507 -0.1020 -0.4030 -0.4328
 1031SOL     hw 4122   5.432   1.824   0.423 -1.9284 -0.9950 -0.9706
 1031SOL     hw 4123   5.330   1.772   0.522  0.1343 -2.3859  0.5104
 1031SOL     vw 4124   5.413   1.784   0.498 -0.3121 -0.7428 -0.3793
 1032SOL     ow 4125   1.746   5.469   3.054  0.3358 -0.1146 -0.3288
 1032SOL     hw 4126   1.743   5.477   2.959 -0.7292  0.9360 -0.2343
 1032SOL     hw 4127   1.712   5.553   3.086  1.4258 -0.1474  0.9872
 1032SOL     vw 4128   1.741   5.481   3.046  0.3391  0.0200 -0.1427
 1033SOL     ow 4129   1.197   4.806   3.076 -0.5301 -0.0670 -0.5683
 1033SOL     hw 4130   1.257   4.872   3.111 -0.4427 -0.0851 -0.6873
 1033SOL     hw 4131   1.124   4.805   3.138  0.3989 -1.3121  0.5676
 1033SOL     vw 4132   1.195   4.815   3.089 -0.3960 -0.2337 -0.4342
 1034SOL     ow 4133   6.207   3.399   0.025  0.8401 -0.5661  0.4501
 1034SOL     hw 4134   6.153   3.370   0.098 -1.1881  0.3761 -0.5810
 1034SOL     hw 4135   6.260   3.470   0.060 -0.5298  0.2720  0.9131
 1034SOL     vw 4136   6.207   3.404   0.039  0.3915 -0.3312  0.3752
 1035SOL     ow 4137   0.680   2.441   6.652 -0.0295 -0.5996 -0.0059
 1035SOL     hw 4138   0.747   2.394   6.602  3.3261  1.7025  1.9383
 1035SOL     hw 4139   0.689   2.407   6.741 -1.3315 -0.0376  0.3675
 1035SOL     vw 4140   0.690   2.430   6.657  0.2414 -0.2217  0.2997
 1036SOL     ow 4141   6.331   1.886   3.801 -0.5289  0.3937  0.6981
 1036SOL     hw 4142   6.394   1.958   3.795 -1.3744  1.0745 -0.3458
 1036SOL     hw 4143   6.377   1.810   3.768 -0.3888  0.9871 -0.5110
 1036SOL     vw 4144   6.345   1.886   3.796 -0.6220  0.5618  0.4009
 1037SOL     ow 4145   5.729   1.746   0.560  0.5838  0.4373 -0.9402
 1037SOL     hw 4146   5.785   1.670   0.548  0.9898  0.5800 -0.0278
 1037SOL     hw 4147   5.779   1.804   0.617 -1.0184 -0.0165  1.0640
 1037SOL     vw 4148   5.743   1.744   0.566  0.4261  0.3963 -0.5554
 1038SOL     ow 4149   3.173   4.131   5.659  0.4705  0.8811  0.1340
 1038SOL     hw 4150   3.225   4.052   5.642  1.4186  1.6624 -0.6960
 1038SOL     hw 4151   3.089   4.113   5.616  0.8324  0.4942 -0.4400
 1038SOL     vw 4152   3.169   4.118   5.651  0.6434  0.9334 -0.0513
 1039SOL     ow 4153   0.658   4.551   1.590  0.6168 -0.6403  0.0523
 1039SOL     hw 4154   0.598   4.625   1.597  1.5598  0.2848 -1.2705
 1039SOL     hw 4155   0.670   4.538   1.496  2.1546 -1.0561  0.2749
 1039SOL     vw 4156   0.651   4.559   1.579  0.9441 -0.5732 -0.0928
 1040SOL     ow 4157   2.077   6.134   1.472  0.3434  0.3059  0.1625
 1040SOL     hw 4158   2.014   6.105   1.407 -2.3265  1.2328  2.1618
 1040SOL     hw 4159   2.067   6.229   1.476  1.8258  0.4721  0.6063
 1040SOL     vw 4160   2.068   6.142   1.464  0.1868  0.4501  0.4848
 1041SOL     ow 4161   5.280   4.417   2.493 -0.7957 -0.3081  0.6247
 1041SOL     hw 4162   5.245   4.384   2.411  2.0316  0.6030 -1.1107
 1041SOL     hw 4163   5.224   4.491   2.515  0.0084  1.2691 -2.1478
 1041SOL     vw 4164   5.268   4.423   2.485 -0.3166  0.0203  0.0298
 1042SOL     ow 4165   2.328   3.887   1.712 -0.8658  0.3197 -0.9403
 1042SOL     hw 4166   2.276   3.964   1.692 -0.2790  0.5746 -1.5114
 1042SOL     hw 4167   2.353   3.851   1.627 -0.1490  0.1809 -0.6794
 1042SOL     vw 4168   2.325   3.893   1.698 -0.6939  0.3349 -0.9812
 1043SOL     ow 4169   6.405   5.274   0.535 -0.1488 -0.6682  0.2112
 1043SOL     hw 4170   6.472   5.206   0.546 -0.3375 -0.8594  0.1788
 1043SOL     hw 4171   6.394   5.281   0.440 -1.1000 -1.5490  0.2358
 1043SOL     vw 4172   6.413   5.266   0.524 -0.2990 -0.8099  0.2102
 1044SOL     ow 4173   5.651   6.603   0.322  0.4428  0.9317 -0.1521
 1044SOL     hw 4174   5.627   6.524   0.273  0.7993  1.8282 -1.8489
 1044SOL     hw 4175   5.567   6.645   0.343  0.3085  1.0992 -0.9872
 1044SOL     vw 4176   5.637   6.598   0.319  0.4723  1.0719 -0.4862
 1045SOL     ow 4177   0.002   5.570   6.993  0.5555 -0.2115  0.1321
 1045SOL     hw 4178   0.029   5.556   6.903 -2.6375  1.1649 -1.2062
 1045SOL     hw 4179  -0.076   5.515   7.003  0.3786  0.2836  1.7733
 1045SOL     vw 4180  -0.005   5.561   6.983  0.1109  0.0353  0.1721
 1046SOL     ow 4181   3.058   6.424   4.925 -0.5100 -0.8086  0.2042
 1046SOL     hw 4182   2.972   6.462   4.943 -0.3066  0.1207 -0.6850
 1046SOL     hw 4183   3.119   6.475   4.978 -0.4269 -1.0340  0.3296
 1046SOL     vw 4184   3.055   6.435   4.934 -0.4722 -0.7153  0.1032
 1047SOL     ow 4185   6.137   4.972   5.239  0.0184 -0.3705  0.4197
 1047SOL     hw 4186   6.220   5.005   5.206 -0.1291 -1.4105 -1.0508
 1047SOL     hw 4187   6.134   5.003   5.330  1.4375  0.7049  0.1336
 1047SOL     vw 4188   6.147   4.980   5.247  0.1860 -0.3657  0.1879
 1048SOL     ow 4189   1.546   4.969   1.457 -0.4058 -0.2526 -0.5388
 1048SOL     hw 4190   1.545   4.923   1.541  0.5359  0.8796  0.1250
 1048SOL     hw 4191   1.500   4.911   1.397 -0.1405 -1.5788  0.5042
 1048SOL     vw 4192   1.540   4.956   1.461 -0.2465 -0.2785 -0.3135
 1049SOL     ow 4193   3.132   5.370   4.425  0.4257  0.3338  0.4199
 1049SOL     hw 4194   3.089   5.442   4.378  0.6087  0.6871  0.7909
 1049SOL     hw 4195   3.164   5.409   4.506  1.1952  0.0038  0.2836
 1049SOL     vw 4196   3.130   5.384   4.429  0.5512  0.3369  0.4508
 1050SOL     ow 4197   5.638   0.959   5.302 -0.3351  0.0285 -0.6959
 1050SOL     hw 4198   5.580   0.914   5.364  0.9568 -2.3644 -1.0803
 1050SOL     hw 4199   5.689   1.019   5.357 -1.6312  0.5778 -0.0368
 1050SOL     vw 4200   5.637   0.961   5.318 -0.3357 -0.2147 -0.6597
 1051SOL     ow 4201   1.038   2.730   5.109 -0.1735  0.0437 -0.4200
 1051SOL     hw 4202   1.036   2.724   5.204  1.2759 -1.9953 -0.4326
 1051SOL     hw 4203   1.085   2.811   5.090 -1.5890  1.1238  0.5401
 1051SOL     vw 4204   1.044   2.740   5.119 -0.1690 -0.0829 -0.2952
 1052SOL     ow 4205   5.441   4.455   4.478 -0.2002 -0.2851 -0.2252
 1052SOL     hw 4206   5.461   4.370   4.518 -0.8204 -0.2171  0.2570
 1052SOL     hw 4207   5.390   4.501   4.544  0.7500  0.7647 -0.1902
 1052SOL     vw 4208   5.437   4.450   4.492 -0.1564 -0.1378 -0.1569
 1053SOL     ow 4209   4.759   2.180   5.063 -0.1485  0.5141 -0.0119
 1053SOL     hw 4210   4.720   2.245   5.121 -1.0962  1.4923 -1.6563
 1053SOL     hw 4211   4.684   2.132   5.028  0.3020  0.6498 -1.2045
 1053SOL     vw 4212   4.744   2.182   5.066 -0.2141  0.6610 -0.3862
 1054SOL     ow 4213   5.362   3.510   5.354  0.1330 -0.4348 -0.4928
 1054SOL     hw 4214   5.314   3.433   5.323 -0.1468 -0.3149 -0.3606
 1054SOL     hw 4215   5.442   3.511   5.301  0.4576 -1.1938 -0.0280
 1054SOL     vw 4216   5.366   3.500   5.343  0.1390 -0.5190 -0.4141
 1055SOL     ow 4217   4.195   2.140   1.113 -0.4683  0.4620 -0.1380
 1055SOL     hw 4218   4.153   2.086   1.047  0.2149 -0.3322  0.0592
 1055SOL     hw 4219   4.130   2.207   1.136 -0.7147  0.7344 -1.5845
 1055SOL     vw 4220   4.181   2.142   1.108 -0.4108  0.3932 -0.3029
 1056SOL     ow 4221   1.476   3.560   0.241 -0.0635 -0.0147 -0.1722
 1056SOL     hw 4222   1.408   3.534   0.178  0.5910  0.3337 -1.0421
 1056SOL     hw 4223   1.480   3.655   0.233  1.9642 -0.1799 -1.6690
 1056SOL     vw 4224   1.467   3.569   0.232  0.2904  0.0095 -0.4844
 1057SOL     ow 4225   5.323   5.823   3.338 -0.5560 -0.1752  0.0343
 1057SOL     hw 4226   5.324   5.758   3.408 -0.1841 -0.9042 -0.6282
 1057SOL     hw 4227   5.232   5.826   3.308 -0.0176 -3.3656 -2.5661
 1057SOL     vw 4228   5.311   5.815   3.343 -0.4361 -0.6924 -0.3961
 1058SOL     ow 4229   6.690   2.334   6.326  0.1751  0.3485  0.1078
 1058SOL     hw 4230   6.773   2.289   6.311 -0.7488 -1.2143 -0.5633
 1058SOL     hw 4231   6.645   2.330   6.241 -1.7179 -1.2751  1.1200
 1058SOL     vw 4232   6.695   2.328   6.313 -0.1965 -0.0719  0.1526
 1059SOL     ow 4233   2.100   0.214   4.345  0.1487 -0.4174  0.4373
 1059SOL     hw 4234   2.138   0.272   4.279  1.3528 -1.0181  0.5877
 1059SOL     hw 4235   2.045   0.153   4.295 -0.3745  0.2450  0.1858
 1059SOL     vw 4236   2.098   0.214   4.330  0.2385 -0.4092  0.4239
 1060SOL     ow 4237   1.465   0.108   1.536  0.1395 -0.2351 -0.7839
 1060SOL     hw 4238   1.528   0.038   1.552 -0.7137 -0.4578  2.3214
 1060SOL     hw 4239   1.393   0.065   1.488 -0.3926 -1.5852  1.1015
 1060SOL     vw 4240   1.464   0.093   1.532 -0.0433 -0.4427 -0.1253
 1061SOL     ow 4241   0.668   0.302   0.280  0.2862 -0.3392 -0.8468
 1061SOL     hw 4242   0.755   0.275   0.251 -0.4127 -0.7476 -2.6755
 1061SOL     hw 4243   0.660   0.393   0.251  0.9246  0.4885  1.3515
 1061SOL     vw 4244   0.679   0.311   0.273  0.2782 -0.2839 -0.7980
 1062SOL     ow 4245   1.673   4.167   2.474  0.3557  0.2913 -0.4072
 1062SOL     hw 4246   1.767   4.162   2.453  0.2806 -0.2745 -0.6371
 1062SOL     hw 4247   1.644   4.250   2.437  0.7490  0.4311 -0.4063
 1062SOL     vw 4248   1.682   4.177   2.467  0.3977  0.2353 -0.4375
 1063SOL     ow 4249   0.573   4.396   5.620 -0.1296 -0.0725 -0.9775
 1063SOL     hw 4250   0.555   4.484   5.585 -1.5277 -0.4147 -1.1335
 1063SOL     hw 4251   0.499   4.376   5.676  0.4920 -0.9121 -0.4229
 1063SOL     vw 4252   0.561   4.405   5.623 -0.2320 -0.2286 -0.9246
 1064SOL     ow 4253   1.371   2.483   0.674  0.2758 -0.0559 -0.5288
 1064SOL     hw 4254   1.318   2.548   0.719 -0.1463 -0.3538 -0.5910
 1064SOL     hw 4255   1.382   2.413   0.738 -0.0304 -0.3243 -0.7676
 1064SOL     vw 4256   1.366   2.482   0.689  0.1797 -0.1307 -0.5685
 1065SOL     ow 4257   3.817   5.895   3.946 -0.0037 -0.0651  0.7256
 1065SOL     hw 4258   3.889   5.833   3.934  0.3938  0.4871  0.1984
 1065SOL     hw 4259   3.835   5.936   4.031  1.5971  1.6999 -0.3932
 1065SOL     vw 4260   3.829   5.893   3.956  0.2600  0.2403  0.5084
 1066SOL     ow 4261   5.688   2.869   5.060  0.1664 -1.2752 -0.2514
 1066SOL     hw 4262   5.773   2.909   5.041 -0.5252 -0.1394 -1.1087
 1066SOL     hw 4263   5.690   2.785   5.013  1.1020 -1.6266  0.3956
 1066SOL     vw 4264   5.699   2.863   5.051  0.1986 -1.1716 -0.2792
 1067SOL     ow 4265   6.053   0.377   6.410 -0.3139 -0.0041 -0.1417
 1067SOL     hw 4266   5.996   0.312   6.369  0.5177 -0.6290 -0.3351
 1067SOL     hw 4267   6.136   0.331   6.424 -0.0461  0.7057  0.6986
 1067SOL     vw 4268   6.057   0.363   6.406 -0.1690  0.0070 -0.0563
 1068SOL     ow 4269   0.656   6.486   0.794 -0.8670 -0.0069  0.0370
 1068SOL     hw 4270   0.602   6.531   0.858 -0.0647  2.1808 -0.7526
 1068SOL     hw 4271   0.746   6.507   0.820 -0.5126 -0.0088 -1.1495
 1068SOL     vw 4272   0.661   6.494   0.806 -0.7144  0.2811 -0.2237
 1069SOL     ow 4273   4.804   4.845   3.194 -0.5229  0.1034  0.5025
 1069SOL     hw 4274   4.822   4.807   3.280 -2.3057 -0.5747  0.6153
 1069SOL     hw 4275   4.886   4.888   3.169  1.1415 -2.5199  1.0479
 1069SOL     vw 4276   4.817   4.846   3.202 -0.5386 -0.3324  0.5894
 1070SOL     ow 4277   0.125   0.538   5.740 -0.7624  0.2135  0.0839
 1070SOL     hw 4278   0.116   0.633   5.733 -0.9629  0.2905  1.1606
 1070SOL     hw 4279   0.102   0.519   5.831  1.0281 -0.6671  0.3905
 1070SOL     vw 4280   0.121   0.548   5.751 -0.5526  0.1075  0.2661
 1071SOL     ow 4281   2.097   2.165   2.733 -0.0529  0.8850 -0.4613
 1071SOL     hw 4282   2.018   2.138   2.780  0.0204  0.9544 -0.2959
 1071SOL     hw 4283   2.087   2.127   2.646  0.6374 -0.7417  0.1400
 1071SOL     vw 4284   2.085   2.157   2.728  0.0479  0.6795 -0.3603
 1072SOL     ow 4285   5.109   4.464   1.683 -0.2573 -0.3361  0.3747
 1072SOL     hw 4286   5.157   4.392   1.724  1.1145  0.9711  1.1047
 1072SOL     hw 4287   5.158   4.483   1.603 -0.1665  0.2910  0.5761
 1072SOL     vw 4288   5.122   4.457   1.678 -0.0644 -0.0811  0.4976
 1073SOL     ow 4289   1.484   4.003   4.628 -0.5987  0.3205  0.7376
 1073SOL     hw 4290   1.414   4.030   4.568 -0.7575 -0.1565  0.7052
 1073SOL     hw 4291   1.538   3.942   4.577 -0.7220 -0.0725  1.0667
 1073SOL     vw 4292   1.482   3.998   4.613 -0.6359  0.2056  0.7770
 1074SOL     ow 4293   6.625   6.445   0.732  0.2849  0.8814 -0.2985
 1074SOL     hw 4294   6.632   6.364   0.682 -0.0955  0.9838 -0.5221
 1074SOL     hw 4295   6.534   6.445   0.764  0.4741  0.8976  0.2511
 1074SOL     vw 4296   6.614   6.434   0.730  0.2599  0.8972 -0.2554
 1075SOL     ow 4297   4.922   5.643   0.036 -0.1101  0.4259 -0.5725
 1075SOL     hw 4298   4.966   5.728   0.041 -1.6073  1.2005  0.1584
 1075SOL     hw 4299   4.879   5.634   0.121 -0.3264 -0.8812 -0.7991
 1075SOL     vw 4300   4.922   5.653   0.048 -0.3359  0.3555 -0.5060
 1076SOL     ow 4301   1.397   3.845   4.905  0.1866 -0.1365 -0.8145
 1076SOL     hw 4302   1.466   3.786   4.937  0.3789  0.6187  0.1933
 1076SOL     hw 4303   1.333   3.786   4.865  0.8245 -0.9497 -0.6732
 1076SOL     vw 4304   1.398   3.829   4.904  0.2961 -0.1442 -0.6630
 1077SOL     ow 4305   6.700   1.809   5.569  0.1883  0.0289 -0.1013
 1077SOL     hw 4306   6.639   1.739   5.546  0.8897 -0.3583 -0.8431
 1077SOL     hw 4307   6.783   1.763   5.584  0.4323  0.6069  0.3236
 1077SOL     vw 4308   6.703   1.793   5.568  0.3130  0.0542 -0.1428
 1078SOL     ow 4309   1.666   1.664   5.984  0.0393 -0.8744 -0.0402
 1078SOL     hw 4310   1.650   1.570   5.988 -0.0587 -0.8387  2.5687
 1078SOL     hw 4311   1.580   1.704   5.992  0.0526 -0.5229 -1.4015
 1078SOL     vw 4312   1.653   1.657   5.986  0.0280 -0.8233  0.1245
 1079SOL     ow 4313   3.029   0.164   5.548  0.2301 -0.5821 -0.2674
 1079SOL     hw 4314   2.972   0.121   5.484  0.5121  0.5368 -1.3209
 1079SOL     hw 4315   2.971   0.222   5.598 -0.2019 -2.3358  1.3519
 1079SOL     vw 4316   3.014   0.166   5.546  0.2103 -0.6659 -0.1929
 1080SOL     ow 4317   4.206   6.595   0.375 -0.4409  0.2096 -0.1909
 1080SOL     hw 4318   4.166   6.546   0.303 -0.8709 -0.1872  0.3055
 1080SOL     hw 4319   4.296   6.562   0.379 -0.3706  0.3488 -0.6488
 1080SOL     vw 4320   4.213   6.584   0.366 -0.4883  0.1755 -0.1858
 1081SOL     ow 4321   5.593   0.256   3.035  0.3540 -0.1154 -0.4182
 1081SOL     hw 4322   5.633   0.343   3.030  0.6941 -0.2621 -0.2445
 1081SOL     hw 4323   5.536   0.261   3.112 -0.9608  0.5033 -1.4039
 1081SOL     vw 4324   5.591   0.268   3.045  0.2255 -0.0531 -0.5254
 1082SOL     ow 4325   3.158   1.696   6.871 -0.5307 -0.1741  0.3454
 1082SOL     hw 4326   3.120   1.762   6.813  1.3443  1.1055  0.4805
 1082SOL     hw 4327   3.111   1.616   6.850 -1.5252  0.7708 -1.2536
 1082SOL     vw 4328   3.147   1.694   6.861 -0.4145  0.1194  0.1521
 1083SOL     ow 4329   6.423   6.758   6.432 -0.4075  0.4235 -0.0347
 1083SOL     hw 4330   6.389   6.713   6.509 -0.5059  0.5767  0.0114
 1083SOL     hw 4331   6.500   6.805   6.463  1.0330 -1.4630 -0.5268
 1083SOL     vw 4332   6.428   6.758   6.446 -0.2303  0.1948 -0.0939
 1084SOL     ow 4333   2.346   0.590   2.715  0.2146  0.0478  0.6265
 1084SOL     hw 4334   2.271   0.564   2.768 -0.2587  1.6452  0.8029
 1084SOL     hw 4335   2.348   0.527   2.643  0.5871 -1.8902  2.2388
 1084SOL     vw 4336   2.337   0.578   2.712  0.2013  0.0029  0.8625
 1085SOL     ow 4337   1.449   2.279   0.871  0.6227  0.0217 -0.0658
 1085SOL     hw 4338   1.533   2.239   0.890  2.3621  2.3071 -2.2748
 1085SOL     hw 4339   1.413   2.227   0.799  0.7495 -0.1825  0.0177
 1085SOL     vw 4340   1.455   2.267   0.864  0.8690  0.2962 -0.3462
 1086SOL     ow 4341   3.365   2.625   6.091 -0.0881  0.4130  0.3832
 1086SOL     hw 4342   3.287   2.646   6.040  1.0469 -0.1008 -1.6759
 1086SOL     hw 4343   3.348   2.537   6.125 -1.2211  1.1023  1.7090
 1086SOL     vw 4344   3.353   2.616   6.089 -0.0879  0.4361  0.2866
 1087SOL     ow 4345   5.860   3.098   5.642 -0.0889  0.3459 -0.2338
 1087SOL     hw 4346   5.844   3.023   5.699  2.0234  1.0634  1.4636
 1087SOL     hw 4347   5.945   3.079   5.601 -0.2283  1.1616 -0.9348
 1087SOL     vw 4348   5.869   3.085   5.644  0.1712  0.5481 -0.1023
 1088SOL     ow 4349   1.440   3.802   2.541  0.2097  0.3407 -0.5106
 1088SOL     hw 4350   1.419   3.786   2.449 -0.0016 -3.7777  0.0356
 1088SOL     hw 4351   1.536   3.800   2.545  0.2089 -0.8367 -0.5566
 1088SOL     vw 4352   1.450   3.799   2.530  0.1817 -0.3579 -0.4445
 1089SOL     ow 4353   0.618   5.862   6.278  0.0894  0.4675 -0.3739
 1089SOL     hw 4354   0.690   5.851   6.216  1.4347 -1.2843  1.3695
 1089SOL     hw 4355   0.660   5.858   6.364 -1.9535  0.7299  0.6850
 1089SOL     vw 4356   0.633   5.860   6.281 -0.0027  0.2713 -0.0041
 1090SOL     ow 4357   4.349   1.924   4.551 -0.3624 -0.1487  0.0656
 1090SOL     hw 4358   4.356   1.832   4.575  1.5890  0.2274  1.1582
 1090SOL     hw 4359   4.438   1.949   4.525 -0.6487  1.6385  0.6231
 1090SOL     vw 4360   4.362   1.915   4.550 -0.1426  0.1367  0.2837
 1091SOL     ow 4361   3.566   6.575   1.115 -0.4900  0.0829  0.6937
 1091SOL     hw 4362   3.560   6.480   1.105 -2.4598  0.0192  1.9120
 1091SOL     hw 4363   3.501   6.596   1.182 -1.1443  2.4706 -0.5947
 1091SOL     vw 4364   3.557   6.565   1.123 -0.8363  0.3896  0.6844
 1092SOL     ow 4365   6.254   4.410   3.008  0.0988 -0.1051  0.3789
 1092SOL     hw 4366   6.339   4.454   3.004  0.1867 -0.3283 -0.2275
 1092SOL     hw 4367   6.197   4.461   2.950  0.3134 -1.0293 -0.6643
 1092SOL     vw 4368   6.257   4.423   3.000  0.1388 -0.2563  0.1613
 1093SOL     ow 4369   0.235   3.185   1.195  0.5818 -0.3695  0.1670
 1093SOL     hw 4370   0.160   3.152   1.144  0.8591 -0.7109 -0.0300
 1093SOL     hw 4371   0.202   3.263   1.239 -0.1874 -1.0746  0.8771
 1093SOL     vw 4372   0.220   3.191   1.194  0.5169 -0.5076  0.2347
 1094SOL     ow 4373   2.876   2.534   1.852  0.2738 -0.3613  0.9981
 1094SOL     hw 4374   2.805   2.568   1.796  0.3344 -0.2838  0.9684
 1094SOL     hw 4375   2.905   2.609   1.902  2.0351  0.2204 -0.7831
 1094SOL     vw 4376   2.870   2.548   1.851  0.5141 -0.2743  0.7591
 1095SOL     ow 4377   0.406   6.318   0.734  0.2940  0.0421  0.5200
 1095SOL     hw 4378   0.374   6.382   0.670  1.4955 -1.0261 -1.2261
 1095SOL     hw 4379   0.335   6.254   0.741  0.0385  0.3187  0.4804
 1095SOL     vw 4380   0.392   6.318   0.727  0.4189 -0.0622  0.2844
 1096SOL     ow 4381   1.079   4.419   3.808  0.0132 -0.2348 -0.2854
 1096SOL     hw 4382   1.030   4.386   3.733  0.4135  0.0900 -0.7022
 1096SOL     hw 4383   1.061   4.358   3.879 -0.0984 -0.7394 -0.7462
 1096SOL     vw 4384   1.070   4.407   3.807  0.0513 -0.2584 -0.4013
 1097SOL     ow 4385   5.223   0.034   0.000  0.6640  0.0649 -0.5277
 1097SOL     hw 4386   5.216  -0.055  -0.035  0.6788 -0.2598  0.2507
 1097SOL     hw 4387   5.232   0.021   0.095  0.4810  0.9054 -0.3854
 1097SOL     vw 4388   5.223   0.020   0.008  0.6416  0.1330 -0.4062
 1098SOL     ow 4389   6.876   1.552   0.317 -0.0253 -0.5750  0.9626
 1098SOL     hw 4390   6.789   1.517   0.336 -0.3371  0.3209  1.2690
 1098SOL     hw 4391   6.860   1.644   0.296  0.9606 -0.0830  2.2191
 1098SOL     vw 4392   6.862   1.560   0.317  0.0634 -0.3919  1.1688
 1099SOL     ow 4393   6.961   0.135   4.800 -0.0384 -0.1139 -0.0104
 1099SOL     hw 4394   6.912   0.055   4.782 -0.1241 -0.2750  0.9041
 1099SOL     hw 4395   7.017   0.113   4.874  0.8807  0.2941 -0.5691
 1099SOL     vw 4396   6.962   0.122   4.807  0.0713 -0.0814  0.0362
 1100SOL     ow 4397   2.866   1.094   2.008  0.0917 -0.0468  0.0224
 1100SOL     hw 4398   2.921   1.042   2.066 -0.2957  1.3576  1.7274
 1100SOL     hw 4399   2.792   1.037   1.986  0.5507 -0.7948  0.4040
 1100SOL     vw 4400   2.864   1.080   2.012  0.1011  0.0398  0.2977
 1101SOL     ow 4401   4.984   6.554   0.800  0.4683  0.0924 -0.6656
 1101SOL     hw 4402   4.929   6.601   0.863 -0.5859 -2.3894  0.4168
 1101SOL     hw 4403   4.931   6.548   0.721  0.7682  0.9977 -0.9510
 1101SOL     vw 4404   4.970   6.560   0.798  0.3688 -0.1156 -0.5604
 1102SOL     ow 4405   2.412   0.354   6.234 -0.4469 -0.0692  0.3719
 1102SOL     hw 4406   2.385   0.444   6.215 -1.1233 -0.5512 -1.1288
 1102SOL     hw 4407   2.473   0.332   6.164 -0.4422 -0.8387  0.6089
 1102SOL     vw 4408   2.416   0.363   6.222 -0.5356 -0.2344  0.2050
 1103SOL     ow 4409   1.595   1.255   4.392  0.2021  0.5600  0.2182
 1103SOL     hw 4410   1.503   1.250   4.417  0.6173 -1.0092  1.5662
 1103SOL     hw 4411   1.596   1.236   4.298 -0.7845  0.0005  0.3123
 1103SOL     vw 4412   1.583   1.252   4.383  0.1267  0.2791  0.4086
 1104SOL     ow 4413   4.255   3.634   5.619  0.6120  0.1453 -0.0692
 1104SOL     hw 4414   4.253   3.649   5.714 -1.9377  0.2255 -0.0636
 1104SOL     hw 4415   4.322   3.694   5.587  0.5012  1.1949  1.5260
 1104SOL     vw 4416   4.263   3.644   5.627  0.2606  0.2946  0.1421
 1105SOL     ow 4417   5.907   0.524   1.678 -0.0678 -0.2882  0.2136
 1105SOL     hw 4418   5.917   0.591   1.746 -0.3979  1.8558 -1.7225
 1105SOL     hw 4419   5.814   0.506   1.675 -0.1080 -0.0586  0.0520
 1105SOL     vw 4420   5.896   0.531   1.687 -0.1166  0.0250 -0.0632
 1106SOL     ow 4421   5.156   5.372   4.259 -0.1998  0.1618 -0.0927
 1106SOL     hw 4422   5.070   5.395   4.224 -0.7455 -0.8448  0.5417
 1106SOL     hw 4423   5.217   5.395   4.190 -0.9297  1.3068 -0.3859
 1106SOL     vw 4424   5.152   5.378   4.246 -0.3681  0.1800 -0.0474
 1107SOL     ow 4425   6.869   3.671   6.276  0.8234 -0.2385  0.0296
 1107SOL     hw 4426   6.796   3.612   6.259 -0.0006  0.6352  0.4583
 1107SOL     hw 4427   6.841   3.723   6.351  1.8543  0.1665  0.1468
 1107SOL     vw 4428   6.856   3.670   6.284  0.8509 -0.0697  0.1016
 1108SOL     ow 4429   6.967   1.757   5.988 -0.5799 -0.1025 -0.3118
 1108SOL     hw 4430   7.059   1.773   5.970 -0.6438 -0.4950 -1.0318
 1108SOL     hw 4431   6.964   1.734   6.081  0.1490 -0.8205 -0.4534
 1108SOL     vw 4432   6.979   1.756   5.998 -0.4926 -0.2491 -0.4253
 1109SOL     ow 4433   6.906   5.473   4.749  0.2285 -0.2808 -0.7832
 1109SOL     hw 4434   6.861   5.553   4.724  1.6855  1.5934  2.0456
 1109SOL     hw 4435   6.837   5.415   4.780 -0.5588  1.6217  1.2280
 1109SOL     vw 4436   6.891   5.476   4.750  0.3171  0.2174 -0.1447
 1110SOL     ow 4437   3.503   2.134   0.318 -0.8354  0.2254  0.5105
 1110SOL     hw 4438   3.419   2.131   0.365 -1.3093  0.9689 -0.2693
 1110SOL     hw 4439   3.486   2.189   0.242  0.6707  1.3402  0.9369
 1110SOL     vw 4440   3.489   2.141   0.314 -0.6993  0.4706  0.4639
 1111SOL     ow 4441   0.453   0.981   2.442  0.0078 -0.5417 -0.0325
 1111SOL     hw 4442   0.492   1.025   2.366  1.0977  0.4952  1.0959
 1111SOL     hw 4443   0.482   0.890   2.435  1.5310 -0.0822  0.0488
 1111SOL     vw 4444   0.462   0.975   2.431  0.3525 -0.3442  0.1271
 1112SOL     ow 4445   4.226   0.210   6.310 -0.3427 -0.3284 -0.1319
 1112SOL     hw 4446   4.221   0.277   6.378  1.8241  0.2226 -0.4398
 1112SOL     hw 4447   4.179   0.247   6.235 -0.0383  0.4179  0.0418
 1112SOL     vw 4448   4.219   0.224   6.309 -0.0167 -0.1572 -0.1495
 1113SOL     ow 4449   4.465   4.372   1.124  0.0209  0.2367 -0.1490
 1113SOL     hw 4450   4.398   4.344   1.187  0.3580  0.7327  0.4392
 1113SOL     hw 4451   4.485   4.293   1.074 -0.4588 -0.0975  0.1733
 1113SOL     vw 4452   4.459   4.358   1.126  0.0019  0.2580 -0.0289
 1114SOL     ow 4453   4.079   3.839   5.568 -0.2505  0.1005 -0.0147
 1114SOL     hw 4454   4.150   3.776   5.576 -1.0806 -0.8145  0.3156
 1114SOL     hw 4455   4.041   3.845   5.656 -1.1725 -0.1464 -0.3784
 1114SOL     vw 4456   4.083   3.832   5.580 -0.4816 -0.0528 -0.0188
 1115SOL     ow 4457   2.524   5.866   0.685  0.5310  0.8880  0.1133
 1115SOL     hw 4458   2.595   5.805   0.662  2.1802  2.0706  1.7350
 1115SOL     hw 4459   2.498   5.904   0.601  1.6827  0.2542 -0.5639
 1115SOL     vw 4460   2.530   5.863   0.671  0.9006  0.9606  0.2379
 1116SOL     ow 4461   5.499   4.474   5.118 -0.1951 -0.2761  0.8634
 1116SOL     hw 4462   5.581   4.493   5.072 -0.7485  0.4477  0.1325
 1116SOL     hw 4463   5.504   4.527   5.198 -1.1229  2.0626 -0.5046
 1116SOL     vw 4464   5.510   4.484   5.123 -0.3905  0.1280  0.5865
 1117SOL     ow 4465   3.710   1.733   5.003 -0.7881 -0.1739  0.3476
 1117SOL     hw 4466   3.744   1.715   4.915 -0.0416 -0.1199  0.6119
 1117SOL     hw 4467   3.731   1.653   5.053 -2.6487 -0.8715  0.0916
 1117SOL     vw 4468   3.718   1.720   4.998 -0.9351 -0.2588  0.3486
 1118SOL     ow 4469   2.259   2.266   1.935  0.1291 -0.4283 -0.1441
 1118SOL     hw 4470   2.199   2.274   2.009  0.1244  0.3392 -0.2231
 1118SOL     hw 4471   2.242   2.343   1.881  1.1963 -0.1778 -0.1531
 1118SOL     vw 4472   2.249   2.277   1.938  0.2693 -0.2941 -0.1556
 1119SOL     ow 4473   2.390   3.485   6.364 -0.4795 -0.5890  0.9455
 1119SOL     hw 4474   2.330   3.430   6.314 -1.1324 -0.7787  1.8903
 1119SOL     hw 4475   2.333   3.539   6.419  0.1956 -1.0706  2.1748
 1119SOL     vw 4476   2.375   3.485   6.365 -0.4765 -0.6775  1.2324
 1120SOL     ow 4477   1.878   1.261   4.440  0.3135 -0.1387 -0.0724
 1120SOL     hw 4478   1.962   1.243   4.481  0.2188 -2.0673 -0.6056
 1120SOL     hw 4479   1.897   1.327   4.373  1.4034 -0.5737 -0.2039
 1120SOL     vw 4480   1.892   1.267   4.436  0.4448 -0.4506 -0.1600
 1121SOL     ow 4481   4.649   3.126   4.913 -0.3360  0.0248  0.7311
 1121SOL     hw 4482   4.613   3.047   4.954 -0.9357  0.8408  1.8478
 1121SOL     hw 4483   4.640   3.111   4.819 -0.7945 -1.0733  0.9361
 1121SOL     vw 4484   4.643   3.114   4.906 -0.4754 -0.0124  0.9055
 1122SOL     ow 4485   3.472   2.333   0.118  0.4702  0.1656  0.3700
 1122SOL     hw 4486   3.463   2.429   0.122  2.3866  0.4078 -0.1322
 1122SOL     hw 4487   3.500   2.316   0.028  0.7989 -0.8109  0.6554
 1122SOL     vw 4488   3.474   2.344   0.107  0.7664  0.0687  0.3414
 1123SOL     ow 4489   0.517   2.582   3.136 -0.0988  0.4028  0.1654
 1123SOL     hw 4490   0.495   2.555   3.225 -0.8603  0.5605  0.0392
 1123SOL     hw 4491   0.435   2.618   3.102 -0.0806 -0.5425 -0.9281
 1123SOL     vw 4492   0.503   2.583   3.143 -0.1969  0.2990  0.0044
 1124SOL     ow 4493   0.224   3.855   5.186 -0.3271  0.1628 -0.1397
 1124SOL     hw 4494   0.141   3.892   5.214  0.1149 -1.2338  3.4964
 1124SOL     hw 4495   0.203   3.765   5.161  0.0646 -0.2109  0.8442
 1124SOL     vw 4496   0.210   3.848   5.186 -0.2171 -0.0706  0.4697
 1125SOL     ow 4497   3.979   4.805   4.685 -0.1460 -0.0566 -0.1131
 1125SOL     hw 4498   3.917   4.760   4.627  0.1351 -0.3577 -0.1829
 1125SOL     hw 4499   4.039   4.736   4.713  0.7413  0.4229 -0.8120
 1125SOL     vw 4500   3.979   4.790   4.681  0.0082 -0.0334 -0.2146
 1126SOL     ow 4501   5.568   0.263   0.857 -0.2901  0.3138  0.3120
 1126SOL     hw 4502   5.569   0.205   0.933  1.0664 -0.3718 -0.1789
 1126SOL     hw 4503   5.557   0.203   0.782 -1.3225  0.9470 -0.0698
 1126SOL     vw 4504   5.567   0.247   0.857 -0.2475  0.3069  0.1969
 1127SOL     ow 4505   1.209   2.897   4.958 -0.0312 -0.0755  0.2830
 1127SOL     hw 4506   1.293   2.936   4.984  0.6406  2.0943 -4.1289
 1127SOL     hw 4507   1.232   2.839   4.885 -2.3163  0.8060 -1.2326
 1127SOL     vw 4508   1.223   2.894   4.952 -0.2441  0.3271 -0.4990
 1128SOL     ow 4509   1.629   0.154   4.492 -0.5260  0.0844  0.2033
 1128SOL     hw 4510   1.601   0.085   4.552 -0.8023 -0.8710 -0.9782
 1128SOL     hw 4511   1.599   0.124   4.406  2.4741 -0.0973 -0.8902
 1128SOL     vw 4512   1.621   0.141   4.489 -0.1667 -0.0656 -0.0968
 1129SOL     ow 4513   5.755   6.166   2.814 -0.1461 -0.7315 -0.0012
 1129SOL     hw 4514   5.817   6.095   2.797 -0.3965 -0.7689 -0.8006
 1129SOL     hw 4515   5.679   6.144   2.760  0.0073  0.4661 -0.7245
 1129SOL     vw 4516   5.753   6.154   2.804 -0.1588 -0.5784 -0.2021
 1130SOL     ow 4517   1.360   1.534   2.263 -0.2561 -0.3344  0.0562
 1130SOL     hw 4518   1.304   1.457   2.266 -0.2235 -0.4620  4.3957
 1130SOL     hw 4519   1.305   1.606   2.294  0.3047  0.9599 -1.8101
 1130SOL     vw 4520   1.345   1.534   2.268 -0.1777 -0.1805  0.3824
 1131SOL     ow 4521   6.378   4.482   2.368 -0.1993 -0.4412 -0.0305
 1131SOL     hw 4522   6.322   4.484   2.446  0.3621  0.2983  0.3659
 1131SOL     hw 4523   6.408   4.391   2.362  1.5201 -0.0764  1.9226
 1131SOL     vw 4524   6.374   4.470   2.378  0.1018 -0.2954  0.2793
 1132SOL     ow 4525   3.267   5.468   6.939 -0.0744  0.1561  0.3504
 1132SOL     hw 4526   3.342   5.503   6.987 -0.4457  2.0369 -0.3768
 1132SOL     hw 4527   3.246   5.535   6.874 -2.2321 -0.4477  0.3510
 1132SOL     vw 4528   3.274   5.481   6.937 -0.4081  0.3250  0.2546
 1133SOL     ow 4529   5.844   5.101   3.771 -0.3053  0.3412  0.1269
 1133SOL     hw 4530   5.900   5.029   3.739  0.4673  1.3726 -0.9583
 1133SOL     hw 4531   5.767   5.097   3.715 -1.2041 -0.8680  1.3981
 1133SOL     vw 4532   5.841   5.091   3.759 -0.3223  0.3178  0.1513
 1134SOL     ow 4533   0.074   4.117   4.735 -0.9541 -0.0034 -0.0017
 1134SOL     hw 4534   0.035   4.143   4.652 -1.6562 -0.0223  0.3063
 1134SOL     hw 4535   0.142   4.182   4.752 -1.5477  0.6471 -0.0642
 1134SOL     vw 4536   0.078   4.129   4.727 -1.1251  0.0799  0.0303
 1135SOL     ow 4537   6.694   3.317   6.710 -0.3981  0.6468 -0.2017
 1135SOL     hw 4538   6.741   3.283   6.786  1.1726  0.2345 -1.3012
 1135SOL     hw 4539   6.721   3.409   6.704  0.9667  0.2177 -1.2774
 1135SOL     vw 4540   6.704   3.325   6.719 -0.0107  0.5358 -0.4885
 1136SOL     ow 4541   0.700   6.210   0.703  0.3107  0.1076  0.3121
 1136SOL     hw 4542   0.653   6.143   0.654  1.2075 -0.4942  0.2725
 1136SOL     hw 4543   0.730   6.272   0.636 -1.2872  1.0713  0.4246
 1136SOL     vw 4544   0.697   6.210   0.687  0.2182  0.1554  0.3218
 1137SOL     ow 4545   5.400   2.636   1.735  0.7742 -0.2840 -0.5631
 1137SOL     hw 4546   5.412   2.576   1.809  0.2366  2.0809  1.5799
 1137SOL     hw 4547   5.485   2.636   1.691  2.0519  0.2637  1.7241
 1137SOL     vw 4548   5.413   2.628   1.739  0.8714  0.1003  0.0213
 1138SOL     ow 4549   1.693   4.607   1.594  0.2227 -0.4181 -0.4622
 1138SOL     hw 4550   1.669   4.597   1.502  0.8438  1.6125 -0.8959
 1138SOL     hw 4551   1.782   4.571   1.599 -0.2540 -1.6289 -0.3634
 1138SOL     vw 4552   1.702   4.601   1.582  0.2418 -0.3102 -0.5064
 1139SOL     ow 4553   6.404   3.585   3.243 -0.4936 -0.1986  0.1299
 1139SOL     hw 4554   6.376   3.640   3.170 -1.4403  0.2677  0.8183
 1139SOL     hw 4555   6.453   3.513   3.202 -2.1738 -0.7048 -1.1145
 1139SOL     vw 4556   6.406   3.583   3.228 -0.8404 -0.2041  0.0566
 1140SOL     ow 4557   3.321   1.395   5.145  0.4250  0.0214 -0.3024
 1140SOL     hw 4558   3.362   1.462   5.199 -1.3880  0.8967  0.0785
 1140SOL     hw 4559   3.234   1.430   5.124 -0.7284 -2.2941  0.1539
 1140SOL     vw 4560   3.315   1.408   5.150  0.0336 -0.1687 -0.1919
 1141SOL     ow 4561   3.436   6.508   2.473  0.2015  0.7915  0.0888
 1141SOL     hw 4562   3.522   6.481   2.442 -0.1582  0.4655 -0.6636
 1141SOL     hw 4563   3.436   6.604   2.462  0.9512  0.9639  1.3990
 1141SOL     vw 4564   3.447   6.517   2.467  0.2530  0.7708  0.1622
 1142SOL     ow 4565   6.553   6.335   1.355 -0.2579  0.0923 -0.6669
 1142SOL     hw 4566   6.645   6.344   1.377 -0.1027  1.8324 -1.9087
 1142SOL     hw 4567   6.552   6.280   1.277 -0.2153  0.6021 -1.0298
 1142SOL     vw 4568   6.565   6.329   1.348 -0.2317  0.3889 -0.8786
 1143SOL     ow 4569   2.374   2.184   6.615  0.7274  0.1391  0.2818
 1143SOL     hw 4570   2.333   2.123   6.553 -1.1519 -0.3600  1.9168
 1143SOL     hw 4571   2.416   2.128   6.680  0.7697  0.6149  0.6712
 1143SOL     vw 4572   2.374   2.169   6.615  0.4849  0.1359  0.5488
 1144SOL     ow 4573   3.745   1.204   1.121 -0.1648  0.5592  0.0194
 1144SOL     hw 4574   3.662   1.250   1.137 -0.9553 -1.4262  2.1596
 1144SOL     hw 4575   3.718   1.120   1.084  0.9158  0.0274  0.4184
 1144SOL     vw 4576   3.730   1.199   1.118 -0.1265  0.2271  0.3545
 1145SOL     ow 4577   5.011   4.114   1.179  0.4866 -0.2183 -0.1305
 1145SOL     hw 4578   5.052   4.200   1.164  0.4872  0.4783  3.1503
 1145SOL     hw 4579   5.080   4.051   1.157  1.6228  0.7711  0.4483
 1145SOL     vw 4580   5.026   4.117   1.174  0.6366  0.0043  0.3787
 1146SOL     ow 4581   1.130   2.586   6.870 -0.0198 -0.1337 -0.3110
 1146SOL     hw 4582   1.081   2.546   6.942 -1.4048  0.2374 -1.0159
 1146SOL     hw 4583   1.096   2.543   6.791  0.8644  0.0762 -0.8157
 1146SOL     vw 4584   1.119   2.575   6.869 -0.0858 -0.0571 -0.4706
 1147SOL     ow 4585   2.890   2.146   0.925 -0.1542  0.0059 -0.3221
 1147SOL     hw 4586   2.928   2.187   1.002 -0.2071  1.4259 -1.0098
 1147SOL     hw 4587   2.958   2.153   0.858  0.1280 -1.7710 -0.2668
 1147SOL     vw 4588   2.904   2.152   0.926 -0.1239 -0.0412 -0.4055
 1148SOL     ow 4589   2.822   1.144   4.101 -0.0651  0.0908  0.7396
 1148SOL     hw 4590   2.908   1.179   4.080 -0.3210  1.1194  1.3347
 1148SOL     hw 4591   2.765   1.221   4.110 -1.7296 -0.6259 -2.2759
 1148SOL     vw 4592   2.826   1.159   4.100 -0.3184  0.1318  0.4199
 1149SOL     ow 4593   0.240   4.873   1.279  0.1131  1.0472 -0.4540
 1149SOL     hw 4594   0.213   4.938   1.343  2.2720  2.3460 -0.7387
 1149SOL     hw 4595   0.275   4.800   1.331 -1.1494  0.6474 -0.1480
 1149SOL     vw 4596   0.241   4.872   1.294  0.2314  1.1659 -0.4511
 1150SOL     ow 4597   3.368   1.513   0.006  0.1138 -0.1258 -0.5242
 1150SOL     hw 4598   3.440   1.455  -0.021  1.7507  0.4415  2.1771
 1150SOL     hw 4599   3.307   1.456   0.051  0.6534 -0.1222  0.2374
 1150SOL     vw 4600   3.370   1.498   0.008  0.4010 -0.0505 -0.0673
 1151SOL     ow 4601   5.956   4.168   5.828 -0.3038  0.1763 -0.0147
 1151SOL     hw 4602   5.945   4.123   5.745  1.6789 -1.4706  0.5145
 1151SOL     hw 4603   5.961   4.261   5.805  1.3211 -0.3077 -1.9079
 1151SOL     vw 4604   5.955   4.174   5.814  0.1724 -0.1049 -0.1948
 1152SOL     ow 4605   0.238   1.050   1.010  0.1260 -0.0192 -0.2208
 1152SOL     hw 4606   0.272   1.132   1.044  0.7139  0.0349 -0.9076
 1152SOL     hw 4607   0.143   1.062   1.007  0.2133  0.6633 -0.3826
 1152SOL     vw 4608   0.230   1.062   1.014  0.2151  0.0780 -0.3327
 1153SOL     ow 4609   2.002   5.528   1.310  0.3820  0.2306  0.0279
 1153SOL     hw 4610   1.924   5.526   1.365  0.4780 -1.2104  0.1521
 1153SOL     hw 4611   1.994   5.450   1.255  1.7540  0.0351  0.0742
 1153SOL     vw 4612   1.991   5.518   1.310  0.5757  0.0150  0.0504
 1154SOL     ow 4613   5.483   4.500   3.893 -0.3122 -0.4987 -0.6732
 1154SOL     hw 4614   5.576   4.487   3.913  0.0225 -0.9031 -2.3380
 1154SOL     hw 4615   5.452   4.414   3.867 -0.8231 -0.0980 -1.4134
 1154SOL     vw 4616   5.491   4.487   3.892 -0.3352 -0.4992 -0.9905
 1155SOL     ow 4617   0.975   5.975   0.400 -0.1083  0.4820 -1.1389
 1155SOL     hw 4618   1.019   5.925   0.469  0.5773  0.3944 -1.6288
 1155SOL     hw 4619   0.986   6.067   0.426  0.6561  0.4767 -1.4152
 1155SOL     vw 4620   0.983   5.981   0.412  0.0830  0.4697 -1.2400
 1156SOL     ow 4621   1.610   3.987   1.737  0.3190  0.0398  0.1213
 1156SOL     hw 4622   1.698   3.958   1.715  0.6601  0.6782  0.6099
 1156SOL     hw 4623   1.558   3.907   1.739  0.7200 -0.2600 -0.8957
 1156SOL     vw 4624   1.615   3.973   1.735  0.4169  0.0845  0.0516
 1157SOL     ow 4625   4.870   0.997   0.543  0.3379  1.2820  0.1471
 1157SOL     hw 4626   4.931   0.946   0.489 -0.8164 -1.5509  1.3644
 1157SOL     hw 4627   4.807   1.032   0.481  0.1411 -0.2956 -0.5911
 1157SOL     vw 4628   4.870   0.995   0.528  0.1597  0.7001  0.2103
 1158SOL     ow 4629   0.794   6.580   6.460  0.4300 -0.2047  0.1237
 1158SOL     hw 4630   0.705   6.613   6.467  0.5318 -0.2625  4.7767
 1158SOL     hw 4631   0.848   6.648   6.501  2.4150 -0.7207 -1.4734
 1158SOL     vw 4632   0.789   6.593   6.466  0.7053 -0.2804  0.5269
 1159SOL     ow 4633   2.904   6.230   5.097  0.8761  0.1969 -0.1260
 1159SOL     hw 4634   2.902   6.187   5.182  0.3055  0.1480 -0.1561
 1159SOL     hw 4635   2.813   6.255   5.081  0.8078 -0.6255 -1.1320
 1159SOL     vw 4636   2.892   6.227   5.106  0.7918  0.0820 -0.2627
 1160SOL     ow 4637   6.933   5.429   1.515 -0.3573  0.4053 -0.0899
 1160SOL     hw 4638   6.998   5.490   1.550  0.4428  1.1507 -2.6613
 1160SOL     hw 4639   6.968   5.343   1.537  1.3009  0.7998 -0.9669
 1160SOL     vw 4640   6.947   5.426   1.522 -0.0329  0.5558 -0.5448
 1161SOL     ow 4641   0.289   2.435   2.670 -0.3544 -0.0062  0.2341
 1161SOL     hw 4642   0.342   2.412   2.746 -0.3956 -0.9847 -0.0179
 1161SOL     hw 4643   0.227   2.500   2.703 -0.6596 -0.7318  1.1508
 1161SOL     vw 4644   0.288   2.440   2.684 -0.4001 -0.2311  0.3217
 1162SOL     ow 4645   1.122   2.150   2.999 -0.1504 -0.0143  0.3767
 1162SOL     hw 4646   1.041   2.183   2.961 -0.7184  0.5809  1.9847
 1162SOL     hw 4647   1.179   2.134   2.925 -0.4538  2.9975 -0.6520
 1162SOL     vw 4648   1.119   2.152   2.984 -0.2654  0.4615  0.4532
 1163SOL     ow 4649   5.935   5.616   1.052  0.3585 -0.2045 -0.5963
 1163SOL     hw 4650   5.955   5.710   1.054 -0.0081 -0.1445  1.2576
 1163SOL     hw 4651   5.877   5.601   1.127  0.2764 -1.8943 -0.9483
 1163SOL     vw 4652   5.930   5.626   1.062  0.2992 -0.4199 -0.3981
 1164SOL     ow 4653   4.112   1.225   5.077  0.4595 -0.8560  0.2002
 1164SOL     hw 4654   4.150   1.309   5.105  0.7192 -1.3853  1.5292
 1164SOL     hw 4655   4.019   1.234   5.095  0.4811 -0.8397  0.3047
 1164SOL     vw 4656   4.105   1.237   5.083  0.4966 -0.9238  0.3891
 1165SOL     ow 4657   3.104   4.543   6.193  0.3635  0.4234  0.6563
 1165SOL     hw 4658   3.016   4.551   6.155  0.3525  1.0875  0.8150
 1165SOL     hw 4659   3.116   4.449   6.205 -0.7508  0.3821  1.6183
 1165SOL     vw 4660   3.094   4.532   6.190  0.2151  0.5054  0.8044
 1166SOL     ow 4661   5.806   4.322   6.665 -0.4931 -0.0817  0.4370
 1166SOL     hw 4662   5.767   4.397   6.621 -0.3890 -0.1219  0.2734
 1166SOL     hw 4663   5.885   4.303   6.614 -2.4007 -2.6357 -1.9008
 1166SOL     vw 4664   5.811   4.329   6.653 -0.7312 -0.4241  0.1073
 1167SOL     ow 4665   6.120   0.516   1.039  0.4183  0.4326 -0.0695
 1167SOL     hw 4666   6.077   0.596   1.067  1.2153  0.2998  1.7355
 1167SOL     hw 4667   6.098   0.507   0.947 -3.6142  0.2390  0.7221
 1167SOL     vw 4668   6.112   0.525   1.031 -0.0086  0.3896  0.2731
 1168SOL     ow 4669   3.423   1.693   3.211 -0.0320  0.0119 -0.4278
 1168SOL     hw 4670   3.464   1.617   3.169  1.0679  0.4167 -0.1185
 1168SOL     hw 4671   3.454   1.768   3.160  3.0888  0.7700  2.1778
 1168SOL     vw 4672   3.433   1.693   3.199  0.5249  0.1653 -0.0432
 1169SOL     ow 4673   3.278   0.343   3.198  0.4174 -0.5839  0.1325
 1169SOL     hw 4674   3.335   0.419   3.188  0.4781 -0.5213  0.8895
 1169SOL     hw 4675   3.337   0.268   3.194  0.4012 -0.5782 -0.2585
 1169SOL     vw 4676   3.293   0.343   3.196  0.4232 -0.5749  0.1807
 1170SOL     ow 4677   5.458   4.709   4.278 -0.2854  0.5640  0.0132
 1170SOL     hw 4678   5.473   4.789   4.328 -1.1661 -0.3622  1.8663
 1170SOL     hw 4679   5.371   4.721   4.239  0.7536  1.6521 -2.1527
 1170SOL     vw 4680   5.448   4.721   4.279 -0.2646  0.5853 -0.0281
 1171SOL     ow 4681   5.606   4.117   6.682  0.0512 -0.0765  0.8833
 1171SOL     hw 4682   5.671   4.184   6.659 -0.1698 -0.6341 -1.7256
 1171SOL     hw 4683   5.522   4.163   6.677  0.0041 -0.1963  0.4960
 1171SOL     vw 4684   5.604   4.132   6.678  0.0160 -0.1659  0.4878
 1172SOL     ow 4685   0.052   0.408   4.771  0.7984  0.2133 -0.6434
 1172SOL     hw 4686   0.134   0.388   4.727  0.5584 -0.6890 -0.7090
 1172SOL     hw 4687   0.036   0.500   4.752  1.6445  0.3177 -0.8717
 1172SOL     vw 4688   0.061   0.417   4.763  0.8786  0.1080 -0.6824
 1173SOL     ow 4689   1.928   1.998   6.712 -0.0159  0.9557 -0.1756
 1173SOL     hw 4690   1.905   1.916   6.670 -4.2011  1.2079  1.2423
 1173SOL     hw 4691   1.935   2.061   6.639 -0.2759  0.0544 -0.9987
 1173SOL     vw 4692   1.926   1.996   6.697 -0.6024  0.8700 -0.0970
 1174SOL     ow 4693   5.347   6.607   3.891  0.0445 -0.0586 -0.0610
 1174SOL     hw 4694   5.428   6.560   3.912  1.0613  1.1990 -1.0137
 1174SOL     hw 4695   5.281   6.567   3.948  0.7992 -2.7007 -0.8981
 1174SOL     vw 4696   5.349   6.595   3.901  0.2780 -0.2410 -0.2971
 1175SOL     ow 4697   6.239   4.309   2.138 -0.8547  0.1109 -0.1284
 1175SOL     hw 4698   6.149   4.305   2.169 -0.9538  0.3315 -0.3844
 1175SOL     hw 4699   6.257   4.221   2.105 -0.8273 -0.0599  0.3270
 1175SOL     vw 4700   6.230   4.297   2.138 -0.8640  0.1178 -0.1022
 1176SOL     ow 4701   1.974   1.836   2.935 -0.7785  0.4095 -0.5736
 1176SOL     hw 4702   1.954   1.826   2.842  2.8523  0.4037 -1.5275
 1176SOL     hw 4703   2.049   1.897   2.937 -0.7999  0.5069  2.3730
 1176SOL     vw 4704   1.982   1.843   2.923 -0.3023  0.4216 -0.3105
 1177SOL     ow 4705   6.830   5.310   1.254 -0.4339 -0.2136 -0.1413
 1177SOL     hw 4706   6.910   5.259   1.264  0.1609  0.7571  0.1592
 1177SOL     hw 4707   6.761   5.244   1.246  0.2089 -1.0587  1.0041
 1177SOL     vw 4708   6.831   5.294   1.254 -0.2708 -0.1972  0.0495
 1178SOL     ow 4709   0.667   4.787   1.384 -0.0614 -0.2416 -0.4833
 1178SOL     hw 4710   0.618   4.857   1.340  0.3709 -0.1827 -0.8817
 1178SOL     hw 4711   0.630   4.784   1.472 -0.1892  0.3929 -0.5076
 1178SOL     vw 4712   0.656   4.796   1.390 -0.0212 -0.1502 -0.5391
 1179SOL     ow 4713   4.702   0.374   3.938  0.6017  0.2322 -0.0373
 1179SOL     hw 4714   4.649   0.381   3.859 -0.3051  0.2744  0.5592
 1179SOL     hw 4715   4.791   0.391   3.909  0.1472  1.3284 -0.8709
 1179SOL     vw 4716   4.706   0.377   3.924  0.4220  0.3825 -0.0685
 1180SOL     ow 4717   1.781   0.957   5.704  0.4011 -0.7191  0.1688
 1180SOL     hw 4718   1.724   0.943   5.628  1.2299  0.4655 -0.7010
 1180SOL     hw 4719   1.761   1.046   5.733  0.9943 -0.7072  0.5576
 1180SOL     vw 4720   1.771   0.967   5.698  0.5887 -0.5612  0.1054
 1181SOL     ow 4721   6.664   6.968   1.775 -0.6480 -0.0711 -0.1729
 1181SOL     hw 4722   6.697   6.926   1.696  2.3093 -0.6185  1.2314
 1181SOL     hw 4723   6.705   6.920   1.847 -1.6930  1.6367  1.6575
 1181SOL     vw 4724   6.674   6.956   1.774 -0.3958  0.0820  0.2539
 1182SOL     ow 4725   1.343   2.281   3.173  0.1890  0.3841 -0.3990
 1182SOL     hw 4726   1.380   2.293   3.086 -0.1472  0.4680 -0.5341
 1182SOL     hw 4727   1.417   2.291   3.233 -0.0471  3.3616 -0.4600
 1182SOL     vw 4728   1.357   2.284   3.169  0.1135  0.7881 -0.4249
 1183SOL     ow 4729   1.514   5.678   5.680  0.4638 -0.2992 -0.0540
 1183SOL     hw 4730   1.516   5.715   5.592 -1.2076  0.7716  0.3112
 1183SOL     hw 4731   1.445   5.611   5.677  1.2846 -1.1652  0.1178
 1183SOL     vw 4732   1.505   5.674   5.668  0.3517 -0.2723  0.0167
 1184SOL     ow 4733   6.894   6.556   0.695  0.6573 -0.1004 -1.0307
 1184SOL     hw 4734   6.940   6.638   0.675 -0.4122  0.5687 -0.8793
 1184SOL     hw 4735   6.890   6.509   0.612 -1.6516  1.5645 -1.9957
 1184SOL     vw 4736   6.899   6.561   0.682  0.2117  0.2074 -1.1381
 1185SOL     ow 4737   1.320   1.731   1.588  0.5452 -0.0050 -0.3246
 1185SOL     hw 4738   1.413   1.712   1.579  0.5366  0.0788 -0.6269
 1185SOL     hw 4739   1.291   1.748   1.498  0.3402  0.4302 -0.1773
 1185SOL     vw 4740   1.328   1.731   1.575  0.5170  0.0634 -0.3451
 1186SOL     ow 4741   6.209   5.099   0.619  0.0465  0.4879  0.1848
 1186SOL     hw 4742   6.277   5.163   0.601  1.1388 -0.6466  0.1233
 1186SOL     hw 4743   6.223   5.074   0.710  1.1740 -1.3670 -0.4360
 1186SOL     vw 4744   6.220   5.104   0.629  0.3393  0.0935  0.0948
 1187SOL     ow 4745   1.089   6.419   6.090 -0.3521  0.1711  0.4445
 1187SOL     hw 4746   1.089   6.354   6.020  1.0683  0.7755 -0.1654
 1187SOL     hw 4747   1.082   6.503   6.044 -0.2327  0.5394  1.0889
 1187SOL     vw 4748   1.088   6.422   6.075 -0.1489  0.2997  0.4489
 1188SOL     ow 4749   3.877   2.981   2.629 -0.3327  0.1908 -0.1791
 1188SOL     hw 4750   3.923   2.897   2.620 -0.5919  0.1813 -1.8243
 1188SOL     hw 4751   3.921   3.039   2.567 -1.9927  0.4159 -1.2181
 1188SOL     vw 4752   3.889   2.978   2.619 -0.5859  0.2193 -0.5332
 1189SOL     ow 4753   0.853   2.705   5.957  0.0759  0.0476  0.0220
 1189SOL     hw 4754   0.858   2.730   6.049  1.0766 -2.7481  0.8234
 1189SOL     hw 4755   0.931   2.743   5.917 -0.0125  0.7159  0.4671
 1189SOL     vw 4756   0.864   2.713   5.964  0.1962 -0.2331  0.1864
 1190SOL     ow 4757   4.234   4.901   3.983 -0.3309 -0.3343  0.8864
 1190SOL     hw 4758   4.241   4.856   4.068 -1.3450  0.0263  1.1756
 1190SOL     hw 4759   4.211   4.832   3.921  0.8152 -0.6733  0.8125
 1190SOL     vw 4760   4.232   4.886   3.986 -0.3133 -0.3316  0.9149
 1191SOL     ow 4761   2.355   7.006   1.238 -0.1129 -0.0074 -0.8868
 1191SOL     hw 4762   2.305   6.949   1.180  0.0508  0.3690 -1.4011
 1191SOL     hw 4763   2.311   7.091   1.233 -0.5406 -0.1557  0.1136
 1191SOL     vw 4764   2.342   7.010   1.230 -0.1478  0.0224 -0.8227
 1192SOL     ow 4765   7.003   6.471   6.662  0.2351  0.1571  0.1953
 1192SOL     hw 4766   7.046   6.541   6.613 -0.3121 -0.0096 -0.5453
 1192SOL     hw 4767   7.065   6.398   6.660 -0.6154 -0.5911 -2.1364
 1192SOL     vw 4768   7.017   6.470   6.655  0.0508  0.0362 -0.2100
 1193SOL     ow 4769   0.847   6.421   6.189  0.3714  0.5329 -0.2613
 1193SOL     hw 4770   0.936   6.412   6.155  1.2300 -0.0690  1.9809
 1193SOL     hw 4771   0.795   6.448   6.113  2.3140  0.2061 -1.7871
 1193SOL     vw 4772   0.852   6.424   6.175  0.7410  0.4103 -0.1671
 1194SOL     ow 4773   0.361   5.306   0.266  0.2847 -0.0979  0.2264
 1194SOL     hw 4774   0.415   5.227   0.267  0.3621 -0.0992 -1.3948
 1194SOL     hw 4775   0.320   5.308   0.352  0.5505 -1.7288  0.4240
 1194SOL     vw 4776   0.362   5.295   0.277  0.3300 -0.3133  0.0385
 1195SOL     ow 4777   4.713   3.389   4.790  0.2156  0.1064 -1.2613
 1195SOL     hw 4778   4.748   3.385   4.701 -0.7551  1.8147 -1.7513
 1195SOL     hw 4779   4.651   3.462   4.789 -2.5496 -2.0493 -0.1329
 1195SOL     vw 4780   4.710   3.398   4.778 -0.2773  0.0474 -1.1771
 1196SOL     ow 4781   6.845   3.464   5.919  0.3001 -0.2628  0.0835
 1196SOL     hw 4782   6.915   3.528   5.929  0.3573 -0.4135  0.6761
 1196SOL     hw 4783   6.765   3.512   5.944  0.5882 -0.9903  2.7432
 1196SOL     vw 4784   6.843   3.479   5.924  0.3457 -0.3786  0.5126
 1197SOL     ow 4785   4.743   2.779   0.178  0.4764 -0.5101  0.2828
 1197SOL     hw 4786   4.757   2.832   0.256  0.6784 -1.2423  0.7448
 1197SOL     hw 4787   4.686   2.708   0.206  1.1085 -1.1734 -0.0526
 1197SOL     vw 4788   4.738   2.777   0.192  0.5865 -0.6943  0.2995
 1198SOL     ow 4789   5.536   2.144   5.423 -0.3307  0.6057  0.0125
 1198SOL     hw 4790   5.531   2.052   5.449  0.7417 -0.7555 -3.8076
 1198SOL     hw 4791   5.614   2.178   5.468  0.2746 -0.9221  0.1805
 1198SOL     vw 4792   5.546   2.136   5.432 -0.1094  0.2246 -0.4694
 1199SOL     ow 4793   2.187   5.493   4.822  0.4279  0.0340  0.1819
 1199SOL     hw 4794   2.269   5.536   4.797 -0.0026  2.7349  2.8370
 1199SOL     hw 4795   2.206   5.452   4.906 -0.4954 -0.8520 -0.0199
 1199SOL     vw 4796   2.200   5.494   4.830  0.2493  0.2737  0.5054
 1200SOL     ow 4797   4.973   2.021   5.073  0.6041 -0.5664 -0.4104
 1200SOL     hw 4798   5.006   1.992   4.988 -0.6593  0.2371 -1.1957
 1200SOL     hw 4799   4.895   2.073   5.053  0.7415  0.3299  1.1814
 1200SOL     vw 4800   4.967   2.024   5.059  0.4554 -0.3421 -0.3042
 1201SOL     ow 4801   3.652   5.161   2.931  0.1098  0.3097  0.5666
 1201SOL     hw 4802   3.594   5.218   2.882  0.5971 -1.2225 -1.9875
 1201SOL     hw 4803   3.729   5.215   2.950 -0.5858  1.2746  0.6676
 1201SOL     vw 4804   3.655   5.175   2.927  0.0823  0.2348  0.2429
 1202SOL     ow 4805   6.542   6.067   4.307 -0.1304  0.3001  0.5064
 1202SOL     hw 4806   6.602   6.004   4.266 -0.1769  0.6898 -0.1689
 1202SOL     hw 4807   6.558   6.149   4.260 -0.3457  0.7020  1.1226
 1202SOL     vw 4808   6.552   6.069   4.295 -0.1650  0.4046  0.4988
 1203SOL     ow 4809   3.025   1.781   2.602  0.0661 -0.0450  0.4138
 1203SOL     hw 4810   3.066   1.776   2.689 -1.2933  2.6045  1.2900
 1203SOL     hw 4811   2.931   1.774   2.619 -0.1399 -2.7330 -1.2457
 1203SOL     vw 4812   3.018   1.779   2.616 -0.1405 -0.0501  0.3105
 1204SOL     ow 4813   3.445   1.100   1.771 -0.0504  1.1207 -0.2367
 1204SOL     hw 4814   3.531   1.070   1.801 -0.1322  0.6739 -0.4326
 1204SOL     hw 4815   3.388   1.025   1.784 -0.1212  0.9672 -1.3408
 1204SOL     vw 4816   3.449   1.086   1.776 -0.0703  1.0415 -0.4082
 1205SOL     ow 4817   4.693   0.669   4.441  0.2505  0.2075 -0.4782
 1205SOL     hw 4818   4.605   0.673   4.479  0.3950  0.0412 -0.1281
 1205SOL     hw 4819   4.688   0.727   4.364  0.4772  2.0647  0.8424
 1205SOL     vw 4820   4.681   0.677   4.436  0.2997  0.4306 -0.2577
 1206SOL     ow 4821   6.238   3.310   4.205  0.0371 -0.1633  0.2924
 1206SOL     hw 4822   6.251   3.219   4.230  0.0977 -0.1897  0.1668
 1206SOL     hw 4823   6.215   3.354   4.287  2.1226  0.1203  0.7825
 1206SOL     vw 4824   6.237   3.304   4.219  0.3202 -0.1293  0.3407
 1207SOL     ow 4825   5.454   6.131   3.301  0.1597  0.2905 -0.5159
 1207SOL     hw 4826   5.447   6.210   3.355  2.8229  0.8603 -0.8814
 1207SOL     hw 4827   5.496   6.160   3.220  0.9904 -1.4481 -0.7538
 1207SOL     vw 4828   5.459   6.145   3.298  0.6208  0.1364 -0.5957
 1208SOL     ow 4829   3.731   1.177   2.087 -0.0617 -0.3657 -0.0979
 1208SOL     hw 4830   3.723   1.170   1.992  0.2617 -1.7976 -0.0397
 1208SOL     hw 4831   3.680   1.255   2.110  1.4062  1.1396 -1.6423
 1208SOL     vw 4832   3.723   1.186   2.078  0.1745 -0.3560 -0.2940
 1209SOL     ow 4833   6.186   4.314   3.291 -0.1290 -0.8424  0.2914
 1209SOL     hw 4834   6.140   4.262   3.357  1.1892  0.9437  2.7305
 1209SOL     hw 4835   6.187   4.403   3.326  2.3184 -0.1857 -1.2297
 1209SOL     vw 4836   6.180   4.319   3.304  0.3679 -0.5198  0.4126
 1210SOL     ow 4837   2.783   1.150   3.811  0.0494 -0.6147 -0.5469
 1210SOL     hw 4838   2.850   1.123   3.748 -1.3663  0.1886 -2.5341
 1210SOL     hw 4839   2.724   1.207   3.760 -0.3729  1.3252  1.9320
 1210SOL     vw 4840   2.784   1.154   3.796 -0.1931 -0.2527 -0.4820
 1211SOL     ow 4841   0.541   4.849   3.618  0.4658 -0.0107 -0.3280
 1211SOL     hw 4842   0.464   4.816   3.570  0.9069  1.2096 -1.9962
 1211SOL     hw 4843   0.517   4.939   3.641  2.2387  1.3438 -3.1865
 1211SOL     vw 4844   0.528   4.856   3.614  0.7579  0.3290 -0.9252
 1212SOL     ow 4845   3.612   3.873   0.836 -0.1411 -0.0558 -0.1544
 1212SOL     hw 4846   3.625   3.932   0.761  1.2482 -1.1982 -0.8478
 1212SOL     hw 4847   3.625   3.785   0.800 -1.3623 -0.7638  1.0373
 1212SOL     vw 4848   3.615   3.869   0.821 -0.1189 -0.2998 -0.0886
 1213SOL     ow 4849   2.656   6.061   6.049  0.4463  0.7966  0.5046
 1213SOL     hw 4850   2.724   6.002   6.079  0.3965  0.6792  0.3850
 1213SOL     hw 4851   2.576   6.009   6.051  0.8109 -0.0367 -2.2816
 1213SOL     vw 4852   2.654   6.047   6.054  0.4879  0.6711  0.1211
 1214SOL     ow 4853   0.404   2.651   2.505  0.2170 -0.1628 -0.1715
 1214SOL     hw 4854   0.487   2.684   2.469 -0.0375 -0.1432 -0.7542
 1214SOL     hw 4855   0.388   2.704   2.582  1.8098 -1.5255  1.1898
 1214SOL     vw 4856   0.413   2.662   2.510  0.3936 -0.3400 -0.0687
 1215SOL     ow 4857   2.399   0.257   6.529 -0.0222  0.4229  0.1558
 1215SOL     hw 4858   2.374   0.326   6.591 -0.0542 -0.3909  1.0599
 1215SOL     hw 4859   2.400   0.177   6.580  3.3572  0.1798 -0.0675
 1215SOL     vw 4860   2.396   0.256   6.544  0.4194  0.2835  0.2458
 1216SOL     ow 4861   4.098   5.019   4.894  0.1825 -0.1049 -0.6206
 1216SOL     hw 4862   4.166   4.976   4.842  0.9658  2.3544 -1.7745
 1216SOL     hw 4863   4.139   5.035   4.979  0.9410  0.9663 -1.1666
 1216SOL     vw 4864   4.112   5.016   4.898  0.3860  0.3610 -0.8445
 1217SOL     ow 4865   0.855   6.321   2.323  0.3474  0.2880 -0.4678
 1217SOL     hw 4866   0.818   6.313   2.236  0.2797 -0.1820 -0.3979
 1217SOL     hw 4867   0.924   6.255   2.327  2.7421  2.5620 -1.3596
 1217SOL     vw 4868   0.859   6.312   2.312  0.6544  0.5262 -0.5764
 1218SOL     ow 4869   4.541   0.139   5.248 -0.7567  0.7362 -0.6248
 1218SOL     hw 4870   4.493   0.107   5.172  0.3680  0.2991 -1.1687
 1218SOL     hw 4871   4.502   0.091   5.322  0.0753 -1.0400 -1.2849
 1218SOL     vw 4872   4.529   0.128   5.248 -0.4983  0.4442 -0.7837
 1219SOL     ow 4873   0.507   0.698   4.395  0.5340  0.7934 -0.5720
 1219SOL     hw 4874   0.570   0.770   4.394 -0.9524  2.1431 -0.3126
 1219SOL     hw 4875   0.556   0.623   4.362  2.3806  1.6971 -0.0207
 1219SOL     vw 4876   0.522   0.697   4.391  0.5815  1.0907 -0.4649
 1220SOL     ow 4877   1.002   3.283   0.186  0.2427 -0.3155 -0.7172
 1220SOL     hw 4878   1.040   3.206   0.143  0.2643  0.0944 -1.4439
 1220SOL     hw 4879   0.988   3.255   0.276 -1.7095 -1.8840 -1.4238
 1220SOL     vw 4880   1.005   3.269   0.192 -0.0121 -0.4684 -0.9063
 1221SOL     ow 4881   4.922   2.705   2.246  0.6674  0.8546  0.3988
 1221SOL     hw 4882   4.952   2.674   2.332 -0.1611  1.9141  1.1007
 1221SOL     hw 4883   4.982   2.777   2.224 -1.6573  3.5983  2.2298
 1221SOL     vw 4884   4.934   2.711   2.254  0.2511  1.3566  0.7330
 1222SOL     ow 4885   1.015   0.914   6.590 -0.1507 -0.1734  0.3108
 1222SOL     hw 4886   1.106   0.889   6.574  0.0788 -0.1690  1.5201
 1222SOL     hw 4887   1.007   1.000   6.550  0.4787 -0.0285  0.4747
 1222SOL     vw 4888   1.026   0.922   6.583 -0.0374 -0.1537  0.4923
 1223SOL     ow 4889   2.246   5.677   1.167  0.5220 -0.4076 -0.3660
 1223SOL     hw 4890   2.228   5.667   1.074  1.7763 -1.4941 -0.5320
 1223SOL     hw 4891   2.328   5.630   1.181  0.0832 -0.7573  1.3916
 1223SOL     vw 4892   2.254   5.669   1.157  0.6294 -0.5972 -0.1560
 1224SOL     ow 4893   1.754   6.347   0.071 -0.0581  0.5057 -0.6461
 1224SOL     hw 4894   1.842   6.324   0.040 -0.2086  0.4490 -1.0402
 1224SOL     hw 4895   1.738   6.434   0.036  0.8216  1.6040  1.4969
 1224SOL     vw 4896   1.764   6.355   0.063  0.0381  0.6430 -0.4154
 1225SOL     ow 4897   5.704   6.490   6.391  0.1864  0.2511 -0.4240
 1225SOL     hw 4898   5.708   6.428   6.464  0.7653  1.3204  0.4734
 1225SOL     hw 4899   5.733   6.573   6.428 -1.8737  1.4080 -1.2485
 1225SOL     vw 4900   5.708   6.493   6.405 -0.0093  0.5448 -0.4144
 1226SOL     ow 4901   1.873   0.605   5.729 -0.1106  0.0099 -0.1856
 1226SOL     hw 4902   1.825   0.551   5.666  0.4729  0.5308 -1.0954
 1226SOL     hw 4903   1.886   0.548   5.805 -0.3355 -0.8116 -0.7547
 1226SOL     vw 4904   1.868   0.590   5.731 -0.0634 -0.0298 -0.3805
 1227SOL     ow 4905   1.358   6.575   5.782 -0.1178  0.1906 -0.3449
 1227SOL     hw 4906   1.348   6.526   5.700 -1.3995  0.1210 -0.1612
 1227SOL     hw 4907   1.402   6.655   5.756  0.1928 -0.1771 -0.9780
 1227SOL     vw 4908   1.362   6.579   5.767 -0.2460  0.1330 -0.4039
 1228SOL     ow 4909   5.482   3.954   0.765  0.7202 -0.0526  0.3022
 1228SOL     hw 4910   5.400   3.916   0.733  0.9726 -1.9289  1.6905
 1228SOL     hw 4911   5.472   3.953   0.861  0.8834  3.2184  0.4375
 1228SOL     vw 4912   5.470   3.949   0.774  0.7753  0.1315  0.5032
 1229SOL     ow 4913   1.385   1.050   0.482  0.5153 -0.0877 -0.1623
 1229SOL     hw 4914   1.320   1.118   0.467 -0.4960  0.0597  3.7236
 1229SOL     hw 4915   1.468   1.097   0.491  0.4173  0.2095 -0.7498
 1229SOL     vw 4916   1.387   1.065   0.481  0.3689 -0.0290  0.2729
 1230SOL     ow 4917   6.830   6.698   6.090 -0.5304  0.1465 -0.3396
 1230SOL     hw 4918   6.893   6.729   6.155 -1.1861 -0.8683  0.8214
 1230SOL     hw 4919   6.772   6.773   6.075  0.0334  0.6015 -0.2677
 1230SOL     vw 4920   6.831   6.712   6.097 -0.5424  0.0725 -0.1771
 1231SOL     ow 4921   0.496   5.744   2.445  0.4450  0.0890  0.0277
 1231SOL     hw 4922   0.501   5.777   2.535  0.5924 -0.9546  0.4099
 1231SOL     hw 4923   0.560   5.674   2.441 -0.4954 -0.7645 -0.5032
 1231SOL     vw 4924   0.505   5.739   2.456  0.3404 -0.1614  0.0081
 1232SOL     ow 4925   6.338   3.956   5.009 -0.0682  0.1679  0.4168
 1232SOL     hw 4926   6.431   3.935   5.011  0.1459  0.8598  3.4562
 1232SOL     hw 4927   6.331   4.039   5.057 -2.3373 -0.5586  1.5022
 1232SOL     vw 4928   6.349   3.964   5.016 -0.3393  0.1633  0.9611
 1233SOL     ow 4929   3.798   1.271   6.270 -0.4590 -0.2711 -0.6667
 1233SOL     hw 4930   3.806   1.192   6.218  0.0818 -0.3103 -0.5276
 1233SOL     hw 4931   3.753   1.243   6.350 -0.5482 -0.3749 -0.7536
 1233SOL     vw 4932   3.793   1.257   6.274 -0.3995 -0.2899 -0.6597
 1234SOL     ow 4933   2.440   3.261   6.597  0.3613  0.7364 -0.1026
 1234SOL     hw 4934   2.499   3.197   6.636 -0.2527 -0.1675 -0.6340
 1234SOL     hw 4935   2.359   3.214   6.582  0.5013  1.0828 -2.2800
 1234SOL     vw 4936   2.437   3.247   6.600  0.2987  0.6629 -0.4599
 1235SOL     ow 4937   5.679   1.606   3.167 -0.2113 -0.2254  0.5182
 1235SOL     hw 4938   5.592   1.645   3.177 -0.8446 -1.5759  0.5290
 1235SOL     hw 4939   5.672   1.551   3.088  0.4778 -0.7389  0.8041
 1235SOL     vw 4940   5.667   1.604   3.158 -0.2038 -0.4713  0.5573
 1236SOL     ow 4941   3.390   4.657   6.115  0.0513  0.4322  0.1499
 1236SOL     hw 4942   3.476   4.671   6.155  0.2463  1.9806 -0.7256
 1236SOL     hw 4943   3.403   4.677   6.022 -1.1130  0.1061 -0.1014
 1236SOL     vw 4944   3.403   4.662   6.108 -0.0765  0.5934  0.0012
 1237SOL     ow 4945   5.868   2.686   0.319 -0.0477 -0.3695 -0.0976
 1237SOL     hw 4946   5.962   2.704   0.323 -0.2154  0.8628 -1.1426
 1237SOL     hw 4947   5.858   2.635   0.238 -0.3055 -0.3068 -0.1047
 1237SOL     vw 4948   5.879   2.681   0.309 -0.1037 -0.1986 -0.2364
 1238SOL     ow 4949   4.963   1.151   2.018  0.0565  0.0491 -0.5527
 1238SOL     hw 4950   4.914   1.152   2.100  0.6692  1.2523 -0.1597
 1238SOL     hw 4951   5.044   1.199   2.039  1.1848 -1.4618 -1.2940
 1238SOL     vw 4952   4.967   1.158   2.032  0.2861  0.0085 -0.5985
 1239SOL     ow 4953   0.425   0.622   6.270  0.4677 -0.0515  0.3158
 1239SOL     hw 4954   0.373   0.667   6.204 -0.4480 -1.4884  0.0215
 1239SOL     hw 4955   0.443   0.689   6.336  2.9080  1.9389 -2.1267
 1239SOL     vw 4956   0.421   0.637   6.270  0.6689  0.0215 -0.0451
 1240SOL     ow 4957   6.630   1.412   4.080  0.6377  0.0529 -0.3659
 1240SOL     hw 4958   6.584   1.370   4.007  1.2581 -1.2532 -0.0469
 1240SOL     hw 4959   6.661   1.339   4.133  1.9929  0.9212  0.0863
 1240SOL     vw 4960   6.628   1.397   4.077  0.8981 -0.0049 -0.2644
 1241SOL     ow 4961   1.393   4.805   0.372  0.0279 -0.0107 -0.2180
 1241SOL     hw 4962   1.442   4.859   0.310  2.2510 -0.9876  0.5864
 1241SOL     hw 4963   1.308   4.848   0.380  1.2542  2.6330 -0.5704
 1241SOL     vw 4964   1.388   4.818   0.365  0.4830  0.2093 -0.1583
 1242SOL     ow 4965   2.367   6.194   2.722  0.0206 -0.2797 -0.4428
 1242SOL     hw 4966   2.280   6.225   2.698 -1.0246 -1.5877  1.3872
 1242SOL     hw 4967   2.395   6.141   2.648 -0.7517  0.1405 -1.0478
 1242SOL     vw 4968   2.359   6.191   2.709 -0.2192 -0.3967 -0.2812
 1243SOL     ow 4969   1.519   6.511   3.611  0.5968  0.4376 -0.1391
 1243SOL     hw 4970   1.519   6.441   3.677 -0.9878  1.2645  0.7968
 1243SOL     hw 4971   1.466   6.476   3.539 -0.9861  0.9772  0.7220
 1243SOL     vw 4972   1.512   6.497   3.610  0.1789  0.6177  0.0980
 1244SOL     ow 4973   0.902   0.546   3.634 -0.1237 -0.0619 -0.1148
 1244SOL     hw 4974   0.807   0.541   3.627 -0.2465 -3.0639  1.7202
 1244SOL     hw 4975   0.934   0.471   3.584  1.0586 -0.6247  1.3881
 1244SOL     vw 4976   0.894   0.535   3.626  0.0161 -0.5322  0.3256
 1245SOL     ow 4977   5.564   3.502   5.766 -0.2537  0.1173  0.4052
 1245SOL     hw 4978   5.590   3.579   5.715 -2.2447  0.5497 -0.0472
 1245SOL     hw 4979   5.506   3.537   5.834  0.2198 -0.7890  1.2982
 1245SOL     vw 4980   5.560   3.517   5.768 -0.4539  0.0548  0.4635
 1246SOL     ow 4981   5.893   0.645   6.142 -0.0278 -0.0404  0.6358
 1246SOL     hw 4982   5.949   0.603   6.077 -0.1605  1.7769 -0.7154
 1246SOL     hw 4983   5.840   0.706   6.092 -0.5676  0.9855  2.3847
 1246SOL     vw 4984   5.894   0.647   6.127 -0.1166  0.3347  0.6881
 1247SOL     ow 4985   6.326   6.072   2.269  0.0393  0.3127  0.1970
 1247SOL     hw 4986   6.258   6.047   2.332  0.3891  1.1420  0.9304
 1247SOL     hw 4987   6.277   6.108   2.195 -0.3706 -0.5387  0.0365
 1247SOL     vw 4988   6.311   6.074   2.267  0.0315  0.3097  0.2726
 1248SOL     ow 4989   4.628   5.623   1.633  0.2975 -0.9789 -0.0294
 1248SOL     hw 4990   4.657   5.714   1.625  0.1247 -0.6907  1.9746
 1248SOL     hw 4991   4.672   5.577   1.561  1.4701  0.4354 -0.2665
 1248SOL     vw 4992   4.638   5.629   1.623  0.4292 -0.7541  0.2038
 1249SOL     ow 4993   3.362   4.793   2.404  0.3353  0.2139 -0.4948
 1249SOL     hw 4994   3.302   4.868   2.410 -0.5426 -0.5807  1.8744
 1249SOL     hw 4995   3.431   4.814   2.467  1.8268  0.4458 -2.1500
 1249SOL     vw 4996   3.363   4.806   2.413  0.4163  0.1400 -0.4007
 1250SOL     ow 4997   5.886   2.289   6.296 -0.1112 -0.1594  0.1023
 1250SOL     hw 4998   5.853   2.237   6.223 -0.5070  0.1699  0.0463
 1250SOL     hw 4999   5.968   2.245   6.321  0.9637  0.7517 -1.6625
 1250SOL     vw 5000   5.893   2.276   6.290 -0.0217  0.0042 -0.1380
 1251SOL     ow 5001   3.372   0.385   4.974  0.6585  0.1824  0.4922
 1251SOL     hw 5002   3.397   0.442   4.902  0.7580  1.8457  1.7812
 1251SOL     hw 5003   3.442   0.321   4.980 -0.1326 -1.0273 -1.8744
 1251SOL     vw 5004   3.384   0.384   4.965  0.5673  0.2423  0.3500
 1252SOL     ow 5005   2.047   1.463   0.329 -0.0280  0.0133 -0.3769
 1252SOL     hw 5006   2.117   1.492   0.389 -0.0915  0.4679 -0.5177
 1252SOL     hw 5007   2.001   1.395   0.378  1.4677 -1.4314 -0.8739
 1252SOL     vw 5008   2.050   1.458   0.344  0.1609 -0.1174 -0.4610
 1253SOL     ow 5009   0.915   2.798   6.207 -0.7444  0.1320 -0.0770
 1253SOL     hw 5010   0.923   2.871   6.269  2.5728  0.6092 -0.8436
 1253SOL     hw 5011   0.929   2.720   6.260  1.2462  0.4898  0.0103
 1253SOL     vw 5012   0.918   2.798   6.222 -0.0441  0.2421 -0.1664
 1254SOL     ow 5013   0.190   6.162   3.086  0.1705  0.4663  0.4039
 1254SOL     hw 5014   0.122   6.217   3.126 -0.4863  0.9983 -1.3023
 1254SOL     hw 5015   0.245   6.224   3.038  0.6049 -0.1707  0.0630
 1254SOL     vw 5016   0.188   6.178   3.085  0.1412  0.4523  0.1336
 1255SOL     ow 5017   4.157   0.485   3.193 -0.2548  0.3538  0.0851
 1255SOL     hw 5018   4.109   0.403   3.205 -1.0279  0.5677 -1.3651
 1255SOL     hw 5019   4.090   0.548   3.167  0.0122  1.9149  2.7683
 1255SOL     vw 5020   4.142   0.482   3.191 -0.3219  0.5880  0.2477
 1256SOL     ow 5021   5.665   6.353   0.548  0.6440  0.2631  0.2730
 1256SOL     hw 5022   5.605   6.282   0.524 -0.2802  1.0425  0.2101
 1256SOL     hw 5023   5.674   6.344   0.643  0.2471  0.2760  0.3140
 1256SOL     vw 5024   5.658   6.342   0.558  0.4694  0.3676  0.2701
 1257SOL     ow 5025   0.775   1.259   0.858 -0.4024 -0.1149  0.4326
 1257SOL     hw 5026   0.694   1.293   0.898 -0.0525  2.9534 -1.1270
 1257SOL     hw 5027   0.746   1.223   0.774 -0.2512  0.2926  0.2045
 1257SOL     vw 5028   0.760   1.259   0.852 -0.3362  0.3437  0.1968
 1258SOL     ow 5029   2.637   0.493   6.536 -0.2164  0.1940  0.5878
 1258SOL     hw 5030   2.590   0.451   6.464 -0.6239 -1.2319  1.6321
 1258SOL     hw 5031   2.586   0.571   6.557 -0.0302  0.6905 -0.7125
 1258SOL     vw 5032   2.624   0.497   6.529 -0.2456  0.0714  0.5541
 1259SOL     ow 5033   3.003   6.480   4.260  0.5366  0.6928  0.2312
 1259SOL     hw 5034   2.918   6.441   4.242  0.6002  0.6702 -0.0260
 1259SOL     hw 5035   2.992   6.572   4.236  1.4626  0.1268 -2.8469
 1259SOL     vw 5036   2.990   6.487   4.255  0.6671  0.6154 -0.2091
 1260SOL     ow 5037   6.451   2.656   3.240 -1.0990  0.6686 -0.4333
 1260SOL     hw 5038   6.438   2.686   3.151 -2.5855 -0.4272 -0.6214
 1260SOL     hw 5039   6.371   2.608   3.262  0.1522 -1.0513  0.6734
 1260SOL     vw 5040   6.439   2.653   3.231 -1.1303  0.2971 -0.3120
 1261SOL     ow 5041   4.155   0.748   1.890 -0.0499 -0.4012 -0.4282
 1261SOL     hw 5042   4.102   0.827   1.877  0.5798  0.2228  0.6948
 1261SOL     hw 5043   4.093   0.676   1.876 -1.0810  0.3064  0.3524
 1261SOL     vw 5044   4.140   0.749   1.886 -0.1028 -0.2255 -0.1770
 1262SOL     ow 5045   2.675   1.213   0.851 -0.5911 -0.3475  0.1079
 1262SOL     hw 5046   2.601   1.272   0.843 -0.0414  0.2844 -0.4211
 1262SOL     hw 5047   2.637   1.126   0.838 -1.3391 -0.0858  0.4894
 1262SOL     vw 5048   2.660   1.209   0.848 -0.6173 -0.2297  0.0885
 1263SOL     ow 5049   2.798   6.807   1.995  0.4481 -0.0277  0.4642
 1263SOL     hw 5050   2.817   6.901   1.986 -1.3772  0.4178  0.8714
 1263SOL     hw 5051   2.826   6.785   2.084  1.9507 -0.1638 -0.0258
 1263SOL     vw 5052   2.804   6.817   2.006  0.4055  0.0131  0.4535
 1264SOL     ow 5053   5.091   0.956   6.040 -0.6987  0.2849  0.4209
 1264SOL     hw 5054   5.005   0.995   6.026 -1.6048 -2.2640 -2.1866
 1264SOL     hw 5055   5.150   1.008   5.985 -0.6530  1.5601  1.6189
 1264SOL     vw 5056   5.087   0.968   6.031 -0.8123  0.1168  0.2351
 1265SOL     ow 5057   4.850   1.737   1.763  0.0220 -0.6298  0.0775
 1265SOL     hw 5058   4.819   1.821   1.730 -1.8761 -1.1229  0.4800
 1265SOL     hw 5059   4.797   1.671   1.717  0.2716 -1.5193  1.0118
 1265SOL     vw 5060   4.839   1.739   1.753 -0.1957 -0.8121  0.2539
 1266SOL     ow 5061   4.527   2.576   0.582 -0.2014 -0.8034 -0.0021
 1266SOL     hw 5062   4.439   2.573   0.545 -0.6124  0.7121  0.7693
 1266SOL     hw 5063   4.520   2.637   0.656  1.9429  1.0780 -1.2191
 1266SOL     vw 5064   4.514   2.584   0.587  0.0272 -0.3552 -0.0609
 1267SOL     ow 5065   1.463   6.709   3.850 -0.2477  0.0760 -1.1644
 1267SOL     hw 5066   1.391   6.700   3.912 -0.5845  0.3283 -1.5120
 1267SOL     hw 5067   1.530   6.758   3.898 -0.3791  0.0001 -0.8999
 1267SOL     vw 5068   1.462   6.715   3.865 -0.3095  0.0992 -1.1753
 1268SOL     ow 5069   1.195   0.696   3.856 -0.3387  0.2834  0.1122
 1268SOL     hw 5070   1.285   0.722   3.840 -0.1071 -0.2733  0.4824
 1268SOL     hw 5071   1.151   0.707   3.771  0.1687  0.1807 -0.1667
 1268SOL     vw 5072   1.201   0.701   3.842 -0.2412  0.1964  0.1242
 1269SOL     ow 5073   1.914   3.715   6.683 -0.4407  0.0106 -0.1131
 1269SOL     hw 5074   1.959   3.779   6.628 -0.6013 -0.6816 -1.0754
 1269SOL     hw 5075   1.956   3.723   6.768  0.9468 -0.0447 -0.7616
 1269SOL     vw 5076   1.925   3.725   6.687 -0.2788 -0.0881 -0.3257
 1270SOL     ow 5077   0.992   5.410   4.855  0.9976  0.1894 -0.3849
 1270SOL     hw 5078   0.949   5.326   4.839 -0.3715  1.0078 -1.2844
 1270SOL     hw 5079   1.079   5.401   4.816  1.7351 -1.5258  1.4993
 1270SOL     vw 5080   0.998   5.398   4.847  0.9143  0.0710 -0.2553
 1271SOL     ow 5081   4.389   0.859   1.706 -0.4726  0.0243 -0.1839
 1271SOL     hw 5082   4.408   0.815   1.623 -2.6544 -2.1144  0.3215
 1271SOL     hw 5083   4.312   0.913   1.687 -0.6388 -0.0347  0.2996
 1271SOL     vw 5084   4.381   0.860   1.692 -0.7825 -0.2657 -0.0535
 1272SOL     ow 5085   4.967   2.194   3.802  0.2326 -0.0273  0.0808
 1272SOL     hw 5086   4.988   2.179   3.894 -1.0405 -0.6607  0.2919
 1272SOL     hw 5087   5.049   2.225   3.763  1.0368 -0.6474  1.2201
 1272SOL     vw 5088   4.981   2.196   3.809  0.1709 -0.1926  0.2589
 1273SOL     ow 5089   2.368   5.832   4.891 -0.1017 -0.1230  0.3513
 1273SOL     hw 5090   2.438   5.775   4.860  1.0110  1.4315 -0.1338
 1273SOL     hw 5091   2.399   5.865   4.976  0.1826  1.2360 -0.2495
 1273SOL     vw 5092   2.381   5.829   4.898  0.0827  0.2613  0.2081
 1274SOL     ow 5093   1.492   6.234   1.146  0.1966  0.2458 -0.2969
 1274SOL     hw 5094   1.484   6.152   1.194 -1.0610  0.9640  0.8041
 1274SOL     hw 5095   1.573   6.225   1.095  1.8069 -0.4221  2.2326
 1274SOL     vw 5096   1.501   6.222   1.145  0.2432  0.2522  0.1820
 1275SOL     ow 5097   2.242   1.597   3.377  0.0262  0.4022  0.2716
 1275SOL     hw 5098   2.285   1.570   3.296  0.2945  0.9758  0.2221
 1275SOL     hw 5099   2.307   1.649   3.423 -0.3150  0.5447  0.5994
 1275SOL     vw 5100   2.256   1.600   3.372  0.0167  0.4967  0.3083
 1276SOL     ow 5101   6.001   0.550   0.805 -0.0863  0.8289 -0.2210
 1276SOL     hw 5102   5.981   0.520   0.716 -0.9433 -1.2083  0.5964
 1276SOL     hw 5103   6.010   0.645   0.796  0.4354  0.6399 -2.5668
 1276SOL     vw 5104   6.000   0.558   0.792 -0.1304  0.5352 -0.4227
 1277SOL     ow 5105   0.292   0.354   0.688  0.1118 -0.5241 -0.0417
 1277SOL     hw 5106   0.220   0.403   0.648 -1.8055 -2.9318  0.2826
 1277SOL     hw 5107   0.316   0.406   0.764 -0.9655  0.5620 -0.4073
 1277SOL     vw 5108   0.286   0.368   0.692 -0.2833 -0.6984 -0.0472
 1278SOL     ow 5109   5.710   3.011   0.291 -0.4309  0.1742 -0.3823
 1278SOL     hw 5110   5.723   3.028   0.198 -1.9339 -0.6653 -0.7783
 1278SOL     hw 5111   5.727   3.096   0.333  0.1368  0.5976 -1.4323
 1278SOL     vw 5112   5.714   3.025   0.285 -0.5543  0.1192 -0.5731
 1279SOL     ow 5113   4.665   4.486   4.771  0.4696 -0.3706  0.0669
 1279SOL     hw 5114   4.581   4.502   4.728  1.0607 -0.9364 -1.3643
 1279SOL     hw 5115   4.681   4.565   4.822  0.1278  0.7222 -1.4343
 1279SOL     vw 5116   4.656   4.498   4.772  0.5026 -0.3011 -0.3200
 1280SOL     ow 5117   2.645   3.354   6.365  0.3828  0.3534  0.2064
 1280SOL     hw 5118   2.694   3.276   6.392  0.3033 -0.1511 -1.0215
 1280SOL     hw 5119   2.690   3.384   6.286 -3.3169 -2.3866 -3.3916
 1280SOL     vw 5120   2.658   3.347   6.358 -0.1156 -0.0746 -0.4303
 1281SOL     ow 5121   5.957   1.604   1.815  0.0238  0.4483  0.2448
 1281SOL     hw 5122   5.866   1.621   1.790 -0.7352 -0.3771  2.2350
 1281SOL     hw 5123   5.985   1.684   1.860  0.2180  0.6217 -0.1809
 1281SOL     vw 5124   5.949   1.617   1.818 -0.0508  0.3622  0.4511
 1282SOL     ow 5125   0.206   1.373   0.678  0.5206  0.2198 -0.3171
 1282SOL     hw 5126   0.281   1.418   0.639  0.5991 -0.6972 -1.2474
 1282SOL     hw 5127   0.230   1.360   0.770  1.6929 -0.4775 -0.7126
 1282SOL     vw 5128   0.219   1.377   0.685  0.6856  0.0067 -0.4920
 1283SOL     ow 5129   2.870   3.676   3.084  0.4891 -0.1699  0.4019
 1283SOL     hw 5130   2.783   3.706   3.109  0.4984 -0.8624  1.3075
 1283SOL     hw 5131   2.857   3.629   3.001  0.0661  0.0271  0.3553
 1283SOL     vw 5132   2.857   3.674   3.076  0.4345 -0.2353  0.5152
 1284SOL     ow 5133   2.670   1.239   0.597 -0.1791 -0.3667  0.5765
 1284SOL     hw 5134   2.686   1.256   0.690  1.6659 -0.0576  0.2561
 1284SOL     hw 5135   2.609   1.308   0.570  0.0715  0.1699  1.3361
 1284SOL     vw 5136   2.664   1.251   0.606  0.0974 -0.2551  0.6345
 1285SOL     ow 5137   3.285   6.287   0.632  0.1880  0.0795 -0.1828
 1285SOL     hw 5138   3.334   6.344   0.692  0.6095 -1.1072  0.6281
 1285SOL     hw 5139   3.331   6.203   0.636 -0.4653 -0.3510 -1.3037
 1285SOL     vw 5140   3.298   6.284   0.641  0.1574 -0.1338 -0.2236
 1286SOL     ow 5141   6.337   2.507   1.042 -0.6293 -0.9585  0.2872
 1286SOL     hw 5142   6.428   2.482   1.059 -0.7448 -1.5889  0.0153
 1286SOL     hw 5143   6.301   2.433   0.993 -1.2477 -0.6468  0.2648
 1286SOL     vw 5144   6.344   2.494   1.038 -0.7260 -1.0005  0.2484
 1287SOL     ow 5145   4.131   1.756   3.050  0.3731  0.4439  0.5750
 1287SOL     hw 5146   4.111   1.673   3.007  0.8907  0.3385  0.5312
 1287SOL     hw 5147   4.149   1.816   2.978  0.3232  0.5084  0.6163
 1287SOL     vw 5148   4.130   1.753   3.035  0.4349  0.4385  0.5747
 1288SOL     ow 5149   5.181   0.597   4.924 -0.0778  0.0826 -0.1783
 1288SOL     hw 5150   5.183   0.657   4.850  2.6745 -0.2385 -0.4471
 1288SOL     hw 5151   5.087   0.583   4.941 -0.7709  2.2706 -1.8239
 1288SOL     vw 5152   5.169   0.603   4.917  0.1941  0.3290 -0.4308
 1289SOL     ow 5153   2.154   4.547   3.762 -0.4990  0.0343 -0.5833
 1289SOL     hw 5154   2.124   4.506   3.843  1.7458 -0.4461  0.0730
 1289SOL     hw 5155   2.241   4.511   3.747 -0.5186  0.7302 -2.7992
 1289SOL     vw 5156   2.161   4.537   3.771 -0.2053  0.0625 -0.7889
 1290SOL     ow 5157   3.316   4.617   6.429  0.1128 -0.2652  0.4327
 1290SOL     hw 5158   3.348   4.663   6.507 -1.4003 -0.6517  1.3290
 1290SOL     hw 5159   3.355   4.530   6.435  0.1309 -0.2404  0.6728
 1290SOL     vw 5160   3.325   4.612   6.440 -0.0844 -0.3130  0.5827
 1291SOL     ow 5161   4.010   1.723   2.639  0.4145  0.0474 -0.5426
 1291SOL     hw 5162   3.922   1.719   2.601 -0.3148  0.9772  0.9442
 1291SOL     hw 5163   4.012   1.650   2.701  1.0039 -0.4667 -1.1530
 1291SOL     vw 5164   3.998   1.713   2.642  0.3960  0.1022 -0.4269
 1292SOL     ow 5165   4.536   3.197   1.244  0.0247  0.3053 -0.2853
 1292SOL     hw 5166   4.523   3.289   1.267 -0.9155 -0.1991  1.3210
 1292SOL     hw 5167   4.627   3.192   1.215  0.2621  1.6274  0.1883
 1292SOL     vw 5168   4.546   3.208   1.243 -0.0677  0.4133 -0.0108
 1293SOL     ow 5169   5.599   6.332   2.002  0.2792  0.6235 -0.4146
 1293SOL     hw 5170   5.561   6.396   1.942  2.1735  0.7074 -1.6072
 1293SOL     hw 5171   5.524   6.299   2.052 -1.1445  1.6835 -1.7412
 1293SOL     vw 5172   5.584   6.336   2.001  0.3414  0.7746 -0.7471
 1294SOL     ow 5173   1.538   6.294   5.303  0.3513  0.3221 -0.0550
 1294SOL     hw 5174   1.452   6.273   5.269  1.1460 -0.1323 -1.8905
 1294SOL     hw 5175   1.587   6.212   5.298  1.5528  1.0714 -1.1830
 1294SOL     vw 5176   1.533   6.280   5.298  0.6146  0.3612 -0.4461
 1295SOL     ow 5177   3.710   5.705   6.668  0.3520 -0.6520 -0.1638
 1295SOL     hw 5178   3.710   5.709   6.764 -1.0811 -2.3707 -0.0387
 1295SOL     hw 5179   3.618   5.715   6.644  0.4742 -1.8714 -1.2512
 1295SOL     vw 5180   3.698   5.707   6.678  0.1789 -1.0397 -0.2909
 1296SOL     ow 5181   6.278   1.215   6.312  0.2174  0.3049 -0.0134
 1296SOL     hw 5182   6.218   1.231   6.385 -1.3531  0.2162 -1.2142
 1296SOL     hw 5183   6.342   1.153   6.347  0.6964  1.7440  1.8389
 1296SOL     vw 5184   6.278   1.209   6.326  0.0734  0.4830  0.0725
 1297SOL     ow 5185   1.126   0.643   3.343 -0.0399  0.4226  0.1022
 1297SOL     hw 5186   1.139   0.651   3.248 -1.2868 -1.2868 -0.2497
 1297SOL     hw 5187   1.189   0.577   3.370 -0.9608 -0.4596  0.1306
 1297SOL     vw 5188   1.136   0.636   3.334 -0.3259  0.0806  0.0595
 1298SOL     ow 5189   1.627   5.744   3.080  0.3840 -0.4155 -0.1704
 1298SOL     hw 5190   1.646   5.770   2.990  1.3878 -1.6962 -0.3562
 1298SOL     hw 5191   1.692   5.792   3.133 -0.3510  0.5113 -0.0870
 1298SOL     vw 5192   1.638   5.754   3.075  0.4194 -0.4621 -0.1839
 1299SOL     ow 5193   0.896   1.639   6.812  0.1183  0.2612  0.4339
 1299SOL     hw 5194   0.903   1.728   6.845 -0.8934  0.5078  0.0280
 1299SOL     hw 5195   0.830   1.644   6.742  1.3375 -0.4715 -0.8111
 1299SOL     vw 5196   0.888   1.651   6.807  0.1457  0.1971  0.2160
 1300SOL     ow 5197   2.492   6.767   5.352 -0.0017 -0.6292  0.1000
 1300SOL     hw 5198   2.583   6.781   5.378  0.3055 -1.1724 -0.6256
 1300SOL     hw 5199   2.458   6.703   5.416 -0.0486 -0.0143  0.6990
 1300SOL     vw 5200   2.499   6.760   5.364  0.0327 -0.6196  0.0834
 1301SOL     ow 5201   0.256   0.750   6.096  0.0316 -0.5270  0.3004
 1301SOL     hw 5202   0.267   0.771   6.004  0.8527  0.8971  0.6897
 1301SOL     hw 5203   0.165   0.721   6.103  0.5513 -2.7416 -1.2958
 1301SOL     vw 5204   0.245   0.749   6.085  0.2085 -0.6312  0.1409
 1302SOL     ow 5205   2.223   6.816   2.416  0.1969 -0.1775  0.3270
 1302SOL     hw 5206   2.151   6.767   2.375 -0.5337  0.0274  1.3123
 1302SOL     hw 5207   2.204   6.811   2.510  1.0540  0.5445  0.5458
 1302SOL     vw 5208   2.211   6.809   2.423  0.2136 -0.0553  0.4858
 1303SOL     ow 5209   3.519   6.032   3.940  0.0784 -0.0631  0.2153
 1303SOL     hw 5210   3.509   6.015   4.033  1.5646  1.7085  0.7713
 1303SOL     hw 5211   3.431   6.052   3.909 -0.6292 -1.9039  0.9180
 1303SOL     vw 5212   3.506   6.033   3.948  0.1812 -0.0722  0.3814
 1304SOL     ow 5213   0.640   3.228   2.259  0.7660  0.6377  0.3215
 1304SOL     hw 5214   0.658   3.212   2.352  0.0690 -0.2778  0.3124
 1304SOL     hw 5215   0.546   3.214   2.251  0.7629  1.0754 -0.4640
 1304SOL     vw 5216   0.630   3.224   2.270  0.6737  0.5746  0.2167
 1305SOL     ow 5217   1.452   0.790   3.843  0.8672  0.1770  0.2276
 1305SOL     hw 5218   1.460   0.829   3.930  1.8091  1.0995 -0.2488
 1305SOL     hw 5219   1.437   0.864   3.785 -1.1306 -0.5520 -0.2677
 1305SOL     vw 5220   1.451   0.804   3.847  0.7278  0.2026  0.0993
 1306SOL     ow 5221   6.493   2.845   2.140  0.1157  0.1684 -0.6140
 1306SOL     hw 5222   6.512   2.902   2.066  0.4440 -0.2675 -0.8680
 1306SOL     hw 5223   6.542   2.764   2.122 -0.2437 -0.1480 -0.1981
 1306SOL     vw 5224   6.502   2.842   2.128  0.1118  0.0690 -0.5926
 1307SOL     ow 5225   0.256   4.186   3.790 -0.6886  0.0830 -0.0293
 1307SOL     hw 5226   0.206   4.190   3.709 -0.4138  1.0436 -0.1514
 1307SOL     hw 5227   0.344   4.160   3.763 -0.7592 -0.2275  0.0347
 1307SOL     vw 5228   0.261   4.183   3.776 -0.6617  0.1688 -0.0371
 1308SOL     ow 5229   5.213   2.059   5.407 -0.1468 -0.4250 -0.3851
 1308SOL     hw 5230   5.245   1.973   5.381  0.8149  0.0425 -0.7964
 1308SOL     hw 5231   5.184   2.048   5.498 -0.8528 -1.3786 -0.7180
 1308SOL     vw 5232   5.214   2.047   5.416 -0.1130 -0.4892 -0.4830
 1309SOL     ow 5233   3.041   3.820   5.606 -0.4736  0.7969  0.2272
 1309SOL     hw 5234   2.997   3.855   5.529  0.2874  1.2652  0.0007
 1309SOL     hw 5235   3.119   3.777   5.571 -0.2262  0.8445  0.7207
 1309SOL     vw 5236   3.046   3.819   5.591 -0.3406  0.8651  0.2627
 1310SOL     ow 5237   3.319   3.330   6.846 -0.4394  0.0927 -0.0026
 1310SOL     hw 5238   3.333   3.374   6.763  0.5177  0.8777  0.5560
 1310SOL     hw 5239   3.268   3.393   6.898 -0.2925 -0.0392  0.3032
 1310SOL     vw 5240   3.314   3.344   6.842 -0.2937  0.1788  0.1113
 1311SOL     ow 5241   0.474   0.712   2.436 -0.4020 -0.7411  0.2645
 1311SOL     hw 5242   0.519   0.630   2.416 -0.4009 -0.7835  0.4423
 1311SOL     hw 5243   0.381   0.688   2.442 -0.2463 -1.0133  1.8320
 1311SOL     vw 5244   0.468   0.698   2.434 -0.3813 -0.7826  0.4950
 1312SOL     ow 5245   1.436   3.023   6.170  0.4679  0.0297 -0.2182
 1312SOL     hw 5246   1.509   2.961   6.172  0.1042 -0.4582 -1.2529
 1312SOL     hw 5247   1.477   3.108   6.152  0.6666 -0.5416 -2.9222
 1312SOL     vw 5248   1.451   3.026   6.168  0.4461 -0.1100 -0.7114
 1313SOL     ow 5249   1.686   2.138   0.973  0.3996 -0.4062  0.1798
 1313SOL     hw 5250   1.691   2.111   1.065  1.3545  0.4720  0.4047
 1313SOL     hw 5251   1.673   2.057   0.925  1.4230 -1.0687  0.9751
 1313SOL     vw 5252   1.685   2.124   0.979  0.6606 -0.3775  0.3144
 1314SOL     ow 5253   5.928   3.319   6.972  0.4862 -0.3835 -0.0596
 1314SOL     hw 5254   5.844   3.356   6.999 -0.0976 -1.4453 -0.3710
 1314SOL     hw 5255   5.931   3.234   7.014  0.6088 -1.0895 -1.4496
 1314SOL     vw 5256   5.918   3.313   6.981  0.4253 -0.6168 -0.2842
 1315SOL     ow 5257   1.053   3.545   4.336 -0.0415  0.0973 -0.3210
 1315SOL     hw 5258   1.124   3.606   4.357 -0.0266 -0.4555  1.3505
 1315SOL     hw 5259   0.973   3.598   4.346  0.0227  0.1157  0.1238
 1315SOL     vw 5260   1.052   3.560   4.340 -0.0311  0.0267 -0.0417
 1316SOL     ow 5261   0.220   6.316   4.027 -0.2331  0.1866  0.3657
 1316SOL     hw 5262   0.271   6.236   4.038 -0.0493 -0.0471 -1.7435
 1316SOL     hw 5263   0.285   6.386   4.029  0.0063  0.0155 -0.7523
 1316SOL     vw 5264   0.235   6.314   4.029 -0.1773  0.1333 -0.0603
 1317SOL     ow 5265   5.516   0.534   3.550  0.1187  0.3145  0.3518
 1317SOL     hw 5266   5.485   0.483   3.625  0.0713  0.5256  0.4766
 1317SOL     hw 5267   5.571   0.472   3.501 -1.0743 -0.2742 -0.2719
 1317SOL     vw 5268   5.519   0.519   3.553 -0.0453  0.2646  0.2860
 1318SOL     ow 5269   6.039   3.859   2.658  0.0348 -0.3492 -0.0693
 1318SOL     hw 5270   5.995   3.781   2.692 -0.6810 -0.2091 -0.6352
 1318SOL     hw 5271   5.991   3.932   2.695  0.3228 -0.1782 -0.0293
 1318SOL     vw 5272   6.027   3.858   2.667 -0.0217 -0.3082 -0.1386
 1319SOL     ow 5273   1.693   1.139   4.642  0.5659  0.2961 -0.0105
 1319SOL     hw 5274   1.637   1.146   4.719  0.3151 -3.7504  0.3942
 1319SOL     hw 5275   1.768   1.088   4.671  0.2291 -1.7880 -2.4825
 1319SOL     vw 5276   1.696   1.133   4.656  0.4883 -0.5127 -0.2832
 1320SOL     ow 5277   2.476   1.150   5.613 -0.2736 -0.0503  0.2232
 1320SOL     hw 5278   2.391   1.192   5.602 -1.8567 -2.7990  0.8129
 1320SOL     hw 5279   2.484   1.135   5.708  0.9822  0.3393  0.2028
 1320SOL     vw 5280   2.466   1.153   5.624 -0.3169 -0.3616  0.2983
 1321SOL     ow 5281   0.501   5.676   6.044  0.5685 -0.1991  0.1635
 1321SOL     hw 5282   0.445   5.599   6.057 -1.5697  1.4493  1.4248
 1321SOL     hw 5283   0.554   5.654   5.967  0.1506 -2.9444  0.5377
 1321SOL     vw 5284   0.501   5.663   6.036  0.2313 -0.3440  0.3793
 1322SOL     ow 5285   6.363   5.944   2.954  0.1263 -0.0269  0.4286
 1322SOL     hw 5286   6.294   5.889   2.919  0.9226 -0.0712 -1.1701
 1322SOL     hw 5287   6.375   5.913   3.044 -1.3800 -0.5184  0.4863
 1322SOL     vw 5288   6.356   5.932   2.961  0.0327 -0.0975  0.2253
 1323SOL     ow 5289   5.781   6.590   2.097  0.3404 -0.4865 -0.1380
 1323SOL     hw 5290   5.827   6.668   2.066 -2.5563  1.8035  0.8779
 1323SOL     hw 5291   5.759   6.610   2.188 -1.9613 -1.7105 -0.3458
 1323SOL     vw 5292   5.784   6.603   2.105 -0.3452 -0.3459 -0.0314
 1324SOL     ow 5293   2.807   6.526   4.942  0.2674 -0.0786 -0.3892
 1324SOL     hw 5294   2.770   6.528   5.030  1.4684 -0.1435  0.1391
 1324SOL     hw 5295   2.809   6.618   4.914 -0.1595 -0.0639 -0.3709
 1324SOL     vw 5296   2.803   6.539   4.950  0.3695 -0.0851 -0.3173
 1325SOL     ow 5297   5.113   1.689   6.915 -0.0660 -0.2654 -0.1739
 1325SOL     hw 5298   5.150   1.604   6.890  0.2255 -0.1384 -0.1854
 1325SOL     hw 5299   5.185   1.733   6.960 -0.3395 -0.1801  0.1836
 1325SOL     vw 5300   5.128   1.683   6.918 -0.0637 -0.2375 -0.1283
 1326SOL     ow 5301   4.073   5.826   4.618  0.4405 -0.0680 -0.8828
 1326SOL     hw 5302   4.088   5.873   4.700  3.0615 -0.5192 -1.0137
 1326SOL     hw 5303   4.008   5.878   4.572  0.1452  1.1016  0.7689
 1326SOL     vw 5304   4.066   5.839   4.623  0.7474  0.0269 -0.6821
 1327SOL     ow 5305   1.873   3.405   5.476 -0.4902 -0.1824 -0.3746
 1327SOL     hw 5306   1.914   3.321   5.454 -0.8800 -0.9796  1.7726
 1327SOL     hw 5307   1.946   3.461   5.502 -0.4474 -0.6109  0.4459
 1327SOL     vw 5308   1.888   3.401   5.476 -0.5360 -0.3442  0.0169
 1328SOL     ow 5309   2.680   6.293   4.906  0.1045 -0.3159 -0.0643
 1328SOL     hw 5310   2.591   6.298   4.873  0.7436 -2.3694 -2.3931
 1328SOL     hw 5311   2.706   6.384   4.919 -2.0593  0.3380 -0.0015
 1328SOL     vw 5312   2.672   6.306   4.903 -0.0968 -0.5009 -0.3633
 1329SOL     ow 5313   3.364   4.865   1.099  0.4001 -0.0851  0.2164
 1329SOL     hw 5314   3.378   4.931   1.032 -0.6263 -1.1755 -1.1176
 1329SOL     hw 5315   3.451   4.829   1.117  0.8184  0.8870  0.2278
 1329SOL     vw 5316   3.377   4.869   1.093  0.3198 -0.1009  0.0420
 1330SOL     ow 5317   5.361   1.888   0.967  0.3270  0.4248  0.3418
 1330SOL     hw 5318   5.394   1.937   1.042  1.9205  0.2854 -0.2259
 1330SOL     hw 5319   5.334   1.955   0.905 -1.3549  0.5441  1.1398
 1330SOL     vw 5320   5.362   1.904   0.969  0.3154  0.4221  0.3722
 1331SOL     ow 5321   3.978   0.849   4.370  0.0629 -0.3380  0.0083
 1331SOL     hw 5322   3.969   0.944   4.369 -0.4218 -0.3861 -0.4842
 1331SOL     hw 5323   4.035   0.831   4.445 -1.1591  0.2182  1.1032
 1331SOL     vw 5324   3.985   0.859   4.380 -0.1622 -0.2710  0.0877
 1332SOL     ow 5325   2.253   0.256   1.217  0.7033  0.5362  0.7040
 1332SOL     hw 5326   2.166   0.277   1.250  0.5342 -0.1133  0.6849
 1332SOL     hw 5327   2.249   0.275   1.124 -0.4614 -2.5087  0.0072
 1332SOL     vw 5328   2.241   0.261   1.209  0.5274  0.0487  0.6096
 1333SOL     ow 5329   4.790   6.511   0.621  0.1229 -0.2257  0.0249
 1333SOL     hw 5330   4.729   6.522   0.695  0.2271 -0.3104  0.1228
 1333SOL     hw 5331   4.745   6.451   0.562 -0.2308  0.3155 -0.2707
 1333SOL     vw 5332   4.776   6.505   0.623  0.0896 -0.1655 -0.0012
 1334SOL     ow 5333   4.682   5.527   6.951  0.3016  0.1763  0.3086
 1334SOL     hw 5334   4.661   5.561   7.038  0.4969 -2.0072  1.2993
 1334SOL     hw 5335   4.618   5.457   6.937  1.8861 -1.2821 -0.0967
 1334SOL     vw 5336   4.671   5.522   6.961  0.5364 -0.3045  0.3860
 1335SOL     ow 5337   2.764   6.263   5.852 -0.3149  0.1360 -0.2679
 1335SOL     hw 5338   2.745   6.346   5.807  1.1403  0.0538 -1.1031
 1335SOL     hw 5339   2.860   6.259   5.854 -0.3452 -0.5057  1.7077
 1335SOL     vw 5340   2.774   6.273   5.846 -0.1270  0.0403 -0.1175
 1336SOL     ow 5341   5.338   2.674   4.387 -0.2817  0.2631 -0.1547
 1336SOL     hw 5342   5.276   2.614   4.346 -0.4702 -0.0348  0.5494
 1336SOL     hw 5343   5.405   2.617   4.424 -1.0904  0.3770  1.5774
 1336SOL     vw 5344   5.338   2.659   4.386 -0.4134  0.2389  0.1671
 1337SOL     ow 5345   4.866   1.939   0.531 -0.3022  0.2951 -0.2234
 1337SOL     hw 5346   4.795   1.966   0.589  0.6481 -1.4187  1.8943
 1337SOL     hw 5347   4.941   1.992   0.558  0.1140 -0.4128  0.0531
 1337SOL     vw 5348   4.867   1.949   0.542 -0.1218 -0.0244  0.0925
 1338SOL     ow 5349   5.482   0.640   4.984  0.6159  0.0728  0.2902
 1338SOL     hw 5350   5.507   0.731   5.001  1.4398 -0.1451  0.2802
 1338SOL     hw 5351   5.561   0.599   4.951  0.1070 -0.5253 -0.2211
 1338SOL     vw 5352   5.495   0.647   4.982  0.6573 -0.0349  0.2215
 1339SOL     ow 5353   2.342   6.726   0.248  0.1797  0.2411 -0.3560
 1339SOL     hw 5354   2.416   6.679   0.286 -0.4202 -1.3830 -1.1434
 1339SOL     hw 5355   2.290   6.659   0.203 -0.1152  1.7798 -2.4880
 1339SOL     vw 5356   2.345   6.711   0.247  0.0615  0.2296 -0.7412
 1340SOL     ow 5357   3.019   5.563   6.564 -0.0811  0.3554  0.0734
 1340SOL     hw 5358   2.980   5.623   6.502 -1.1676 -0.1252  0.2629
 1340SOL     hw 5359   2.996   5.476   6.532 -1.8209  0.1069  1.8265
 1340SOL     vw 5360   3.011   5.559   6.552 -0.4539  0.2592  0.3297
 1341SOL     ow 5361   2.094   0.196   6.062 -0.3378 -0.3066  0.0457
 1341SOL     hw 5362   2.092   0.213   6.156  1.2342  0.7600 -0.0896
 1341SOL     hw 5363   2.134   0.109   6.054  0.7136  0.1485  0.3140
 1341SOL     vw 5364   2.099   0.187   6.073  0.0083 -0.1058  0.0632
 1342SOL     ow 5365   0.844   4.532   5.648 -0.1750 -0.0449  0.0232
 1342SOL     hw 5366   0.935   4.563   5.637  0.0009 -0.0309  1.3842
 1342SOL     hw 5367   0.791   4.599   5.604  0.3963  0.6823  0.4142
 1342SOL     vw 5368   0.849   4.545   5.641 -0.0764  0.0529  0.2544
 1343SOL     ow 5369   4.068   6.663   1.890  0.3984 -0.0152 -0.5000
 1343SOL     hw 5370   4.109   6.644   1.974 -2.2096 -2.3985  0.4090
 1343SOL     hw 5371   4.098   6.593   1.832 -1.9290 -1.6981  0.1341
 1343SOL     vw 5372   4.077   6.651   1.894 -0.2527 -0.5517 -0.2964
 1344SOL     ow 5373   3.886   2.332   1.840 -0.6192 -0.3301  0.0791
 1344SOL     hw 5374   3.921   2.243   1.841  1.5515  0.4822 -0.1429
 1344SOL     hw 5375   3.882   2.356   1.748 -2.8292 -0.7439  0.0041
 1344SOL     vw 5376   3.890   2.324   1.828 -0.6244 -0.2774  0.0400
 1345SOL     ow 5377   3.911   0.381   2.712  0.1069 -0.0762 -0.4234
 1345SOL     hw 5378   3.965   0.332   2.773  0.7050  1.3185  0.2137
 1345SOL     hw 5379   3.867   0.447   2.766 -0.8536 -0.0381 -1.2085
 1345SOL     vw 5380   3.912   0.384   2.727  0.0591  0.1128 -0.4430
 1346SOL     ow 5381   2.766   4.034   1.873 -0.2542 -0.1106  0.1327
 1346SOL     hw 5382   2.789   3.962   1.815 -0.6001 -0.5757  0.5650
 1346SOL     hw 5383   2.847   4.085   1.881 -0.9982  1.9890 -3.4912
 1346SOL     vw 5384   2.780   4.032   1.866 -0.3980  0.1051 -0.2883
 1347SOL     ow 5385   5.211   4.074   2.526  0.1306 -0.3643  0.1214
 1347SOL     hw 5386   5.116   4.067   2.535  0.1398  1.2548  2.3275
 1347SOL     hw 5387   5.225   4.141   2.460 -0.2095 -1.2160 -0.8447
 1347SOL     vw 5388   5.200   4.082   2.519  0.0868 -0.2632  0.2849
 1348SOL     ow 5389   0.832   2.590   4.913  0.3022  0.5255  0.5728
 1348SOL     hw 5390   0.877   2.519   4.959 -0.0433 -0.3705 -0.4164
 1348SOL     hw 5391   0.745   2.554   4.893  1.3006 -0.2560 -3.1778
 1348SOL     vw 5392   0.826   2.576   4.917  0.3884  0.3041 -0.0527
 1349SOL     ow 5393   1.431   4.335   6.480  0.2891 -0.5470  0.1867
 1349SOL     hw 5394   1.387   4.269   6.426  0.3032 -0.5526  0.1823
 1349SOL     hw 5395   1.524   4.319   6.467  0.2938 -0.1812 -0.2448
 1349SOL     vw 5396   1.437   4.324   6.471  0.2916 -0.4992  0.1295
 1350SOL     ow 5397   6.131   0.295   5.632 -0.4379 -0.4365 -0.4564
 1350SOL     hw 5398   6.123   0.202   5.653  0.0508 -0.2416  0.6204
 1350SOL     hw 5399   6.197   0.328   5.693 -1.1204  0.7691 -0.3499
 1350SOL     vw 5400   6.138   0.287   5.643 -0.4635 -0.2517 -0.3002
 1351SOL     ow 5401   6.598   4.306   1.970 -0.1940  0.4895 -0.2423
 1351SOL     hw 5402   6.641   4.254   2.038 -0.1255 -0.1817 -0.7903
 1351SOL     hw 5403   6.578   4.243   1.901  0.1405  1.2509 -1.0443
 1351SOL     vw 5404   6.601   4.291   1.970 -0.1409  0.5014 -0.4205
 1352SOL     ow 5405   5.287   3.663   1.215  0.4135  0.2387 -0.0853
 1352SOL     hw 5406   5.256   3.749   1.188 -0.1392  0.0196 -0.1656
 1352SOL     hw 5407   5.351   3.638   1.148 -0.3574  0.0427 -0.7574
 1352SOL     vw 5408   5.292   3.671   1.203  0.2389  0.1839 -0.1846
 1353SOL     ow 5409   0.549   4.161   0.990 -0.4084  0.0418  0.2689
 1353SOL     hw 5410   0.525   4.249   0.961 -0.5926  0.5631  1.9411
 1353SOL     hw 5411   0.565   4.169   1.084  0.5069 -1.5225  0.2919
 1353SOL     vw 5412   0.548   4.173   0.998 -0.3120 -0.0958  0.4926
 1354SOL     ow 5413   2.142   6.014   4.995  0.2389 -1.1198  0.0491
 1354SOL     hw 5414   2.048   6.007   5.010  0.0342  0.7660 -0.0831
 1354SOL     hw 5415   2.160   6.108   5.000  2.1628 -1.4669  0.3029
 1354SOL     vw 5416   2.132   6.025   4.997  0.4659 -0.9170  0.0653
 1355SOL     ow 5417   1.245   2.930   2.605 -0.1124  0.1098 -0.6481
 1355SOL     hw 5418   1.208   3.006   2.649 -0.3657  0.2497 -1.1006
 1355SOL     hw 5419   1.188   2.915   2.529  0.7006  0.2706 -1.3060
 1355SOL     vw 5420   1.232   2.938   2.601 -0.0386  0.1495 -0.7946
 1356SOL     ow 5421   0.773   4.476   4.567 -0.7725  0.2280 -0.3046
 1356SOL     hw 5422   0.681   4.494   4.587 -1.2163 -1.7274 -0.3898
 1356SOL     hw 5423   0.788   4.516   4.482 -1.3785  1.0637 -0.0275
 1356SOL     vw 5424   0.763   4.483   4.559 -0.9110  0.0801 -0.2792
 1357SOL     ow 5425   0.436   0.808   2.067  0.5414 -0.1301  0.2358
 1357SOL     hw 5426   0.373   0.816   2.138  0.1705  0.8193 -0.1821
 1357SOL     hw 5427   0.518   0.841   2.103  0.1019  1.3565 -0.0809
 1357SOL     vw 5428   0.439   0.813   2.081  0.4345  0.1913  0.1390
 1358SOL     ow 5429   6.109   3.677   2.403  0.5392  0.4915 -0.1812
 1358SOL     hw 5430   6.031   3.623   2.413  0.1570  1.1719  0.6380
 1358SOL     hw 5431   6.143   3.655   2.316  0.5607 -1.2645  0.2442
 1358SOL     vw 5432   6.103   3.667   2.393  0.4916  0.3496 -0.0169
 1359SOL     ow 5433   2.064   5.307   4.669  0.5980 -0.2928 -0.3434
 1359SOL     hw 5434   2.092   5.372   4.733 -0.2129  1.7680 -1.9537
 1359SOL     hw 5435   2.146   5.270   4.636  1.0292 -1.6797  2.0263
 1359SOL     vw 5436   2.079   5.311   4.673  0.5478 -0.2038 -0.2432
 1360SOL     ow 5437   6.542   5.818   1.896  0.4725 -0.0943 -0.0894
 1360SOL     hw 5438   6.572   5.838   1.808 -1.0134 -0.6459 -0.7599
 1360SOL     hw 5439   6.446   5.814   1.888  0.0712  2.4827  2.0879
 1360SOL     vw 5440   6.533   5.820   1.883  0.2236  0.1731  0.1094
 1361SOL     ow 5441   4.855   2.466   2.049 -0.0883 -0.1368  0.2662
 1361SOL     hw 5442   4.908   2.400   2.093  0.5108  1.0022  1.3076
 1361SOL     hw 5443   4.805   2.417   1.983  1.0464 -1.4677  0.3559
 1361SOL     vw 5444   4.855   2.451   2.046  0.1402 -0.1621  0.4154
 1362SOL     ow 5445   6.823   1.738   2.719 -0.5940  0.2416  0.5280
 1362SOL     hw 5446   6.743   1.735   2.772 -1.2808 -0.0244 -0.4963
 1362SOL     hw 5447   6.884   1.681   2.766 -1.3234 -0.3229  0.8161
 1362SOL     vw 5448   6.821   1.730   2.733 -0.7808  0.1320  0.4309
 1363SOL     ow 5449   3.691   5.720   6.964 -0.0724 -0.3467  0.8823
 1363SOL     hw 5450   3.669   5.787   7.028  0.7391  0.2965  0.5043
 1363SOL     hw 5451   3.749   5.660   7.010  1.9246  1.0520  0.3198
 1363SOL     vw 5452   3.696   5.721   6.978  0.2983 -0.0772  0.7582
 1364SOL     ow 5453   2.088   2.012   4.116  0.6178 -0.2394  0.2073
 1364SOL     hw 5454   2.177   2.048   4.106  0.5695  1.0477  3.3741
 1364SOL     hw 5455   2.090   1.967   4.201 -1.5107 -1.0722 -0.1313
 1364SOL     vw 5456   2.100   2.011   4.126  0.3306 -0.1795  0.5805
 1365SOL     ow 5457   3.910   6.436   5.687  0.6794  0.8050 -0.0696
 1365SOL     hw 5458   3.929   6.518   5.734  1.0052  0.0889  1.0929
 1365SOL     hw 5459   3.953   6.368   5.739 -0.2378 -0.2050 -0.5856
 1365SOL     vw 5460   3.919   6.438   5.700  0.6014  0.5772  0.0157
 1366SOL     ow 5461   3.793   4.502   0.216  0.5014  0.2513  0.3010
 1366SOL     hw 5462   3.778   4.426   0.160 -0.1074  1.0068 -0.5865
 1366SOL     hw 5463   3.707   4.526   0.249  0.5958  0.9536  0.0489
 1366SOL     vw 5464   3.780   4.495   0.213  0.4336  0.4435  0.1506
 1367SOL     ow 5465   2.564   4.701   2.861 -0.3389 -0.2652  0.5719
 1367SOL     hw 5466   2.594   4.790   2.882 -1.6336  0.3798 -0.1605
 1367SOL     hw 5467   2.602   4.683   2.775 -0.0864 -0.4251  0.7151
 1367SOL     vw 5468   2.573   4.711   2.852 -0.4765 -0.2012  0.4941
 1368SOL     ow 5469   1.278   2.528   1.568  0.3071 -0.0981  0.4012
 1368SOL     hw 5470   1.313   2.593   1.630 -0.0983 -0.3808  0.9295
 1368SOL     hw 5471   1.183   2.533   1.579  0.2009  0.2114 -0.5755
 1368SOL     vw 5472   1.270   2.537   1.578  0.2396 -0.0944  0.3420
 1369SOL     ow 5473   4.827   1.140   2.249  0.8759  0.0351  0.5334
 1369SOL     hw 5474   4.744   1.175   2.280  0.1382 -2.1226  1.1679
 1369SOL     hw 5475   4.893   1.177   2.308  0.2243  0.6971  0.8636
 1369SOL     vw 5476   4.825   1.150   2.261  0.6928 -0.1622  0.6607
 1370SOL     ow 5477   1.484   4.357   2.639  0.2709  0.3447 -0.3193
 1370SOL     hw 5478   1.397   4.378   2.607  0.6494  0.4087 -1.3594
 1370SOL     hw 5479   1.520   4.440   2.668  0.0549  0.3504 -0.0689
 1370SOL     vw 5480   1.477   4.370   2.638  0.2923  0.3541 -0.4234
 1371SOL     ow 5481   4.249   3.704   5.885 -0.1218 -0.3238  0.6874
 1371SOL     hw 5482   4.191   3.747   5.948  1.4738  0.5275  1.6408
 1371SOL     hw 5483   4.328   3.758   5.884  0.0033 -0.4456 -1.9074
 1371SOL     vw 5484   4.252   3.717   5.893  0.1051 -0.2276  0.4704
 1372SOL     ow 5485   3.838   1.147   5.062  0.2169  0.2745  0.4473
 1372SOL     hw 5486   3.867   1.073   5.115 -0.3739 -0.1246  0.2222
 1372SOL     hw 5487   3.828   1.110   4.974 -1.8670  0.1482  0.6793
 1372SOL     vw 5488   3.841   1.132   5.057 -0.1359  0.2052  0.4482
 1373SOL     ow 5489   6.191   4.699   0.575 -0.2306 -0.0139 -0.3218
 1373SOL     hw 5490   6.261   4.635   0.564 -1.2708 -1.1056 -0.9394
 1373SOL     hw 5491   6.130   4.656   0.636 -2.0951 -0.7008 -2.5046
 1373SOL     vw 5492   6.192   4.685   0.582 -0.6137 -0.2487 -0.6913
 1374SOL     ow 5493   6.988   3.810   4.714 -0.4606  0.2878  0.2671
 1374SOL     hw 5494   6.914   3.778   4.765 -1.6907  1.7906 -0.4795
 1374SOL     hw 5495   6.973   3.776   4.626  0.5281 -0.5648  0.4042
 1374SOL     vw 5496   6.976   3.801   4.709 -0.4923  0.3737  0.1867
 1375SOL     ow 5497   0.696   6.708   4.756 -0.8081 -0.0617  0.2588
 1375SOL     hw 5498   0.696   6.680   4.848  0.4834  0.5089  0.4481
 1375SOL     hw 5499   0.632   6.779   4.754 -0.3836  0.3485  0.8631
 1375SOL     vw 5500   0.687   6.714   4.768 -0.5818  0.0675  0.3636
 1376SOL     ow 5501   6.753   6.187   0.155 -0.8148  0.0782  0.4886
 1376SOL     hw 5502   6.817   6.219   0.218  0.8977  0.3464 -1.2690
 1376SOL     hw 5503   6.737   6.096   0.180  0.9059 -0.2434  0.5069
 1376SOL     vw 5504   6.759   6.179   0.167 -0.3619  0.0713  0.2591
 1377SOL     ow 5505   3.526   4.845   1.416 -0.1287  0.3498  0.2864
 1377SOL     hw 5506   3.569   4.854   1.331 -1.9563  1.4733 -0.5958
 1377SOL     hw 5507   3.458   4.779   1.401  0.1717 -0.1723  1.1730
 1377SOL     vw 5508   3.523   4.837   1.403 -0.3302  0.4292  0.2869
 1378SOL     ow 5509   6.102   5.667   5.225  0.7040 -0.2204  0.0748
 1378SOL     hw 5510   6.057   5.669   5.309  1.1075 -0.9952  0.3144
 1378SOL     hw 5511   6.176   5.726   5.237  0.2541  0.3851 -0.0442
 1378SOL     vw 5512   6.106   5.675   5.238  0.6979 -0.2427  0.0906
 1379SOL     ow 5513   1.575   4.602   2.729  0.0388  0.0548  0.2644
 1379SOL     hw 5514   1.621   4.673   2.683  0.3292 -1.0319 -1.1728
 1379SOL     hw 5515   1.635   4.576   2.799  2.2063 -1.9700 -2.1339
 1379SOL     vw 5516   1.589   4.608   2.732  0.3631 -0.3555 -0.2416
 1380SOL     ow 5517   2.429   3.046   1.671 -0.0504 -0.0863  0.6849
 1380SOL     hw 5518   2.354   3.000   1.709  0.0609  0.4745  1.6246
 1380SOL     hw 5519   2.447   3.000   1.589 -1.0685 -0.5710  0.7224
 1380SOL     vw 5520   2.421   3.034   1.665 -0.1701 -0.0763  0.8139
 1381SOL     ow 5521   5.205   2.384   5.392  0.1634 -0.5601  0.4238
 1381SOL     hw 5522   5.261   2.432   5.453 -0.7158 -0.8529  1.4787
 1381SOL     hw 5523   5.175   2.451   5.330 -1.3327  0.3952  2.0724
 1381SOL     vw 5524   5.209   2.399   5.392 -0.1500 -0.4727  0.7803
 1382SOL     ow 5525   6.281   0.363   4.051 -0.6639 -0.5236  0.7073
 1382SOL     hw 5526   6.372   0.392   4.044 -0.5886 -0.7891  0.5518
 1382SOL     hw 5527   6.230   0.444   4.057 -0.3595 -0.3894  1.5141
 1382SOL     vw 5528   6.286   0.377   4.051 -0.6137 -0.5409  0.7930
 1383SOL     ow 5529   5.048   0.271   6.835 -0.4635 -0.6121  0.1451
 1383SOL     hw 5530   5.074   0.252   6.745 -0.0882  1.3704 -0.2225
 1383SOL     hw 5531   5.091   0.204   6.888  3.1022  0.7403 -0.7274
 1383SOL     vw 5532   5.057   0.260   6.830  0.0563 -0.1721 -0.0188
 1384SOL     ow 5533   0.043   2.029   2.279 -0.1130 -0.4226  0.4723
 1384SOL     hw 5534   0.099   1.995   2.209  0.3242 -2.1832  1.6054
 1384SOL     hw 5535  -0.025   2.079   2.234 -0.0663 -1.8121 -1.2535
 1384SOL     vw 5536   0.041   2.031   2.264 -0.0492 -0.8382  0.3941
 1385SOL     ow 5537   0.901   5.891   1.626 -0.4168  0.0698 -0.2026
 1385SOL     hw 5538   0.962   5.956   1.591  0.7337  0.2547  1.9513
 1385SOL     hw 5539   0.856   5.936   1.698 -1.7809 -0.6363 -0.5884
 1385SOL     vw 5540   0.903   5.905   1.631 -0.4450  0.0010  0.0307
 1386SOL     ow 5541   1.216   2.582   4.998 -0.3697  0.0360  0.4431
 1386SOL     hw 5542   1.172   2.541   4.924  0.1763 -0.4416  0.3788
 1386SOL     hw 5543   1.146   2.629   5.045 -1.3755 -2.4114  1.5529
 1386SOL     vw 5544   1.201   2.583   4.995 -0.4303 -0.3499  0.5813
 1387SOL     ow 5545   1.289   1.316   4.247 -0.1875  0.0704 -0.0138
 1387SOL     hw 5546   1.357   1.280   4.190 -0.1810  0.6476 -0.3792
 1387SOL     hw 5547   1.315   1.290   4.335  1.1888  1.2952 -0.0123
 1387SOL     vw 5548   1.302   1.308   4.251 -0.0050  0.3081 -0.0618
 1388SOL     ow 5549   2.687   4.917   6.068 -0.6213 -0.2243  0.4557
 1388SOL     hw 5550   2.733   4.903   6.150 -1.4541  1.0112  1.1624
 1388SOL     hw 5551   2.616   4.853   6.069 -0.1506 -0.7656  0.2939
 1388SOL     vw 5552   2.684   4.907   6.079 -0.6691 -0.1326  0.5274
 1389SOL     ow 5553   4.925   0.356   1.113 -0.2905  0.6803  0.1844
 1389SOL     hw 5554   4.972   0.371   1.031 -0.6928  0.9463  0.0045
 1389SOL     hw 5555   4.857   0.423   1.115 -0.6190  0.3424  0.4811
 1389SOL     vw 5556   4.923   0.367   1.102 -0.3870  0.6708  0.1999
 1390SOL     ow 5557   3.152   3.960   1.564 -0.0705  0.4676 -0.1824
 1390SOL     hw 5558   3.083   3.894   1.567  1.2975 -1.0107  1.2202
 1390SOL     hw 5559   3.123   4.028   1.624  0.1373 -0.6490  1.2262
 1390SOL     vw 5560   3.139   3.960   1.572  0.1374  0.1253  0.1885
 1391SOL     ow 5561   3.115   3.717   3.820 -0.1876  0.2228 -0.0535
 1391SOL     hw 5562   3.125   3.698   3.914 -1.0985 -0.4936 -0.0975
 1391SOL     hw 5563   3.034   3.673   3.795  0.6079 -0.5037 -1.4340
 1391SOL     vw 5564   3.106   3.709   3.829 -0.2028  0.0324 -0.2414
 1392SOL     ow 5565   1.909   1.985   3.872 -0.0143  0.0208 -0.3304
 1392SOL     hw 5566   1.963   2.019   3.944  0.0206  1.1607 -0.8646
 1392SOL     hw 5567   1.970   1.976   3.799 -0.1208 -0.7861 -0.3254
 1392SOL     vw 5568   1.924   1.989   3.872 -0.0238  0.0648 -0.4003
 1393SOL     ow 5569   1.412   5.727   4.127  0.3513 -0.5691  0.0270
 1393SOL     hw 5570   1.400   5.739   4.221  0.6911  0.2293 -0.0157
 1393SOL     hw 5571   1.347   5.662   4.102 -0.5362  0.0620  0.6162
 1393SOL     vw 5572   1.402   5.720   4.136  0.2790 -0.3805  0.0989
 1394SOL     ow 5573   0.801   5.480   4.658  0.0177  0.1432 -0.0750
 1394SOL     hw 5574   0.864   5.476   4.731 -1.3458 -1.8743  1.0919
 1394SOL     hw 5575   0.733   5.418   4.682 -1.1400  0.3517 -2.5270
 1394SOL     vw 5576   0.801   5.471   4.671 -0.3150 -0.0958 -0.2446
 1395SOL     ow 5577   5.538   3.257   1.502  0.4974 -0.1067 -0.5558
 1395SOL     hw 5578   5.591   3.209   1.438  0.6051 -1.3767  0.4278
 1395SOL     hw 5579   5.474   3.193   1.533 -0.3066  0.8239 -0.2492
 1395SOL     vw 5580   5.537   3.242   1.498  0.4053 -0.1514 -0.3856
 1396SOL     ow 5581   3.458   5.137   3.121 -0.2267 -0.5374 -0.2419
 1396SOL     hw 5582   3.530   5.133   3.058 -0.7203 -1.3426 -0.7649
 1396SOL     hw 5583   3.389   5.184   3.074 -0.2142 -0.1806  0.0935
 1396SOL     vw 5584   3.459   5.143   3.106 -0.2902 -0.5968 -0.2667
 1397SOL     ow 5585   0.322   5.845   2.210 -0.6483 -0.2806 -0.2451
 1397SOL     hw 5586   0.291   5.932   2.234  0.5881  0.2370 -0.4540
 1397SOL     hw 5587   0.297   5.835   2.118 -1.8716 -0.6644  0.1051
 1397SOL     vw 5588   0.314   5.855   2.201 -0.6465 -0.2630 -0.2265
 1398SOL     ow 5589   4.702   4.227   1.644  0.2349 -0.4715 -0.0085
 1398SOL     hw 5590   4.750   4.244   1.724 -2.0002 -0.2686  1.3725
 1398SOL     hw 5591   4.713   4.133   1.628 -0.6125 -0.8653  1.5102
 1398SOL     vw 5592   4.710   4.216   1.652 -0.1714 -0.4966  0.3740
 1399SOL     ow 5593   3.910   6.040   2.977  0.2423 -0.7539 -0.0647
 1399SOL     hw 5594   3.915   6.136   2.979  1.8026 -0.8042 -0.4678
 1399SOL     hw 5595   3.877   6.020   2.889  1.1153 -0.5999 -0.4428
 1399SOL     vw 5596   3.906   6.050   2.965  0.5634 -0.7401 -0.1678
 1400SOL     ow 5597   3.348   6.083   1.489 -0.6699  0.0174 -0.0788
 1400SOL     hw 5598   3.400   6.149   1.535  0.5850  0.2928 -1.8065
 1400SOL     hw 5599   3.363   6.101   1.396 -2.6075 -0.9185 -0.6244
 1400SOL     vw 5600   3.357   6.094   1.483 -0.7598 -0.0694 -0.3787
 1401SOL     ow 5601   5.635   2.739   0.442 -0.0967 -0.0683 -0.0137
 1401SOL     hw 5602   5.723   2.719   0.410 -0.1994  0.5732 -0.7089
 1401SOL     hw 5603   5.646   2.749   0.537  0.2774 -1.5944  0.1305
 1401SOL     vw 5604   5.648   2.738   0.450 -0.0608 -0.1851 -0.0864
 1402SOL     ow 5605   4.252   1.866   2.501  0.5436  0.3802  0.1128
 1402SOL     hw 5606   4.290   1.921   2.570  0.8244 -1.5971  1.6331
 1402SOL     hw 5607   4.325   1.850   2.441  0.3969  1.8091 -0.4840
 1402SOL     vw 5608   4.267   1.871   2.502  0.5612  0.3079  0.2346
 1403SOL     ow 5609   3.811   5.855   1.996  0.5366 -0.4398 -0.1474
 1403SOL     hw 5610   3.725   5.874   1.959 -1.1044 -2.9840  2.0109
 1403SOL     hw 5611   3.853   5.799   1.931  1.1243  1.7023 -1.7241
 1403SOL     vw 5612   3.805   5.850   1.983  0.3976 -0.4930 -0.0706
 1404SOL     ow 5613   6.384   0.565   1.109 -0.3819 -0.1754 -0.4434
 1404SOL     hw 5614   6.391   0.484   1.160  0.4425 -0.5337 -1.0846
 1404SOL     hw 5615   6.293   0.569   1.083 -0.3149 -1.2330 -0.8980
 1404SOL     vw 5616   6.373   0.554   1.112 -0.2642 -0.3623 -0.5879
 1405SOL     ow 5617   1.727   0.374   4.688 -0.2184  0.2317 -0.3202
 1405SOL     hw 5618   1.703   0.328   4.769  2.5970  0.2737  0.6347
 1405SOL     hw 5619   1.775   0.451   4.718  1.0130  0.1867 -2.0333
 1405SOL     vw 5620   1.730   0.378   4.703  0.3155  0.2313 -0.4203
 1406SOL     ow 5621   6.461   4.507   2.082 -0.0606 -0.1181 -0.2854
 1406SOL     hw 5622   6.416   4.554   2.012 -0.3551  0.6623  0.4085
 1406SOL     hw 5623   6.519   4.446   2.037 -0.7758 -0.1405 -1.2011
 1406SOL     vw 5624   6.463   4.505   2.067 -0.1941 -0.0179 -0.3146
 1407SOL     ow 5625   1.441   3.617   2.818 -0.0511  0.2430 -0.1222
 1407SOL     hw 5626   1.533   3.628   2.842 -0.0640 -0.0027  0.0424
 1407SOL     hw 5627   1.392   3.651   2.893 -0.0962  0.4574 -0.2477
 1407SOL     vw 5628   1.447   3.623   2.831 -0.0587  0.2388 -0.1171
 1408SOL     ow 5629   0.914   3.992   6.483 -0.4176 -0.1107  0.0892
 1408SOL     hw 5630   0.903   3.922   6.548  2.3159  0.0865  0.8717
 1408SOL     hw 5631   0.971   3.954   6.416 -0.0280  0.9194 -0.1832
 1408SOL     vw 5632   0.920   3.978   6.482 -0.0056  0.0513  0.1564
 1409SOL     ow 5633   5.012   0.587   4.471  0.4059  0.2982  0.3018
 1409SOL     hw 5634   5.097   0.630   4.475  0.5862 -0.1109  0.9162
 1409SOL     hw 5635   5.031   0.498   4.442  0.0358  0.5900 -0.9230
 1409SOL     vw 5636   5.026   0.581   4.467  0.3808  0.2827  0.2213
 1410SOL     ow 5637   6.726   2.463   4.510 -0.7528  0.0414 -0.1234
 1410SOL     hw 5638   6.758   2.397   4.571 -0.9116 -0.7626 -0.8954
 1410SOL     hw 5639   6.751   2.547   4.551  1.8092 -0.5133 -0.3624
 1410SOL     vw 5640   6.734   2.465   4.524 -0.4358 -0.1378 -0.2570
 1411SOL     ow 5641   5.873   1.933   3.544  0.2234 -0.2677 -0.6320
 1411SOL     hw 5642   5.785   1.921   3.580  0.7077 -0.3063  0.5792
 1411SOL     hw 5643   5.870   2.018   3.502 -0.8984 -1.0224 -2.1724
 1411SOL     vw 5644   5.861   1.942   3.543  0.1395 -0.3723 -0.6753
 1412SOL     ow 5645   5.875   2.728   2.857  0.4228  0.5412 -0.1513
 1412SOL     hw 5646   5.968   2.747   2.872  0.6779  0.3313 -1.3138
 1412SOL     hw 5647   5.829   2.770   2.929  1.4857 -0.0766  0.9126
 1412SOL     vw 5648   5.881   2.736   2.868  0.5965  0.4320 -0.1644
 1413SOL     ow 5649   0.253   3.903   4.615  0.4050  0.2625 -0.6587
 1413SOL     hw 5650   0.223   3.838   4.551 -1.3421  0.6501 -0.3063
 1413SOL     hw 5651   0.308   3.963   4.565  2.2851 -1.6084 -0.9260
 1413SOL     vw 5652   0.256   3.903   4.600  0.4225  0.0668 -0.6473
 1414SOL     ow 5653   6.641   5.311   2.078 -0.1321 -0.5224 -0.1967
 1414SOL     hw 5654   6.603   5.398   2.065  1.7203  0.4155  0.3553
 1414SOL     hw 5655   6.611   5.284   2.165  0.7466  0.3825  0.4051
 1414SOL     vw 5656   6.632   5.319   2.088  0.2284 -0.2792 -0.0445
 1415SOL     ow 5657   1.995   0.438   5.921  0.4594  0.3784  0.1776
 1415SOL     hw 5658   1.989   0.485   6.004  0.4521  3.3584 -1.3854
 1415SOL     hw 5659   2.077   0.469   5.882  1.2916 -2.1765 -0.3209
 1415SOL     vw 5660   2.005   0.448   5.927  0.5683  0.4345 -0.0942
 1416SOL     ow 5661   5.147   1.714   0.539 -0.2138 -0.3252 -0.3265
 1416SOL     hw 5662   5.095   1.737   0.615  3.6346  0.3389  2.3935
 1416SOL     hw 5663   5.101   1.640   0.499 -3.2148  0.3301  1.6384
 1416SOL     vw 5664   5.134   1.707   0.543 -0.1023 -0.1512  0.2916
 1417SOL     ow 5665   5.659   1.859   1.175 -0.5332 -0.2001  0.4667
 1417SOL     hw 5666   5.584   1.891   1.224 -0.2210 -0.8462  1.4028
 1417SOL     hw 5667   5.690   1.935   1.126  0.3732  1.1004  2.8377
 1417SOL     vw 5668   5.653   1.873   1.175 -0.3722 -0.1138  0.9031
 1418SOL     ow 5669   1.280   3.716   4.346 -0.0038 -0.1472 -0.4306
 1418SOL     hw 5670   1.282   3.808   4.372 -1.3007 -0.8206  2.3868
 1418SOL     hw 5671   1.371   3.686   4.354  0.0632  0.3640  0.8289
 1418SOL     vw 5672   1.292   3.724   4.350 -0.1661 -0.1687  0.1073
 1419SOL     ow 5673   3.665   5.865   2.308  0.0614  0.3682  0.7206
 1419SOL     hw 5674   3.604   5.798   2.278  0.3100  0.5912 -0.3338
 1419SOL     hw 5675   3.699   5.832   2.391  0.5729 -1.0743 -0.0255
 1419SOL     vw 5676   3.661   5.852   2.315  0.1616  0.2074  0.4829
 1420SOL     ow 5677   1.035   2.865   5.857 -0.3555 -0.5678  0.8080
 1420SOL     hw 5678   1.066   2.858   5.766 -0.6934  0.4866  0.6041
 1420SOL     hw 5679   1.003   2.955   5.865 -2.6975 -1.3577  1.2097
 1420SOL     vw 5680   1.035   2.876   5.846 -0.7091 -0.5329  0.8342
 1421SOL     ow 5681   2.037   1.232   6.287  0.2483 -0.1628 -0.2430
 1421SOL     hw 5682   2.029   1.207   6.379  1.7881  0.8379  0.2012
 1421SOL     hw 5683   1.955   1.204   6.247 -0.1281 -1.3121  1.2645
 1421SOL     vw 5684   2.025   1.225   6.294  0.4019 -0.1825  0.0141
 1422SOL     ow 5685   6.074   3.174   3.933  0.5956  0.2972 -0.1313
 1422SOL     hw 5686   5.993   3.177   3.882 -0.3143 -0.0079  1.2169
 1422SOL     hw 5687   6.118   3.094   3.904 -0.8569 -0.9262  0.8685
 1422SOL     vw 5688   6.069   3.164   3.922  0.2840  0.0956  0.1785
 1423SOL     ow 5689   5.441   5.044   2.240 -0.8163  0.5913 -0.3661
 1423SOL     hw 5690   5.503   4.972   2.251  0.4968  1.0324 -3.6108
 1423SOL     hw 5691   5.375   5.030   2.308  0.8802 -2.0091  0.9113
 1423SOL     vw 5692   5.440   5.032   2.250 -0.4189  0.3064 -0.6256
 1424SOL     ow 5693   5.808   3.510   5.909  0.1384 -0.0751 -0.1045
 1424SOL     hw 5694   5.721   3.509   5.868  0.5784 -0.9634 -1.0497
 1424SOL     hw 5695   5.799   3.457   5.987 -0.5009  0.9545  0.5494
 1424SOL     vw 5696   5.795   3.503   5.914  0.1125 -0.0564 -0.1426
 1425SOL     ow 5697   6.696   0.656   0.261  0.6553  0.5332 -0.6616
 1425SOL     hw 5698   6.751   0.618   0.330 -0.7523 -0.8045 -0.2189
 1425SOL     hw 5699   6.706   0.750   0.273  0.6838  0.3405  1.2026
 1425SOL     vw 5700   6.705   0.663   0.272  0.4735  0.3313 -0.3573
 1426SOL     ow 5701   6.944   2.495   4.337 -0.0512 -0.8644 -0.5356
 1426SOL     hw 5702   6.888   2.477   4.412  0.8172  0.3958  0.4756
 1426SOL     hw 5703   6.915   2.581   4.305 -0.8621 -1.6828 -2.1045
 1426SOL     vw 5704   6.933   2.504   4.342 -0.0436 -0.8061 -0.6092
 1427SOL     ow 5705   3.222   1.023   4.545  0.2290 -0.3278  0.3059
 1427SOL     hw 5706   3.158   0.992   4.610  0.6070 -0.6023  0.5533
 1427SOL     hw 5707   3.306   0.988   4.576  0.5074  0.0680  0.0106
 1427SOL     vw 5708   3.225   1.014   4.558  0.3157 -0.3119  0.2997
 1428SOL     ow 5709   2.769   0.885   4.001 -0.6209  0.1230 -0.1713
 1428SOL     hw 5710   2.801   0.826   3.933 -0.8362  0.9557 -1.0140
 1428SOL     hw 5711   2.742   0.827   4.073  1.9279 -0.6685  0.2587
 1428SOL     vw 5712   2.769   0.870   4.002 -0.3132  0.1285 -0.2258
 1429SOL     ow 5713   5.684   4.748   0.448  0.7979  0.2066  0.1794
 1429SOL     hw 5714   5.725   4.835   0.456  1.4845 -0.1305  0.3991
 1429SOL     hw 5715   5.744   4.689   0.494  0.0253 -0.2928  0.5626
 1429SOL     vw 5716   5.698   4.752   0.455  0.7865  0.0963  0.2589
 1430SOL     ow 5717   6.806   1.391   3.669  0.8266 -0.1546  0.3017
 1430SOL     hw 5718   6.822   1.425   3.757 -0.7557 -0.6519  0.8020
 1430SOL     hw 5719   6.745   1.453   3.629  1.8863  0.3251 -0.6436
 1430SOL     vw 5720   6.800   1.404   3.675  0.7579 -0.1569  0.2429
 1431SOL     ow 5721   4.800   4.831   6.652  0.3710 -0.5757  0.1729
 1431SOL     hw 5722   4.847   4.893   6.596 -0.7171 -0.2184 -0.3770
 1431SOL     hw 5723   4.708   4.854   6.642 -0.0141 -1.8590  0.4794
 1431SOL     vw 5724   4.794   4.842   6.643  0.1767 -0.6979  0.1404
 1432SOL     ow 5725   1.103   0.002   2.222 -0.1041  0.0268 -0.1661
 1432SOL     hw 5726   1.087   0.081   2.273  0.0416  2.2094 -3.2014
 1432SOL     hw 5727   1.194  -0.022   2.241  0.1279  1.1311  0.1707
 1432SOL     vw 5728   1.113   0.009   2.231 -0.0543  0.4604 -0.5221
 1433SOL     ow 5729   3.335   5.286   0.974  0.3173  0.2399  0.1510
 1433SOL     hw 5730   3.268   5.329   0.921 -1.4268 -1.7014  0.6615
 1433SOL     hw 5731   3.400   5.257   0.910 -0.4582  0.2026 -0.6459
 1433SOL     vw 5732   3.335   5.288   0.958 -0.0150 -0.0212  0.1132
 1434SOL     ow 5733   5.557   5.310   2.315 -0.0679 -0.4566  0.2681
 1434SOL     hw 5734   5.496   5.359   2.371 -0.5882  0.4609 -1.0325
 1434SOL     hw 5735   5.632   5.368   2.305 -0.2310 -0.3640 -0.4431
 1434SOL     vw 5736   5.559   5.324   2.321 -0.1581 -0.3235  0.0026
 1435SOL     ow 5737   2.651   0.911   0.515 -0.1171  0.0309 -0.5210
 1435SOL     hw 5738   2.556   0.919   0.522 -0.1519 -0.3981 -0.5070
 1435SOL     hw 5739   2.666   0.826   0.473  0.2579  0.1241 -0.5848
 1435SOL     vw 5740   2.641   0.901   0.510 -0.0721 -0.0134 -0.5276
 1436SOL     ow 5741   1.642   3.573   0.479 -0.2104  0.1759  0.8939
 1436SOL     hw 5742   1.732   3.590   0.506 -0.0877 -1.1974  1.4048
 1436SOL     hw 5743   1.589   3.623   0.540  0.1779  0.0284  1.3560
 1436SOL     vw 5744   1.647   3.582   0.490 -0.1429 -0.0249  1.0223
 1437SOL     ow 5745   6.236   5.769   0.977 -0.2390 -0.3402 -0.1338
 1437SOL     hw 5746   6.207   5.798   1.063 -0.7340 -1.4668  0.1090
 1437SOL     hw 5747   6.223   5.845   0.920  1.2759  0.8182  1.0066
 1437SOL     vw 5748   6.230   5.783   0.981 -0.1044 -0.3362  0.0487
 1438SOL     ow 5749   0.018   6.932   5.298 -0.5296  0.3313 -0.2046
 1438SOL     hw 5750   0.099   6.965   5.260 -0.1279 -0.9094 -0.4814
 1438SOL     hw 5751  -0.049   6.953   5.232  0.0826 -1.3451 -1.4356
 1438SOL     vw 5752   0.020   6.939   5.284 -0.3960 -0.0534 -0.4036
 1439SOL     ow 5753   0.880   4.701   1.522  0.3397  0.2217  0.0311
 1439SOL     hw 5754   0.815   4.668   1.583  0.6117  3.0227  2.0232
 1439SOL     hw 5755   0.964   4.682   1.564  1.2295 -4.6597 -3.1515
 1439SOL     vw 5756   0.883   4.694   1.535  0.4929 -0.0529 -0.1260
 1440SOL     ow 5757   1.447   4.185   1.301  0.2563  0.1372  0.4124
 1440SOL     hw 5758   1.524   4.128   1.301  0.3793  0.2169  2.7256
 1440SOL     hw 5759   1.476   4.266   1.259  0.5568 -0.8470 -1.3860
 1440SOL     vw 5760   1.461   4.188   1.295  0.3121  0.0184  0.4803
 1441SOL     ow 5761   4.321   5.954   4.546  0.4595 -0.2186 -0.0871
 1441SOL     hw 5762   4.310   6.034   4.493 -2.0602 -2.0477 -2.6588
 1441SOL     hw 5763   4.285   5.977   4.631 -1.5642  1.0880 -1.2050
 1441SOL     vw 5764   4.315   5.968   4.550 -0.1400 -0.2873 -0.5739
 1442SOL     ow 5765   4.414   6.598   4.046 -0.1923  0.0504  0.4093
 1442SOL     hw 5766   4.488   6.540   4.031  1.3829  1.9811  0.4403
 1442SOL     hw 5767   4.430   6.636   4.132 -0.0117  2.1364 -0.4920
 1442SOL     vw 5768   4.426   6.596   4.055  0.0396  0.5805  0.2947
 1443SOL     ow 5769   1.039   3.429   5.292 -0.4447 -0.0619  0.2144
 1443SOL     hw 5770   1.089   3.390   5.363 -0.6535 -1.1651 -0.2293
 1443SOL     hw 5771   1.101   3.440   5.221 -0.6510 -0.6906 -0.0653
 1443SOL     vw 5772   1.053   3.426   5.292 -0.4994 -0.2905  0.1187
 1444SOL     ow 5773   5.249   0.481   6.918 -0.3591 -0.0899 -0.0103
 1444SOL     hw 5774   5.210   0.488   7.005 -1.8964  1.1235 -0.7567
 1444SOL     hw 5775   5.199   0.411   6.875 -1.5350  1.2103 -0.8405
 1444SOL     vw 5776   5.237   0.472   6.924 -0.7174  0.2418 -0.2182
 1445SOL     ow 5777   2.559   2.392   5.195 -0.4776 -0.7618  0.0476
 1445SOL     hw 5778   2.588   2.460   5.135  0.0226 -1.6027 -0.6799
 1445SOL     hw 5779   2.468   2.415   5.215  0.0142  0.7164  0.6893
 1445SOL     vw 5780   2.550   2.404   5.190 -0.3468 -0.6778  0.0362
 1446SOL     ow 5781   2.418   6.545   2.354 -0.3626  0.0893  0.5652
 1446SOL     hw 5782   2.370   6.523   2.434  0.0962 -1.0132  0.5574
 1446SOL     hw 5783   2.431   6.461   2.310  0.9360  0.4527  0.2060
 1446SOL     vw 5784   2.413   6.531   2.359 -0.1308 -0.0083  0.5167
 1447SOL     ow 5785   0.799   1.408   5.847  0.0532  0.2367  0.2495
 1447SOL     hw 5786   0.864   1.363   5.794  0.0529 -1.1933  1.3780
 1447SOL     hw 5787   0.845   1.431   5.928 -0.7469 -0.6563  0.9990
 1447SOL     vw 5788   0.813   1.405   5.851 -0.0524 -0.0698  0.4973
 1448SOL     ow 5789   1.675   6.899   0.444 -0.2359 -0.7514 -0.2505
 1448SOL     hw 5790   1.742   6.836   0.472 -0.9026 -0.6669  1.7199
 1448SOL     hw 5791   1.652   6.873   0.355  0.6209 -2.3313 -0.0346
 1448SOL     vw 5792   1.681   6.887   0.436 -0.2108 -0.9484  0.0379
 1449SOL     ow 5793   6.512   0.089   2.002  0.3631 -0.0794 -0.0017
 1449SOL     hw 5794   6.465   0.100   2.085 -0.1907 -0.1586 -0.2976
 1449SOL     hw 5795   6.582   0.027   2.022  0.4522  0.1693  0.4887
 1449SOL     vw 5796   6.515   0.082   2.016  0.3018 -0.0570  0.0240
 1450SOL     ow 5797   4.377   5.703   1.459  0.2710  0.0357 -0.7441
 1450SOL     hw 5798   4.365   5.798   1.449  0.6264  0.1781  0.0603
 1450SOL     hw 5799   4.289   5.666   1.447 -0.7862  0.8683  3.0775
 1450SOL     vw 5800   4.363   5.711   1.456  0.1786  0.1643 -0.1338
 1451SOL     ow 5801   2.466   3.978   1.916  0.2767 -0.2786 -0.0619
 1451SOL     hw 5802   2.493   3.910   1.978 -0.0336  0.0293  0.4201
 1451SOL     hw 5803   2.422   3.930   1.845  1.0803 -0.6768 -0.2985
 1451SOL     vw 5804   2.464   3.963   1.915  0.3417 -0.2905 -0.0295
 1452SOL     ow 5805   0.315   3.270   0.766 -0.1029  0.7161 -0.4811
 1452SOL     hw 5806   0.287   3.292   0.677 -2.6366  1.3958  0.3837
 1452SOL     hw 5807   0.256   3.200   0.792  0.7153  0.4247  0.6100
 1452SOL     vw 5808   0.303   3.264   0.757 -0.3293  0.7672 -0.2231
 1453SOL     ow 5809   6.235   2.133   5.054  0.0530  0.5137  0.0832
 1453SOL     hw 5810   6.193   2.047   5.049  2.0426 -0.6085  1.3301
 1453SOL     hw 5811   6.327   2.117   5.033  0.5077  2.3130  0.4736
 1453SOL     vw 5812   6.241   2.120   5.051  0.3755  0.6030  0.2992
 1454SOL     ow 5813   6.012   5.722   5.478  0.1871 -0.0058 -0.1404
 1454SOL     hw 5814   6.097   5.731   5.521 -1.4454 -0.1108  3.5919
 1454SOL     hw 5815   5.978   5.638   5.510 -2.4345  1.3577  0.9402
 1454SOL     vw 5816   6.019   5.712   5.488 -0.3743  0.1605  0.4945
 1455SOL     ow 5817   4.247   4.313   3.163 -0.1090 -0.4650  0.0253
 1455SOL     hw 5818   4.325   4.274   3.203  0.5790 -0.9236 -1.6951
 1455SOL     hw 5819   4.215   4.375   3.229  1.9834  0.0820  0.5888
 1455SOL     vw 5820   4.253   4.316   3.177  0.2577 -0.4535 -0.1274
 1456SOL     ow 5821   0.940   2.853   4.871  0.6040 -0.1903  0.0535
 1456SOL     hw 5822   1.008   2.911   4.836  0.2924 -1.4011 -2.8061
 1456SOL     hw 5823   0.869   2.857   4.807  0.3483 -3.3015  0.0107
 1456SOL     vw 5824   0.940   2.861   4.858  0.5292 -0.7604 -0.3290
 1457SOL     ow 5825   2.142   5.935   4.672 -0.5709 -0.3191 -0.0965
 1457SOL     hw 5826   2.100   6.013   4.635 -1.2460 -0.3028  0.6718
 1457SOL     hw 5827   2.213   5.915   4.612 -0.3370  0.9455 -0.2640
 1457SOL     vw 5828   2.146   5.943   4.659 -0.6292 -0.1500 -0.0172
 1458SOL     ow 5829   0.896   0.140   5.746 -0.1592 -0.3372  0.3164
 1458SOL     hw 5830   0.836   0.066   5.757 -2.2696  1.3044  0.5091
 1458SOL     hw 5831   0.867   0.183   5.666  0.7472  0.5163  0.4306
 1458SOL     vw 5832   0.884   0.136   5.737 -0.3180 -0.0080  0.3569
 1459SOL     ow 5833   6.642   6.505   2.879  0.6424 -0.2083  0.2454
 1459SOL     hw 5834   6.606   6.539   2.961  0.8264 -0.0032  0.2438
 1459SOL     hw 5835   6.737   6.503   2.893  0.8100  1.2420 -0.4769
 1459SOL     vw 5836   6.650   6.509   2.891  0.6890  0.0103  0.1500
 1460SOL     ow 5837   2.894   5.923   0.160 -0.0058 -0.2041  0.7542
 1460SOL     hw 5838   2.802   5.896   0.157 -0.5271  1.1629  2.6488
 1460SOL     hw 5839   2.937   5.855   0.212  0.2960 -1.3377 -0.9029
 1460SOL     vw 5840   2.887   5.910   0.166 -0.0347 -0.1733  0.7855
 1461SOL     ow 5841   4.624   1.945   4.495 -0.2303  0.1418  0.3350
 1461SOL     hw 5842   4.656   1.855   4.486 -0.9335 -0.2135  1.1729
 1461SOL     hw 5843   4.631   1.982   4.407  1.2577 -0.3095  0.2349
 1461SOL     vw 5844   4.629   1.938   4.482 -0.1271  0.0354  0.4323
 1462SOL     ow 5845   1.538   2.898   2.706  0.2056  0.5604  0.2091
 1462SOL     hw 5846   1.608   2.841   2.673  0.3047  0.7653  0.0624
 1462SOL     hw 5847   1.558   2.984   2.670 -0.1874  0.5973  0.0751
 1462SOL     vw 5848   1.550   2.902   2.697  0.1669  0.5924  0.1721
 1463SOL     ow 5849   5.102   1.956   6.780 -0.0134 -0.3094  0.1382
 1463SOL     hw 5850   5.024   2.007   6.802  0.6959  0.3241  1.3013
 1463SOL     hw 5851   5.086   1.869   6.815 -0.1195 -0.1250  0.5466
 1463SOL     vw 5852   5.090   1.951   6.787  0.0663 -0.2014  0.3452
 1464SOL     ow 5853   4.362   5.043   1.366  0.6507  0.3261  0.6247
 1464SOL     hw 5854   4.435   5.052   1.427  1.9970 -0.6359 -0.7495
 1464SOL     hw 5855   4.360   5.125   1.317  0.8124  0.3613  0.6785
 1464SOL     vw 5856   4.371   5.055   1.367  0.8495  0.2038  0.4506
 1465SOL     ow 5857   6.643   3.025   6.806  0.1195 -0.0045  0.3190
 1465SOL     hw 5858   6.584   2.954   6.827 -0.3427  0.4030  0.4144
 1465SOL     hw 5859   6.721   3.009   6.860 -0.5020  0.2777  1.3322
 1465SOL     vw 5860   6.646   3.014   6.816 -0.0236  0.0864  0.4652
 1466SOL     ow 5861   2.713   4.516   6.911  0.2858  0.5588 -0.2804
 1466SOL     hw 5862   2.630   4.469   6.910  0.5893 -0.0123  0.3570
 1466SOL     hw 5863   2.713   4.563   6.994  1.1770 -0.5409  0.3689
 1466SOL     vw 5864   2.702   4.516   6.921  0.4435  0.3383 -0.1104
 1467SOL     ow 5865   3.920   2.366   5.767  0.2699 -0.3874  0.6032
 1467SOL     hw 5866   3.974   2.429   5.817 -0.0188  0.2059  0.1695
 1467SOL     hw 5867   3.912   2.290   5.826  1.0826 -0.2460  0.9113
 1467SOL     vw 5868   3.926   2.364   5.782  0.3389 -0.2905  0.5867
 1468SOL     ow 5869   5.917   4.021   6.925  0.2767  0.4723  0.3451
 1468SOL     hw 5870   5.918   3.927   6.943  1.0664  0.3238 -0.4346
 1468SOL     hw 5871   5.996   4.037   6.873  0.3707  1.6379  0.8082
 1468SOL     vw 5872   5.928   4.011   6.921  0.3932  0.6068  0.3033
 1469SOL     ow 5873   4.839   3.440   0.908 -0.2595 -0.5428 -0.3648
 1469SOL     hw 5874   4.877   3.372   0.853  1.3490  0.5581 -0.6612
 1469SOL     hw 5875   4.768   3.477   0.855 -0.7347 -1.5484 -0.4457
 1469SOL     vw 5876   4.835   3.436   0.893 -0.1099 -0.5301 -0.4146
 1470SOL     ow 5877   1.303   5.106   3.854 -0.1395  0.5440 -0.0599
 1470SOL     hw 5878   1.322   5.147   3.938  1.6020 -1.3622  0.5604
 1470SOL     hw 5879   1.389   5.091   3.814 -0.8130 -0.5924 -1.1728
 1470SOL     vw 5880   1.317   5.109   3.860  0.0014  0.1426 -0.1248
 1471SOL     ow 5881   6.563   5.978   2.179 -0.1150  0.5126  0.7741
 1471SOL     hw 5882   6.620   5.999   2.253 -1.6021 -1.1794  2.5165
 1471SOL     hw 5883   6.477   6.014   2.204 -0.6614 -0.1319 -0.1182
 1471SOL     vw 5884   6.559   5.986   2.192 -0.3834  0.2041  0.8864
 1472SOL     ow 5885   5.906   3.151   1.913 -0.1208 -0.1390  0.0388
 1472SOL     hw 5886   5.892   3.065   1.873 -1.9461 -0.0739  0.4890
 1472SOL     hw 5887   5.852   3.151   1.992  0.4576  1.1473  0.4698
 1472SOL     vw 5888   5.897   3.140   1.918 -0.2851  0.0392  0.1550
 1473SOL     ow 5889   0.760   4.749   4.633  0.0039 -0.4745 -0.5391
 1473SOL     hw 5890   0.738   4.798   4.554  0.0130  0.0825 -0.2036
 1473SOL     hw 5891   0.676   4.730   4.675  0.0755  0.8509  0.2665
 1473SOL     vw 5892   0.746   4.753   4.628  0.0145 -0.2263 -0.3884
 1474SOL     ow 5893   0.050   1.365   1.859 -0.3259 -0.8287  0.1612
 1474SOL     hw 5894  -0.002   1.400   1.931  0.8540  1.0543  0.1843
 1474SOL     hw 5895   0.123   1.427   1.850  0.8365 -2.2916 -1.1330
 1474SOL     vw 5896   0.053   1.378   1.867 -0.0169 -0.7732 -0.0065
 1475SOL     ow 5897   6.934   5.602   1.285  0.1963  0.0434  0.1664
 1475SOL     hw 5898   6.984   5.658   1.344 -0.3022 -1.7188  2.3957
 1475SOL     hw 5899   6.996   5.578   1.216  0.7405  2.3062 -0.2195
 1475SOL     vw 5900   6.949   5.606   1.283  0.2022  0.1092  0.4097
 1476SOL     ow 5901   4.753   0.968   3.554 -0.5315  0.1591  0.4723
 1476SOL     hw 5902   4.785   0.910   3.485 -1.0430  1.0129 -0.5135
 1476SOL     hw 5903   4.821   0.965   3.622  0.1992 -0.3483 -0.2751
 1476SOL     vw 5904   4.766   0.960   3.554 -0.5026  0.2048  0.2435
 1477SOL     ow 5905   6.560   4.802   6.247 -0.2600 -0.1265  0.3731
 1477SOL     hw 5906   6.590   4.771   6.333 -1.8633  0.0185  1.0130
 1477SOL     hw 5907   6.498   4.736   6.218  1.4628 -1.0311 -1.4800
 1477SOL     vw 5908   6.556   4.790   6.255 -0.2441 -0.2265  0.2131
 1478SOL     ow 5909   1.354   6.484   6.164  0.4264 -0.3908 -0.4846
 1478SOL     hw 5910   1.347   6.579   6.152 -0.2708 -0.4780 -0.7819
 1478SOL     hw 5911   1.266   6.451   6.148  0.4386 -0.9902  0.5968
 1478SOL     vw 5912   1.342   6.492   6.160  0.3360 -0.4814 -0.3810
 1479SOL     ow 5913   4.518   1.668   6.385  0.1275 -0.1212 -0.5255
 1479SOL     hw 5914   4.448   1.619   6.341  0.0317 -0.6871  0.2277
 1479SOL     hw 5915   4.570   1.705   6.314 -1.0856  0.5370 -1.1031
 1479SOL     vw 5916   4.516   1.666   6.370 -0.0455 -0.1090 -0.5023
 1480SOL     ow 5917   4.166   3.706   3.429  0.0547 -0.4483  0.5245
 1480SOL     hw 5918   4.204   3.651   3.361 -0.3681  1.0811 -1.0188
 1480SOL     hw 5919   4.082   3.666   3.450  0.3215 -1.0913  0.3877
 1480SOL     vw 5920   4.160   3.694   3.423  0.0339 -0.3313  0.3029
 1481SOL     ow 5921   3.922   6.244   5.451  0.0098  0.3813  0.5649
 1481SOL     hw 5922   3.900   6.192   5.528 -0.4571 -0.6917 -0.2700
 1481SOL     hw 5923   3.972   6.184   5.395  1.8329  1.6396  0.7453
 1481SOL     vw 5924   3.926   6.229   5.454  0.1887  0.4060  0.4783
 1482SOL     ow 5925   2.280   4.363   5.945  0.1920  0.0163 -0.1916
 1482SOL     hw 5926   2.277   4.458   5.952  1.9812  0.2754 -2.1921
 1482SOL     hw 5927   2.357   4.337   5.996 -1.1332 -0.5861  1.6314
 1482SOL     vw 5928   2.289   4.372   5.953  0.2532 -0.0288 -0.2148
 1483SOL     ow 5929   1.140   0.639   4.177 -0.0364  0.2658 -0.2695
 1483SOL     hw 5930   1.051   0.655   4.209 -0.1528 -0.5787 -0.1544
 1483SOL     hw 5931   1.183   0.591   4.247  0.2341 -0.1187 -0.6908
 1483SOL     vw 5932   1.134   0.635   4.190 -0.0162  0.1037 -0.3099
 1484SOL     ow 5933   3.829   5.122   6.493  0.0831  0.5233 -0.1670
 1484SOL     hw 5934   3.741   5.089   6.474 -0.9597  2.7197  0.4923
 1484SOL     hw 5935   3.883   5.043   6.502 -1.6495 -0.8612 -1.2944
 1484SOL     vw 5936   3.825   5.107   6.492 -0.2832  0.6304 -0.2289
 1485SOL     ow 5937   6.931   4.870   5.827 -0.1297 -0.4125  0.0651
 1485SOL     hw 5938   6.858   4.899   5.771  0.6301  1.8537  0.1374
 1485SOL     hw 5939   6.974   4.801   5.776 -2.0531 -1.5217 -0.1491
 1485SOL     vw 5940   6.927   4.865   5.813 -0.2830 -0.2599  0.0463
 1486SOL     ow 5941   1.643   3.222   3.181 -0.0327  0.1294 -0.4206
 1486SOL     hw 5942   1.615   3.312   3.196 -0.4032  0.2271 -1.5761
 1486SOL     hw 5943   1.580   3.188   3.118  0.3633 -0.7995 -0.3282
 1486SOL     vw 5944   1.631   3.229   3.175 -0.0293  0.0198 -0.5609
 1487SOL     ow 5945   5.241   1.250   4.331 -0.3119 -0.2937 -0.2454
 1487SOL     hw 5946   5.336   1.258   4.345 -0.3799  0.4985 -0.1701
 1487SOL     hw 5947   5.212   1.340   4.314 -1.0447 -0.5389 -0.3231
 1487SOL     vw 5948   5.250   1.263   4.330 -0.4175 -0.2216 -0.2456
 1488SOL     ow 5949   3.266   3.505   3.894  0.5832  0.3376 -0.5278
 1488SOL     hw 5950   3.296   3.489   3.984  1.0826  1.2235 -0.5286
 1488SOL     hw 5951   3.276   3.420   3.851 -1.0115 -0.4893  0.6024
 1488SOL     vw 5952   3.272   3.492   3.900  0.4386  0.3453 -0.3788
 1489SOL     ow 5953   2.863   1.462   5.675 -0.4380 -0.0168  0.5362
 1489SOL     hw 5954   2.774   1.439   5.702 -0.2292 -0.5243  0.8127
 1489SOL     hw 5955   2.889   1.390   5.617  0.2364 -0.5187  1.4308
 1489SOL     vw 5956   2.855   1.450   5.671 -0.3214 -0.1500  0.6907
 1490SOL     ow 5957   3.172   1.354   0.090  0.2485 -0.1779  0.1704
 1490SOL     hw 5958   3.197   1.293   0.159 -0.7742 -0.3981  0.3647
 1490SOL     hw 5959   3.163   1.300   0.011  1.4141  0.0728 -0.1554
 1490SOL     vw 5960   3.174   1.339   0.089  0.2673 -0.1739  0.1530
 1491SOL     ow 5961   5.883   1.024   4.425  0.4862 -0.4277 -0.1038
 1491SOL     hw 5962   5.857   1.052   4.513  1.6795 -2.3418  0.9224
 1491SOL     hw 5963   5.842   0.938   4.414  0.7964 -0.4518 -1.2087
 1491SOL     vw 5964   5.874   1.016   4.435  0.6845 -0.6835 -0.1140
 1492SOL     ow 5965   6.000   2.044   5.878  0.0860  0.2327  0.0575
 1492SOL     hw 5966   6.046   2.128   5.882  0.5748  0.0554 -1.3031
 1492SOL     hw 5967   6.011   2.007   5.965  0.2321  1.3831  0.5499
 1492SOL     vw 5968   6.008   2.050   5.890  0.1698  0.3611 -0.0570
 1493SOL     ow 5969   6.033   0.289   1.207  0.1425  0.2434  0.1780
 1493SOL     hw 5970   6.069   0.364   1.160 -0.7087  0.3692 -0.2983
 1493SOL     hw 5971   6.042   0.216   1.145 -0.7070  0.3439 -0.0664
 1493SOL     vw 5972   6.039   0.289   1.193 -0.0818  0.2733  0.0829
 1494SOL     ow 5973   1.341   2.700   1.283  0.6422  0.2964  0.1863
 1494SOL     hw 5974   1.265   2.758   1.274 -0.6140 -1.2824  0.1600
 1494SOL     hw 5975   1.411   2.745   1.235 -1.0572  0.4699 -2.3452
 1494SOL     vw 5976   1.340   2.714   1.275  0.2522  0.1110 -0.1512
 1495SOL     ow 5977   3.100   0.658   6.597  0.2442 -0.2075 -0.3381
 1495SOL     hw 5978   3.043   0.727   6.563 -0.4364 -0.5318  0.1339
 1495SOL     hw 5979   3.189   0.690   6.579 -0.0723 -0.0800 -1.8683
 1495SOL     vw 5980   3.104   0.671   6.590  0.1127 -0.2334 -0.4780
 1496SOL     ow 5981   2.623   0.443   3.327 -0.1950 -0.0557 -0.2939
 1496SOL     hw 5982   2.618   0.381   3.399 -0.2376  0.7237  0.3903
 1496SOL     hw 5983   2.682   0.402   3.264  1.6161  0.1992  1.1628
 1496SOL     vw 5984   2.630   0.430   3.328  0.0383  0.0808 -0.0114
 1497SOL     ow 5985   4.986   5.204   0.184 -0.4473 -0.2064 -0.4687
 1497SOL     hw 5986   5.045   5.278   0.195 -2.2535  1.4402 -1.1868
 1497SOL     hw 5987   4.990   5.185   0.090 -1.2684  0.1632 -0.5924
 1497SOL     vw 5988   4.994   5.211   0.173 -0.7939  0.0594 -0.5798
 1498SOL     ow 5989   5.810   5.363   3.975  0.2418  0.1635  0.0867
 1498SOL     hw 5990   5.854   5.417   4.041  0.6451 -0.9827  0.7993
 1498SOL     hw 5991   5.733   5.329   4.020  0.3959 -0.4459 -0.1009
 1498SOL     vw 5992   5.806   5.365   3.990  0.3152 -0.0679  0.1559
 1499SOL     ow 5993   5.084   4.893   5.338 -0.0823 -0.2068 -0.6642
 1499SOL     hw 5994   5.067   4.922   5.428  1.1417  0.5909 -0.6637
 1499SOL     hw 5995   5.141   4.817   5.349 -1.2570 -1.1225 -0.7393
 1499SOL     vw 5996   5.089   4.887   5.351 -0.0756 -0.2227 -0.6738
 1500SOL     ow 5997   1.991   5.001   3.742 -0.5796  0.3273  0.2584
 1500SOL     hw 5998   1.912   4.949   3.757 -0.5934  0.4606  0.6559
 1500SOL     hw 5999   2.006   5.046   3.825  2.0871 -2.5998  1.5779
 1500SOL     vw 6000   1.982   5.000   3.755 -0.2296 -0.0415  0.4849
 1501SOL     ow 6001   4.360   3.817   2.131  0.5434 -0.1379  0.1931
 1501SOL     hw 6002   4.375   3.773   2.214 -0.4765  1.2833  1.1701
 1501SOL     hw 6003   4.375   3.910   2.149 -0.2696  0.2682 -1.0534
 1501SOL     vw 6004   4.364   3.824   2.144  0.3016  0.1031  0.1577
 1502SOL     ow 6005   3.409   0.692   0.245 -0.0251  0.0326  0.1373
 1502SOL     hw 6006   3.402   0.658   0.335 -1.5470  0.3614  0.1746
 1502SOL     hw 6007   3.399   0.787   0.254  0.2564  0.1106 -0.3422
 1502SOL     vw 6008   3.407   0.700   0.258 -0.1889  0.0863  0.0789
 1503SOL     ow 6009   2.389   3.745   0.721  0.2645  0.2829  0.3102
 1503SOL     hw 6010   2.403   3.725   0.629  1.2420  0.6493  0.3719
 1503SOL     hw 6011   2.413   3.838   0.730  0.7816  0.0919  1.0425
 1503SOL     vw 6012   2.394   3.755   0.710  0.4615  0.3061  0.4149
 1504SOL     ow 6013   3.081   5.297   0.148 -0.2434 -0.3937 -0.2759
 1504SOL     hw 6014   3.017   5.306   0.218  0.6712  0.8283  0.4481
 1504SOL     hw 6015   3.157   5.255   0.189  1.1170  2.2234  0.0968
 1504SOL     vw 6016   3.083   5.293   0.162  0.0566  0.1130 -0.1312
 1505SOL     ow 6017   0.445   1.839   3.809 -0.2274 -0.1600  0.0760
 1505SOL     hw 6018   0.430   1.758   3.858 -1.0870 -0.5276 -0.7661
 1505SOL     hw 6019   0.383   1.901   3.847  0.9301  0.3484  1.2161
 1505SOL     vw 6020   0.435   1.836   3.821 -0.1881 -0.1414  0.1153
 1506SOL     ow 6021   4.873   5.059   0.413  0.4655  0.2757  0.7276
 1506SOL     hw 6022   4.832   4.978   0.443 -0.6952  0.5061 -0.1820
 1506SOL     hw 6023   4.910   5.098   0.493  2.6644 -1.9974  0.9424
 1506SOL     vw 6024   4.873   5.053   0.428  0.6025  0.0062  0.6360
 1507SOL     ow 6025   3.101   3.781   0.433  0.0584  0.4835 -0.0433
 1507SOL     hw 6026   3.192   3.794   0.409  0.1379  1.3108  0.6630
 1507SOL     hw 6027   3.090   3.686   0.435  1.1869  0.3581  0.9129
 1507SOL     vw 6028   3.111   3.770   0.430  0.2178  0.5760  0.1761
 1508SOL     ow 6029   3.954   2.417   4.049  0.2290 -0.2492 -0.9051
 1508SOL     hw 6030   3.872   2.461   4.073  0.3311  0.2550 -1.4621
 1508SOL     hw 6031   3.985   2.378   4.131  0.7473  1.7178 -0.1117
 1508SOL     vw 6032   3.947   2.417   4.063  0.3108  0.0768 -0.8740
 1509SOL     ow 6033   3.987   3.118   2.860  0.2893 -0.3109  0.0845
 1509SOL     hw 6034   3.976   3.071   2.777 -2.0125  0.3131 -0.0199
 1509SOL     hw 6035   3.990   3.049   2.926 -1.7598 -0.7399 -0.1952
 1509SOL     vw 6036   3.986   3.103   2.857 -0.2848 -0.2853  0.0339
 1510SOL     ow 6037   3.494   5.989   1.968  0.7244 -0.1242 -0.4336
 1510SOL     hw 6038   3.508   6.063   2.027 -1.4116 -0.4776  0.6143
 1510SOL     hw 6039   3.445   5.925   2.020 -0.4654 -0.8251 -2.2975
 1510SOL     vw 6040   3.489   5.990   1.982  0.2855 -0.2635 -0.5412
 1511SOL     ow 6041   4.526   6.983   6.965  0.6880 -0.2936  0.1133
 1511SOL     hw 6042   4.590   6.922   6.927 -1.1746 -1.4972 -1.2651
 1511SOL     hw 6043   4.459   6.926   7.003 -0.0455  0.9382  0.7099
 1511SOL     vw 6044   4.526   6.967   6.965  0.3455 -0.2899  0.0103
 1512SOL     ow 6045   1.943   2.193   6.517 -0.2468 -0.3504 -0.2144
 1512SOL     hw 6046   1.856   2.178   6.480  0.1697  0.9558 -1.8213
 1512SOL     hw 6047   2.002   2.143   6.461  0.0077 -2.1525  1.5274
 1512SOL     vw 6048   1.939   2.184   6.505 -0.1582 -0.4157 -0.1967
 1513SOL     ow 6049   5.135   5.774   0.963  0.1815 -0.6072  0.3814
 1513SOL     hw 6050   5.165   5.794   0.874 -2.8535 -0.1732 -0.6549
 1513SOL     hw 6051   5.086   5.693   0.954 -2.0206  0.5517  1.1309
 1513SOL     vw 6052   5.132   5.766   0.950 -0.5093 -0.3972  0.3436
 1514SOL     ow 6053   5.194   0.755   0.842 -0.1793 -0.5160  0.2314
 1514SOL     hw 6054   5.156   0.673   0.875 -3.8032  0.9937  0.2737
 1514SOL     hw 6055   5.209   0.740   0.749 -0.6401 -1.2730  0.2758
 1514SOL     vw 6056   5.191   0.742   0.834 -0.7181 -0.4167  0.2429
 1515SOL     ow 6057   2.393   2.028   4.449  0.6317 -0.1768 -0.1385
 1515SOL     hw 6058   2.411   1.975   4.371  0.0124 -0.9378  0.2213
 1515SOL     hw 6059   2.407   1.969   4.522 -0.6600 -0.0373  0.2542
 1515SOL     vw 6060   2.397   2.013   4.448  0.3796 -0.2587 -0.0393
 1516SOL     ow 6061   4.000   3.879   2.821 -0.6229  0.3600  0.2037
 1516SOL     hw 6062   4.069   3.858   2.758 -0.0509  0.0430  0.9299
 1516SOL     hw 6063   3.931   3.815   2.802  0.3039 -0.9477  1.0983
 1516SOL     vw 6064   4.000   3.868   2.810 -0.4252  0.1457  0.4175
 1517SOL     ow 6065   4.106   5.373   0.630 -0.5926  0.2069 -0.2814
 1517SOL     hw 6066   4.113   5.346   0.539 -0.6718  0.0088 -0.2276
 1517SOL     hw 6067   4.195   5.397   0.655 -0.9782  2.9800 -1.2550
 1517SOL     vw 6068   4.119   5.373   0.621 -0.6540  0.5465 -0.4028
 1518SOL     ow 6069   3.618   2.810   6.029  0.7840  0.6828 -0.4247
 1518SOL     hw 6070   3.707   2.791   6.058  0.7741  0.2574 -0.6703
 1518SOL     hw 6071   3.621   2.901   5.999  1.3115  0.4484 -1.1120
 1518SOL     vw 6072   3.630   2.820   6.029  0.8523  0.5957 -0.5476
 1519SOL     ow 6073   1.380   5.474   6.736  0.7376  0.6654 -0.1442
 1519SOL     hw 6074   1.464   5.430   6.723 -0.1214 -0.7103 -1.5027
 1519SOL     hw 6075   1.347   5.439   6.818 -0.2926 -2.0323 -1.5742
 1519SOL     vw 6076   1.387   5.463   6.745  0.4883  0.1283 -0.5124
 1520SOL     ow 6077   3.857   5.994   2.715  0.5446 -0.3523  0.0980
 1520SOL     hw 6078   3.829   5.947   2.637 -0.4344  1.3008 -0.6036
 1520SOL     hw 6079   3.828   6.084   2.700  0.9308  0.1444  2.0693
 1520SOL     vw 6080   3.849   6.000   2.703  0.4662 -0.0689  0.2655
 1521SOL     ow 6081   2.726   0.337   3.103 -0.2115  0.3704  0.2280
 1521SOL     hw 6082   2.681   0.256   3.124  0.1266  0.1485  0.0931
 1521SOL     hw 6083   2.699   0.358   3.014  0.3090 -0.0079 -0.0242
 1521SOL     vw 6084   2.717   0.329   3.094 -0.0981  0.2913  0.1769
 1522SOL     ow 6085   1.323   1.016   6.134  0.3044 -0.0813 -0.0186
 1522SOL     hw 6086   1.334   0.928   6.096  1.4167 -1.1823  2.5984
 1522SOL     hw 6087   1.412   1.049   6.142 -0.0361  0.8346  0.0083
 1522SOL     vw 6088   1.336   1.008   6.130  0.4062 -0.1057  0.3302
 1523SOL     ow 6089   3.819   5.448   0.647  0.5153  0.2251 -0.5424
 1523SOL     hw 6090   3.834   5.448   0.552  3.0721 -1.7490 -0.2478
 1523SOL     hw 6091   3.742   5.392   0.659  1.2409 -1.0014 -1.3868
 1523SOL     vw 6092   3.811   5.441   0.636  0.9484 -0.1974 -0.6149
 1524SOL     ow 6093   6.261   6.090   4.409  0.0996  0.1251  0.6369
 1524SOL     hw 6094   6.169   6.063   4.400 -0.3605  1.7561  0.1028
 1524SOL     hw 6095   6.297   6.029   4.473 -1.6645  0.1635  1.7432
 1524SOL     vw 6096   6.253   6.078   4.416 -0.1941  0.3455  0.7122
 1525SOL     ow 6097   2.096   5.723   4.919 -0.5373 -0.0680  0.1210
 1525SOL     hw 6098   2.115   5.645   4.867 -2.8344 -0.9391  0.4554
 1525SOL     hw 6099   2.050   5.690   4.996 -1.4922  1.6091  0.3295
 1525SOL     vw 6100   2.093   5.708   4.922 -0.9663  0.0386  0.1926
 1526SOL     ow 6101   4.786   3.172   1.163 -0.1330  0.0679 -0.1955
 1526SOL     hw 6102   4.860   3.122   1.197 -0.3847  0.1694  0.5170
 1526SOL     hw 6103   4.764   3.128   1.081  0.9017  0.2194 -0.5686
 1526SOL     vw 6104   4.793   3.160   1.157 -0.0298  0.1013 -0.1507
 1527SOL     ow 6105   5.051   1.048   1.760 -0.2862 -0.4990 -0.0356
 1527SOL     hw 6106   5.140   1.018   1.775 -0.1508 -0.2736 -0.3747
 1527SOL     hw 6107   5.053   1.088   1.673 -0.8855 -1.1399 -0.3558
 1527SOL     vw 6108   5.063   1.049   1.750 -0.3474 -0.5538 -0.1225
 1528SOL     ow 6109   1.654   5.766   5.997 -0.2241  0.1722 -0.5990
 1528SOL     hw 6110   1.578   5.794   6.049  0.1110  2.7810 -1.3574
 1528SOL     hw 6111   1.716   5.838   6.005  0.9171 -0.5309 -2.4470
 1528SOL     vw 6112   1.652   5.779   6.005 -0.0293  0.4237 -0.9429
 1529SOL     ow 6113   4.544   3.038   3.734  0.4414 -0.3091 -0.0202
 1529SOL     hw 6114   4.624   3.083   3.760 -0.2241  1.5831 -1.0468
 1529SOL     hw 6115   4.542   3.046   3.638 -2.2458  2.0919  0.1076
 1529SOL     vw 6116   4.555   3.045   3.725 -0.0007  0.2574 -0.1388
 1530SOL     ow 6117   4.983   0.927   6.337  0.1869  0.3600  0.4633
 1530SOL     hw 6118   4.896   0.887   6.337  0.2026  0.3052 -0.1617
 1530SOL     hw 6119   4.979   0.994   6.404 -0.3635  0.3964  0.3971
 1530SOL     vw 6120   4.971   0.931   6.346  0.1161  0.3575  0.3722
 1531SOL     ow 6121   4.887   3.125   6.150 -0.6609  0.3044  0.2126
 1531SOL     hw 6122   4.935   3.192   6.101 -0.0800  0.4185  0.9265
 1531SOL     hw 6123   4.798   3.158   6.155 -0.3263  1.1408  0.7616
 1531SOL     vw 6124   4.882   3.138   6.144 -0.5403  0.4299  0.3793
 1532SOL     ow 6125   2.744   1.099   5.485 -0.1622 -0.1232  0.2515
 1532SOL     hw 6126   2.743   1.080   5.579 -2.4256 -0.0624  0.2971
 1532SOL     hw 6127   2.776   1.019   5.444 -2.0678 -1.2828  0.9247
 1532SOL     vw 6128   2.748   1.086   5.492 -0.7124 -0.2681  0.3464
 1533SOL     ow 6129   6.604   3.024   6.531 -0.3621 -0.2562 -0.3691
 1533SOL     hw 6130   6.679   2.984   6.486 -0.6397  0.6944 -1.7454
 1533SOL     hw 6131   6.532   3.015   6.469 -0.4865  2.1347 -0.6670
 1533SOL     vw 6132   6.604   3.017   6.517 -0.4153  0.1848 -0.5898
 1534SOL     ow 6133   5.371   1.120   3.481 -0.1748 -0.6433  0.4204
 1534SOL     hw 6134   5.404   1.031   3.493  0.4355 -0.4847 -0.0257
 1534SOL     hw 6135   5.408   1.148   3.397 -0.6429 -0.0916  0.3914
 1534SOL     vw 6136   5.380   1.112   3.471 -0.1559 -0.5496  0.3577
 1535SOL     ow 6137   3.367   1.429   6.699  0.1619 -0.2628  0.5392
 1535SOL     hw 6138   3.420   1.408   6.776  0.9226  0.3068  0.1932
 1535SOL     hw 6139   3.279   1.440   6.733  0.4175 -0.4038  1.2738
 1535SOL     vw 6140   3.363   1.428   6.713  0.2958 -0.2062  0.5903
 1536SOL     ow 6141   4.091   3.426   5.716  0.5269  0.3081  1.0420
 1536SOL     hw 6142   4.142   3.471   5.649  0.1565 -0.4386  0.2354
 1536SOL     hw 6143   4.044   3.358   5.668  0.0497 -0.0708  2.0263
 1536SOL     vw 6144   4.092   3.423   5.701  0.4151  0.1594  1.0655
 1537SOL     ow 6145   2.516   3.264   1.911  0.0917 -0.2508 -0.4569
 1537SOL     hw 6146   2.437   3.267   1.966  0.3264 -1.7251  0.0083
 1537SOL     hw 6147   2.582   3.311   1.962 -0.4072  0.8123 -0.7577
 1537SOL     vw 6148   2.514   3.271   1.925  0.0569 -0.3051 -0.4352
 1538SOL     ow 6149   1.340   1.279   4.501 -0.5258  0.0835  0.4061
 1538SOL     hw 6150   1.315   1.188   4.517 -0.8064  0.1489  0.3413
 1538SOL     hw 6151   1.348   1.317   4.589  0.0890 -0.1332  0.4504
 1538SOL     vw 6152   1.338   1.272   4.515 -0.4816  0.0636  0.4034
 1539SOL     ow 6153   2.148   4.092   1.690 -0.0395  0.0120  0.7633
 1539SOL     hw 6154   2.147   4.181   1.655  3.3405 -0.2943 -0.5056
 1539SOL     hw 6155   2.074   4.049   1.647  0.0120  1.4496 -0.8876
 1539SOL     vw 6156   2.138   4.098   1.680  0.4133  0.1612  0.3781
 1540SOL     ow 6157   5.772   5.402   0.923 -0.1287  0.2299 -0.0374
 1540SOL     hw 6158   5.728   5.390   0.838  0.9282 -0.9080 -0.4532
 1540SOL     hw 6159   5.727   5.341   0.981  1.8676 -2.2305 -0.8776
 1540SOL     vw 6160   5.760   5.392   0.919  0.2739 -0.2451 -0.2031
 1541SOL     ow 6161   4.505   0.485   5.335 -0.0263 -0.4476  0.5449
 1541SOL     hw 6162   4.565   0.557   5.316 -0.8062  0.4873  1.4892
 1541SOL     hw 6163   4.418   0.525   5.330 -0.4413 -1.1681  1.7391
 1541SOL     vw 6164   4.502   0.499   5.332 -0.1838 -0.4193  0.8273
 1542SOL     ow 6165   7.004   0.818   2.938 -0.3866 -0.0149 -0.2286
 1542SOL     hw 6166   7.034   0.764   2.864  0.5406  0.2001 -0.0203
 1542SOL     hw 6167   7.012   0.761   3.014 -2.7699 -0.7518 -0.4443
 1542SOL     vw 6168   7.009   0.803   2.938 -0.5787 -0.0838 -0.2296
 1543SOL     ow 6169   1.421   3.098   3.016  0.1286 -0.0283  0.5609
 1543SOL     hw 6170   1.375   3.030   2.968 -1.4460  1.9307 -0.8798
 1543SOL     hw 6171   1.469   3.147   2.949 -1.5381  2.3363  0.9768
 1543SOL     vw 6172   1.422   3.096   3.001 -0.2990  0.5420  0.4258
 1544SOL     ow 6173   2.703   4.458   2.950 -0.0638  0.0010 -0.2578
 1544SOL     hw 6174   2.725   4.399   2.878 -1.4928 -0.9586  0.0645
 1544SOL     hw 6175   2.783   4.460   3.003  0.6062 -0.2121 -1.2193
 1544SOL     vw 6176   2.717   4.451   2.947 -0.1639 -0.1538 -0.3421
 1545SOL     ow 6177   5.768   5.002   3.262 -0.4088  0.5137 -0.0193
 1545SOL     hw 6178   5.807   5.090   3.266 -0.0636  0.3732 -0.2849
 1545SOL     hw 6179   5.802   4.957   3.339 -0.3486  0.5156 -0.0449
 1545SOL     vw 6180   5.777   5.008   3.273 -0.3552  0.4957 -0.0577
 1546SOL     ow 6181   2.583   1.026   2.734  0.0515 -0.1637 -0.4504
 1546SOL     hw 6182   2.584   0.938   2.694 -0.5969 -0.2036 -0.3836
 1546SOL     hw 6183   2.656   1.024   2.796  0.3361 -0.4998 -0.7903
 1546SOL     vw 6184   2.593   1.014   2.737  0.0036 -0.2133 -0.4865
 1547SOL     ow 6185   4.566   3.479   1.082  0.2988  0.4463  1.2133
 1547SOL     hw 6186   4.520   3.489   1.165  1.2891 -0.7765  1.9323
 1547SOL     hw 6187   4.496   3.478   1.016 -0.4460  2.2779  1.9046
 1547SOL     vw 6188   4.550   3.480   1.084  0.3309  0.5267  1.3994
 1548SOL     ow 6189   5.098   5.776   1.779  0.1474  0.6045  0.4156
 1548SOL     hw 6190   5.113   5.682   1.783  0.8956  0.6487 -0.9235
 1548SOL     hw 6191   5.117   5.806   1.868  2.7878 -0.1356  0.1872
 1548SOL     vw 6192   5.103   5.768   1.792  0.5946  0.5128  0.2089
 1549SOL     ow 6193   1.642   4.062   4.888  0.2742 -0.2295 -0.1308
 1549SOL     hw 6194   1.700   4.023   4.953 -0.2204 -0.5774  0.1116
 1549SOL     hw 6195   1.686   4.142   4.861  0.7435 -0.3603  0.2353
 1549SOL     vw 6196   1.655   4.067   4.893  0.2709 -0.2925 -0.0505
 1550SOL     ow 6197   0.534   4.697   4.763 -0.0623  0.2871 -0.3962
 1550SOL     hw 6198   0.445   4.672   4.737 -0.5369 -0.8082  2.0195
 1550SOL     hw 6199   0.522   4.759   4.835  1.0887 -0.5515  0.5587
 1550SOL     vw 6200   0.521   4.702   4.769  0.0270  0.0319  0.0489
 1551SOL     ow 6201   0.790   4.708   0.794 -0.0431 -0.3821 -0.2243
 1551SOL     hw 6202   0.707   4.745   0.824 -0.0787 -0.5121 -0.1650
 1551SOL     hw 6203   0.856   4.753   0.847 -0.0244  0.2349 -0.7622
 1551SOL     vw 6204   0.788   4.719   0.805 -0.0453 -0.3176 -0.2874
 1552SOL     ow 6205   1.688   2.437   5.531 -0.7434 -0.5723 -0.1806
 1552SOL     hw 6206   1.684   2.378   5.456 -2.0137  0.5905 -1.0625
 1552SOL     hw 6207   1.733   2.515   5.499 -0.9005 -0.2388  0.3933
 1552SOL     vw 6208   1.693   2.439   5.517 -0.9318 -0.3749 -0.2215
 1553SOL     ow 6209   3.028   5.372   3.373 -0.2189  0.1748  0.0145
 1553SOL     hw 6210   2.975   5.342   3.446  1.4837 -0.9909  0.8307
 1553SOL     hw 6211   2.990   5.330   3.296 -2.2837  1.7387  0.1134
 1553SOL     vw 6212   3.016   5.363   3.372 -0.2668  0.2272  0.1352
 1554SOL     ow 6213   6.306   3.425   1.200 -0.3042  0.4179  0.1812
 1554SOL     hw 6214   6.304   3.516   1.171  0.5531  0.1494 -0.7774
 1554SOL     hw 6215   6.216   3.394   1.190 -0.4449  0.9412 -0.1985
 1554SOL     vw 6216   6.294   3.433   1.195 -0.2098  0.4514  0.0046
 1555SOL     ow 6217   6.805   6.361   6.927  0.1400  0.0331  0.1015
 1555SOL     hw 6218   6.866   6.315   6.869  0.5914 -0.4932  0.9804
 1555SOL     hw 6219   6.762   6.425   6.870 -0.7798 -1.6989 -1.2688
 1555SOL     vw 6220   6.807   6.364   6.912  0.0782 -0.2651  0.0367
 1556SOL     ow 6221   5.582   6.484   3.980  0.1963  0.7955 -0.6133
 1556SOL     hw 6222   5.646   6.551   3.955  1.5075 -0.0677  0.3106
 1556SOL     hw 6223   5.634   6.415   4.019 -1.3768  0.3267  0.7528
 1556SOL     vw 6224   5.597   6.484   3.982  0.1616  0.6196 -0.3110
 1557SOL     ow 6225   6.154   4.126   3.039  0.2333  0.1238 -0.1290
 1557SOL     hw 6226   6.060   4.125   3.060 -0.0100 -2.1028 -1.0835
 1557SOL     hw 6227   6.158   4.106   2.946  1.6954 -1.1365  0.1653
 1557SOL     vw 6228   6.142   4.123   3.029  0.3941 -0.3362 -0.2164
 1558SOL     ow 6229   1.614   1.905   3.789 -0.4752  0.2456  0.1410
 1558SOL     hw 6230   1.622   1.814   3.817  0.5671  0.5366  0.8111
 1558SOL     hw 6231   1.538   1.904   3.731 -0.3269 -1.1030 -0.0825
 1558SOL     vw 6232   1.605   1.893   3.785 -0.3181  0.1060  0.2000
 1559SOL     ow 6233   4.877   6.903   5.903  0.2079  0.3341  0.3633
 1559SOL     hw 6234   4.951   6.896   5.842  0.5836  0.6213  0.7767
 1559SOL     hw 6235   4.915   6.942   5.982 -0.4447  0.7721  0.4741
 1559SOL     vw 6236   4.892   6.908   5.905  0.1714  0.4299  0.4325
 1560SOL     ow 6237   0.238   5.453   5.561 -0.8374  0.1995  0.1365
 1560SOL     hw 6238   0.165   5.510   5.536 -2.1459 -1.3288  0.3222
 1560SOL     hw 6239   0.255   5.475   5.652 -2.3189 -0.6821  0.6544
 1560SOL     vw 6240   0.230   5.464   5.569 -1.2055 -0.1185  0.2294
 1561SOL     ow 6241   3.484   1.581   5.290  0.0766 -0.0995 -0.4328
 1561SOL     hw 6242   3.474   1.677   5.293 -0.0534 -0.0992  2.5642
 1561SOL     hw 6243   3.576   1.566   5.309 -0.0364 -0.5565 -0.2359
 1561SOL     vw 6244   3.495   1.592   5.293  0.0443 -0.1597 -0.0112
 1562SOL     ow 6245   6.116   0.087   4.465 -0.3556 -0.1026 -0.0904
 1562SOL     hw 6246   6.191   0.117   4.517  0.0779  1.8723 -1.7584
 1562SOL     hw 6247   6.040   0.112   4.517  0.0710 -0.7992  0.9212
 1562SOL     vw 6248   6.116   0.094   4.479 -0.2422  0.0661 -0.1769
 1563SOL     ow 6249   1.562   5.750   3.860  0.7255 -0.0470 -0.0278
 1563SOL     hw 6250   1.492   5.787   3.807 -0.2805  0.3457  1.5119
 1563SOL     hw 6251   1.640   5.755   3.804 -0.2031  0.7025 -1.2986
 1563SOL     vw 6252   1.563   5.756   3.846  0.4703  0.1035  0.0076
 1564SOL     ow 6253   1.532   1.232   4.127  0.1467  0.0646  0.4390
 1564SOL     hw 6254   1.489   1.196   4.049 -0.6230  2.3971 -0.2947
 1564SOL     hw 6255   1.602   1.286   4.092  0.4756  0.2818  1.4197
 1564SOL     vw 6256   1.535   1.235   4.112  0.0886  0.4010  0.4716
 1565SOL     ow 6257   1.559   4.580   2.172  0.1323  0.2764 -0.3243
 1565SOL     hw 6258   1.533   4.656   2.226 -0.4743  0.5803 -1.0308
 1565SOL     hw 6259   1.480   4.557   2.124  0.7400  0.1609 -1.2789
 1565SOL     vw 6260   1.545   4.587   2.173  0.1324  0.3014 -0.5435
 1566SOL     ow 6261   2.170   1.998   2.934  0.2318  0.0625  0.1195
 1566SOL     hw 6262   2.156   2.051   2.855 -0.4213 -1.8651 -1.1342
 1566SOL     hw 6263   2.252   1.953   2.918  0.4396  0.1724  0.8673
 1566SOL     vw 6264   2.179   1.999   2.921  0.1731 -0.1773  0.0528
 1567SOL     ow 6265   0.938   6.149   4.073  0.8863 -0.0855 -0.9213
 1567SOL     hw 6266   0.993   6.072   4.091  1.0521  0.2797  0.2482
 1567SOL     hw 6267   0.868   6.143   4.139  0.4826  0.3787 -1.3019
 1567SOL     vw 6268   0.936   6.138   4.084  0.8549  0.0238 -0.8171
 1568SOL     ow 6269   3.035   1.550   5.909 -0.1394 -0.3784 -0.0875
 1568SOL     hw 6270   2.963   1.570   5.969 -0.1741  1.9241 -0.7919
 1568SOL     hw 6271   3.113   1.549   5.964 -0.2046  1.4561  0.1092
 1568SOL     vw 6272   3.036   1.553   5.924 -0.1525  0.1675 -0.1545
 1569SOL     ow 6273   1.947   1.768   5.962 -0.1986 -0.4703  0.2195
 1569SOL     hw 6274   1.953   1.724   5.877  0.0031  1.2199 -0.6944
 1569SOL     hw 6275   2.035   1.805   5.975 -0.5351  0.1973  0.6318
 1569SOL     vw 6276   1.959   1.767   5.952 -0.2164 -0.1593  0.1533
 1570SOL     ow 6277   4.012   5.928   6.250 -0.5079  0.4937 -0.3462
 1570SOL     hw 6278   4.061   6.009   6.263 -1.9400  1.1159  1.5781
 1570SOL     hw 6279   3.923   5.956   6.230 -0.6833 -0.6251 -1.2580
 1570SOL     vw 6280   4.007   5.942   6.249 -0.7200  0.4282 -0.2124
 1571SOL     ow 6281   0.093   4.725   2.406 -0.0611  0.0489  0.0745
 1571SOL     hw 6282   0.084   4.644   2.355 -1.8113  1.1012 -1.4079
 1571SOL     hw 6283   0.162   4.774   2.362  0.5701 -0.3334  0.6083
 1571SOL     vw 6284   0.101   4.721   2.394 -0.2087  0.1371 -0.0508
 1572SOL     ow 6285   3.566   1.150   5.124 -0.0278 -0.5905  0.2109
 1572SOL     hw 6286   3.553   1.127   5.216 -0.6122  0.5740  0.4386
 1572SOL     hw 6287   3.661   1.152   5.113  0.0410 -1.7738  0.5097
 1572SOL     vw 6288   3.577   1.147   5.135 -0.0960 -0.5929  0.2801
 1573SOL     ow 6289   6.907   5.620   3.777  0.4460 -0.3012 -0.2447
 1573SOL     hw 6290   6.854   5.624   3.857  0.5944  0.2629 -0.1684
 1573SOL     hw 6291   6.924   5.527   3.764  2.1205 -0.3005  1.5276
 1573SOL     vw 6292   6.902   5.609   3.786  0.6866 -0.2270 -0.0010
 1574SOL     ow 6293   2.223   5.930   1.578  0.3914 -0.2060 -0.0716
 1574SOL     hw 6294   2.305   5.942   1.529 -0.5650 -1.0676 -1.9610
 1574SOL     hw 6295   2.167   6.001   1.548  0.4032  0.3928  1.2386
 1574SOL     vw 6296   2.227   5.941   1.568  0.2668 -0.2406 -0.1481
 1575SOL     ow 6297   0.877   0.430   6.948 -0.5189 -0.6643 -0.1402
 1575SOL     hw 6298   0.898   0.340   6.923  0.7696 -1.0185  2.0205
 1575SOL     hw 6299   0.836   0.422   7.034 -0.9257  0.7833 -0.1729
 1575SOL     vw 6300   0.874   0.417   6.956 -0.4026 -0.5201  0.1407
 1576SOL     ow 6301   6.528   4.164   1.429 -0.4735 -0.3643 -0.2067
 1576SOL     hw 6302   6.583   4.206   1.363 -1.3063 -0.7476 -1.1799
 1576SOL     hw 6303   6.443   4.154   1.386 -1.3512  0.3213  1.2932
 1576SOL     vw 6304   6.524   4.168   1.415 -0.6993 -0.3242 -0.1372
 1577SOL     ow 6305   5.994   4.667   0.341 -0.0950  0.4325 -0.4752
 1577SOL     hw 6306   5.943   4.665   0.259 -1.0636 -3.5904  0.0168
 1577SOL     hw 6307   5.932   4.640   0.408  1.8596 -1.4932  0.6793
 1577SOL     vw 6308   5.979   4.663   0.339  0.0353 -0.3524 -0.2579
 1578SOL     ow 6309   0.960   1.220   5.147  0.1016  0.3210 -0.0358
 1578SOL     hw 6310   0.978   1.163   5.073 -4.0173 -0.9509 -0.3317
 1578SOL     hw 6311   1.042   1.225   5.195  2.3051 -0.7051 -3.3767
 1578SOL     vw 6312   0.973   1.213   5.143 -0.1511  0.0178 -0.5157
 1579SOL     ow 6313   2.139   6.367   4.377  0.2448 -0.1478 -0.0580
 1579SOL     hw 6314   2.173   6.409   4.456 -0.0235  1.3999 -0.7096
 1579SOL     hw 6315   2.217   6.350   4.323  0.2825  0.4406 -0.1981
 1579SOL     vw 6316   2.154   6.371   4.380  0.2143  0.1338 -0.1621
 1580SOL     ow 6317   0.294   5.267   5.299 -0.3448  0.3497  0.2047
 1580SOL     hw 6318   0.291   5.198   5.233 -0.6159  1.0667 -0.5562
 1580SOL     hw 6319   0.367   5.323   5.273 -1.2242  1.3439 -0.2393
 1580SOL     vw 6320   0.303   5.265   5.287 -0.4966  0.5753  0.0458
 1581SOL     ow 6321   1.291   2.138   2.200  0.5783 -0.0374  0.2665
 1581SOL     hw 6322   1.201   2.110   2.190  0.2729  1.2710 -1.0643
 1581SOL     hw 6323   1.312   2.120   2.292 -0.8551 -0.8271  0.4642
 1581SOL     vw 6324   1.282   2.132   2.211  0.3489  0.0311  0.1169
 1582SOL     ow 6325   6.399   3.171   6.673 -0.7153  0.0670 -0.4493
 1582SOL     hw 6326   6.369   3.224   6.746  0.3793  1.6926 -1.1138
 1582SOL     hw 6327   6.323   3.163   6.616 -0.4351  2.7077 -1.3090
 1582SOL     vw 6328   6.385   3.177   6.675 -0.5341  0.6299 -0.6504
 1583SOL     ow 6329   5.258   1.419   3.540 -0.2953 -0.3557 -0.2868
 1583SOL     hw 6330   5.335   1.469   3.564  0.4539 -1.8235  0.4990
 1583SOL     hw 6331   5.198   1.483   3.502  0.6739  1.0875  0.5472
 1583SOL     vw 6332   5.260   1.434   3.539 -0.0689 -0.3589 -0.0730
 1584SOL     ow 6333   1.159   1.111   6.375  0.0926  0.2223  0.0625
 1584SOL     hw 6334   1.159   1.201   6.408  1.4395  0.5880 -0.8839
 1584SOL     hw 6335   1.218   1.065   6.434 -1.7546 -0.4610  1.4972
 1584SOL     vw 6336   1.167   1.117   6.387  0.0266  0.1804  0.1268
 1585SOL     ow 6337   5.872   0.000   2.474 -0.1281 -0.4205 -0.3456
 1585SOL     hw 6338   5.852  -0.074   2.531  0.6937  0.4710  1.1659
 1585SOL     hw 6339   5.790   0.018   2.429 -1.5155  0.2412  2.2558
 1585SOL     vw 6340   5.859  -0.007   2.475 -0.2029 -0.2156  0.1972
 1586SOL     ow 6341   1.156   3.044   6.331  1.1217  0.1835  0.2190
 1586SOL     hw 6342   1.176   3.135   6.353  0.2409  0.0573  1.7308
 1586SOL     hw 6343   1.062   3.036   6.348  0.8654 -0.6122 -1.4310
 1586SOL     vw 6344   1.146   3.055   6.336  0.9716  0.0619  0.2007
 1587SOL     ow 6345   4.216   6.928   3.597 -0.5221 -0.3170 -0.3640
 1587SOL     hw 6346   4.193   6.992   3.529  1.6637 -0.6704 -1.5190
 1587SOL     hw 6347   4.277   6.869   3.554  1.2463 -0.3347  2.0042
 1587SOL     vw 6348   4.221   6.929   3.582 -0.0002 -0.3657 -0.2040
 1588SOL     ow 6349   1.880   2.775   1.628 -0.6078  0.5930 -0.2585
 1588SOL     hw 6350   1.876   2.829   1.707  1.4150  2.7101 -1.4909
 1588SOL     hw 6351   1.927   2.697   1.655  2.2289  2.3305  0.2178
 1588SOL     vw 6352   1.886   2.772   1.642  0.0334  1.1015 -0.3582
 1589SOL     ow 6353   1.695   4.591   5.780  0.2004 -1.1207  0.0375
 1589SOL     hw 6354   1.767   4.654   5.779  0.1912 -1.0790  1.2778
 1589SOL     hw 6355   1.630   4.630   5.721  0.9055 -0.8282 -0.5625
 1589SOL     vw 6356   1.696   4.605   5.772  0.2922 -1.0767  0.1216
 1590SOL     ow 6357   1.933   1.725   5.377  0.2289 -0.4672 -0.2592
 1590SOL     hw 6358   1.982   1.658   5.329  0.5955 -0.1887 -0.2780
 1590SOL     hw 6359   1.843   1.713   5.349  0.3635 -0.6487 -0.6239
 1590SOL     vw 6360   1.928   1.715   5.367  0.2950 -0.4544 -0.3097
 1591SOL     ow 6361   3.774   2.327   5.482 -0.3595 -0.0891 -0.0067
 1591SOL     hw 6362   3.843   2.337   5.416  0.4122 -0.9829  0.6194
 1591SOL     hw 6363   3.693   2.347   5.436  0.1215 -1.0620 -1.3369
 1591SOL     vw 6364   3.773   2.331   5.467 -0.1941 -0.3353 -0.0997
 1592SOL     ow 6365   2.514   3.067   2.820  0.4252  0.1460 -0.2309
 1592SOL     hw 6366   2.423   3.062   2.793  0.2240 -0.1266  0.4661
 1592SOL     hw 6367   2.511   3.068   2.916  1.2107 -1.3160 -0.1579
 1592SOL     vw 6368   2.502   3.066   2.829  0.5022 -0.0830 -0.1293
 1593SOL     ow 6369   1.556   0.473   4.431 -0.2442 -0.4913 -0.3968
 1593SOL     hw 6370   1.463   0.483   4.412 -0.0308 -0.5356 -1.4971
 1593SOL     hw 6371   1.591   0.562   4.428 -0.6284 -0.1693  2.2455
 1593SOL     vw 6372   1.548   0.486   4.428 -0.2667 -0.4546 -0.1936
 1594SOL     ow 6373   6.046   3.524   6.571  0.5237  0.8064 -0.5543
 1594SOL     hw 6374   6.019   3.542   6.661 -2.0998  0.0422 -1.0941
 1594SOL     hw 6375   6.141   3.530   6.572  0.5612  0.7024  2.2808
 1594SOL     vw 6376   6.055   3.527   6.583  0.1829  0.6918 -0.2513
 1595SOL     ow 6377   5.112   3.855   3.575 -0.3045 -0.0538  0.5761
 1595SOL     hw 6378   5.110   3.947   3.550 -1.2938 -0.6349 -1.7642
 1595SOL     hw 6379   5.035   3.844   3.631 -1.7531  0.0808 -1.2620
 1595SOL     vw 6380   5.101   3.866   3.579 -0.6261 -0.1127  0.0249
 1596SOL     ow 6381   5.201   2.315   3.754  0.3606  0.0462 -0.1592
 1596SOL     hw 6382   5.279   2.259   3.752 -0.5330 -1.2438 -0.3498
 1596SOL     hw 6383   5.199   2.349   3.843  0.8055 -0.4018  0.0283
 1596SOL     vw 6384   5.211   2.312   3.766  0.3014 -0.1831 -0.1596
 1597SOL     ow 6385   1.183   2.851   6.080 -0.2888 -0.5849 -0.4948
 1597SOL     hw 6386   1.157   2.876   5.991 -1.0188 -2.3233 -0.8196
 1597SOL     hw 6387   1.110   2.797   6.112 -0.0088 -0.0407  1.1522
 1597SOL     vw 6388   1.170   2.847   6.072 -0.3482 -0.7424 -0.3200
 1598SOL     ow 6389   3.899   1.451   1.177  0.2104  0.1447 -0.1719
 1598SOL     hw 6390   3.968   1.503   1.218  0.7042 -0.6762  0.0578
 1598SOL     hw 6391   3.857   1.511   1.115  1.4087  0.5251 -0.6407
 1598SOL     vw 6392   3.903   1.466   1.174  0.4337  0.0865 -0.2035
 1599SOL     ow 6393   6.890   6.730   3.484 -0.3170 -0.0905  0.0249
 1599SOL     hw 6394   6.847   6.742   3.569  0.8062  0.3413  0.5432
 1599SOL     hw 6395   6.820   6.744   3.420 -0.6050  2.5461  0.7823
 1599SOL     vw 6396   6.875   6.734   3.487 -0.2067  0.3142  0.1934
 1600SOL     ow 6397   0.627   1.872   4.644  0.1771  0.3705 -0.1635
 1600SOL     hw 6398   0.695   1.909   4.699 -1.8951  1.6649  1.6748
 1600SOL     hw 6399   0.545   1.889   4.691 -1.3937 -1.7495 -1.8949
 1600SOL     vw 6400   0.625   1.879   4.657 -0.3036  0.2616 -0.1495
 1601SOL     ow 6401   5.921   2.002   5.555  0.0276  0.3935  0.1584
 1601SOL     hw 6402   5.911   1.943   5.480  1.6007  0.3587 -0.0571
 1601SOL     hw 6403   6.002   2.050   5.536  1.0889 -0.4066  2.3462
 1601SOL     vw 6404   5.930   2.000   5.543  0.3753  0.2833  0.4184
 1602SOL     ow 6405   2.698   6.288   6.257  0.3385  0.0098 -0.3223
 1602SOL     hw 6406   2.694   6.236   6.176  2.0854 -1.4248  0.4386
 1602SOL     hw 6407   2.755   6.361   6.235  2.7976 -1.6387  0.1613
 1602SOL     vw 6408   2.705   6.290   6.243  0.8935 -0.3972 -0.1581
 1603SOL     ow 6409   5.366   5.142   4.325  0.2189 -0.0094 -0.3400
 1603SOL     hw 6410   5.425   5.073   4.356  3.9393  2.9121 -0.2152
 1603SOL     hw 6411   5.384   5.149   4.231 -0.8020  0.2182 -0.5311
 1603SOL     vw 6412   5.376   5.134   4.317  0.5753  0.4060 -0.3490
 1604SOL     ow 6413   1.707   4.365   5.574 -0.0219 -0.4666 -0.1353
 1604SOL     hw 6414   1.761   4.439   5.545 -0.9840  0.4747  0.3954
 1604SOL     hw 6415   1.657   4.339   5.497  0.1202 -0.3845 -0.2543
 1604SOL     vw 6416   1.707   4.371   5.560 -0.1301 -0.3316 -0.0808
 1605SOL     ow 6417   2.481   4.473   0.672 -0.3751 -0.8357  0.3938
 1605SOL     hw 6418   2.562   4.423   0.677 -0.3092 -0.6963  0.7990
 1605SOL     hw 6419   2.424   4.422   0.614 -0.5107 -1.6743  1.2430
 1605SOL     vw 6420   2.484   4.459   0.665 -0.3843 -0.9279  0.5594
 1606SOL     ow 6421   3.006   2.095   6.480 -0.1938  0.6744  0.4431
 1606SOL     hw 6422   2.946   2.042   6.429 -0.2076  0.0474  1.0976
 1606SOL     hw 6423   3.029   2.168   6.422  0.6953 -0.6011 -0.8933
 1606SOL     vw 6424   3.001   2.098   6.466 -0.0782  0.4234  0.3531
 1607SOL     ow 6425   4.293   2.848   3.735  0.1898  0.2960 -0.0878
 1607SOL     hw 6426   4.227   2.917   3.726 -3.1167 -2.5219  0.4727
 1607SOL     hw 6427   4.279   2.792   3.659  2.4004 -0.1337 -0.2354
 1607SOL     vw 6428   4.283   2.850   3.724  0.0453 -0.1324 -0.0333
 1608SOL     ow 6429   1.572   4.649   4.807 -0.2814 -0.4774 -0.1714
 1608SOL     hw 6430   1.567   4.667   4.901 -0.4383  0.7150 -0.3916
 1608SOL     hw 6431   1.504   4.705   4.769  1.6184  1.2246 -1.2631
 1608SOL     vw 6432   1.562   4.659   4.815 -0.0515 -0.0954 -0.3445
 1609SOL     ow 6433   4.793   3.695   1.060  0.0681  0.0566 -0.0707
 1609SOL     hw 6434   4.854   3.736   0.998 -0.5710 -0.1905 -0.8704
 1609SOL     hw 6435   4.765   3.768   1.116  0.3011  0.3700 -0.3527
 1609SOL     vw 6436   4.797   3.710   1.059  0.0145  0.0653 -0.2134
 1610SOL     ow 6437   3.247   3.086   0.044  0.1190 -0.2745 -0.1178
 1610SOL     hw 6438   3.161   3.061   0.010  0.2566 -0.6571 -0.1881
 1610SOL     hw 6439   3.237   3.085   0.139  0.4037 -1.6182 -0.0937
 1610SOL     vw 6440   3.234   3.083   0.052  0.1746 -0.5022 -0.1239
 1611SOL     ow 6441   4.510   3.399   5.016 -0.2436 -0.0839 -0.1494
 1611SOL     hw 6442   4.537   3.484   5.051 -1.8626  0.1365  0.6485
 1611SOL     hw 6443   4.440   3.419   4.954 -0.5915 -0.8180 -0.0058
 1611SOL     vw 6444   4.504   3.413   5.012 -0.5031 -0.1518 -0.0253
 1612SOL     ow 6445   4.924   4.998   5.114 -0.2406  0.6406 -0.3295
 1612SOL     hw 6446   4.932   5.025   5.023 -0.1988  0.4686 -0.3780
 1612SOL     hw 6447   4.830   5.005   5.133 -0.4687 -0.7124 -0.8314
 1612SOL     vw 6448   4.913   5.002   5.105 -0.2651  0.4394 -0.4017
 1613SOL     ow 6449   6.147   0.029   1.554  0.5152 -0.1162  0.1942
 1613SOL     hw 6450   6.072   0.083   1.578  0.6489 -0.5931  1.8071
 1613SOL     hw 6451   6.116  -0.024   1.481  0.1725  1.6082 -0.9669
 1613SOL     vw 6452   6.133   0.029   1.548  0.4880  0.0484  0.2539
 1614SOL     ow 6453   4.648   2.570   2.268  0.3145  0.7008  0.3973
 1614SOL     hw 6454   4.631   2.476   2.273  1.8366  0.1450 -2.4870
 1614SOL     hw 6455   4.668   2.596   2.358 -3.4812 -0.9185  1.9060
 1614SOL     vw 6456   4.649   2.561   2.281  0.0145  0.4139  0.2160
 1615SOL     ow 6457   0.952   0.556   3.918  0.3304  0.2192  0.3577
 1615SOL     hw 6458   0.880   0.543   3.979 -1.0896  0.0999 -1.2576
 1615SOL     hw 6459   0.913   0.543   3.832  1.7511  2.4692 -0.7210
 1615SOL     vw 6460   0.937   0.553   3.915  0.3304  0.5004  0.0021
 1616SOL     ow 6461   3.519   6.914   4.650  0.1058  0.6042  0.4732
 1616SOL     hw 6462   3.464   6.921   4.728  1.3548  0.4391  1.4141
 1616SOL     hw 6463   3.575   6.838   4.668  2.7573  2.5336  1.0214
 1616SOL     vw 6464   3.519   6.905   4.663  0.6204  0.8371  0.6697
 1617SOL     ow 6465   2.983   6.225   0.014 -0.1290  0.4057  1.0951
 1617SOL     hw 6466   3.073   6.228   0.047  0.4253  1.0858 -0.4030
 1617SOL     hw 6467   2.976   6.300  -0.045 -2.1285  1.2044  2.2180
 1617SOL     vw 6468   2.994   6.235   0.010 -0.3198  0.6008  1.0456
 1618SOL     ow 6469   6.560   1.933   1.590  0.1540  0.5317  0.0107
 1618SOL     hw 6470   6.590   1.862   1.646  0.8175  1.6807  1.1686
 1618SOL     hw 6471   6.505   1.987   1.647 -1.2179  0.3855 -1.1387
 1618SOL     vw 6472   6.557   1.931   1.605  0.0606  0.6639  0.0119
 1619SOL     ow 6473   3.747   2.563   2.289 -0.4184  0.4329  0.4299
 1619SOL     hw 6474   3.684   2.600   2.228 -1.5699 -0.8895  0.7708
 1619SOL     hw 6475   3.716   2.590   2.375  1.0236  2.0263  0.4955
 1619SOL     vw 6476   3.735   2.571   2.292 -0.3800  0.4686  0.4836
 1620SOL     ow 6477   6.395   3.189   0.991 -0.2178  0.2966 -0.1866
 1620SOL     hw 6478   6.359   3.248   0.924 -0.3029  2.5421  1.7386
 1620SOL     hw 6479   6.462   3.138   0.944  0.7118  2.7577 -1.7371
 1620SOL     vw 6480   6.399   3.190   0.976 -0.1066  0.9176 -0.1372
 1621poe    c31 6481   2.538   3.143   0.926  0.7086  0.0404 -0.3624
 1621poe     o2 6482   2.598   3.269   0.944  0.2578  0.2193 -0.0638
 1621poe    c23 6483   2.724   3.275   0.879  0.1501  0.0259 -0.2946
 1621poe    c23 6484   2.797   3.392   0.947  0.0143  0.0855 -0.2513
 1621poe     o2 6485   2.728   3.513   0.923  0.5869  0.4133 -0.2532
 1621poe    c23 6486   2.811   3.617   0.972  0.3264  0.5056 -0.0034
 1621poe    c23 6487   2.728   3.741   1.009 -0.1710 -0.0143  0.6617
 1621poe     o2 6488   2.671   3.816   0.905  0.4283  0.2088  0.4884
 1621poe    c23 6489   2.596   3.919   0.966 -0.2283  0.0709 -0.0654
 1621poe    c23 6490   2.563   4.030   0.865  0.4513  0.1728 -0.1777
 1621poe     o2 6491   2.469   3.998   0.766  0.3552 -0.6703  0.1770
 1621poe    c31 6492   2.454   4.111   0.682 -0.5580 -0.7409  0.2262
 1622poe    c31 6493   0.707   0.145   4.586 -0.0651 -0.3958 -0.1341
 1622poe     o2 6494   0.752   0.234   4.685 -0.2867 -0.3176 -0.1031
 1622poe    c23 6495   0.656   0.320   4.741 -0.0243 -0.4670  0.5810
 1622poe    c23 6496   0.729   0.366   4.869  0.0415  0.0165  0.3710
 1622poe     o2 6497   0.848   0.440   4.850  0.0616 -0.1023  0.0361
 1622poe    c23 6498   0.885   0.519   4.960 -0.3034  0.1630 -0.0281
 1622poe    c23 6499   1.011   0.604   4.938 -0.0751 -0.3247 -0.6430
 1622poe     o2 6500   1.118   0.514   4.917  0.0835 -0.3726  0.2978
 1622poe    c23 6501   1.237   0.573   4.871 -0.3440  0.0942 -0.2338
 1622poe    c23 6502   1.335   0.464   4.820  0.0720  0.0973  0.5468
 1622poe     o2 6503   1.272   0.397   4.713  0.4768 -0.4366  0.6410
 1622poe    c31 6504   1.367   0.304   4.666  0.6360  0.0231  0.0285
 1623poe    c31 6505   1.150   3.838   2.697 -0.0970  0.0697  0.0662
 1623poe     o2 6506   1.205   3.711   2.722 -0.2231  0.0213  0.0984
 1623poe    c23 6507   1.105   3.615   2.698 -0.4554  0.3692 -0.3583
 1623poe    c23 6508   1.182   3.488   2.657  0.4646  0.5022  0.9028
 1623poe     o2 6509   1.292   3.525   2.577 -0.1934  0.4226 -0.0542
 1623poe    c23 6510   1.365   3.406   2.554 -0.2005  0.4918 -0.4470
 1623poe    c23 6511   1.493   3.435   2.474  0.0343  0.4336 -0.0954
 1623poe     o2 6512   1.574   3.519   2.553 -0.2773  0.0682  0.6290
 1623poe    c23 6513   1.678   3.566   2.470 -0.7982  0.1698  0.0249
 1623poe    c23 6514   1.767   3.671   2.540  0.1566 -0.4515 -0.2301
 1623poe     o2 6515   1.691   3.786   2.573  0.2664 -0.4696  0.0881
 1623poe    c31 6516   1.770   3.887   2.631 -0.1404  0.0488 -0.2599
 1624poe    c31 6517   1.161   6.593   3.674  0.1300  0.6863  0.5690
 1624poe     o2 6518   1.266   6.681   3.641 -0.1429  0.8471  0.1121
 1624poe    c23 6519   1.220   6.758   3.533 -0.0733  0.2762 -0.3262
 1624poe    c23 6520   1.320   6.875   3.526  0.0272  0.2001 -0.1822
 1624poe     o2 6521   1.447   6.820   3.550 -0.0847 -0.0140 -0.0806
 1624poe    c23 6522   1.546   6.920   3.545  0.0886 -0.2098 -0.6757
 1624poe    c23 6523   1.688   6.865   3.563  0.1897  0.1789 -0.2713
 1624poe     o2 6524   1.699   6.775   3.672  0.4023  0.2484 -0.2346
 1624poe    c23 6525   1.828   6.757   3.726  0.5103 -0.6436 -0.7713
 1624poe    c23 6526   1.827   6.637   3.823  0.0919 -0.1756 -0.1870
 1624poe     o2 6527   1.772   6.689   3.942  0.2215 -0.3027 -0.0712
 1624poe    c31 6528   1.760   6.595   4.047 -0.1719 -0.3176 -0.1284
 1625poe    c31 6529   2.877   0.925   2.911  0.1972  0.0267  0.7516
 1625poe     o2 6530   2.779   1.026   2.897 -0.0706 -0.3102  0.1332
 1625poe    c23 6531   2.805   1.124   2.995  0.3715  0.0080 -0.2959
 1625poe    c23 6532   2.677   1.201   3.035  0.4195  0.0503 -0.2233
 1625poe     o2 6533   2.626   1.269   2.922  0.2535  0.1438 -0.0924
 1625poe    c23 6534   2.497   1.321   2.943  0.3310  0.3243 -0.0550
 1625poe    c23 6535   2.434   1.384   2.817 -0.7126  0.4171  0.5023
 1625poe     o2 6536   2.435   1.294   2.709 -0.6390  0.4361  0.4871
 1625poe    c23 6537   2.382   1.353   2.593 -0.6027 -0.3403  0.0660
 1625poe    c23 6538   2.401   1.239   2.491  0.1659 -0.3791  0.2523
 1625poe     o2 6539   2.538   1.206   2.498  0.3314  0.2401  0.0290
 1625poe    c31 6540   2.569   1.096   2.416  0.1422  0.5844 -0.5097
 1626poe    c31 6541   2.523   0.633   3.679  0.1971 -0.1076 -0.7161
 1626poe     o2 6542   2.519   0.498   3.638 -0.6169 -0.3201  0.0571
 1626poe    c23 6543   2.610   0.415   3.707 -0.0395 -0.0273 -0.3430
 1626poe    c23 6544   2.588   0.267   3.670 -0.1575 -0.0600 -0.1457
 1626poe     o2 6545   2.626   0.251   3.535  0.0714  0.1264 -0.1035
 1626poe    c23 6546   2.599   0.122   3.486 -0.5066  0.2909 -0.2370
 1626poe    c23 6547   2.675   0.086   3.357  0.1948  0.1584  0.2019
 1626poe     o2 6548   2.627   0.129   3.231  0.0637 -0.1745  0.1369
 1626poe    c23 6549   2.499   0.086   3.190 -0.1306  0.4904  0.0466
 1626poe    c23 6550   2.481   0.102   3.038  0.1934 -0.2011 -0.0677
 1626poe     o2 6551   2.434   0.230   3.002 -0.0969 -0.3923 -0.3714
 1626poe    c31 6552   2.410   0.241   2.863 -0.2268  0.5570 -0.2812
 1627poe    c31 6553   1.251   1.391   0.439  0.0521  0.3504  0.0049
 1627poe     o2 6554   1.222   1.258   0.477 -0.3908  0.3350 -0.3655
 1627poe    c23 6555   1.084   1.257   0.503 -0.3619 -0.1556 -0.2330
 1627poe    c23 6556   1.023   1.119   0.539 -0.6940  0.0817  0.1261
 1627poe     o2 6557   1.068   1.069   0.663 -0.0663  0.4341  0.0486
 1627poe    c23 6558   1.035   0.932   0.670 -0.3672  0.5149  0.2322
 1627poe    c23 6559   1.137   0.864   0.763 -0.1937  0.3337 -0.0904
 1627poe     o2 6560   1.270   0.873   0.717 -0.2688 -0.0869 -0.3973
 1627poe    c23 6561   1.363   0.795   0.788  0.0076  0.7826  0.2172
 1627poe    c23 6562   1.504   0.851   0.763  0.1433  0.4318  0.1878
 1627poe     o2 6563   1.528   0.850   0.624 -0.2500  0.2292  0.1217
 1627poe    c31 6564   1.665   0.866   0.598 -0.2094 -0.0973  0.1385
 1628poe    c31 6565   6.845   2.839   1.944  0.1607  0.3372 -0.0698
 1628poe     o2 6566   6.900   2.879   1.820  0.0449  0.1994 -0.1655
 1628poe    c23 6567   6.861   3.009   1.784 -0.1411  0.1967  0.0188
 1628poe    c23 6568   6.920   3.031   1.643  0.0977 -0.1206  0.0672
 1628poe     o2 6569   6.926   2.914   1.565 -0.5824 -0.1089 -0.0105
 1628poe    c23 6570   6.981   2.946   1.440 -0.1932  0.2291  0.2473
 1628poe    c23 6571   7.042   2.814   1.389 -0.0774 -0.1080  1.2399
 1628poe     o2 6572   7.121   2.755   1.490  0.9624 -0.1366  0.4361
 1628poe    c23 6573   7.207   2.658   1.435  0.1107 -0.8246  0.3007
 1628poe    c23 6574   7.342   2.620   1.498  0.4511 -0.3874 -0.1599
 1628poe     o2 6575   7.298   2.583   1.627  0.1671 -0.2876 -0.2278
 1628poe    c31 6576   7.409   2.578   1.714  0.0391 -0.2958 -0.0657
 1629poe    c31 6577   2.595   0.584   4.823 -0.0880 -0.1242  0.4772
 1629poe     o2 6578   2.664   0.477   4.762 -0.2040  0.3119 -0.4341
 1629poe    c23 6579   2.579   0.366   4.781 -0.2475  0.4625  0.2728
 1629poe    c23 6580   2.612   0.231   4.713  0.0123  0.6456  0.0363
 1629poe     o2 6581   2.686   0.245   4.594  0.5641 -0.3127  0.2549
 1629poe    c23 6582   2.756   0.128   4.561 -0.3113 -0.8132  0.1416
 1629poe    c23 6583   2.899   0.159   4.514 -0.3620  0.2062  0.6372
 1629poe     o2 6584   2.902   0.250   4.406  0.3134  0.0880  0.5464
 1629poe    c23 6585   3.031   0.290   4.367  0.3094  0.0595  0.5050
 1629poe    c23 6586   3.017   0.366   4.233  0.0142 -0.3730  0.2872
 1629poe     o2 6587   2.916   0.464   4.241 -0.0262 -0.3897 -0.0184
 1629poe    c31 6588   2.892   0.520   4.114  0.2177  0.1247  0.1594
 1630poe    c31 6589   0.549   1.461   6.659  0.1429  0.3949  1.1438
 1630poe     o2 6590   0.621   1.581   6.641  0.0184  0.3828  0.5255
 1630poe    c23 6591   0.543   1.685   6.586 -0.2136  0.0568  0.2346
 1630poe    c23 6592   0.628   1.814   6.589  0.2333 -0.2246 -0.1736
 1630poe     o2 6593   0.669   1.847   6.720 -0.2869  0.0103 -0.0682
 1630poe    c23 6594   0.735   1.971   6.712 -0.4155  0.0446 -0.6728
 1630poe    c23 6595   0.887   1.953   6.711 -0.4753 -0.5635  0.1469
 1630poe     o2 6596   0.932   1.905   6.836 -0.5163  0.2464  0.4780
 1630poe    c23 6597   1.072   1.910   6.853 -0.3946 -0.6913 -0.2164
 1630poe    c23 6598   1.123   1.914   6.998  0.5032  0.2274 -0.5401
 1630poe     o2 6599   1.110   1.798   7.078  0.1728  0.6163 -0.0262
 1630poe    c31 6600   1.164   1.822   7.207  0.3691 -0.3951  0.0888
 1631poe    c31 6601   5.132   4.917   1.658  0.3492  0.5602  0.1476
 1631poe     o2 6602   5.147   4.879   1.793 -0.1968 -0.2668 -0.0214
 1631poe    c23 6603   5.275   4.820   1.804  0.0032  0.0564 -0.5474
 1631poe    c23 6604   5.294   4.806   1.956 -0.0311 -0.0869 -0.5562
 1631poe     o2 6605   5.170   4.764   2.009  0.4596 -0.5804  0.2344
 1631poe    c23 6606   5.163   4.750   2.149 -0.2479 -0.2422  0.2383
 1631poe    c23 6607   5.022   4.712   2.198 -0.3244  0.0258  0.2244
 1631poe     o2 6608   4.920   4.769   2.118 -0.1839  0.4143  0.3166
 1631poe    c23 6609   4.803   4.767   2.196 -0.1456 -0.4413  0.3674
 1631poe    c23 6610   4.679   4.792   2.108  0.2596 -0.1953 -0.1363
 1631poe     o2 6611   4.670   4.920   2.049  0.4445  0.0011  0.2558
 1631poe    c31 6612   4.533   4.955   2.042  0.3784 -0.2760  0.1355
 1632poe    c31 6613   3.037   4.950   5.086  0.2923  0.3829 -0.2442
 1632poe     o2 6614   2.966   4.918   5.204 -0.2801  0.3131 -0.6005
 1632poe    c23 6615   3.027   4.986   5.312 -0.4006 -0.1546 -0.2328
 1632poe    c23 6616   2.942   4.964   5.438 -0.6257  0.6664 -0.2345
 1632poe     o2 6617   2.900   4.829   5.437  0.3622  0.3472 -0.0954
 1632poe    c23 6618   2.791   4.804   5.523  0.6542 -0.0758  0.1506
 1632poe    c23 6619   2.753   4.655   5.523 -0.0520  0.1032  0.4541
 1632poe     o2 6620   2.740   4.608   5.390 -0.3609  0.3332  0.4005
 1632poe    c23 6621   2.681   4.480   5.393  0.4618 -0.0712 -0.2794
 1632poe    c23 6622   2.724   4.413   5.261 -0.1590 -0.2398 -0.4003
 1632poe     o2 6623   2.863   4.396   5.243 -0.0128  0.3155  0.1813
 1632poe    c31 6624   2.883   4.265   5.197 -0.1203  0.3525  0.0275
 1633poe    c31 6625   4.277   4.318   1.406 -0.1839 -0.1862 -0.3201
 1633poe     o2 6626   4.250   4.336   1.268 -0.1226  0.0678 -0.2986
 1633poe    c23 6627   4.127   4.396   1.235  0.0553  0.2159 -0.6973
 1633poe    c23 6628   4.106   4.423   1.085 -0.5964  0.1872 -0.6138
 1633poe     o2 6629   4.107   4.315   0.995  0.2165 -0.4193  0.1078
 1633poe    c23 6630   3.982   4.249   0.995  0.0930 -0.1864 -0.1116
 1633poe    c23 6631   3.987   4.134   0.892 -0.1538 -0.2764 -0.0242
 1633poe     o2 6632   4.109   4.063   0.887 -0.0511 -0.1250  0.3131
 1633poe    c23 6633   4.113   3.961   0.791 -0.0949  0.1087  0.0625
 1633poe    c23 6634   4.137   4.009   0.646 -0.1257 -0.2534 -0.0640
 1633poe     o2 6635   4.249   4.094   0.632 -0.2254 -0.2281 -0.7350
 1633poe    c31 6636   4.367   4.022   0.609  0.2784  0.1831  0.4745
 1634poe    c31 6637   0.501   6.347   6.037 -0.3678 -0.1834  0.9214
 1634poe     o2 6638   0.562   6.229   5.988 -0.0633  0.3789 -0.0832
 1634poe    c23 6639   0.625   6.242   5.863 -0.4362 -0.1878 -0.3335
 1634poe    c23 6640   0.770   6.292   5.877 -0.7698  0.5798  0.5065
 1634poe     o2 6641   0.800   6.429   5.879  0.2013  0.3915 -0.2276
 1634poe    c23 6642   0.918   6.459   5.808  0.4769  0.1655  0.1364
 1634poe    c23 6643   0.958   6.607   5.827 -0.3783  0.3883  0.2114
 1634poe     o2 6644   1.015   6.628   5.954  0.3712 -0.3043 -0.0064
 1634poe    c23 6645   1.077   6.754   5.957  0.2585 -0.2315 -0.5583
 1634poe    c23 6646   1.130   6.814   6.089 -0.5917 -0.7498  0.0254
 1634poe     o2 6647   1.236   6.741   6.147  0.0004  0.2900  0.2808
 1634poe    c31 6648   1.283   6.812   6.259  0.6082 -0.2075  0.3512
 1635poe    c31 6649   3.081   2.302   3.312  0.1817  0.1147 -0.1155
 1635poe     o2 6650   3.206   2.256   3.359 -0.1462 -0.3636  0.3109
 1635poe    c23 6651   3.268   2.159   3.278 -0.1383 -0.0858 -0.0199
 1635poe    c23 6652   3.405   2.117   3.336 -0.1760 -0.0353  0.1050
 1635poe     o2 6653   3.494   2.227   3.337 -0.4391  0.1804 -0.0012
 1635poe    c23 6654   3.609   2.199   3.413 -0.2728 -0.0989 -0.3514
 1635poe    c23 6655   3.711   2.310   3.379 -0.3559 -0.1549 -0.7942
 1635poe     o2 6656   3.659   2.436   3.415  0.1521 -0.1418 -0.1003
 1635poe    c23 6657   3.748   2.523   3.481 -0.2903 -0.0520  0.3848
 1635poe    c23 6658   3.662   2.634   3.544  0.0449  0.2746  0.2759
 1635poe     o2 6659   3.550   2.655   3.460  0.4205  0.2783 -0.2263
 1635poe    c31 6660   3.466   2.747   3.525 -0.3256 -0.2935 -0.3698
 1636poe    c31 6661   6.145   6.087   5.460  0.2436  0.0679  0.4187
 1636poe     o2 6662   6.032   6.097   5.544  0.0238  0.1475  0.1146
 1636poe    c23 6663   6.049   6.040   5.672  0.3541 -0.3804 -0.1576
 1636poe    c23 6664   5.922   5.957   5.702  0.0584  0.5468  1.2800
 1636poe     o2 6665   5.823   6.053   5.672  0.0690  0.1186 -0.2418
 1636poe    c23 6666   5.696   6.002   5.710  0.0063  0.5845  0.1829
 1636poe    c23 6667   5.572   6.089   5.685 -0.2290  0.1096 -0.3314
 1636poe     o2 6668   5.595   6.168   5.570  0.5461  0.8432  0.3131
 1636poe    c23 6669   5.495   6.267   5.566 -0.0577  0.2183 -0.3721
 1636poe    c23 6670   5.539   6.395   5.493  0.0887  0.4941  0.1909
 1636poe     o2 6671   5.658   6.450   5.546  0.6216 -0.2050 -0.2557
 1636poe    c31 6672   5.685   6.574   5.484  0.1256  0.2289  0.3792
 1637poe    c31 6673   3.879   4.861   0.391 -0.0938 -0.1436 -0.0495
 1637poe     o2 6674   3.920   4.779   0.284 -0.1313  0.0133 -0.1859
 1637poe    c23 6675   3.872   4.820   0.158 -0.1406 -0.2119 -0.2559
 1637poe    c23 6676   3.967   4.760   0.052 -0.0281 -0.1973 -0.1651
 1637poe     o2 6677   3.974   4.621   0.074 -0.3691 -0.3045 -0.7076
 1637poe    c23 6678   4.083   4.567   0.003  0.1764 -0.1105 -0.0236
 1637poe    c23 6679   4.112   4.436   0.080  0.4169 -0.2097 -0.2792
 1637poe     o2 6680   4.088   4.464   0.216  0.0008  0.0903 -0.4111
 1637poe    c23 6681   4.062   4.345   0.289  1.2203  0.1395  0.1245
 1637poe    c23 6682   4.062   4.389   0.436 -0.3056  0.1075  0.1463
 1637poe     o2 6683   3.998   4.514   0.449 -0.3784  0.0436  0.4170
 1637poe    c31 6684   3.982   4.556   0.583  0.3176  0.1932  0.4580
 1638poe    c31 6685   3.226   5.861   2.201  0.0443  0.9066 -0.0573
 1638poe     o2 6686   3.346   5.821   2.139 -0.3492  0.2763 -0.4164
 1638poe    c23 6687   3.349   5.680   2.128  0.3273  0.2973 -0.5273
 1638poe    c23 6688   3.482   5.629   2.070  0.1721 -0.2967 -0.3692
 1638poe     o2 6689   3.586   5.654   2.162 -0.4503 -0.2416  0.3247
 1638poe    c23 6690   3.691   5.565   2.132 -0.2862  0.1562 -0.2774
 1638poe    c23 6691   3.814   5.567   2.225 -0.5132 -0.2350  0.0292
 1638poe     o2 6692   3.887   5.687   2.215 -0.5291 -0.2140  0.1585
 1638poe    c23 6693   4.002   5.691   2.296 -0.5329 -0.0433  0.1557
 1638poe    c23 6694   4.076   5.815   2.242 -0.2086 -0.4228 -0.2814
 1638poe     o2 6695   3.988   5.925   2.232  0.1840 -0.0635  0.1782
 1638poe    c31 6696   4.060   6.042   2.200  0.4056 -0.1838  0.2380
 1639poe    c31 6697   2.472   6.832   2.666 -0.3593 -0.0611 -0.0220
 1639poe     o2 6698   2.487   6.789   2.533  0.4172  0.1849 -0.0188
 1639poe    c23 6699   2.614   6.803   2.473  0.2107  0.1715 -0.4593
 1639poe    c23 6700   2.606   6.877   2.338 -0.1007  0.1714 -0.4411
 1639poe     o2 6701   2.508   6.805   2.267 -0.2955  0.1101 -0.1110
 1639poe    c23 6702   2.458   6.873   2.154  0.0358 -0.1530 -0.4162
 1639poe    c23 6703   2.360   6.774   2.090 -0.3513 -0.1111  0.1068
 1639poe     o2 6704   2.261   6.724   2.177 -0.1203  0.1472  0.5158
 1639poe    c23 6705   2.153   6.674   2.102  0.6684 -0.9243  0.0784
 1639poe    c23 6706   2.041   6.626   2.197  0.2660 -0.0743  0.0364
 1639poe     o2 6707   2.007   6.730   2.286  0.4399 -0.0843  0.1157
 1639poe    c31 6708   1.895   6.690   2.362  0.5267 -0.2970  0.1316
 1640poe    c31 6709   1.444   5.904   3.330 -0.7311  0.4862  0.0885
 1640poe     o2 6710   1.429   5.773   3.279  0.1665  0.0317  0.9317
 1640poe    c23 6711   1.319   5.702   3.331  0.2272 -0.3613  0.5259
 1640poe    c23 6712   1.305   5.576   3.244 -0.1251 -0.1615  0.2943
 1640poe     o2 6713   1.338   5.609   3.111  0.1063 -0.4731  0.2729
 1640poe    c23 6714   1.345   5.494   3.030  0.1965 -0.1803 -0.1367
 1640poe    c23 6715   1.350   5.546   2.885 -0.2457  0.6171  0.1243
 1640poe     o2 6716   1.429   5.663   2.883  0.0698  0.4048  0.0496
 1640poe    c23 6717   1.470   5.687   2.750 -1.0675  0.7826 -0.2419
 1640poe    c23 6718   1.557   5.814   2.756  0.0100  0.0519 -0.0608
 1640poe     o2 6719   1.663   5.806   2.848 -0.0327  0.8075  0.0634
 1640poe    c31 6720   1.764   5.899   2.818  0.2650  0.2560 -0.6748
 1641poe    c31 6721   1.380   1.363   6.589  0.2672  0.1677 -0.0416
 1641poe     o2 6722   1.291   1.266   6.640  0.0293  0.1282 -0.5339
 1641poe    c23 6723   1.316   1.261   6.778 -0.3493  0.4754 -0.4523
 1641poe    c23 6724   1.237   1.143   6.838 -0.0672  0.2835 -0.4585
 1641poe     o2 6725   1.106   1.166   6.884 -0.1581 -0.2548 -0.4434
 1641poe    c23 6726   1.054   1.075   6.979  0.2526 -0.0027  0.0271
 1641poe    c23 6727   0.903   1.104   6.992  0.0896 -0.8277  0.0140
 1641poe     o2 6728   0.869   1.210   7.078  0.1093 -0.2667 -0.6654
 1641poe    c23 6729   0.748   1.269   7.036 -0.3274 -0.4406  0.3287
 1641poe    c23 6730   0.739   1.410   7.097 -0.1325 -0.3742  0.2021
 1641poe     o2 6731   0.840   1.500   7.057 -0.3871 -0.2484 -0.1531
 1641poe    c31 6732   0.849   1.606   7.150  0.2714 -0.2845 -0.1679
 1642poe    c31 6733   1.089   1.088   1.120  0.1914  0.0845 -0.2259
 1642poe     o2 6734   1.165   1.196   1.070 -0.0420  0.0177 -0.7267
 1642poe    c23 6735   1.301   1.160   1.062  0.0284  0.0581  0.2614
 1642poe    c23 6736   1.378   1.293   1.060 -0.2471  0.2165  0.0308
 1642poe     o2 6737   1.321   1.370   0.957 -0.1474  0.2488 -0.0006
 1642poe    c23 6738   1.391   1.487   0.922  0.1245  0.2167  0.4198
 1642poe    c23 6739   1.304   1.561   0.818 -0.1142  0.1436  0.5684
 1642poe     o2 6740   1.166   1.541   0.840 -0.2919  0.6477 -0.0749
 1642poe    c23 6741   1.103   1.659   0.796 -0.1537  0.6680 -0.2181
 1642poe    c23 6742   0.950   1.658   0.810 -0.0901  0.3726  0.5018
 1642poe     o2 6743   0.918   1.648   0.947  0.0802 -0.9443  0.4618
 1642poe    c31 6744   0.782   1.660   0.982 -0.0112  0.0568 -0.1929
 1643poe    c31 6745   3.223   5.163   2.867  0.0546  0.1881 -0.1837
 1643poe     o2 6746   3.290   5.244   2.961 -0.3978  0.0649  0.2492
 1643poe    c23 6747   3.211   5.353   3.003 -0.5756 -0.0556  0.2289
 1643poe    c23 6748   3.296   5.480   3.018  0.0279 -0.5257  0.8230
 1643poe     o2 6749   3.382   5.467   3.129  0.4646  0.1288  0.5658
 1643poe    c23 6750   3.430   5.585   3.189  0.7501  0.2220  0.1620
 1643poe    c23 6751   3.517   5.551   3.312  0.2333 -0.0939  0.4424
 1643poe     o2 6752   3.434   5.532   3.425 -0.1958 -0.1689  0.1168
 1643poe    c23 6753   3.504   5.511   3.545  0.6130  0.1291 -0.2933
 1643poe    c23 6754   3.442   5.549   3.681 -0.3762 -0.3760 -0.5920
 1643poe     o2 6755   3.462   5.682   3.724 -0.0029 -0.3641 -0.7940
 1643poe    c31 6756   3.367   5.711   3.825  0.2318 -0.0552 -0.6593
 1644poe    c31 6757   4.615   2.078   3.701 -0.1652 -0.4305  0.0309
 1644poe     o2 6758   4.728   2.026   3.768 -0.0433 -0.3705 -0.1284
 1644poe    c23 6759   4.700   1.937   3.874 -0.0596 -0.4658 -0.2134
 1644poe    c23 6760   4.837   1.906   3.938  0.0026  0.0601 -0.0849
 1644poe     o2 6761   4.928   1.892   3.832 -0.0284  0.3226 -0.1456
 1644poe    c23 6762   5.057   1.858   3.878 -0.1682 -0.0312 -0.0124
 1644poe    c23 6763   5.148   1.846   3.754  0.5176  0.4475  0.4445
 1644poe     o2 6764   5.118   1.954   3.668  0.2348  0.1455  0.1636
 1644poe    c23 6765   5.198   1.931   3.554 -0.1549  0.2536 -0.1351
 1644poe    c23 6766   5.235   2.050   3.465 -0.0044  0.0605 -0.3316
 1644poe     o2 6767   5.115   2.113   3.426 -0.3893 -0.0711  0.6215
 1644poe    c31 6768   5.134   2.181   3.304 -0.3269 -0.4848  0.4003
 1645poe    c31 6769   1.207   5.516   5.624 -0.0300  0.2070 -0.1302
 1645poe     o2 6770   1.338   5.477   5.659 -0.2577 -0.0365  0.4788
 1645poe    c23 6771   1.376   5.343   5.636 -0.0173  0.2279 -0.7814
 1645poe    c23 6772   1.528   5.320   5.635  0.0549  0.6605 -0.3177
 1645poe     o2 6773   1.594   5.317   5.759  0.1477  0.1023 -0.3789
 1645poe    c23 6774   1.730   5.288   5.732  0.3212  0.1320  0.4239
 1645poe    c23 6775   1.812   5.242   5.854 -0.1123 -0.2110  0.5919
 1645poe     o2 6776   1.807   5.344   5.951 -0.0193 -0.1104  0.4909
 1645poe    c23 6777   1.836   5.306   6.083  0.1463 -0.2410  0.4174
 1645poe    c23 6778   1.797   5.412   6.188 -0.0574  0.1706 -0.0753
 1645poe     o2 6779   1.662   5.447   6.172  0.0146  0.4829 -0.0065
 1645poe    c31 6780   1.612   5.507   6.289  0.1836 -0.0247  0.3280
 1646poe    c31 6781   3.077   5.826   4.883  0.0698  0.0791  0.5439
 1646poe     o2 6782   3.151   5.935   4.834  0.3867 -0.3840 -0.0273
 1646poe    c23 6783   3.232   5.898   4.725 -0.0782  0.2681 -0.6029
 1646poe    c23 6784   3.297   6.022   4.660  0.0085  0.5615  0.0430
 1646poe     o2 6785   3.389   6.095   4.739  0.4531 -0.1973  0.2355
 1646poe    c23 6786   3.437   6.222   4.699  0.0242 -0.1286 -0.0713
 1646poe    c23 6787   3.480   6.310   4.818  0.0162 -0.5616  0.2579
 1646poe     o2 6788   3.382   6.327   4.918  0.2937  0.3385  0.3901
 1646poe    c23 6789   3.415   6.448   4.982  0.3243  0.4871  0.0945
 1646poe    c23 6790   3.344   6.455   5.119  0.3504 -0.0600  0.1364
 1646poe     o2 6791   3.211   6.499   5.116  0.4025  0.1219  0.5111
 1646poe    c31 6792   3.163   6.446   5.238 -0.3697  0.2912  0.2875
 1647poe    c31 6793   2.630   5.255   1.676  0.9532  0.1948 -1.0056
 1647poe     o2 6794   2.628   5.117   1.647  0.0738 -0.0095 -0.0367
 1647poe    c23 6795   2.695   5.040   1.744  0.2999  0.2900  0.0467
 1647poe    c23 6796   2.740   4.914   1.668 -0.0961  0.2570 -0.1355
 1647poe     o2 6797   2.625   4.872   1.599 -0.0454 -0.2786  0.0979
 1647poe    c23 6798   2.647   4.765   1.510  0.3388 -0.5488  0.5152
 1647poe    c23 6799   2.509   4.730   1.453  0.3750  0.1826 -0.0298
 1647poe     o2 6800   2.451   4.857   1.428 -0.4711 -0.1625  0.1272
 1647poe    c23 6801   2.364   4.849   1.318  0.2068  0.2866 -0.4580
 1647poe    c23 6802   2.309   4.989   1.285 -0.0089  0.4269  0.4564
 1647poe     o2 6803   2.405   5.086   1.253 -0.0128  0.2863  0.0044
 1647poe    c31 6804   2.349   5.212   1.222 -0.4832 -0.0518 -0.5379
 1648poe    c31 6805   0.234   4.567   1.824  0.2583 -0.3777 -0.2139
 1648poe     o2 6806   0.227   4.437   1.878  0.2539 -0.2509  0.0956
 1648poe    c23 6807   0.121   4.363   1.821 -0.1228  0.2299  0.1632
 1648poe    c23 6808   0.144   4.219   1.873 -0.3090  0.1267 -0.0373
 1648poe     o2 6809   0.276   4.172   1.854 -0.2761  0.2853 -0.2100
 1648poe    c23 6810   0.310   4.043   1.900 -0.4823  0.1024 -0.5652
 1648poe    c23 6811   0.459   4.034   1.861 -0.4242  0.1742 -0.3610
 1648poe     o2 6812   0.528   4.136   1.929  0.2224 -0.5858  0.1396
 1648poe    c23 6813   0.664   4.106   1.946  0.3109 -0.1248  0.2535
 1648poe    c23 6814   0.739   4.236   1.981  0.0764  0.1315 -0.1888
 1648poe     o2 6815   0.707   4.324   1.876  0.1008  0.2217 -0.1210
 1648poe    c31 6816   0.789   4.439   1.882 -0.1771  0.4341 -0.3309
 1649poe    c31 6817   4.578   0.063   6.164  0.2331  0.1260 -0.4236
 1649poe     o2 6818   4.562  -0.063   6.104  0.1669 -0.0504 -0.0342
 1649poe    c23 6819   4.633  -0.165   6.171  0.6609  0.2801 -0.0500
 1649poe    c23 6820   4.610  -0.300   6.100  0.0423  0.2977  0.1114
 1649poe     o2 6821   4.691  -0.313   5.985  0.1582  0.0068  0.2231
 1649poe    c23 6822   4.649  -0.419   5.903 -0.0229  0.4379 -0.2444
 1649poe    c23 6823   4.733  -0.436   5.775  0.6564  0.0360  0.2498
 1649poe     o2 6824   4.725  -0.314   5.705  0.3952 -0.1603 -0.0684
 1649poe    c23 6825   4.821  -0.307   5.601  0.6467  0.0428  0.1743
 1649poe    c23 6826   4.783  -0.168   5.546  0.6735  0.0151  0.0860
 1649poe     o2 6827   4.772  -0.082   5.658 -0.0441 -0.0086  0.0408
 1649poe    c31 6828   4.730   0.045   5.615  0.1234  0.0560  0.0665
 1650poe    c31 6829   2.995   1.421   0.392  0.2334 -0.0907 -0.4096
 1650poe     o2 6830   2.992   1.514   0.286  0.4899  0.2187 -0.1516
 1650poe    c23 6831   2.875   1.591   0.302  0.1442 -0.2312 -0.4779
 1650poe    c23 6832   2.861   1.711   0.207 -0.1769 -0.3414 -0.5708
 1650poe     o2 6833   2.967   1.804   0.216 -0.4223 -0.1733  0.8535
 1650poe    c23 6834   2.936   1.918   0.140  0.0909 -0.4999  0.1458
 1650poe    c23 6835   3.061   2.006   0.126 -0.2993 -0.0426 -0.5854
 1650poe     o2 6836   3.155   1.948   0.038 -0.0615 -0.1071 -0.2933
 1650poe    c23 6837   3.278   2.012   0.060 -0.1800  0.0511 -0.0917
 1650poe    c23 6838   3.386   1.956  -0.035  0.1117 -0.0441  0.2905
 1650poe     o2 6839   3.406   1.819  -0.011  0.2327 -0.0143  0.3610
 1650poe    c31 6840   3.521   1.777  -0.080 -0.2077  0.0025 -0.3969
 1651poe    c31 6841   5.458   3.354   4.312  0.1396 -0.7386  0.6829
 1651poe     o2 6842   5.378   3.338   4.427  0.2311 -0.0223  0.8501
 1651poe    c23 6843   5.259   3.414   4.425  0.1786 -0.1144  0.3592
 1651poe    c23 6844   5.160   3.372   4.534  0.0667 -0.1040  0.2613
 1651poe     o2 6845   5.214   3.383   4.664  0.5539 -0.2769  0.0724
 1651poe    c23 6846   5.122   3.345   4.763 -0.0914  0.1424 -0.3577
 1651poe    c23 6847   5.178   3.422   4.885 -0.1593 -0.4418  0.0460
 1651poe     o2 6848   5.314   3.387   4.902 -0.0439 -0.0804 -0.1132
 1651poe    c23 6849   5.382   3.471   4.991 -0.0979 -0.0276 -0.1212
 1651poe    c23 6850   5.526   3.416   4.994 -0.1368 -0.1302 -0.1483
 1651poe     o2 6851   5.566   3.388   4.862  0.3740 -0.3992  0.0622
 1651poe    c31 6852   5.691   3.322   4.854  0.1364 -0.7651 -0.7578
 1652poe    c31 6853   6.579   3.843   2.794 -0.0930  0.5307  0.2133
 1652poe     o2 6854   6.483   3.930   2.737 -0.3125  0.0513 -0.1571
 1652poe    c23 6855   6.478   4.058   2.795 -0.6383 -0.2980  0.6028
 1652poe    c23 6856   6.375   4.157   2.736 -0.0537 -0.0213  0.0375
 1652poe     o2 6857   6.240   4.125   2.760  0.0655  0.0575  0.8370
 1652poe    c23 6858   6.170   4.178   2.650  0.0237 -0.1622  0.7585
 1652poe    c23 6859   6.022   4.208   2.678 -0.0833 -0.0111  0.0552
 1652poe     o2 6860   5.959   4.092   2.728 -0.0415  0.1252  0.4271
 1652poe    c23 6861   5.836   4.130   2.784 -0.6014 -0.1702 -0.5831
 1652poe    c23 6862   5.816   4.078   2.928 -0.2016  0.4638 -0.2970
 1652poe     o2 6863   5.883   4.131   3.040 -0.4033  0.4914 -0.1893
 1652poe    c31 6864   5.808   4.095   3.154  0.1576  0.0177  0.0335
 1653poe    c31 6865   1.766   5.787   2.376 -0.4567 -0.3461 -0.1670
 1653poe     o2 6866   1.676   5.895   2.367  0.0957  0.1176 -0.2258
 1653poe    c23 6867   1.720   6.003   2.445  0.2471 -0.0720 -0.0476
 1653poe    c23 6868   1.659   6.140   2.407 -0.1896 -0.2457  0.0277
 1653poe     o2 6869   1.681   6.181   2.274 -0.2897 -0.2107  0.0222
 1653poe    c23 6870   1.658   6.318   2.252 -0.0912 -0.2181 -0.2241
 1653poe    c23 6871   1.520   6.376   2.214  0.3714  0.9159 -0.2061
 1653poe     o2 6872   1.475   6.311   2.098  0.6762  0.4460 -0.0643
 1653poe    c23 6873   1.337   6.326   2.074  0.5749 -0.2238  0.0739
 1653poe    c23 6874   1.258   6.194   2.080  0.3002 -0.0457  0.4613
 1653poe     o2 6875   1.289   6.117   1.966 -0.0970  0.6158 -0.1029
 1653poe    c31 6876   1.183   6.028   1.941 -0.1835  0.6067  0.2893
 1654poe    c31 6877   3.969   2.813   3.088 -0.2542 -0.0273  0.2079
 1654poe     o2 6878   4.046   2.915   3.028 -0.1576 -0.1372  0.1425
 1654poe    c23 6879   4.184   2.909   3.052 -0.1467 -0.2288  0.0555
 1654poe    c23 6880   4.268   2.977   2.942 -0.1241 -0.3674 -0.0132
 1654poe     o2 6881   4.253   3.117   2.947 -0.1551 -0.3710 -0.0057
 1654poe    c23 6882   4.347   3.162   2.852 -0.1611 -0.1419  0.0955
 1654poe    c23 6883   4.352   3.315   2.857  0.1650 -0.1613  0.3602
 1654poe     o2 6884   4.220   3.364   2.845  0.2809  0.2254  0.6449
 1654poe    c23 6885   4.208   3.495   2.895 -0.0553  0.3823  0.1585
 1654poe    c23 6886   4.058   3.528   2.879 -0.1400 -0.3028 -0.4789
 1654poe     o2 6887   3.999   3.415   2.937 -0.5444  0.2231  0.1411
 1654poe    c31 6888   3.859   3.401   2.921 -0.3936 -0.8904 -0.2839
 1655poe    c31 6889   5.050   0.237   1.457 -0.2786 -0.4167 -0.2508
 1655poe     o2 6890   4.960   0.178   1.365 -0.4321 -0.0948 -0.3073
 1655poe    c23 6891   4.827   0.168   1.412 -0.3375 -0.2877 -0.0792
 1655poe    c23 6892   4.728   0.093   1.322  0.0904 -0.3980 -0.4588
 1655poe     o2 6893   4.753   0.149   1.195  0.1577  0.0814 -0.2355
 1655poe    c23 6894   4.665   0.097   1.098  0.1452 -0.6161  0.1425
 1655poe    c23 6895   4.717   0.127   0.956 -0.6008 -0.5234 -0.1191
 1655poe     o2 6896   4.824   0.043   0.920  0.0147  0.1653  0.0841
 1655poe    c23 6897   4.892   0.077   0.800 -0.4294 -0.2255 -0.2817
 1655poe    c23 6898   5.002  -0.029   0.777 -0.1806  0.0093 -0.1810
 1655poe     o2 6899   5.108   0.018   0.857 -0.5120 -0.0160  0.2795
 1655poe    c31 6900   5.220  -0.066   0.840 -0.2484  0.3930 -0.0248
 1656poe    c31 6901   2.548   6.004   6.428  0.4438  0.3579 -0.2692
 1656poe     o2 6902   2.494   6.134   6.425 -0.2495  0.0738 -0.2531
 1656poe    c23 6903   2.357   6.122   6.391 -0.2279 -0.6076 -0.1166
 1656poe    c23 6904   2.304   6.266   6.401  0.1985 -0.4531 -0.0673
 1656poe     o2 6905   2.400   6.359   6.355 -0.0997 -0.2025 -0.1813
 1656poe    c23 6906   2.353   6.488   6.321  0.5324 -0.1965 -1.0449
 1656poe    c23 6907   2.453   6.603   6.344  0.1109 -0.0007 -0.1758
 1656poe     o2 6908   2.574   6.571   6.280  0.5451  0.0068  0.6334
 1656poe    c23 6909   2.655   6.682   6.248 -0.2425  0.4683  0.2166
 1656poe    c23 6910   2.784   6.634   6.178 -0.3619 -0.1445  0.4071
 1656poe     o2 6911   2.840   6.541   6.267 -0.5684 -0.4917  0.1780
 1656poe    c31 6912   2.963   6.498   6.215  0.0910  1.1364  0.3335
 1657poe    c31 6913   6.415   6.416   0.972  0.1265 -0.0141  0.1237
 1657poe     o2 6914   6.405   6.509   0.866 -0.3960 -0.2224 -0.0140
 1657poe    c23 6915   6.363   6.633   0.918  0.6377  0.1994 -0.1709
 1657poe    c23 6916   6.343   6.754   0.825  0.1123  0.3309  0.1086
 1657poe     o2 6917   6.464   6.822   0.802  0.2648  0.0254  0.0030
 1657poe    c23 6918   6.458   6.937   0.721  0.4871 -0.0083 -0.0634
 1657poe    c23 6919   6.603   6.967   0.681  0.3844  0.0286 -0.4133
 1657poe     o2 6920   6.674   7.017   0.793  0.2903  0.1527 -0.4084
 1657poe    c23 6921   6.814   7.022   0.785  0.3194 -0.1886 -0.1583
 1657poe    c23 6922   6.880   7.019   0.924 -0.2722  0.1222  0.1309
 1657poe     o2 6923   6.854   6.905   1.003 -0.6125  0.0727 -0.0530
 1657poe    c31 6924   6.896   6.917   1.137 -0.3608  0.5297 -0.1692
 1658poe    c31 6925   5.784   3.046   4.571  0.0668 -0.5094  0.3178
 1658poe     o2 6926   5.657   2.985   4.583 -0.0570 -0.3721 -0.2552
 1658poe    c23 6927   5.645   2.960   4.721  0.4133 -0.6166 -0.2571
 1658poe    c23 6928   5.514   2.881   4.731 -0.1103  0.2053 -0.5427
 1658poe     o2 6929   5.407   2.957   4.679 -0.2303  0.8710  0.6455
 1658poe    c23 6930   5.290   2.881   4.659  0.0907  0.6828 -0.5950
 1658poe    c23 6931   5.189   2.931   4.554 -0.3275  0.2399 -0.4030
 1658poe     o2 6932   5.224   2.931   4.418  0.2133  0.0079 -0.2665
 1658poe    c23 6933   5.123   2.971   4.328  0.2018  0.2829 -0.1309
 1658poe    c23 6934   5.186   2.995   4.189  0.5558  0.1125 -0.0011
 1658poe     o2 6935   5.303   2.917   4.178  0.7179  0.2262  0.8357
 1658poe    c31 6936   5.375   2.964   4.066 -0.4351 -0.0049 -0.0248
 1659poe    c31 6937   0.741   6.922   0.786 -0.0532  0.3820  0.4798
 1659poe     o2 6938   0.751   6.838   0.898  0.5008 -0.1146  0.0651
 1659poe    c23 6939   0.879   6.799   0.944  0.5953 -0.3163 -0.3651
 1659poe    c23 6940   0.874   6.682   1.043 -0.2473  0.0626  0.0517
 1659poe     o2 6941   0.832   6.563   0.980  0.3336 -0.0508 -0.1251
 1659poe    c23 6942   0.820   6.456   1.071 -0.0831  0.0692 -0.0367
 1659poe    c23 6943   0.742   6.446   1.204 -0.0980  0.5257 -0.0092
 1659poe     o2 6944   0.605   6.420   1.186 -0.0007 -0.0944  0.1292
 1659poe    c23 6945   0.568   6.316   1.274 -0.0882 -0.2479 -0.0894
 1659poe    c23 6946   0.422   6.274   1.252 -0.0790 -0.3822  0.1045
 1659poe     o2 6947   0.389   6.219   1.126  0.3677 -0.1165 -0.1305
 1659poe    c31 6948   0.252   6.187   1.125  0.2901  0.2014  0.1005
 1660poe    c31 6949   2.289   5.316   4.447 -0.2571  0.0800  0.3968
 1660poe     o2 6950   2.245   5.202   4.517  0.3677 -0.1358  0.4383
 1660poe    c23 6951   2.171   5.128   4.422  0.4217  0.3498  0.0113
 1660poe    c23 6952   2.121   4.997   4.485 -0.2449  0.3889 -0.4280
 1660poe     o2 6953   2.005   5.031   4.557  0.0943  0.2964  0.1693
 1660poe    c23 6954   1.936   4.921   4.613 -0.0928  0.4058  0.1538
 1660poe    c23 6955   1.800   4.975   4.661 -0.2017  0.3224 -0.0560
 1660poe     o2 6956   1.802   5.106   4.714  0.5136  0.0379  0.6556
 1660poe    c23 6957   1.678   5.155   4.761  0.4774  0.4214  0.1680
 1660poe    c23 6958   1.714   5.297   4.810  0.3119  0.3641  0.4568
 1660poe     o2 6959   1.792   5.360   4.711  0.1222 -0.2174 -0.0647
 1660poe    c31 6960   1.781   5.500   4.714 -0.5550 -0.2679  0.1426
 1661poe    c31 6961   2.030   3.316   4.964 -0.3944  0.4361 -0.2571
 1661poe     o2 6962   2.132   3.376   4.888 -0.1023 -0.4850 -0.6045
 1661poe    c23 6963   2.089   3.448   4.775  0.0297 -0.2879 -0.5301
 1661poe    c23 6964   2.212   3.520   4.718  0.0435 -0.2937 -0.5067
 1661poe     o2 6965   2.269   3.584   4.830  0.2153 -0.1450 -0.6771
 1661poe    c23 6966   2.335   3.698   4.781  0.5871  0.1345  0.4414
 1661poe    c23 6967   2.422   3.761   4.891  0.3323  0.4346  0.4737
 1661poe     o2 6968   2.548   3.697   4.898 -0.1278 -0.4776  0.5332
 1661poe    c23 6969   2.571   3.702   5.037  0.8790  0.3467  0.3498
 1661poe    c23 6970   2.686   3.606   5.070  0.4088 -0.1511  0.5612
 1661poe     o2 6971   2.648   3.471   5.052  0.2753 -0.0472  0.0520
 1661poe    c31 6972   2.750   3.382   5.092  0.7697  0.4066 -0.1882
 1662poe    c31 6973   5.947   4.373   6.107  0.6804  0.1129 -0.2214
 1662poe     o2 6974   5.900   4.240   6.093  0.1863  0.3092 -0.4701
 1662poe    c23 6975   5.772   4.220   6.148  0.1430  0.1202 -0.6389
 1662poe    c23 6976   5.726   4.086   6.088 -0.0951  0.0283 -0.2522
 1662poe     o2 6977   5.837   4.001   6.074  0.0747  0.1603  0.2547
 1662poe    c23 6978   5.807   3.877   6.013  0.4190  0.4487 -0.5149
 1662poe    c23 6979   5.935   3.799   5.977 -0.0190 -0.5405  0.0326
 1662poe     o2 6980   6.016   3.892   5.909 -0.5452 -0.2556 -0.2112
 1662poe    c23 6981   6.135   3.841   5.853 -0.1584 -0.0075  0.3715
 1662poe    c23 6982   6.209   3.951   5.774 -0.8386 -0.0048 -0.2758
 1662poe     o2 6983   6.253   4.051   5.863 -0.1545 -0.8080  0.3043
 1662poe    c31 6984   6.293   4.159   5.781  0.0511 -0.7694  0.4540
 1663poe    c31 6985   2.287   6.791   5.044  0.0551 -0.0495 -0.0333
 1663poe     o2 6986   2.271   6.837   5.176 -0.1691  0.1141 -0.1191
 1663poe    c23 6987   2.147   6.816   5.240  0.3275 -0.9401  0.5200
 1663poe    c23 6988   2.127   6.914   5.357  0.3369 -0.0721 -0.1959
 1663poe     o2 6989   2.243   6.912   5.437  0.4656  0.3514 -0.3660
 1663poe    c23 6990   2.225   6.994   5.550  0.3171  0.1801 -0.2638
 1663poe    c23 6991   2.365   7.000   5.614  0.1843  0.2328  0.0249
 1663poe     o2 6992   2.437   7.090   5.531  0.1549  0.0347 -0.2181
 1663poe    c23 6993   2.575   7.084   5.560  0.1210  0.0220 -0.0563
 1663poe    c23 6994   2.633   7.214   5.501 -0.0372  0.1877  0.1490
 1663poe     o2 6995   2.619   7.205   5.361  0.3079 -0.6307  0.1620
 1663poe    c31 6996   2.692   7.305   5.295 -0.0968 -0.2936  0.2197
 1664poe    c31 6997   5.936   5.629   0.680 -0.3694 -0.2603 -0.4217
 1664poe     o2 6998   5.982   5.517   0.752  0.0323  0.0454 -0.1963
 1664poe    c23 6999   6.120   5.491   0.739 -0.0729 -0.3556 -0.5360
 1664poe    c23 7000   6.152   5.362   0.817  0.1395 -0.0643 -0.1416
 1664poe     o2 7001   6.069   5.359   0.931 -0.3176 -0.3179 -0.4806
 1664poe    c23 7002   6.111   5.254   1.015 -1.0479 -0.3288 -0.1212
 1664poe    c23 7003   6.090   5.306   1.159 -0.2001 -0.3689  0.0213
 1664poe     o2 7004   5.955   5.341   1.175  0.0317  0.5015  0.1251
 1664poe    c23 7005   5.927   5.369   1.311 -0.1158  0.4122  0.1141
 1664poe    c23 7006   5.790   5.433   1.340 -0.3165 -0.3210  0.8004
 1664poe     o2 7007   5.788   5.569   1.303 -1.0671 -0.5549 -0.0427
 1664poe    c31 7008   5.665   5.636   1.321 -0.7775 -0.1271  0.3505
 1665poe    c31 7009   0.036   2.414   6.700  0.2218  0.4396 -0.6976
 1665poe     o2 7010  -0.095   2.361   6.703  0.3261  0.2067  0.0749
 1665poe    c23 7011  -0.091   2.227   6.660  0.4238  0.2020  0.0982
 1665poe    c23 7012  -0.220   2.162   6.712  0.2358  0.7416  0.3115
 1665poe     o2 7013  -0.326   2.225   6.645  0.1969  0.6276  0.2647
 1665poe    c23 7014  -0.445   2.197   6.715  0.0863 -0.0446 -0.1857
 1665poe    c23 7015  -0.557   2.249   6.622  0.2428  0.1988 -0.2384
 1665poe     o2 7016  -0.535   2.385   6.590  0.2261  0.1606 -0.4094
 1665poe    c23 7017  -0.663   2.436   6.559  0.1738  0.0833 -0.3224
 1665poe    c23 7018  -0.626   2.570   6.493  0.4935  0.1109 -0.0906
 1665poe     o2 7019  -0.509   2.551   6.416  0.2676 -0.4617 -0.2949
 1665poe    c31 7020  -0.485   2.643   6.312  0.1561 -0.3215 -0.1976
 1666poe    c31 7021   2.286   1.688   2.242  0.3771 -0.5763  0.1630
 1666poe     o2 7022   2.249   1.757   2.125  0.1700  0.0140  0.5698
 1666poe    c23 7023   2.165   1.681   2.041 -0.1424  0.2553  0.6621
 1666poe    c23 7024   2.097   1.770   1.935  0.4051  0.0138  0.1027
 1666poe     o2 7025   2.190   1.818   1.841  0.2634 -0.1114 -0.1022
 1666poe    c23 7026   2.138   1.935   1.783  0.3831  0.0909  0.1997
 1666poe    c23 7027   2.232   1.990   1.674  0.0265  0.2572 -0.0284
 1666poe     o2 7028   2.350   2.033   1.739 -0.0579  0.3181  0.0852
 1666poe    c23 7029   2.432   2.076   1.632 -0.4193  0.0209 -0.3160
 1666poe    c23 7030   2.562   2.118   1.702 -0.3180 -1.0131  0.1333
 1666poe     o2 7031   2.526   2.170   1.828  0.1757 -0.2269 -0.0439
 1666poe    c31 7032   2.635   2.223   1.900  0.0873 -0.3872  0.2077
 1667poe    c31 7033   0.277   1.995   3.433 -0.0079 -0.4621 -0.9444
 1667poe     o2 7034   0.331   1.874   3.482  0.4531  0.1132 -0.0148
 1667poe    c23 7035   0.224   1.790   3.520  0.4164  0.1311 -0.0782
 1667poe    c23 7036   0.288   1.671   3.595  0.1501  0.1410  0.1626
 1667poe     o2 7037   0.386   1.621   3.507 -0.1879  0.1343 -0.2171
 1667poe    c23 7038   0.466   1.526   3.574 -0.0620  0.3592 -0.0440
 1667poe    c23 7039   0.592   1.513   3.487 -0.0204  0.0034  0.0665
 1667poe     o2 7040   0.639   1.644   3.465 -0.0123  0.0025  0.0778
 1667poe    c23 7041   0.770   1.632   3.414  0.0172  0.1347  0.1204
 1667poe    c23 7042   0.835   1.764   3.370 -0.4044  0.2963 -0.0237
 1667poe     o2 7043   0.767   1.830   3.266 -0.9202 -0.0148  0.1119
 1667poe    c31 7044   0.810   1.964   3.263  0.1074 -0.3349  0.0643
 1668poe    c31 7045   6.753   3.467   4.802  0.5762  0.3455  0.5266
 1668poe     o2 7046   6.781   3.334   4.839 -0.0151  0.1444  0.2780
 1668poe    c23 7047   6.699   3.246   4.767 -0.4221  0.3354  0.5054
 1668poe    c23 7048   6.572   3.205   4.843 -0.4596 -0.4698  0.0227
 1668poe     o2 7049   6.614   3.129   4.955 -0.0075 -0.1839  0.0471
 1668poe    c23 7050   6.499   3.131   5.037 -0.0762 -0.1377 -0.0499
 1668poe    c23 7051   6.519   3.039   5.158 -0.0306  0.0067  0.0526
 1668poe     o2 7052   6.641   3.086   5.210  0.3291 -0.4927 -0.3279
 1668poe    c23 7053   6.668   3.030   5.336  0.1285 -0.3257 -0.2101
 1668poe    c23 7054   6.811   3.071   5.374 -0.1021  0.3340 -0.0443
 1668poe     o2 7055   6.887   3.067   5.255 -0.1843  0.4019 -0.0988
 1668poe    c31 7056   7.013   3.125   5.280 -0.3339  0.4301  0.6120
 1669poe    c31 7057   2.533   3.634   1.980  0.1314  0.0607 -0.4515
 1669poe     o2 7058   2.549   3.753   2.054 -0.0047 -0.0785 -0.1991
 1669poe    c23 7059   2.664   3.755   2.136  0.2990  0.6080 -0.6411
 1669poe    c23 7060   2.670   3.883   2.221  0.4490  0.0796  0.1551
 1669poe     o2 7061   2.657   4.004   2.150 -0.7171 -0.1692 -0.0743
 1669poe    c23 7062   2.635   4.114   2.236  0.0155 -0.1112  0.0454
 1669poe    c23 7063   2.663   4.241   2.154 -0.5532 -0.1606 -0.2301
 1669poe     o2 7064   2.590   4.246   2.033 -0.4500 -0.3355 -0.2992
 1669poe    c23 7065   2.638   4.352   1.954 -0.6241  0.2908  0.4153
 1669poe    c23 7066   2.560   4.346   1.821 -0.5589 -0.0377  0.3902
 1669poe     o2 7067   2.555   4.212   1.777 -0.0003  0.1457 -0.2408
 1669poe    c31 7068   2.489   4.207   1.652 -0.1372 -0.0350 -0.1613
 1670poe    c31 7069   2.687   6.354   2.895 -0.8107  0.8011 -0.5568
 1670poe     o2 7070   2.572   6.319   2.970  0.1044 -0.5531  0.2660
 1670poe    c23 7071   2.505   6.431   3.022  0.3534 -0.4293  0.3227
 1670poe    c23 7072   2.384   6.373   3.097 -0.5234  0.3466 -0.4640
 1670poe     o2 7073   2.341   6.267   3.014  0.0939 -0.1844 -0.1092
 1670poe    c23 7074   2.241   6.189   3.075  0.0958 -0.1545 -0.0679
 1670poe    c23 7075   2.225   6.062   2.989 -0.2829 -0.0075 -0.2184
 1670poe     o2 7076   2.361   6.029   2.970 -0.3450 -0.3971 -0.0040
 1670poe    c23 7077   2.390   5.904   2.911 -0.7618 -0.3614 -0.2860
 1670poe    c23 7078   2.544   5.907   2.907 -0.7744  0.4009 -0.4105
 1670poe     o2 7079   2.575   6.033   2.852  0.1416  0.5211  0.3548
 1670poe    c31 7080   2.684   6.016   2.764 -0.5200 -0.1804 -0.3528
 1671poe    c31 7081   5.192   6.284   4.719  0.0006 -0.0154 -0.0458
 1671poe     o2 7082   5.054   6.260   4.706 -0.0041  0.3552 -0.6949
 1671poe    c23 7083   5.036   6.163   4.606  0.0952  0.5101 -0.8642
 1671poe    c23 7084   4.899   6.095   4.592  0.6522 -0.7985 -0.1620
 1671poe     o2 7085   4.866   6.016   4.704 -0.0119 -0.3492 -0.0298
 1671poe    c23 7086   4.727   5.996   4.714 -0.0853 -0.0391 -0.4036
 1671poe    c23 7087   4.696   5.879   4.810  0.2635 -0.0755 -0.3319
 1671poe     o2 7088   4.730   5.901   4.945 -0.0550 -0.1800 -0.2333
 1671poe    c23 7089   4.671   5.805   5.030  0.2403 -0.2387 -0.0960
 1671poe    c23 7090   4.714   5.843   5.173 -0.0674  0.8097 -0.2774
 1671poe     o2 7091   4.849   5.877   5.155  0.1496  0.0918 -0.0362
 1671poe    c31 7092   4.901   5.900   5.284 -0.3378 -0.7874  0.3214
 1672poe    c31 7093   5.124   6.380   5.152  0.7946 -0.1390  0.1145
 1672poe     o2 7094   5.119   6.488   5.060  0.1433 -0.0631  0.2312
 1672poe    c23 7095   5.249   6.532   5.030 -0.0425 -0.2529 -0.8976
 1672poe    c23 7096   5.248   6.659   4.943  0.4318  0.4483  0.0880
 1672poe     o2 7097   5.148   6.636   4.846  0.2505  0.3253  0.3049
 1672poe    c23 7098   5.150   6.732   4.744 -0.4048  0.0747  0.0492
 1672poe    c23 7099   5.055   6.682   4.634 -0.1710 -0.2757  0.0064
 1672poe     o2 7100   4.931   6.647   4.691 -0.2862 -0.2046 -0.1968
 1672poe    c23 7101   4.827   6.644   4.595 -0.0454 -0.7004 -0.4393
 1672poe    c23 7102   4.697   6.611   4.671 -0.0931 -0.0853 -0.2523
 1672poe     o2 7103   4.708   6.474   4.700 -0.3511 -0.0963 -0.2054
 1672poe    c31 7104   4.573   6.434   4.706 -0.3409 -0.0870  0.1068
 1673poe    c31 7105   1.773   4.181   5.911 -0.6966 -0.0741  0.1289
 1673poe     o2 7106   1.670   4.260   5.857  0.0217  1.0140  0.3225
 1673poe    c23 7107   1.555   4.256   5.939 -0.3378  0.3512 -0.2021
 1673poe    c23 7108   1.436   4.317   5.862 -0.3151  0.4295 -0.1758
 1673poe     o2 7109   1.476   4.417   5.772  0.3314  0.1776 -0.1741
 1673poe    c23 7110   1.365   4.482   5.714 -0.1817 -0.0769  0.5185
 1673poe    c23 7111   1.403   4.561   5.588 -0.3837 -0.2131  0.3705
 1673poe     o2 7112   1.508   4.651   5.620 -0.4677  0.1366 -0.3114
 1673poe    c23 7113   1.467   4.780   5.579 -0.1413  0.3272 -0.0392
 1673poe    c23 7114   1.586   4.876   5.599 -0.1286  0.3349 -0.1534
 1673poe     o2 7115   1.699   4.842   5.523  0.1775  0.4872  0.2308
 1673poe    c31 7116   1.776   4.956   5.492  0.0441  0.5723  0.2112
 1674poe    c31 7117   3.318   3.896   3.633  0.0151 -0.1070  0.3214
 1674poe     o2 7118   3.367   3.772   3.679 -0.0326 -0.0090  0.6368
 1674poe    c23 7119   3.506   3.765   3.656 -0.1076  0.0893  0.1441
 1674poe    c23 7120   3.588   3.658   3.732  0.2595 -0.2168 -0.6694
 1674poe     o2 7121   3.527   3.531   3.723  0.3574 -0.2836 -0.4019
 1674poe    c23 7122   3.599   3.423   3.775  0.4755  0.0438  0.1218
 1674poe    c23 7123   3.533   3.292   3.728  0.6008 -0.0912  0.3196
 1674poe     o2 7124   3.396   3.288   3.760  0.5709  0.0059  0.1998
 1674poe    c23 7125   3.340   3.175   3.697  0.2355 -0.0224  0.5413
 1674poe    c23 7126   3.186   3.179   3.700  0.2041 -0.5528 -0.0497
 1674poe     o2 7127   3.126   3.279   3.621  0.3852 -0.0746  0.4136
 1674poe    c31 7128   2.986   3.283   3.635  0.3517  0.1173  0.0358
 1675poe    c31 7129   5.608   3.717   4.266  0.2294  0.1605 -0.3903
 1675poe     o2 7130   5.536   3.661   4.158 -0.7019  0.3498  0.1206
 1675poe    c23 7131   5.584   3.731   4.045  0.0452  0.2465  0.3715
 1675poe    c23 7132   5.486   3.702   3.930  0.2728  0.0887  0.2146
 1675poe     o2 7133   5.366   3.771   3.957  0.1503  0.0561 -0.2430
 1675poe    c23 7134   5.288   3.789   3.841 -0.0007  0.0985 -0.1352
 1675poe    c23 7135   5.175   3.684   3.839 -0.0368  0.1333  0.0487
 1675poe     o2 7136   5.098   3.701   3.956 -0.1526  0.2669 -0.0460
 1675poe    c23 7137   4.983   3.621   3.972 -0.2111  0.3086 -0.2612
 1675poe    c23 7138   4.897   3.673   4.088 -0.1517  0.1111 -0.1275
 1675poe     o2 7139   4.986   3.693   4.196 -0.2890 -0.0303  0.0119
 1675poe    c31 7140   4.917   3.687   4.318  0.3105  0.0773  0.3636
 1676poe    c31 7141   3.551   1.151   5.496  1.1233  0.0294  0.0031
 1676poe     o2 7142   3.484   1.094   5.386  0.2613  0.4523  0.3022
 1676poe    c23 7143   3.343   1.100   5.390  0.2142 -0.3132  0.1246
 1676poe    c23 7144   3.264   1.032   5.277  0.0482 -0.2551  0.2044
 1676poe     o2 7145   3.264   1.114   5.162 -0.3339 -0.4048  0.0965
 1676poe    c23 7146   3.192   1.053   5.057 -0.5193 -0.3209  0.1769
 1676poe    c23 7147   3.188   1.154   4.941  0.3584 -0.3917  0.0778
 1676poe     o2 7148   3.316   1.203   4.911  0.2473 -0.2398 -0.1547
 1676poe    c23 7149   3.326   1.264   4.784  0.0995  0.0890 -0.0101
 1676poe    c23 7150   3.472   1.312   4.775 -0.0049  0.4431  0.1707
 1676poe     o2 7151   3.507   1.376   4.895 -0.4372  0.3125  0.3684
 1676poe    c31 7152   3.637   1.428   4.879 -0.1088 -0.5204  0.3328
 1677poe    c31 7153   2.152   2.227   6.921 -0.1927 -0.0088  0.7396
 1677poe     o2 7154   2.021   2.240   6.972 -0.3256  0.3024  0.3288
 1677poe    c23 7155   2.028   2.247   7.113  0.3212  0.7334  0.2790
 1677poe    c23 7156   1.902   2.318   7.165 -0.2039 -0.1433  0.2259
 1677poe     o2 7157   1.786   2.289   7.091 -0.2104  0.1167  0.1315
 1677poe    c23 7158   1.674   2.300   7.176 -0.2330  0.6429  0.0332
 1677poe    c23 7159   1.546   2.254   7.104  0.0102  0.1688 -0.0991
 1677poe     o2 7160   1.534   2.330   6.986  0.3413 -0.1917 -0.3664
 1677poe    c23 7161   1.450   2.282   6.884 -0.0898  0.1976 -0.1990
 1677poe    c23 7162   1.452   2.365   6.754  0.1440  0.7924  0.1817
 1677poe     o2 7163   1.584   2.360   6.706 -0.1258 -0.3890 -0.4933
 1677poe    c31 7164   1.590   2.460   6.606  0.5877 -0.1410 -0.2112
 1678poe    c31 7165   2.963   1.943   3.139  0.2313 -0.3469  0.0817
 1678poe     o2 7166   3.040   1.915   3.254 -0.1215 -0.2262  0.3503
 1678poe    c23 7167   2.965   1.924   3.373 -0.1343 -0.4042  0.3560
 1678poe    c23 7168   3.041   1.877   3.498 -0.0166  0.0010  0.4379
 1678poe     o2 7169   3.066   1.739   3.506 -0.3809 -0.1088 -0.2290
 1678poe    c23 7170   2.975   1.673   3.591  0.0634 -0.1700  0.2092
 1678poe    c23 7171   3.035   1.537   3.629  0.7120  0.0632  0.0213
 1678poe     o2 7172   3.062   1.470   3.507  0.4657 -0.1923  0.1066
 1678poe    c23 7173   3.106   1.336   3.523  0.5807 -0.1603  0.0575
 1678poe    c23 7174   3.119   1.275   3.382 -0.2483 -0.3751  0.0692
 1678poe     o2 7175   3.210   1.353   3.309 -0.7849 -0.1322 -0.3463
 1678poe    c31 7176   3.248   1.284   3.192 -0.1930 -0.4692  0.0399
 1679poe    c31 7177   2.362   0.082   4.159 -0.3819  0.2614  0.1016
 1679poe     o2 7178   2.331   0.066   4.296 -0.1671  0.2971  0.1545
 1679poe    c23 7179   2.374  -0.062   4.337 -0.1237  0.2196 -0.1267
 1679poe    c23 7180   2.293  -0.110   4.459  0.8113 -0.1238  0.3654
 1679poe     o2 7181   2.248   0.006   4.525  0.2592 -0.5491  0.7438
 1679poe    c23 7182   2.154  -0.019   4.628 -0.2356 -0.7498  0.2461
 1679poe    c23 7183   2.146   0.107   4.717 -0.0459 -0.2298 -0.4588
 1679poe     o2 7184   2.137   0.213   4.625 -0.1343  0.2155  0.0572
 1679poe    c23 7185   2.130   0.333   4.698  0.0092  0.2829 -0.0393
 1679poe    c23 7186   2.133   0.451   4.599 -0.3843  0.3931  0.0801
 1679poe     o2 7187   2.266   0.464   4.554 -0.3939 -0.2295 -0.1341
 1679poe    c31 7188   2.311   0.593   4.587 -0.1828 -0.4027  0.2651
 1680poe    c31 7189   2.038   2.335   5.590 -0.0560 -0.7001  0.5538
 1680poe     o2 7190   1.915   2.302   5.649 -0.8134  0.1604 -0.5060
 1680poe    c23 7191   1.912   2.164   5.675 -0.1588  0.3380  0.5457
 1680poe    c23 7192   1.770   2.122   5.718 -0.2319  0.2624  0.2284
 1680poe     o2 7193   1.700   2.227   5.781  0.2834  0.5813  0.2750
 1680poe    c23 7194   1.582   2.180   5.842  0.3340  0.1125  0.0191
 1680poe    c23 7195   1.537   2.280   5.950  0.4072 -0.0334  0.1857
 1680poe     o2 7196   1.515   2.408   5.894  0.1533 -0.0047  0.3504
 1680poe    c23 7197   1.444   2.486   5.988 -0.7094 -0.3169 -0.0398
 1680poe    c23 7198   1.397   2.614   5.916 -0.4610 -0.0982  0.1886
 1680poe     o2 7199   1.501   2.708   5.899 -0.3572 -0.1908  0.3054
 1680poe    c31 7200   1.455   2.830   5.845  0.4893  0.2248  0.5087
 1681poe    c31 7201   0.715   2.741   2.875  0.2777 -0.4133  0.1656
 1681poe     o2 7202   0.748   2.702   3.007  0.1288 -0.0849  0.3018
 1681poe    c23 7203   0.824   2.804   3.066  0.2634  0.0418 -0.0872
 1681poe    c23 7204   0.853   2.788   3.217  0.4713  0.4170 -0.0838
 1681poe     o2 7205   0.952   2.690   3.241  0.1536 -0.0020 -0.4716
 1681poe    c23 7206   1.027   2.718   3.356  0.0991 -0.5247 -0.3055
 1681poe    c23 7207   1.020   2.610   3.466 -0.5439 -0.2171 -0.0393
 1681poe     o2 7208   1.089   2.487   3.462  0.2063  0.1989  0.0334
 1681poe    c23 7209   1.081   2.422   3.587 -0.4594 -0.0618 -0.1452
 1681poe    c23 7210   1.159   2.291   3.613 -0.7869 -0.1832  0.2391
 1681poe     o2 7211   1.122   2.185   3.529  0.5867 -0.4907 -0.0016
 1681poe    c31 7212   1.022   2.104   3.586 -0.0257  0.2357 -0.0264
 1682poe    c31 7213   0.401   2.522   0.631 -0.5856  0.3540 -0.0391
 1682poe     o2 7214   0.389   2.416   0.724 -0.5655  0.0492 -0.3852
 1682poe    c23 7215   0.289   2.449   0.817  0.5556  0.4623  0.7044
 1682poe    c23 7216   0.247   2.321   0.891 -0.4978  0.2961 -0.1600
 1682poe     o2 7217   0.251   2.204   0.812 -0.3600  0.1635  0.0447
 1682poe    c23 7218   0.251   2.092   0.898  0.1675  0.2003  0.0983
 1682poe    c23 7219   0.294   1.969   0.815 -0.2274  0.0332  0.1355
 1682poe     o2 7220   0.417   1.994   0.750 -0.2005  0.2365  0.2643
 1682poe    c23 7221   0.473   1.873   0.706  0.1172  0.4578  0.0509
 1682poe    c23 7222   0.617   1.880   0.652 -0.0180  0.2029 -0.3465
 1682poe     o2 7223   0.630   1.967   0.541 -0.4938 -0.3445 -0.8383
 1682poe    c31 7224   0.761   1.976   0.490 -0.3277 -0.1073 -0.3757
 1683poe    c31 7225   2.353   5.252   5.494 -0.8237 -0.1430 -0.3065
 1683poe     o2 7226   2.297   5.375   5.454  0.3534  0.3607 -0.4529
 1683poe    c23 7227   2.170   5.399   5.511  0.2015 -0.2611 -0.5243
 1683poe    c23 7228   2.131   5.542   5.470  0.1777 -0.2150 -0.3418
 1683poe     o2 7229   2.215   5.638   5.529 -0.0689 -0.2639  0.0972
 1683poe    c23 7230   2.141   5.741   5.591  0.1809 -0.1963  0.2860
 1683poe    c23 7231   2.092   5.854   5.499  0.1471  0.0905  0.6551
 1683poe     o2 7232   2.203   5.935   5.466  0.1722 -0.2114 -0.0215
 1683poe    c23 7233   2.171   6.057   5.405  0.3581 -0.1493  0.0037
 1683poe    c23 7234   2.300   6.134   5.372 -0.1374  0.5338 -0.3667
 1683poe     o2 7235   2.389   6.083   5.275  0.1425 -0.2574  0.2972
 1683poe    c31 7236   2.456   6.183   5.200 -0.4753 -0.1064 -0.0579
 1684poe    c31 7237   0.369   2.478   6.861  0.3106  0.1624 -0.5172
 1684poe     o2 7238   0.432   2.567   6.772  0.4198  0.3438 -0.2590
 1684poe    c23 7239   0.375   2.694   6.792  0.0580  0.1534 -0.0803
 1684poe    c23 7240   0.470   2.787   6.713 -0.4945  0.7380 -0.0661
 1684poe     o2 7241   0.492   2.717   6.593 -0.1382  0.2290  0.2952
 1684poe    c23 7242   0.558   2.792   6.494 -0.1112 -0.2524 -0.0538
 1684poe    c23 7243   0.594   2.704   6.373  0.5478  0.4306 -0.3617
 1684poe     o2 7244   0.623   2.571   6.409 -1.1392  0.1143 -0.1092
 1684poe    c23 7245   0.661   2.500   6.293 -0.2482  0.1532  0.1548
 1684poe    c23 7246   0.641   2.349   6.318  0.3890  0.0850  0.2739
 1684poe     o2 7247   0.504   2.317   6.331  0.1531  0.6053 -0.7746
 1684poe    c31 7248   0.431   2.302   6.212 -0.4124  0.0370 -0.3629
 1685poe    c31 7249   2.461   4.564   6.609 -0.1058  0.6151 -0.4650
 1685poe     o2 7250   2.410   4.612   6.732  0.0104 -0.0137 -0.1673
 1685poe    c23 7251   2.408   4.752   6.747 -0.0358 -0.0008 -0.2902
 1685poe    c23 7252   2.297   4.772   6.852  0.0385 -0.0040 -0.2108
 1685poe     o2 7253   2.312   4.674   6.952 -0.3214 -0.1247 -0.2719
 1685poe    c23 7254   2.248   4.689   7.076  0.3013 -0.1700  0.0631
 1685poe    c23 7255   2.119   4.604   7.072  0.2999 -0.1415 -0.5972
 1685poe     o2 7256   2.148   4.473   7.028  0.4453 -0.4321  0.3393
 1685poe    c23 7257   2.026   4.404   7.016  0.5152 -0.4929 -0.0278
 1685poe    c23 7258   2.048   4.252   7.004 -0.2936 -0.6599  0.5361
 1685poe     o2 7259   2.122   4.211   6.891 -0.2416  0.2616  0.2297
 1685poe    c31 7260   2.144   4.072   6.881  0.7502  0.4433 -0.2291
 1686poe    c31 7261   4.189   0.188   0.023  0.2193  0.4264 -0.1125
 1686poe     o2 7262   4.062   0.201  -0.036  0.0120 -0.3185  0.1546
 1686poe    c23 7263   3.952   0.163   0.045  0.1052 -0.0255  0.4166
 1686poe    c23 7264   3.937   0.218   0.188  0.1960  0.0976  0.3793
 1686poe     o2 7265   3.803   0.207   0.228  0.0001  0.4502 -0.1693
 1686poe    c23 7266   3.797   0.247   0.363 -0.1136  0.6373 -0.2303
 1686poe    c23 7267   3.653   0.258   0.418 -0.3240 -0.4936 -0.5446
 1686poe     o2 7268   3.572   0.353   0.354 -0.3187  0.3534  0.6802
 1686poe    c23 7269   3.438   0.339   0.394 -0.5046  0.2716  0.0454
 1686poe    c23 7270   3.406   0.427   0.516  0.0176 -0.1926  0.5292
 1686poe     o2 7271   3.395   0.563   0.478 -0.3787 -0.3609  0.0311
 1686poe    c31 7272   3.342   0.630   0.589 -0.1994  0.0261 -0.1140
 1687poe    c31 7273   5.542   1.313   3.259 -0.4037 -0.0731  0.1538
 1687poe     o2 7274   5.423   1.237   3.265 -0.2346 -0.3132  0.4805
 1687poe    c23 7275   5.314   1.309   3.214 -0.0752 -0.2670  0.2068
 1687poe    c23 7276   5.172   1.255   3.238 -0.4290  0.5453 -0.0036
 1687poe     o2 7277   5.147   1.238   3.376  0.3303 -0.3600  0.0344
 1687poe    c23 7278   5.012   1.198   3.388  0.2759 -0.0670  0.4133
 1687poe    c23 7279   4.931   1.269   3.498 -0.0268 -0.3397  0.3675
 1687poe     o2 7280   5.000   1.292   3.618 -0.0963  0.0322  0.3391
 1687poe    c23 7281   4.921   1.345   3.722 -0.3079  0.7708 -0.1939
 1687poe    c23 7282   4.966   1.306   3.864 -0.0525 -0.1289 -0.5199
 1687poe     o2 7283   5.090   1.364   3.897 -0.1668  0.0498 -0.4061
 1687poe    c31 7284   5.139   1.317   4.020 -0.3904  0.3374 -0.2043
 1688poe    c31 7285   5.511   6.041   3.948  0.0601 -0.1985 -0.5168
 1688poe     o2 7286   5.375   6.068   3.922  0.0047  0.1210  0.0826
 1688poe    c23 7287   5.362   6.191   3.854  0.4085 -0.0787 -0.3612
 1688poe    c23 7288   5.218   6.201   3.801  0.0665 -0.5087  0.4690
 1688poe     o2 7289   5.178   6.091   3.723 -0.1166 -0.2901  0.2538
 1688poe    c23 7290   5.038   6.091   3.709 -0.1609  0.3426  0.6707
 1688poe    c23 7291   4.988   5.951   3.669  0.4011  0.3510 -0.0958
 1688poe     o2 7292   4.997   5.917   3.533 -0.6746 -0.2757 -0.0194
 1688poe    c23 7293   4.965   5.783   3.500  0.7646 -0.6602  0.0849
 1688poe    c23 7294   4.956   5.764   3.347  0.0779  0.9044 -0.0947
 1688poe     o2 7295   5.068   5.797   3.268  0.2609 -0.3464 -0.3762
 1688poe    c31 7296   5.053   5.751   3.136 -0.7028 -0.7288 -0.1488
 1689poe    c31 7297   4.190   4.238   4.197  0.2792  0.0643 -0.4066
 1689poe     o2 7298   4.293   4.321   4.149  0.0445  0.4844 -0.1882
 1689poe    c23 7299   4.262   4.344   4.013  0.1227 -0.3284 -0.3461
 1689poe    c23 7300   4.389   4.409   3.956  0.1514 -0.2110 -0.1489
 1689poe     o2 7301   4.428   4.501   4.055  0.1576 -0.5914  0.2084
 1689poe    c23 7302   4.547   4.560   4.007 -0.2582 -0.0652 -0.1841
 1689poe    c23 7303   4.626   4.626   4.121 -0.3843  0.1238 -0.2062
 1689poe     o2 7304   4.560   4.702   4.221  0.3081  0.0571  0.3078
 1689poe    c23 7305   4.530   4.835   4.187  0.1091 -0.0858 -0.0822
 1689poe    c23 7306   4.415   4.890   4.274  0.3131  0.4248 -0.1305
 1689poe     o2 7307   4.301   4.809   4.250  0.1332  0.6188  0.0696
 1689poe    c31 7308   4.213   4.832   4.357 -0.1087  0.2308 -0.0453
 1690poe    c31 7309   2.189   1.888   5.522 -0.7051 -0.2904 -0.1208
 1690poe     o2 7310   2.131   1.909   5.395 -0.1313  0.1938 -0.3083
 1690poe    c23 7311   2.231   1.950   5.304 -0.0681  0.4625 -0.1216
 1690poe    c23 7312   2.192   1.879   5.172  0.6280  0.5395 -0.3718
 1690poe     o2 7313   2.059   1.913   5.141  0.2537 -0.4006  0.1754
 1690poe    c23 7314   2.013   1.831   5.035 -0.2726 -0.3081  0.3268
 1690poe    c23 7315   1.859   1.834   5.028 -0.2629  0.6142  0.3543
 1690poe     o2 7316   1.793   1.792   5.145 -0.3474  0.0385  0.1024
 1690poe    c23 7317   1.652   1.788   5.137 -0.3365  0.3214 -0.2523
 1690poe    c23 7318   1.589   1.711   5.255  0.0072  0.1123 -0.2045
 1690poe     o2 7319   1.625   1.760   5.382 -0.2343 -0.4618  0.0906
 1690poe    c31 7320   1.566   1.696   5.492 -0.1470 -0.4883  0.1222
 1691poe    c31 7321   6.582   1.025   2.281  0.6590 -0.5521  0.0851
 1691poe     o2 7322   6.490   1.002   2.386  0.3857  0.3269  0.0463
 1691poe    c23 7323   6.379   1.087   2.367  0.2670  0.2072  0.2014
 1691poe    c23 7324   6.282   1.029   2.472 -0.1401  0.6893  0.0930
 1691poe     o2 7325   6.358   1.022   2.591 -0.1740  0.2749  0.0897
 1691poe    c23 7326   6.295   0.999   2.715  0.2885  0.2969  0.3282
 1691poe    c23 7327   6.408   0.980   2.818  0.3294  0.2040  0.2662
 1691poe     o2 7328   6.505   0.894   2.762  0.5140  0.2276  0.5454
 1691poe    c23 7329   6.595   0.845   2.859  0.5841 -0.3022  0.2155
 1691poe    c23 7330   6.612   0.692   2.846  0.1961 -0.3098 -0.2732
 1691poe     o2 7331   6.658   0.647   2.721  0.2542 -0.1080 -0.3258
 1691poe    c31 7332   6.706   0.515   2.728  0.0880 -0.2121 -1.0319
 1692poe    c31 7333   6.458   2.185   1.233  0.1829  0.2854 -0.0858
 1692poe     o2 7334   6.459   2.263   1.351  0.1764  0.3525 -0.1301
 1692poe    c23 7335   6.385   2.215   1.460  0.3746  0.0354 -0.1339
 1692poe    c23 7336   6.373   2.324   1.568 -0.0138 -0.2283  0.0927
 1692poe     o2 7337   6.496   2.344   1.635  0.4319 -0.5728 -0.6152
 1692poe    c23 7338   6.497   2.465   1.708  0.0817 -0.4939 -0.7386
 1692poe    c23 7339   6.595   2.468   1.827 -0.4360  0.1695 -0.3215
 1692poe     o2 7340   6.723   2.435   1.779 -0.2874  0.2831 -0.0036
 1692poe    c23 7341   6.813   2.399   1.882 -0.2680 -0.4199 -0.2648
 1692poe    c23 7342   6.953   2.362   1.829  0.0456  0.1103  0.1955
 1692poe     o2 7343   6.936   2.263   1.730 -0.0401  0.1486  0.1718
 1692poe    c31 7344   7.049   2.254   1.647  0.0055 -0.1765  0.2668
 1693poe    c31 7345   2.720   5.973   5.020  0.0174 -0.6128 -0.4250
 1693poe     o2 7346   2.713   5.893   5.136 -0.0953  0.0399  0.0255
 1693poe    c23 7347   2.847   5.886   5.182  0.0260 -0.2897 -0.3701
 1693poe    c23 7348   2.871   5.945   5.322 -0.9094 -0.4511 -0.1291
 1693poe     o2 7349   2.849   6.084   5.332  0.2229 -0.2784  0.0992
 1693poe    c23 7350   2.891   6.152   5.448  0.5180  0.3331 -0.3631
 1693poe    c23 7351   2.826   6.289   5.477 -0.2302  0.0110 -0.4941
 1693poe     o2 7352   2.870   6.381   5.380 -0.1853  0.3009 -0.2008
 1693poe    c23 7353   2.807   6.507   5.370 -0.4303  0.2137  0.2444
 1693poe    c23 7354   2.670   6.490   5.302 -0.4600 -0.1899  0.4018
 1693poe     o2 7355   2.677   6.486   5.162 -0.5202 -0.0925  0.3963
 1693poe    c31 7356   2.552   6.519   5.106 -0.3974  0.2378  0.3125
 1694poe    c31 7357   5.063   0.187   5.731  0.3518 -0.2178 -0.5098
 1694poe     o2 7358   5.146   0.301   5.731  0.0747 -0.0018  0.5388
 1694poe    c23 7359   5.094   0.410   5.805 -0.3123  0.2304 -0.0589
 1694poe    c23 7360   5.212   0.503   5.837 -0.3333  0.1883  0.1409
 1694poe     o2 7361   5.306   0.447   5.927  0.0761 -0.1246 -0.4787
 1694poe    c23 7362   5.401   0.549   5.948 -0.7076  0.3946  0.6263
 1694poe    c23 7363   5.535   0.484   5.987 -0.7068  0.0100 -0.0118
 1694poe     o2 7364   5.581   0.409   5.877 -0.0157  0.3289  0.0557
 1694poe    c23 7365   5.711   0.364   5.906  0.1379  0.4875 -0.3738
 1694poe    c23 7366   5.743   0.264   5.795 -0.1924 -0.2716  0.2071
 1694poe     o2 7367   5.632   0.182   5.768 -0.4141  0.0980 -0.0088
 1694poe    c31 7368   5.659   0.092   5.663  0.1113 -0.4467  0.5859
 1695poe    c31 7369   2.578   1.308   1.837 -0.6028  0.2791  0.3551
 1695poe     o2 7370   2.633   1.236   1.945  0.3314  0.4149 -0.0166
 1695poe    c23 7371   2.534   1.145   1.988  0.2565  0.2276 -0.5802
 1695poe    c23 7372   2.538   1.010   1.913  0.4076  0.1746 -0.4798
 1695poe     o2 7373   2.661   0.948   1.939  0.2919  0.1475  0.0072
 1695poe    c23 7374   2.655   0.836   1.853 -0.1130  0.4141 -0.3110
 1695poe    c23 7375   2.782   0.750   1.857 -0.3495  0.0400 -0.8415
 1695poe     o2 7376   2.782   0.663   1.968 -0.2710  0.4934 -0.4838
 1695poe    c23 7377   2.915   0.616   1.981 -0.3902  0.3107  0.1159
 1695poe    c23 7378   2.930   0.550   2.119 -0.1746  0.2087  0.0433
 1695poe     o2 7379   2.910   0.649   2.217 -1.0937 -0.1246  0.1994
 1695poe    c31 7380   2.964   0.606   2.340 -0.2828 -0.3662 -0.2321
 1696poe    c31 7381   3.223   5.501   2.588  0.0607 -0.0778  0.0988
 1696poe     o2 7382   3.100   5.553   2.545 -0.0491 -0.1336  0.3417
 1696poe    c23 7383   3.061   5.497   2.422 -0.0053  0.1921  0.1764
 1696poe    c23 7384   2.940   5.571   2.363  0.1659  0.5159  0.2321
 1696poe     o2 7385   2.831   5.555   2.451 -0.1485 -0.4962 -0.3233
 1696poe    c23 7386   2.738   5.474   2.383 -0.1785 -0.1599 -0.6858
 1696poe    c23 7387   2.603   5.491   2.457  0.3725  0.3823  0.2122
 1696poe     o2 7388   2.629   5.500   2.595  0.0077  0.5544  0.2699
 1696poe    c23 7389   2.511   5.535   2.664 -0.1937 -0.2540  0.3560
 1696poe    c23 7390   2.557   5.537   2.811  0.1181 -0.0841  0.2576
 1696poe     o2 7391   2.674   5.617   2.811 -0.0209  0.1207  0.0602
 1696poe    c31 7392   2.741   5.625   2.934  0.1324  0.0551 -0.0191
 1697poe    c31 7393   6.075   2.779   0.710 -0.0467 -0.3757 -0.2100
 1697poe     o2 7394   5.953   2.773   0.639  0.1236  0.1846 -0.5619
 1697poe    c23 7395   5.875   2.887   0.669 -0.2509 -0.0398 -0.6735
 1697poe    c23 7396   5.755   2.855   0.760  0.2164  0.3255  0.0839
 1697poe     o2 7397   5.642   2.801   0.695  0.3593  0.0208  0.0898
 1697poe    c23 7398   5.531   2.821   0.779  0.2548  0.5600 -0.1741
 1697poe    c23 7399   5.413   2.738   0.726  0.6687  0.0479 -0.3100
 1697poe     o2 7400   5.358   2.782   0.604 -0.2943 -0.0870  0.0648
 1697poe    c23 7401   5.238   2.714   0.574  0.1177 -0.6936 -0.2106
 1697poe    c23 7402   5.180   2.752   0.436 -0.1530  0.3173  0.1785
 1697poe     o2 7403   5.259   2.731   0.322 -0.3990  0.4003 -0.0070
 1697poe    c31 7404   5.264   2.599   0.274  0.2803  0.5393 -0.3412
 1698poe    c31 7405   5.511   2.142   6.270 -0.0170 -0.2026  0.1523
 1698poe     o2 7406   5.533   2.281   6.268 -0.1177 -0.1841  0.2680
 1698poe    c23 7407   5.541   2.334   6.138  0.1686  0.4229  0.5310
 1698poe    c23 7408   5.569   2.486   6.144  0.0653  0.4835 -0.3508
 1698poe     o2 7409   5.700   2.508   6.192 -0.0751  0.3799  0.0825
 1698poe    c23 7410   5.728   2.644   6.214  0.3949  0.2328  0.4188
 1698poe    c23 7411   5.867   2.655   6.279  0.5166 -0.1511  0.2262
 1698poe     o2 7412   5.854   2.591   6.404  0.0745 -0.3408  0.0846
 1698poe    c23 7413   5.980   2.574   6.465  0.0987 -0.5468 -0.0245
 1698poe    c23 7414   5.967   2.484   6.589  0.5470 -0.7650 -0.1319
 1698poe     o2 7415   5.885   2.372   6.567 -0.2159 -0.2321 -0.0687
 1698poe    c31 7416   5.840   2.307   6.683 -0.6578  0.6792  0.2768
 1699poe    c31 7417   3.720   6.000   5.098  0.3125  0.5935  0.4701
 1699poe     o2 7418   3.733   5.864   5.064 -0.6920  0.5394  0.2611
 1699poe    c23 7419   3.659   5.781   5.149  0.3107  0.0390  0.6648
 1699poe    c23 7420   3.630   5.636   5.105  0.0159  0.1646  0.4386
 1699poe     o2 7421   3.747   5.574   5.056 -0.0987  0.0086  0.3622
 1699poe    c23 7422   3.730   5.437   5.026 -0.1048  0.0321  0.2600
 1699poe    c23 7423   3.866   5.376   5.065 -0.0351  0.0601  0.0645
 1699poe     o2 7424   3.970   5.460   5.020  0.1368  0.1173  0.5605
 1699poe    c23 7425   4.095   5.394   5.017 -0.2505 -0.6032 -0.0589
 1699poe    c23 7426   4.187   5.483   4.932 -0.3750  0.0318  0.4618
 1699poe     o2 7427   4.173   5.621   4.957  0.1117  0.1823 -0.0719
 1699poe    c31 7428   4.276   5.687   4.886  0.2276 -0.1171 -0.1819
 1700poe    c31 7429   5.210   0.382   0.970 -0.3955  0.4902 -0.1764
 1700poe     o2 7430   5.078   0.389   0.922 -0.4860  0.1016  0.0122
 1700poe    c23 7431   5.078   0.395   0.781  0.4439  0.3797  0.0177
 1700poe    c23 7432   4.943   0.410   0.709  0.1092  0.1556  0.5892
 1700poe     o2 7433   4.877   0.534   0.720  0.0651  0.1342  0.5638
 1700poe    c23 7434   4.764   0.515   0.638  0.5626  0.7908 -0.2926
 1700poe    c23 7435   4.655   0.623   0.653  0.2865  0.4025  0.5515
 1700poe     o2 7436   4.701   0.756   0.644  0.0058  0.4802  0.2696
 1700poe    c23 7437   4.604   0.851   0.605 -0.0142  0.1024 -0.6324
 1700poe    c23 7438   4.546   0.946   0.711  0.3899 -0.2981 -0.0449
 1700poe     o2 7439   4.649   1.035   0.749  0.1467 -0.1708  0.3233
 1700poe    c31 7440   4.606   1.109   0.861 -0.4389 -0.2687  0.1682
 1701poe    c31 7441   3.333   4.611   0.666  0.2130  0.0207 -0.3458
 1701poe     o2 7442   3.236   4.693   0.727 -0.0641 -0.0311 -0.7136
 1701poe    c23 7443   3.269   4.820   0.676  0.1530  0.1498 -0.1295
 1701poe    c23 7444   3.170   4.914   0.747 -0.0592  0.0453 -0.2853
 1701poe     o2 7445   3.188   4.929   0.886 -0.0730 -0.0544 -0.2728
 1701poe    c23 7446   3.082   5.014   0.925  0.0365 -0.0786  0.0817
 1701poe    c23 7447   3.085   5.030   1.078 -0.6598 -0.2496  0.1177
 1701poe     o2 7448   3.080   4.899   1.132 -0.7846 -0.5253 -0.5482
 1701poe    c23 7449   3.077   4.886   1.272  0.1908 -0.3692 -0.5074
 1701poe    c23 7450   3.081   4.734   1.299  0.0128 -0.3232 -0.2177
 1701poe     o2 7451   3.185   4.677   1.223  0.1899 -0.0367 -0.1935
 1701poe    c31 7452   3.221   4.553   1.280  0.4451 -0.1557 -0.6083
 1702poe    c31 7453   0.144   4.443   2.193 -0.4877  0.0567 -0.3040
 1702poe     o2 7454   0.049   4.528   2.254 -0.2484  0.3989 -0.4068
 1702poe    c23 7455  -0.054   4.542   2.158 -0.2394 -0.3495 -0.5306
 1702poe    c23 7456  -0.199   4.545   2.209  0.0152 -0.2776  0.2131
 1702poe     o2 7457  -0.225   4.660   2.287  0.0292 -0.3621  0.3416
 1702poe    c23 7458  -0.309   4.627   2.395  0.0206  0.0886  0.4758
 1702poe    c23 7459  -0.324   4.759   2.472  0.3160  0.4374 -0.0582
 1702poe     o2 7460  -0.200   4.796   2.528  0.4608 -0.0523 -0.0469
 1702poe    c23 7461  -0.217   4.930   2.569 -0.2904 -0.0060 -0.4740
 1702poe    c23 7462  -0.119   4.939   2.687 -0.2979  0.0903 -0.4747
 1702poe     o2 7463  -0.001   4.870   2.650 -0.3105 -0.5289  0.5880
 1702poe    c31 7464   0.100   4.894   2.745  0.1547  0.6004 -0.1640
 1703poe    c31 7465   2.870   4.724   3.890 -0.3958  0.3457  0.6003
 1703poe     o2 7466   2.920   4.604   3.835 -0.2435  0.5764  0.2269
 1703poe    c23 7467   3.016   4.623   3.733 -0.2136  0.2516  0.1930
 1703poe    c23 7468   3.085   4.491   3.694 -0.2695  0.1928  0.2909
 1703poe     o2 7469   3.209   4.466   3.756  0.1449 -0.3807 -0.7520
 1703poe    c23 7470   3.250   4.331   3.747 -0.2349 -0.4841 -0.9535
 1703poe    c23 7471   3.225   4.237   3.867 -0.0421  0.5978 -0.0484
 1703poe     o2 7472   3.095   4.214   3.916  0.0561  0.1534  0.0080
 1703poe    c23 7473   3.105   4.103   4.002  0.2299  0.4473  0.3733
 1703poe    c23 7474   2.965   4.095   4.065 -0.0019  0.3649 -0.1452
 1703poe     o2 7475   2.868   4.105   3.963 -0.3145 -0.5874  0.0475
 1703poe    c31 7476   2.743   4.052   4.001 -0.1412 -0.6059  0.6100
 1704poe    c31 7477   4.638   2.260   0.845 -0.1607 -0.1762 -0.4949
 1704poe     o2 7478   4.544   2.329   0.766  0.1274  0.0504 -0.6432
 1704poe    c23 7479   4.423   2.277   0.816  0.1403  0.2963 -0.3546
 1704poe    c23 7480   4.309   2.376   0.789 -0.6688 -0.5576 -0.1315
 1704poe     o2 7481   4.285   2.421   0.658  0.0879 -0.0231 -0.0888
 1704poe    c23 7482   4.185   2.520   0.647 -0.0878 -0.1964 -0.0518
 1704poe    c23 7483   4.164   2.565   0.502  0.5887  0.2471 -0.0206
 1704poe     o2 7484   4.279   2.620   0.443  0.4984  0.4648  0.0040
 1704poe    c23 7485   4.242   2.659   0.313  0.3152  0.7776  0.1497
 1704poe    c23 7486   4.352   2.723   0.227  0.3413  0.5571  0.0180
 1704poe     o2 7487   4.470   2.658   0.185 -0.3234 -0.4683 -0.3078
 1704poe    c31 7488   4.447   2.552   0.095 -0.5022 -0.5635 -0.1504
 1705poe    c31 7489   4.287   1.496   6.607 -0.1791  0.1885  0.4599
 1705poe     o2 7490   4.399   1.556   6.669 -0.1133  0.2701  0.2608
 1705poe    c23 7491   4.478   1.463   6.739 -0.5640 -0.3429 -0.0360
 1705poe    c23 7492   4.599   1.536   6.800 -0.5488 -0.0434 -0.4174
 1705poe     o2 7493   4.672   1.595   6.694 -0.0808 -0.4606 -0.3361
 1705poe    c23 7494   4.782   1.669   6.742 -0.3632 -0.3836  0.2034
 1705poe    c23 7495   4.865   1.719   6.622 -0.2474  0.2587  0.5492
 1705poe     o2 7496   4.773   1.768   6.527  0.3004 -0.7608 -0.5253
 1705poe    c23 7497   4.841   1.839   6.425  0.1441  0.3377  0.1113
 1705poe    c23 7498   4.741   1.920   6.341 -0.3234 -0.3507 -0.0060
 1705poe     o2 7499   4.675   1.833   6.252  0.2091 -0.6637 -0.1021
 1705poe    c31 7500   4.617   1.900   6.142  0.4054  0.4648  0.4651
 1706poe    c31 7501   6.877   1.152   2.880  0.0474  0.8868 -0.4007
 1706poe     o2 7502   6.998   1.085   2.854 -0.1668  0.3750 -0.0883
 1706poe    c23 7503   7.031   1.090   2.717 -0.3499  0.5061 -0.1278
 1706poe    c23 7504   7.184   1.078   2.706 -0.3436  0.0682  0.3968
 1706poe     o2 7505   7.221   0.981   2.801  0.1375 -0.5336 -0.3852
 1706poe    c23 7506   7.358   0.976   2.836  0.2108  0.1411 -0.5718
 1706poe    c23 7507   7.369   0.896   2.967 -0.1652  0.3448 -0.4139
 1706poe     o2 7508   7.268   0.953   3.048 -0.1321  0.1758 -0.2523
 1706poe    c23 7509   7.282   0.905   3.179 -0.1639  0.3047 -0.2014
 1706poe    c23 7510   7.157   0.957   3.253 -0.1770 -0.1886  0.1301
 1706poe     o2 7511   7.047   0.969   3.165 -0.0208  0.3606  0.0092
 1706poe    c31 7512   6.934   1.014   3.237 -0.2176  0.2337 -0.2166
 1707poe    c31 7513   6.889   4.636   0.640 -0.7609 -0.0403  0.4978
 1707poe     o2 7514   6.844   4.514   0.585  0.0463 -0.0763 -0.0993
 1707poe    c23 7515   6.895   4.401   0.652 -0.0115 -0.2581 -0.3593
 1707poe    c23 7516   6.794   4.286   0.630 -0.1033 -0.2741  0.1278
 1707poe     o2 7517   6.801   4.238   0.498 -0.1171  0.3678 -0.1119
 1707poe    c23 7518   6.715   4.127   0.487  0.4310 -0.0565 -0.1782
 1707poe    c23 7519   6.664   4.110   0.343 -0.0302 -0.4466  0.0272
 1707poe     o2 7520   6.767   4.113   0.247 -0.1528 -0.7795 -0.1154
 1707poe    c23 7521   6.709   4.100   0.119  0.0905 -0.3628 -0.2694
 1707poe    c23 7522   6.823   4.093   0.015  0.1560 -0.2403 -0.2059
 1707poe     o2 7523   6.920   4.195   0.003 -0.4084  0.2856 -0.3477
 1707poe    c31 7524   6.987   4.191  -0.121 -0.4566 -0.1535 -0.3629
 1708poe    c31 7525   4.000   4.185   5.561 -0.5756 -0.3942 -0.7896
 1708poe     o2 7526   4.079   4.113   5.469  0.1675 -0.2908 -0.2468
 1708poe    c23 7527   4.170   4.194   5.398  0.1703 -0.1078 -0.0364
 1708poe    c23 7528   4.294   4.106   5.374  0.4314  0.3343 -0.3055
 1708poe     o2 7529   4.246   3.996   5.300  0.3043 -0.3244  0.7404
 1708poe    c23 7530   4.350   3.914   5.252  0.0797 -0.1477 -0.0651
 1708poe    c23 7531   4.292   3.803   5.164 -0.0497  0.1483 -0.3555
 1708poe     o2 7532   4.222   3.706   5.240  0.3104  0.2601  0.1185
 1708poe    c23 7533   4.160   3.617   5.150 -0.2159  0.3201  0.4207
 1708poe    c23 7534   4.045   3.543   5.222 -0.5262 -0.2641 -0.6582
 1708poe     o2 7535   3.963   3.641   5.281 -0.6141 -0.6576 -0.1173
 1708poe    c31 7536   3.910   3.602   5.405  0.5179 -0.0877  0.5642
 1709poe    c31 7537   0.453   4.860   2.871  0.4350 -0.2219  0.0708
 1709poe     o2 7538   0.486   4.754   2.957  0.2299 -0.2609  0.1005
 1709poe    c23 7539   0.550   4.804   3.072 -0.0306  0.0200  0.1248
 1709poe    c23 7540   0.485   4.887   3.185  0.8776  0.2873  0.4637
 1709poe     o2 7541   0.462   5.024   3.159 -0.0007  0.0534 -0.0324
 1709poe    c23 7542   0.433   5.095   3.277 -0.1322  0.2547 -0.1853
 1709poe    c23 7543   0.400   5.243   3.251 -0.3934  0.3874  0.8303
 1709poe     o2 7544   0.496   5.318   3.180 -0.4551  0.1009  0.4345
 1709poe    c23 7545   0.492   5.458   3.201  0.0297  0.2568 -0.4768
 1709poe    c23 7546   0.637   5.510   3.204  0.1345 -0.0477 -0.2048
 1709poe     o2 7547   0.688   5.465   3.081  0.0682  0.0189 -0.2573
 1709poe    c31 7548   0.828   5.481   3.081  0.0121  0.4938  0.0134
 1710poe    c31 7549   4.749   3.144   1.593 -0.0653  0.0323 -0.0593
 1710poe     o2 7550   4.683   3.062   1.499  0.0619  0.1379 -0.2410
 1710poe    c23 7551   4.717   2.927   1.522 -0.3478  0.0564 -0.1047
 1710poe    c23 7552   4.662   2.859   1.395 -0.0756 -0.2310 -0.0707
 1710poe     o2 7553   4.529   2.901   1.374  0.0136  0.2126  0.2417
 1710poe    c23 7554   4.480   2.845   1.254  0.4539 -0.0689  0.1935
 1710poe    c23 7555   4.327   2.830   1.263  0.4881 -0.3438  0.3125
 1710poe     o2 7556   4.254   2.948   1.287 -0.5421 -0.8516 -0.2955
 1710poe    c23 7557   4.115   2.942   1.263 -0.5914 -0.1119 -0.1951
 1710poe    c23 7558   4.060   3.086   1.256  0.0248  0.1411  0.0612
 1710poe     o2 7559   4.078   3.149   1.380 -0.0515  0.0714  0.1075
 1710poe    c31 7560   4.067   3.290   1.380  0.4138  0.1097 -0.2360
 1711poe    c31 7561   4.439   4.074   0.945 -0.6286  0.1917  0.4516
 1711poe     o2 7562   4.516   4.186   0.980 -0.5254  0.1716  0.2905
 1711poe    c23 7563   4.642   4.158   0.923 -0.4107  0.4038  0.4245
 1711poe    c23 7564   4.736   4.278   0.944  0.6277 -0.2871 -0.2124
 1711poe     o2 7565   4.682   4.394   0.886  0.3461 -0.1903  0.2407
 1711poe    c23 7566   4.751   4.509   0.928 -0.0754  0.1744 -0.0596
 1711poe    c23 7567   4.725   4.635   0.842 -0.3265 -0.4721 -0.9459
 1711poe     o2 7568   4.596   4.686   0.870 -0.1966 -0.5363 -0.2013
 1711poe    c23 7569   4.593   4.819   0.823 -0.1308 -0.1653  0.8075
 1711poe    c23 7570   4.449   4.872   0.842 -0.4675 -0.7438 -0.0239
 1711poe     o2 7571   4.354   4.794   0.775 -0.6705 -0.7450  0.2651
 1711poe    c31 7572   4.231   4.863   0.768 -0.1519  0.1803  0.1240
 1712poe    c31 7573   4.488   1.075   4.567  0.6576  0.2631  0.3342
 1712poe     o2 7574   4.387   1.097   4.664  0.3635  0.7376 -0.0734
 1712poe    c23 7575   4.255   1.076   4.620  0.3302 -0.2358  0.4768
 1712poe    c23 7576   4.151   1.104   4.731 -0.3111  0.2932 -0.2537
 1712poe     o2 7577   4.162   1.036   4.853 -0.1654  0.0065 -0.4250
 1712poe    c23 7578   4.149   0.896   4.864 -0.0335  0.0004 -0.3292
 1712poe    c23 7579   4.170   0.868   5.014  0.9149 -0.4071 -0.5321
 1712poe     o2 7580   4.281   0.944   5.052  0.5055  0.2719 -0.6765
 1712poe    c23 7581   4.312   0.909   5.185  0.1516  0.3836 -0.5641
 1712poe    c23 7582   4.416   1.009   5.238  0.3030  0.0448 -0.2093
 1712poe     o2 7583   4.359   1.137   5.220 -0.1364 -0.1061  0.0998
 1712poe    c31 7584   4.420   1.250   5.278 -0.3621  0.0296  0.0725
 1713poe    c31 7585   3.487   6.154   2.524  0.4314 -0.2035  0.0681
 1713poe     o2 7586   3.380   6.240   2.556  0.1993 -0.4438 -0.0554
 1713poe    c23 7587   3.265   6.173   2.602  0.1060 -0.1740  0.1105
 1713poe    c23 7588   3.148   6.271   2.584  0.1062 -0.2098 -0.0912
 1713poe     o2 7589   3.186   6.390   2.650  0.4411  0.0632 -0.7670
 1713poe    c23 7590   3.077   6.480   2.648  0.5039  0.1694  0.4443
 1713poe    c23 7591   3.125   6.618   2.698 -0.0004  0.4604  0.1261
 1713poe     o2 7592   3.204   6.665   2.590  0.5489 -0.2826  0.1998
 1713poe    c23 7593   3.256   6.795   2.598  0.2745 -0.1502 -0.1540
 1713poe    c23 7594   3.308   6.840   2.460 -0.2413  0.0269 -0.2933
 1713poe     o2 7595   3.436   6.783   2.448 -0.0462  0.1949  0.8491
 1713poe    c31 7596   3.526   6.871   2.383  0.5552 -0.7165  0.4242
 1714poe    c31 7597   1.667   6.815   1.507  0.9744 -0.0170  0.0319
 1714poe     o2 7598   1.658   6.941   1.571  0.0801  0.1535 -0.4060
 1714poe    c23 7599   1.701   6.910   1.701 -0.4252  0.2907 -0.2058
 1714poe    c23 7600   1.717   7.051   1.763 -0.3484  0.0808  0.2582
 1714poe     o2 7601   1.599   7.127   1.773 -0.2149  0.4240 -0.6430
 1714poe    c23 7602   1.612   7.235   1.863 -0.3828  0.1533 -0.2890
 1714poe    c23 7603   1.504   7.345   1.847  0.0282  0.6523  0.3233
 1714poe     o2 7604   1.529   7.396   1.718 -0.3629 -0.5809 -0.2538
 1714poe    c23 7605   1.434   7.498   1.697 -0.1774 -0.4240 -0.3298
 1714poe    c23 7606   1.430   7.525   1.546 -0.6272  0.3463 -0.1857
 1714poe     o2 7607   1.436   7.406   1.471 -0.6088  0.1727  0.0902
 1714poe    c31 7608   1.406   7.436   1.336 -0.6429  0.1912  0.1019
 1715poe    c31 7609   5.181   5.503   1.146  0.4537 -0.0637  0.8519
 1715poe     o2 7610   5.283   5.582   1.088 -0.2353  0.1611 -0.0608
 1715poe    c23 7611   5.394   5.500   1.057 -0.5451 -0.0357 -0.6680
 1715poe    c23 7612   5.479   5.578   0.955  0.4488  0.4923  0.5486
 1715poe     o2 7613   5.487   5.710   1.006 -0.2714  0.5359  0.5535
 1715poe    c23 7614   5.516   5.801   0.903  0.7258  0.1486  0.4852
 1715poe    c23 7615   5.494   5.936   0.974  0.4327  0.0340  0.6091
 1715poe     o2 7616   5.360   5.929   1.020  0.2065 -0.1925 -0.0689
 1715poe    c23 7617   5.340   6.030   1.116 -0.4242 -0.0165 -0.3846
 1715poe    c23 7618   5.211   5.986   1.187 -0.1307  0.2477  0.3219
 1715poe     o2 7619   5.229   5.854   1.233 -0.2979  0.0889 -0.0636
 1715poe    c31 7620   5.109   5.818   1.298 -0.2118 -0.0861  0.0026
 1716poe    c31 7621   4.020   2.635   3.761  0.1386  0.3040  0.1845
 1716poe     o2 7622   4.067   2.506   3.795  0.2680  0.1525 -0.5569
 1716poe    c23 7623   4.207   2.495   3.801  0.2276  0.0937  0.3163
 1716poe    c23 7624   4.236   2.347   3.769  0.1181  0.1601 -0.0955
 1716poe     o2 7625   4.150   2.276   3.856  0.0152  0.1324 -0.2205
 1716poe    c23 7626   4.170   2.141   3.822  0.1102  0.0747  0.0663
 1716poe    c23 7627   4.106   2.050   3.929  0.6985 -0.5511 -0.1083
 1716poe     o2 7628   3.965   2.056   3.926  0.7059 -0.1383  0.3164
 1716poe    c23 7629   3.915   1.999   4.045  0.0600 -0.4988 -0.1199
 1716poe    c23 7630   3.840   1.869   4.011 -0.7157 -0.0080 -0.3109
 1716poe     o2 7631   3.929   1.784   3.943 -0.3235  0.0156  0.1719
 1716poe    c31 7632   3.865   1.659   3.954  0.5117 -0.4887 -0.5101
 1717poe    c31 7633   3.742   5.828   4.548 -0.1877 -0.2655 -0.7156
 1717poe     o2 7634   3.849   5.917   4.525  0.1267 -0.4087  0.1444
 1717poe    c23 7635   3.824   6.043   4.584  0.1227 -0.4056  0.1368
 1717poe    c23 7636   3.903   6.167   4.538 -0.0745 -0.4296 -0.2731
 1717poe     o2 7637   4.043   6.166   4.547 -0.0747  0.5780  0.0455
 1717poe    c23 7638   4.101   6.286   4.501 -0.2224  0.3159 -0.8447
 1717poe    c23 7639   4.255   6.293   4.514 -0.2427 -0.7556  0.2079
 1717poe     o2 7640   4.333   6.203   4.439  0.9268  0.3526  0.0606
 1717poe    c23 7641   4.345   6.258   4.310  0.0277 -0.0395 -0.1975
 1717poe    c23 7642   4.404   6.160   4.206 -0.0367 -0.1191 -0.1587
 1717poe     o2 7643   4.330   6.045   4.172 -0.1812 -0.0434 -0.1044
 1717poe    c31 7644   4.424   5.965   4.104  0.1977  0.3619 -0.0653
 1718poe    c31 7645   2.994   1.672   2.288  0.5521  0.2170 -0.0571
 1718poe     o2 7646   3.071   1.784   2.324  0.0359  0.6455 -0.2611
 1718poe    c23 7647   3.143   1.850   2.222  0.3748  0.0888 -0.3872
 1718poe    c23 7648   3.225   1.965   2.285  0.1326 -0.0470  0.1880
 1718poe     o2 7649   3.289   1.925   2.404  0.5526 -0.1733 -0.0787
 1718poe    c23 7650   3.363   2.023   2.472  0.4669  0.1996 -0.5152
 1718poe    c23 7651   3.322   2.033   2.620 -0.0620 -0.4142 -0.6158
 1718poe     o2 7652   3.269   1.917   2.679  0.0345  0.0755  0.4575
 1718poe    c23 7653   3.248   1.940   2.817  0.7902  0.4709  0.5151
 1718poe    c23 7654   3.216   1.806   2.887  0.2711  0.2835 -0.0677
 1718poe     o2 7655   3.118   1.727   2.824  0.5562  0.1787 -0.3879
 1718poe    c31 7656   3.095   1.604   2.889  0.3215  0.0140 -0.7819
 1719poe    c31 7657   3.583   0.696   1.985 -0.1725 -0.1274 -0.0117
 1719poe     o2 7658   3.577   0.810   2.068 -0.2996 -0.4453  0.4195
 1719poe    c23 7659   3.507   0.791   2.189 -0.7148  0.1916  0.2798
 1719poe    c23 7660   3.494   0.919   2.274  0.2566  0.0513  0.6495
 1719poe     o2 7661   3.613   0.986   2.313  0.5593 -0.0938 -0.0177
 1719poe    c23 7662   3.579   1.084   2.408  0.3266 -0.5113  0.3329
 1719poe    c23 7663   3.717   1.117   2.469  0.1759 -0.3512  0.5887
 1719poe     o2 7664   3.813   1.143   2.369 -0.3702 -0.0466  0.1342
 1719poe    c23 7665   3.941   1.179   2.418 -0.4283  0.2011  0.1014
 1719poe    c23 7666   3.994   1.250   2.292 -0.3332  0.0576  0.0617
 1719poe     o2 7667   3.977   1.167   2.179  0.1772  0.2077 -0.1267
 1719poe    c31 7668   4.100   1.136   2.116  0.2353  0.0207  0.0789
 1720poe    c31 7669   1.364   3.315   6.477  0.0596 -0.1355  0.0508
 1720poe     o2 7670   1.239   3.311   6.412 -0.0792  0.1257  0.2992
 1720poe    c23 7671   1.173   3.435   6.397  0.0380  0.1713  0.1622
 1720poe    c23 7672   1.037   3.400   6.335  0.2637  0.0651 -0.2801
 1720poe     o2 7673   1.040   3.340   6.207 -0.1645 -0.2991 -0.1209
 1720poe    c23 7674   0.938   3.393   6.125 -0.0080  0.7088  0.3142
 1720poe    c23 7675   0.878   3.278   6.042  1.3373 -0.0646  0.3919
 1720poe     o2 7676   0.835   3.157   6.101  0.8121 -0.4845 -0.8017
 1720poe    c23 7677   0.771   3.066   6.015 -0.5809 -0.2325 -0.0567
 1720poe    c23 7678   0.639   3.028   6.085 -0.6374 -0.3998 -0.2532
 1720poe     o2 7679   0.551   3.138   6.097  0.0375  0.1497 -0.2324
 1720poe    c31 7680   0.457   3.105   6.197  0.0949  0.0743 -0.2033
 1721poe    c31 7681   6.233   3.228   2.732  0.2307  0.1178 -0.3184
 1721poe     o2 7682   6.140   3.208   2.627 -0.2011  0.2028  0.0467
 1721poe    c23 7683   6.157   3.303   2.524  0.1574 -0.4282 -0.4783
 1721poe    c23 7684   6.096   3.279   2.385 -0.1371  0.0317 -0.4276
 1721poe     o2 7685   6.165   3.175   2.319  0.3278 -0.0852  0.2405
 1721poe    c23 7686   6.078   3.148   2.212  0.5743  0.2467 -0.0443
 1721poe    c23 7687   6.107   3.027   2.122 -0.1278  0.0153  0.0364
 1721poe     o2 7688   6.107   2.906   2.195 -0.2588  0.1932  0.3337
 1721poe    c23 7689   6.113   2.786   2.122  0.1190  0.6553 -0.4126
 1721poe    c23 7690   5.980   2.720   2.081  0.5225 -0.0411 -0.6347
 1721poe     o2 7691   5.917   2.642   2.180  0.2241  0.4989 -0.3948
 1721poe    c31 7692   5.779   2.647   2.150  0.2324  0.1533 -0.4949
 1722poe    c31 7693   0.499   1.729   0.304  0.2969  0.2930 -0.0434
 1722poe     o2 7694   0.469   1.707   0.168 -0.3046 -0.0580  0.1394
 1722poe    c23 7695   0.438   1.831   0.110 -0.1873  0.1134  0.4381
 1722poe    c23 7696   0.418   1.828  -0.043 -0.3067  0.3481  0.4488
 1722poe     o2 7697   0.294   1.770  -0.079 -0.1658  0.1407  0.2960
 1722poe    c23 7698   0.271   1.749  -0.216 -0.2951  0.3487  0.2859
 1722poe    c23 7699   0.140   1.672  -0.235 -0.3704  0.4722  0.3051
 1722poe     o2 7700   0.143   1.553  -0.159  0.4629  0.0206 -0.4271
 1722poe    c23 7701   0.024   1.480  -0.171  0.3007  0.1814  0.1608
 1722poe    c23 7702   0.028   1.366  -0.067  0.4402  0.2492  0.2291
 1722poe     o2 7703   0.086   1.422   0.049  0.1960  0.5312  0.2169
 1722poe    c31 7704   0.070   1.349   0.168  0.0368  0.0049 -0.1219
 1723poe    c31 7705   1.251   6.114   5.613 -0.3975  0.2050 -0.7159
 1723poe     o2 7706   1.366   6.190   5.644 -0.6053  0.2125  0.0483
 1723poe    c23 7707   1.483   6.122   5.605 -0.2941  0.8575 -0.1564
 1723poe    c23 7708   1.618   6.186   5.644 -0.1489  0.2623  0.3449
 1723poe     o2 7709   1.653   6.289   5.554 -0.2830  0.0423  0.0417
 1723poe    c23 7710   1.771   6.349   5.600 -0.2923  0.1983 -0.1382
 1723poe    c23 7711   1.817   6.456   5.499  0.3875 -0.1435 -0.2010
 1723poe     o2 7712   1.703   6.521   5.447 -0.1790 -0.4576  0.6195
 1723poe    c23 7713   1.726   6.595   5.329 -0.2162 -0.2320  0.7522
 1723poe    c23 7714   1.592   6.656   5.283 -0.1587 -0.6312  0.0347
 1723poe     o2 7715   1.493   6.569   5.332  0.0869 -0.6801  0.4533
 1723poe    c31 7716   1.376   6.604   5.261  0.0783 -0.7201  0.4479
 1724poe    c31 7717   6.498   0.155   4.336  0.0756  0.4115 -0.8399
 1724poe     o2 7718   6.599   0.058   4.354 -0.2551  0.2576  0.2011
 1724poe    c23 7719   6.539  -0.069   4.368 -0.1212  0.2271  0.5192
 1724poe    c23 7720   6.641  -0.150   4.450 -0.2611 -0.3055  0.1683
 1724poe     o2 7721   6.767  -0.142   4.387 -0.3051  0.5002  0.1753
 1724poe    c23 7722   6.858  -0.184   4.486 -0.1246 -0.0786 -0.2318
 1724poe    c23 7723   6.999  -0.140   4.444 -0.1053 -0.1241 -0.2145
 1724poe     o2 7724   7.013  -0.000   4.429  0.4114 -0.0689  0.7117
 1724poe    c23 7725   7.140   0.035   4.380  0.2433  0.1683  0.4456
 1724poe    c23 7726   7.176   0.184   4.371  0.4533  0.0670 -0.6608
 1724poe     o2 7727   7.092   0.247   4.278 -0.4495 -0.2415 -0.0686
 1724poe    c31 7728   7.131   0.378   4.244  0.1843 -0.4681 -0.2283
 1725poe    c31 7729   3.646   6.198   1.569 -0.0858  0.4568 -0.0487
 1725poe     o2 7730   3.512   6.217   1.609 -0.1930 -0.2603 -0.0607
 1725poe    c23 7731   3.486   6.236   1.747  0.7268 -0.1589  0.1031
 1725poe    c23 7732   3.339   6.269   1.779  0.7080 -0.0856 -0.0584
 1725poe     o2 7733   3.250   6.161   1.766 -0.1340  0.5897 -0.0166
 1725poe    c23 7734   3.117   6.194   1.797 -0.1730 -0.1161  0.6053
 1725poe    c23 7735   3.036   6.063   1.788 -0.5377  0.1357  0.1997
 1725poe     o2 7736   3.079   5.998   1.671 -0.4992  0.3216  0.1102
 1725poe    c23 7737   3.014   5.873   1.668  0.3405 -0.1362  0.5087
 1725poe    c23 7738   3.074   5.793   1.552  0.0944 -0.3928  0.5581
 1725poe     o2 7739   3.209   5.832   1.537  0.0644 -0.3353  0.4337
 1725poe    c31 7740   3.265   5.746   1.440 -0.1614  0.4628 -0.4128
 1726poe    c31 7741   2.961   0.562   3.237  0.0993 -0.1647 -0.4374
 1726poe     o2 7742   3.010   0.530   3.109 -0.4915 -0.2740 -0.6365
 1726poe    c23 7743   3.104   0.626   3.066 -0.0647 -0.3710  0.0578
 1726poe    c23 7744   3.148   0.579   2.926 -0.3225  0.0095 -0.1544
 1726poe     o2 7745   3.192   0.446   2.936  0.0036  0.1493  0.3022
 1726poe    c23 7746   3.253   0.409   2.814 -0.2530  0.1827  0.1636
 1726poe    c23 7747   3.217   0.261   2.791 -0.0469  0.1565  0.0101
 1726poe     o2 7748   3.231   0.203   2.919 -0.3514  0.2616  0.0914
 1726poe    c23 7749   3.296   0.078   2.907 -0.9263 -0.0386  0.0178
 1726poe    c23 7750   3.286  -0.015   3.028  0.1419  0.3379  0.4136
 1726poe     o2 7751   3.350   0.048   3.136  0.1447  0.6764  0.2145
 1726poe    c31 7752   3.385  -0.048   3.233  0.4082  0.2044 -0.3425
 1727poe    c31 7753   1.100   5.576   0.314  0.0314 -0.2318  0.6847
 1727poe     o2 7754   0.994   5.483   0.328 -0.0163 -0.2670  0.1064
 1727poe    c23 7755   0.969   5.418   0.205  0.5219  0.1246 -0.2165
 1727poe    c23 7756   0.840   5.335   0.220  0.5495  0.1142 -0.0292
 1727poe     o2 7757   0.842   5.272   0.346 -0.1462  0.0854 -0.0298
 1727poe    c23 7758   0.741   5.175   0.364 -0.4564  0.4327  0.1269
 1727poe    c23 7759   0.691   5.139   0.505 -0.1897  0.1511  0.1504
 1727poe     o2 7760   0.793   5.106   0.596 -0.0297 -0.5800 -0.2765
 1727poe    c23 7761   0.736   5.081   0.723  0.2268 -0.4007 -0.1242
 1727poe    c23 7762   0.833   5.112   0.838  0.6441 -0.2467 -0.5110
 1727poe     o2 7763   0.875   5.246   0.842  0.1386 -0.1083  0.3689
 1727poe    c31 7764   0.957   5.270   0.955  0.4165  0.0300  0.1383
 1728poe    c31 7765   3.002   7.005   0.451  0.6133  0.0455 -0.0292
 1728poe     o2 7766   2.987   7.040   0.316  0.0513 -0.0618  0.0032
 1728poe    c23 7767   3.004   7.179   0.300 -0.0427 -0.0243  0.2297
 1728poe    c23 7768   2.988   7.216   0.151  0.6845 -0.0159  0.1532
 1728poe     o2 7769   3.098   7.160   0.081  0.6942 -0.0521  0.1973
 1728poe    c23 7770   3.132   7.216  -0.044 -0.2958 -0.0536 -0.0842
 1728poe    c23 7771   3.271   7.157  -0.073 -0.2941 -0.0740 -0.0354
 1728poe     o2 7772   3.254   7.019  -0.051  0.1206 -0.0977  0.1651
 1728poe    c23 7773   3.364   6.940  -0.089  0.1486  0.0608 -0.0825
 1728poe    c23 7774   3.502   6.945  -0.021  0.0886  0.1778  0.0298
 1728poe     o2 7775   3.494   6.930   0.119 -0.6240  0.5947  0.0378
 1728poe    c31 7776   3.626   6.917   0.168 -0.7875 -0.3530  0.2426
 1729poe    c31 7777   6.861   6.922   5.787 -0.0117  0.2429 -0.0795
 1729poe     o2 7778   6.835   6.828   5.685 -0.2879 -0.0230  0.2339
 1729poe    c23 7779   6.777   6.898   5.577  0.6753  0.1752 -0.1585
 1729poe    c23 7780   6.737   6.805   5.461  0.1330  0.4507 -0.1954
 1729poe     o2 7781   6.846   6.737   5.403 -0.1247 -0.0139 -0.1338
 1729poe    c23 7782   6.796   6.649   5.304  0.3146 -0.2240 -0.1725
 1729poe    c23 7783   6.920   6.573   5.254  0.3804 -0.0332 -0.2985
 1729poe     o2 7784   7.042   6.644   5.258  0.4057 -0.1046  0.2069
 1729poe    c23 7785   7.148   6.563   5.212  0.3852 -0.0496  0.0633
 1729poe    c23 7786   7.270   6.651   5.244  0.7094 -0.5686  0.2741
 1729poe     o2 7787   7.239   6.720   5.363  0.1850 -0.0407 -0.1634
 1729poe    c31 7788   7.351   6.803   5.381  0.5026 -0.3607 -0.6516
 1730poe    c31 7789   1.963   0.139   0.073 -0.1130 -0.1383  0.1115
 1730poe     o2 7790   1.979   0.126   0.212 -0.0376  0.0706  0.1230
 1730poe    c23 7791   1.941   0.005   0.272  0.0404 -0.1437 -0.2572
 1730poe    c23 7792   1.989  -0.024   0.416 -0.2144  0.2154 -0.1000
 1730poe     o2 7793   2.129  -0.030   0.407 -0.1582  0.3174  0.6468
 1730poe    c23 7794   2.188  -0.059   0.532  0.6328 -0.9861  0.0014
 1730poe    c23 7795   2.334  -0.010   0.538  0.2712  0.0909  0.1968
 1730poe     o2 7796   2.408  -0.081   0.442 -0.0334  0.4688 -0.3276
 1730poe    c23 7797   2.534  -0.018   0.443 -0.0035  0.4072 -0.1428
 1730poe    c23 7798   2.606  -0.073   0.319  0.0278  0.9966 -0.3886
 1730poe     o2 7799   2.518  -0.065   0.209 -0.3306  0.6584 -0.1274
 1730poe    c31 7800   2.586  -0.101   0.091  0.0154  0.1021  0.2363
 1731poe    c31 7801   1.198   0.076   5.754  0.5864 -0.4008  0.3071
 1731poe     o2 7802   1.163   0.175   5.848 -0.5362 -0.0711 -0.4350
 1731poe    c23 7803   1.265   0.190   5.943 -0.6972  0.2924 -0.3178
 1731poe    c23 7804   1.237   0.217   6.092  0.0056 -0.2825 -0.0721
 1731poe     o2 7805   1.125   0.135   6.117  0.2795 -0.5840  0.1752
 1731poe    c23 7806   1.066   0.152   6.244  0.3962 -0.1518  0.1749
 1731poe    c23 7807   0.940   0.064   6.254  0.1560  0.1598 -0.0995
 1731poe     o2 7808   0.844   0.093   6.155  0.0128  0.0224 -0.0022
 1731poe    c23 7809   0.722   0.029   6.185  0.0856  0.1643  0.5981
 1731poe    c23 7810   0.611   0.049   6.081 -0.0825  0.0204  0.7486
 1731poe     o2 7811   0.597   0.182   6.036 -0.3895 -0.1629  0.2871
 1731poe    c31 7812   0.579   0.172   5.897  0.1857 -0.1364  0.2052
 1732poe    c31 7813   5.049   2.010   6.144 -0.5406 -0.1663  0.4180
 1732poe     o2 7814   5.118   1.955   6.254  0.1920  0.1684  0.1393
 1732poe    c23 7815   5.172   1.827   6.229 -0.3964 -0.0801  0.1211
 1732poe    c23 7816   5.242   1.756   6.346  0.1301 -0.1961 -0.2645
 1732poe     o2 7817   5.334   1.838   6.416  0.6029 -0.6034 -0.4041
 1732poe    c23 7818   5.386   1.780   6.533  0.1817 -0.0895  0.0375
 1732poe    c23 7819   5.463   1.885   6.617  0.2846 -0.1639  0.0374
 1732poe     o2 7820   5.370   1.984   6.657  0.0607 -0.1714 -0.4590
 1732poe    c23 7821   5.447   2.071   6.736  0.2945 -0.4275 -0.4046
 1732poe    c23 7822   5.399   2.214   6.709  0.5163 -0.2162  0.2817
 1732poe     o2 7823   5.258   2.205   6.713  0.4606  0.4001 -0.1468
 1732poe    c31 7824   5.180   2.315   6.755  0.0871 -0.0335  0.3037
 1733poe    c31 7825   1.329   5.510   4.817 -0.1084 -0.1069 -0.3037
 1733poe     o2 7826   1.234   5.419   4.768 -0.4259  0.0637 -0.0133
 1733poe    c23 7827   1.286   5.337   4.665  0.1745  0.1340  0.2301
 1733poe    c23 7828   1.171   5.270   4.588  0.2487  0.1477  0.1085
 1733poe     o2 7829   1.091   5.188   4.669 -0.3311  0.6327  0.0372
 1733poe    c23 7830   0.970   5.161   4.602  0.0292 -0.0184 -0.3668
 1733poe    c23 7831   0.882   5.074   4.693  0.5553 -0.0353  0.1308
 1733poe     o2 7832   0.836   5.163   4.793 -0.3799 -0.0259 -0.2980
 1733poe    c23 7833   0.709   5.127   4.841 -0.1907  0.1928  0.3806
 1733poe    c23 7834   0.595   5.192   4.760 -0.1036 -0.1022  0.0195
 1733poe     o2 7835   0.592   5.332   4.766 -0.1996 -0.1101  0.1593
 1733poe    c31 7836   0.522   5.390   4.874 -0.2102 -0.2420  0.2227
 1734poe    c31 7837   3.083   6.324   5.892 -0.4585  0.2118  0.1983
 1734poe     o2 7838   3.002   6.212   5.864 -0.1468  0.0419 -0.0478
 1734poe    c23 7839   3.085   6.100   5.850 -0.4013 -0.1624  0.0686
 1734poe    c23 7840   2.988   5.981   5.839 -0.3250 -0.2226  0.0442
 1734poe     o2 7841   2.887   5.989   5.740 -0.0663 -0.2576 -0.2228
 1734poe    c23 7842   2.801   5.878   5.746 -0.1393 -0.2284 -0.7624
 1734poe    c23 7843   2.675   5.914   5.664 -0.2470  0.2867 -0.3737
 1734poe     o2 7844   2.605   6.014   5.734 -0.3268  0.1564 -0.2686
 1734poe    c23 7845   2.479   6.052   5.682 -0.1283  0.5013 -0.4950
 1734poe    c23 7846   2.390   6.112   5.792  0.5067 -0.0553  0.3395
 1734poe     o2 7847   2.452   6.221   5.856 -0.0903  0.2641  0.3867
 1734poe    c31 7848   2.368   6.289   5.945 -0.1797  0.1900  0.3590
 1735poe    c31 7849   5.389   5.281   5.670 -0.0127  0.0231  0.4702
 1735poe     o2 7850   5.385   5.241   5.805 -0.3008 -0.7240  0.2444
 1735poe    c23 7851   5.417   5.343   5.897 -0.1361 -0.2681 -0.3131
 1735poe    c23 7852   5.384   5.294   6.039  0.1022  0.2593 -0.0721
 1735poe     o2 7853   5.389   5.153   6.037  0.3873  0.2617  0.2418
 1735poe    c23 7854   5.378   5.105   6.169 -0.4432  0.4087  0.2325
 1735poe    c23 7855   5.391   4.951   6.166  0.1136  0.4578 -0.1685
 1735poe     o2 7856   5.514   4.909   6.113  0.1646  0.4767 -0.0653
 1735poe    c23 7857   5.552   4.774   6.130 -0.4492  0.2681 -0.3211
 1735poe    c23 7858   5.693   4.764   6.068 -0.4393  0.5555 -0.3442
 1735poe     o2 7859   5.694   4.826   5.942 -0.3607  0.3298 -0.4543
 1735poe    c31 7860   5.824   4.828   5.888 -0.1565 -0.1891  0.0171
 1736poe    c31 7861   6.427   5.598   2.126 -0.1301  0.4721  0.4086
 1736poe     o2 7862   6.565   5.582   2.105 -0.1912 -0.2676  0.5427
 1736poe    c23 7863   6.646   5.642   2.204 -0.1955  0.1532  0.2901
 1736poe    c23 7864   6.790   5.687   2.172 -0.0573 -0.5350 -0.0630
 1736poe     o2 7865   6.795   5.801   2.089 -0.1536 -0.3598  0.1721
 1736poe    c23 7866   6.889   5.788   1.985 -0.2087  0.0285  0.0727
 1736poe    c23 7867   6.922   5.931   1.939 -0.5039  0.1083  0.1104
 1736poe     o2 7868   6.798   5.999   1.947 -0.7542 -0.2912 -0.3384
 1736poe    c23 7869   6.789   6.103   1.852  0.4706 -0.0336 -0.1827
 1736poe    c23 7870   6.681   6.205   1.892  0.2289 -0.1905 -0.4374
 1736poe     o2 7871   6.555   6.146   1.869  0.0190 -0.2203  0.7191
 1736poe    c31 7872   6.450   6.215   1.933 -0.0942 -0.1513  0.4617
 1737poe    c31 7873   1.560   3.396   3.730 -0.1706  0.5563  0.6601
 1737poe     o2 7874   1.447   3.473   3.697 -0.2375  0.3009  0.2873
 1737poe    c23 7875   1.467   3.610   3.724  0.1079  0.2786  0.1488
 1737poe    c23 7876   1.423   3.657   3.864  0.0767  0.5174  0.0585
 1737poe     o2 7877   1.285   3.654   3.891  0.1745 -0.0153  0.5062
 1737poe    c23 7878   1.255   3.730   4.006 -0.1891  1.0182 -0.2709
 1737poe    c23 7879   1.113   3.705   4.060  0.1909  0.0041  0.2655
 1737poe     o2 7880   1.030   3.702   3.946 -0.0901 -0.0612  0.4719
 1737poe    c23 7881   0.909   3.634   3.973 -0.2565  0.0372 -0.0203
 1737poe    c23 7882   0.821   3.608   3.850 -0.0883  0.6571 -0.2780
 1737poe     o2 7883   0.912   3.583   3.745  0.0731  0.1272 -0.0135
 1737poe    c31 7884   0.850   3.504   3.645  0.8766 -0.9347  0.2994
 1738poe    c31 7885   6.128   2.989   4.364  0.6174  0.2597  0.2040
 1738poe     o2 7886   6.199   3.033   4.250  0.3224  0.2048 -0.0023
 1738poe    c23 7887   6.310   2.948   4.225  0.1353  0.0586 -0.3476
 1738poe    c23 7888   6.362   2.964   4.082  0.3983  0.2226 -0.2335
 1738poe     o2 7889   6.353   3.103   4.062 -0.4256  0.2501  0.3297
 1738poe    c23 7890   6.441   3.135   3.957 -0.6473  0.4704  0.2072
 1738poe    c23 7891   6.453   3.287   3.935 -0.1629  0.4586  0.3692
 1738poe     o2 7892   6.328   3.350   3.923 -0.2592  0.1967 -0.0586
 1738poe    c23 7893   6.354   3.489   3.922  0.1629  0.1363  0.9431
 1738poe    c23 7894   6.217   3.553   3.891  0.4990  0.5635  0.3309
 1738poe     o2 7895   6.126   3.484   3.973  0.1876  0.2225 -0.2958
 1738poe    c31 7896   5.996   3.536   3.958  0.0033 -0.2185 -0.2447
 1739poe    c31 7897   2.970   1.452   1.532 -0.3873  0.5492 -0.3148
 1739poe     o2 7898   3.020   1.333   1.474 -0.4371  0.5844 -0.4305
 1739poe    c23 7899   2.918   1.237   1.461  0.4256 -0.4240  0.0846
 1739poe    c23 7900   2.968   1.142   1.350  0.3512 -0.1112 -0.2197
 1739poe     o2 7901   2.983   1.204   1.224 -0.4055 -0.0677 -0.2936
 1739poe    c23 7902   3.047   1.115   1.136 -0.1787 -0.0318 -0.1663
 1739poe    c23 7903   3.110   1.186   1.015 -0.0481 -0.2172 -0.2091
 1739poe     o2 7904   3.010   1.245   0.934  0.1824  0.1520 -0.2292
 1739poe    c23 7905   3.032   1.236   0.795  0.2264 -0.0508 -0.2098
 1739poe    c23 7906   3.046   1.100   0.724  0.2138 -0.4048  0.4517
 1739poe     o2 7907   2.922   1.040   0.694 -0.0841  0.4854 -0.1480
 1739poe    c31 7908   2.945   0.903   0.667  0.4595  0.5902 -0.2315
 1740poe    c31 7909   3.559   0.814   5.150 -0.1410 -0.2240  0.2642
 1740poe     o2 7910   3.449   0.738   5.195 -0.4302  0.0880  0.0815
 1740poe    c23 7911   3.491   0.623   5.264  0.0611  0.0763 -0.2334
 1740poe    c23 7912   3.385   0.537   5.336 -0.4390  0.3993 -0.5790
 1740poe     o2 7913   3.296   0.466   5.253 -0.0411 -0.4468 -0.2905
 1740poe    c23 7914   3.216   0.377   5.328 -0.0334 -0.0309  0.2146
 1740poe    c23 7915   3.139   0.274   5.243 -0.2927 -0.0074  0.4181
 1740poe     o2 7916   3.100   0.342   5.126 -0.3708 -0.5898  0.1055
 1740poe    c23 7917   3.020   0.270   5.035 -0.0744 -0.0585 -0.5817
 1740poe    c23 7918   2.973   0.381   4.939  0.3960  0.2773 -0.4245
 1740poe     o2 7919   3.096   0.440   4.902  0.4829  0.5495  0.2745
 1740poe    c31 7920   3.066   0.530   4.798 -0.6695  0.1859  0.2755
 1741poe    c31 7921   2.021   1.833   1.163  0.9909 -0.0192  0.2508
 1741poe     o2 7922   2.039   1.699   1.123  0.1136 -0.0649 -0.0280
 1741poe    c23 7923   1.929   1.659   1.045  0.2301 -0.1539 -0.1483
 1741poe    c23 7924   1.898   1.510   1.022  0.3877 -0.1814 -0.1845
 1741poe     o2 7925   1.862   1.433   1.135 -0.1049 -0.3948 -0.4816
 1741poe    c23 7926   1.854   1.299   1.092  0.1710 -0.3461 -0.6936
 1741poe    c23 7927   1.790   1.216   1.206  0.1553 -0.1910 -0.5891
 1741poe     o2 7928   1.869   1.252   1.317 -0.3171 -0.5197 -0.1449
 1741poe    c23 7929   1.831   1.202   1.444  0.4285  0.2144  0.3811
 1741poe    c23 7930   1.938   1.240   1.547  0.3993  0.5740  0.2839
 1741poe     o2 7931   1.954   1.378   1.527  0.3432  0.4808 -0.4406
 1741poe    c31 7932   2.010   1.430   1.646  0.5356  0.3456 -0.4719
 1742poe    c31 7933   0.910   4.710   3.819  0.7613  0.1413 -0.1535
 1742poe     o2 7934   0.795   4.651   3.762  0.6426 -0.0337  0.2623
 1742poe    c23 7935   0.774   4.518   3.805 -0.3776 -0.0228 -0.1893
 1742poe    c23 7936   0.641   4.469   3.744 -0.0635 -0.1890 -0.7458
 1742poe     o2 7937   0.535   4.558   3.768  0.0033 -0.1991 -0.3964
 1742poe    c23 7938   0.408   4.504   3.741 -0.1399 -0.1194  0.1118
 1742poe    c23 7939   0.292   4.585   3.804  0.2979  0.0303  0.7316
 1742poe     o2 7940   0.272   4.712   3.746  0.2902  0.0011  0.6703
 1742poe    c23 7941   0.151   4.765   3.795  0.0228  0.1157 -0.1048
 1742poe    c23 7942   0.123   4.903   3.732 -0.3343  0.2750  0.3993
 1742poe     o2 7943   0.069   4.883   3.604  0.1116  0.6753  0.1461
 1742poe    c31 7944   0.133   4.982   3.526 -0.1774  0.5438 -0.2619
 1743poe    c31 7945   0.380   5.468   6.388 -0.2490  0.0417 -0.0806
 1743poe     o2 7946   0.323   5.346   6.429  0.2589 -0.4495 -0.8137
 1743poe    c23 7947   0.391   5.287   6.538 -0.1512  0.1193 -0.2463
 1743poe    c23 7948   0.374   5.135   6.524 -0.5767  0.1241  0.1789
 1743poe     o2 7949   0.255   5.087   6.581 -0.6481  0.0418 -0.0363
 1743poe    c23 7950   0.255   4.948   6.603 -0.2878 -0.0424 -0.5608
 1743poe    c23 7951   0.142   4.918   6.704  0.0733  0.0302 -0.1341
 1743poe     o2 7952   0.028   4.952   6.629 -0.0202  0.5088  0.2219
 1743poe    c23 7953  -0.092   4.933   6.700 -0.2378 -0.5715 -0.4245
 1743poe    c23 7954  -0.202   5.025   6.643 -0.1900 -0.2834 -0.0476
 1743poe     o2 7955  -0.137   5.147   6.613 -0.1018 -0.4560 -0.5529
 1743poe    c31 7956  -0.225   5.239   6.554  0.3387  0.2216 -0.1705
 1744poe    c31 7957   5.650   2.031   5.772 -0.3151 -0.3580 -0.6852
 1744poe     o2 7958   5.743   1.925   5.767  0.0515 -0.0663 -0.0790
 1744poe    c23 7959   5.704   1.825   5.859 -0.2371  0.5417  0.4686
 1744poe    c23 7960   5.798   1.712   5.813  0.0181  0.7101  0.5718
 1744poe     o2 7961   5.927   1.766   5.799  0.3507 -0.0759  0.5277
 1744poe    c23 7962   6.018   1.684   5.728  0.0879 -0.0566  0.1628
 1744poe    c23 7963   6.157   1.750   5.723  0.2846 -0.5056 -0.2941
 1744poe     o2 7964   6.140   1.877   5.665  0.4469 -0.4962 -0.3210
 1744poe    c23 7965   6.261   1.937   5.624  0.3339  0.0101  0.0662
 1744poe    c23 7966   6.248   2.090   5.623  0.0262 -0.0125  0.4316
 1744poe     o2 7967   6.148   2.140   5.538  0.5539 -0.1212 -0.2655
 1744poe    c31 7968   6.178   2.276   5.519 -0.1542  0.1332  0.3710
 1745poe    c31 7969   0.433   3.301   2.574 -0.1944 -0.2495  0.3596
 1745poe     o2 7970   0.357   3.416   2.546 -0.2742 -0.3064  0.3432
 1745poe    c23 7971   0.432   3.526   2.501  0.1357 -0.6360  0.2104
 1745poe    c23 7972   0.461   3.505   2.351 -0.1952 -0.9213  0.1826
 1745poe     o2 7973   0.350   3.526   2.267  0.3412 -0.4097 -0.4152
 1745poe    c23 7974   0.380   3.589   2.145  0.0336  0.5013 -0.0293
 1745poe    c23 7975   0.259   3.613   2.053 -0.6826 -0.5612  0.6112
 1745poe     o2 7976   0.187   3.728   2.095 -0.1219 -0.0433  0.1747
 1745poe    c23 7977   0.054   3.743   2.051  0.1709  0.4410 -0.5560
 1745poe    c23 7978  -0.050   3.638   2.095  0.9541 -0.1479 -0.0658
 1745poe     o2 7979  -0.086   3.520   2.026 -0.3143  0.4510 -0.4696
 1745poe    c31 7980  -0.151   3.535   1.902  0.0856  0.6902 -0.6544
 1746poe    c31 7981   3.931   5.795   0.473  0.0943 -0.0164 -0.4314
 1746poe     o2 7982   3.886   5.928   0.476 -0.4676 -0.2061 -0.2315
 1746poe    c23 7983   3.832   5.963   0.350 -0.2225  0.5188 -0.1404
 1746poe    c23 7984   3.771   6.102   0.375  0.0722  0.5263  0.5762
 1746poe     o2 7985   3.868   6.173   0.450  0.4374  0.1614  0.4514
 1746poe    c23 7986   3.858   6.313   0.444 -0.6253  0.0748 -0.1099
 1746poe    c23 7987   3.978   6.374   0.518 -0.3630 -0.5048 -0.0564
 1746poe     o2 7988   3.989   6.323   0.649 -0.0636  0.4359  0.2935
 1746poe    c23 7989   4.100   6.379   0.715  0.2145  0.0402  0.1691
 1746poe    c23 7990   4.159   6.304   0.836 -0.4823 -0.9427 -0.0911
 1746poe     o2 7991   4.202   6.174   0.804 -0.6508 -0.8683 -0.6374
 1746poe    c31 7992   4.248   6.096   0.913 -0.3397  0.2081  0.0114
 1747poe    c31 7993   2.342   1.674   1.504  0.3354  0.8139  0.0377
 1747poe     o2 7994   2.415   1.722   1.394 -0.3703  0.0784 -0.7685
 1747poe    c23 7995   2.458   1.616   1.312  0.5236 -0.2127  0.0663
 1747poe    c23 7996   2.523   1.681   1.189  0.3341 -0.3395 -0.1005
 1747poe     o2 7997   2.638   1.763   1.189  0.2831 -0.2667 -0.3424
 1747poe    c23 7998   2.755   1.691   1.217  0.1713 -0.3770 -0.1568
 1747poe    c23 7999   2.881   1.774   1.184 -0.1155  0.1410  0.0487
 1747poe     o2 8000   2.914   1.745   1.050  0.0644  0.5078  0.0128
 1747poe    c23 8001   3.011   1.837   1.004 -0.1604  0.6839 -0.1081
 1747poe    c23 8002   3.083   1.781   0.880 -0.1110  0.1862  0.1418
 1747poe     o2 8003   3.007   1.751   0.766  0.2520  0.0629 -0.0697
 1747poe    c31 8004   3.084   1.683   0.669 -0.5478 -0.3552 -0.4233
 1748poe    c31 8005   1.153   5.802   5.199  0.2430  0.1979 -0.3166
 1748poe     o2 8006   1.138   5.662   5.211  0.2325  0.2246 -0.0205
 1748poe    c23 8007   1.255   5.591   5.176 -0.0617 -0.1350 -0.2831
 1748poe    c23 8008   1.227   5.453   5.238 -0.4745  0.2204  0.3262
 1748poe     o2 8009   1.094   5.430   5.197 -0.3404 -0.5017  0.3014
 1748poe    c23 8010   1.050   5.299   5.229 -0.5039 -0.3911  0.5315
 1748poe    c23 8011   0.905   5.279   5.180 -0.3778  0.9378 -0.4698
 1748poe     o2 8012   0.824   5.380   5.234 -0.6991  0.6058 -0.3222
 1748poe    c23 8013   0.689   5.343   5.221 -0.6407  0.3965 -0.3241
 1748poe    c23 8014   0.600   5.462   5.260 -0.0034  0.8500 -0.2460
 1748poe     o2 8015   0.461   5.452   5.237 -0.2321 -0.0555  1.3728
 1748poe    c31 8016   0.409   5.580   5.269 -0.2988  0.1757  0.3888
 1749poe    c31 8017   0.920   4.633   5.952 -0.1320  0.6005  0.2480
 1749poe     o2 8018   1.052   4.600   5.989 -0.3698 -0.1504  0.4413
 1749poe    c23 8019   1.063   4.558   6.124 -0.3238 -0.3985  0.3609
 1749poe    c23 8020   1.208   4.529   6.165 -0.2111 -0.4023 -0.0315
 1749poe     o2 8021   1.278   4.651   6.164 -0.6305 -0.1581  0.3014
 1749poe    c23 8022   1.409   4.636   6.213 -0.3856  0.0013 -0.3000
 1749poe    c23 8023   1.511   4.735   6.154 -0.1352 -0.3999 -0.5448
 1749poe     o2 8024   1.454   4.862   6.136 -0.0793 -0.3084 -0.0781
 1749poe    c23 8025   1.556   4.954   6.169 -0.2477 -0.2321  0.2355
 1749poe    c23 8026   1.486   5.091   6.176  0.2474  0.0210  0.2835
 1749poe     o2 8027   1.396   5.084   6.067  0.2658  0.2348  0.2538
 1749poe    c31 8028   1.359   5.212   6.019  0.6415  0.3668  0.3141
 1750poe    c31 8029   4.355   4.866   5.484 -0.2603 -0.1545 -0.3781
 1750poe     o2 8030   4.468   4.791   5.519  0.0264  0.3037 -0.3132
 1750poe    c23 8031   4.566   4.826   5.424  0.7104 -0.1373  0.2158
 1750poe    c23 8032   4.697   4.780   5.490  0.4539 -0.7353  0.3171
 1750poe     o2 8033   4.678   4.643   5.514  0.1183 -0.6672  0.4449
 1750poe    c23 8034   4.785   4.567   5.567  0.5520 -0.3752  0.0020
 1750poe    c23 8035   4.738   4.424   5.597 -0.3120 -0.1102 -0.0492
 1750poe     o2 8036   4.614   4.424   5.665 -0.1366  0.3142  0.2742
 1750poe    c23 8037   4.587   4.295   5.716 -0.1837  0.1116 -0.2556
 1750poe    c23 8038   4.454   4.290   5.793 -0.0768  0.1763 -0.0654
 1750poe     o2 8039   4.342   4.324   5.714 -0.4590  0.4505  0.5861
 1750poe    c31 8040   4.232   4.320   5.802 -0.5048  0.2266  0.5196
 1751poe    c31 8041   2.724   1.936   6.357 -0.1155 -0.3992  0.3214
 1751poe     o2 8042   2.860   1.912   6.384  0.0247 -0.3327 -0.3127
 1751poe    c23 8043   2.873   1.775   6.413 -0.2470 -0.2330  0.2986
 1751poe    c23 8044   3.015   1.715   6.400 -0.2280 -0.3242  0.9266
 1751poe     o2 8045   3.113   1.780   6.477  0.2607  0.0559 -0.0102
 1751poe    c23 8046   3.243   1.759   6.425  0.1017 -0.1663 -0.3214
 1751poe    c23 8047   3.342   1.847   6.504  0.0636  0.1006 -0.5704
 1751poe     o2 8048   3.284   1.973   6.529  0.0093 -0.0124 -0.1170
 1751poe    c23 8049   3.381   2.055   6.590  0.2419  0.2655 -0.8468
 1751poe    c23 8050   3.310   2.190   6.614  0.0662  0.0274  0.0289
 1751poe     o2 8051   3.202   2.167   6.701  0.2905 -0.2087  0.2472
 1751poe    c31 8052   3.188   2.292   6.766 -0.1935 -0.1604  0.0524
 1752poe    c31 8053   5.044   5.103   3.099 -0.2231  0.1510 -0.8076
 1752poe     o2 8054   5.029   4.962   3.093 -0.7562  0.1892 -0.3966
 1752poe    c23 8055   5.100   4.904   2.987 -0.0354  0.4647 -0.0738
 1752poe    c23 8056   5.097   4.750   3.000  0.4872  0.4268 -0.3781
 1752poe     o2 8057   4.973   4.687   3.021  0.4577  0.6294  0.0783
 1752poe    c23 8058   4.981   4.560   3.080 -0.1822  0.5697  0.0417
 1752poe    c23 8059   4.851   4.478   3.063 -0.0355  0.2967  0.2271
 1752poe     o2 8060   4.742   4.560   3.097 -0.1971  0.2271 -0.1133
 1752poe    c23 8061   4.614   4.501   3.098 -0.1415  0.0982 -0.6362
 1752poe    c23 8062   4.504   4.590   3.159  0.0998 -0.3889  0.5345
 1752poe     o2 8063   4.529   4.723   3.118  0.2732 -0.4475  0.4471
 1752poe    c31 8064   4.425   4.803   3.171  0.1624 -0.2625 -0.0444
 1753poe    c31 8065   0.207   1.090   1.969 -0.3142 -0.1096 -0.1768
 1753poe     o2 8066   0.318   1.021   1.915 -0.2693 -0.2966  0.1544
 1753poe    c23 8067   0.359   1.090   1.799 -0.1743  0.4205  0.6066
 1753poe    c23 8068   0.459   1.009   1.715  0.0631  0.2256  1.0735
 1753poe     o2 8069   0.426   0.876   1.747  0.6143 -0.0575  0.4970
 1753poe    c23 8070   0.533   0.791   1.710  0.4867 -0.2556  0.5773
 1753poe    c23 8071   0.478   0.647   1.715  0.1937 -0.1648  0.0068
 1753poe     o2 8072   0.421   0.637   1.843 -0.8114  0.1527 -0.4003
 1753poe    c23 8073   0.352   0.515   1.861 -0.6971  0.1776  0.2542
 1753poe    c23 8074   0.332   0.480   2.009 -0.1036  0.1103  0.3198
 1753poe     o2 8075   0.205   0.521   2.056 -0.2535 -0.1657  0.1607
 1753poe    c31 8076   0.171   0.466   2.181  0.5884 -0.1161  0.4230
 1754poe    c31 8077   0.587   0.180   2.264 -0.0611 -0.0142  0.1864
 1754poe     o2 8078   0.668   0.066   2.286  0.2875  0.2017  0.0401
 1754poe    c23 8079   0.706   0.060   2.421 -0.6643 -0.5019  0.2962
 1754poe    c23 8080   0.749  -0.080   2.468 -0.2155 -0.4725 -0.0179
 1754poe     o2 8081   0.874  -0.117   2.414  0.1721  0.3169  0.3379
 1754poe    c23 8082   0.890  -0.256   2.429  0.2805  0.2786 -0.1430
 1754poe    c23 8083   1.016  -0.312   2.359  0.3216 -0.6448  0.6559
 1754poe     o2 8084   0.995  -0.292   2.221  0.2323 -0.1428  0.7405
 1754poe    c23 8085   1.058  -0.388   2.139 -0.1337  0.0336  0.2478
 1754poe    c23 8086   1.025  -0.331   1.999  0.3498 -0.0825  0.0849
 1754poe     o2 8087   1.037  -0.191   1.990 -0.6978  0.0084  0.0659
 1754poe    c31 8088   1.020  -0.135   1.862 -0.2779  0.1818  0.0842
 1755poe    c31 8089   4.007   2.946   6.477  0.3943  0.0252 -0.3583
 1755poe     o2 8090   4.079   2.824   6.476 -0.1374 -0.3000  0.1783
 1755poe    c23 8091   4.213   2.845   6.438 -0.0447 -0.2139  0.5496
 1755poe    c23 8092   4.266   2.715   6.374 -0.4973 -0.3162  0.3814
 1755poe     o2 8093   4.297   2.614   6.468  0.0639  0.1357  0.6908
 1755poe    c23 8094   4.365   2.515   6.394 -0.5204 -0.2103  0.6119
 1755poe    c23 8095   4.433   2.424   6.497  0.3739 -0.1479  0.0866
 1755poe     o2 8096   4.342   2.416   6.604  0.2761  0.2576  0.0349
 1755poe    c23 8097   4.345   2.289   6.667  0.2737  0.1780 -0.1261
 1755poe    c23 8098   4.301   2.313   6.812  0.0601 -0.5617 -0.0647
 1755poe     o2 8099   4.181   2.385   6.795  0.3417 -0.0765 -0.0186
 1755poe    c31 8100   4.124   2.412   6.921 -0.1786 -0.0247 -0.2629
 1756poe    c31 8101   4.398   4.831   4.782 -0.1604  0.1328  0.0951
 1756poe     o2 8102   4.334   4.956   4.782 -0.8636 -0.2208 -0.0141
 1756poe    c23 8103   4.357   5.024   4.661 -0.1904 -0.5542 -0.0785
 1756poe    c23 8104   4.250   5.135   4.650 -0.0647 -0.4634 -0.3902
 1756poe     o2 8105   4.121   5.086   4.625 -0.3583 -0.1576  0.4993
 1756poe    c23 8106   4.030   5.190   4.596  0.2257  0.2015 -0.0785
 1756poe    c23 8107   3.886   5.135   4.603  0.5479 -0.6326  0.0526
 1756poe     o2 8108   3.860   5.106   4.739 -0.1685  0.5407  0.1814
 1756poe    c23 8109   3.731   5.050   4.742  0.2266 -0.3938  0.2045
 1756poe    c23 8110   3.702   4.994   4.882  0.2931  0.2978  0.4971
 1756poe     o2 8111   3.797   4.902   4.929 -0.2179 -0.5806 -0.1571
 1756poe    c31 8112   3.743   4.837   5.042  0.6407 -0.3645  0.3913
 1757poe    c31 8113   5.646   0.827   0.274  0.3670 -0.1279  0.7199
 1757poe     o2 8114   5.712   0.942   0.225  0.0375 -0.2719 -0.0666
 1757poe    c23 8115   5.785   0.916   0.108  0.5861  0.0542  0.2004
 1757poe    c23 8116   5.864   1.044   0.074 -0.1684  0.5551  0.3270
 1757poe     o2 8117   5.787   1.153   0.029  0.0982  0.5646 -0.1018
 1757poe    c23 8118   5.862   1.272   0.015  0.3092  0.5024  0.4721
 1757poe    c23 8119   5.770   1.384  -0.037  0.1972  0.3419  0.3214
 1757poe     o2 8120   5.676   1.396   0.068  0.3283 -0.1415  0.4932
 1757poe    c23 8121   5.588   1.499   0.030  0.2575 -0.3634  0.0529
 1757poe    c23 8122   5.479   1.524   0.135  0.6268  0.3606  0.2682
 1757poe     o2 8123   5.448   1.403   0.201 -0.1789  0.2775 -0.2532
 1757poe    c31 8124   5.356   1.425   0.305 -0.2136 -0.1186 -0.1977
 1758poe    c31 8125   4.973   4.112   5.818  0.2029 -0.2314  0.1844
 1758poe     o2 8126   4.941   4.212   5.911  0.5910 -0.4206  0.5259
 1758poe    c23 8127   5.046   4.277   5.980  0.9225 -0.0689 -0.2915
 1758poe    c23 8128   4.984   4.409   6.030 -0.2167 -0.4058 -0.7790
 1758poe     o2 8129   4.867   4.392   6.108 -0.1596  0.0409 -0.5957
 1758poe    c23 8130   4.804   4.518   6.121  0.6840  0.2950  1.3137
 1758poe    c23 8131   4.686   4.503   6.220 -0.0613  0.1086  0.4041
 1758poe     o2 8132   4.631   4.375   6.197  0.4536 -0.0079 -0.2219
 1758poe    c23 8133   4.502   4.360   6.252  0.4523  0.0368 -0.2130
 1758poe    c23 8134   4.468   4.210   6.240  0.3968  0.0896 -0.7404
 1758poe     o2 8135   4.587   4.133   6.238  0.0120 -0.5218 -0.2737
 1758poe    c31 8136   4.560   4.008   6.297  0.5203 -0.7498 -0.5238
 1759poe    c31 8137   3.124   1.524   4.509 -0.1514 -0.5976  0.1867
 1759poe     o2 8138   3.143   1.663   4.491 -0.4456 -0.6172 -0.2865
 1759poe    c23 8139   3.028   1.732   4.533  0.1491  0.2806 -0.1046
 1759poe    c23 8140   3.050   1.884   4.544  0.1505  0.2883 -0.2162
 1759poe     o2 8141   3.101   1.936   4.423 -0.0258  0.0595 -0.3887
 1759poe    c23 8142   3.115   2.076   4.425  0.1322  0.0333  0.2180
 1759poe    c23 8143   3.176   2.108   4.288 -0.1048  0.5773  0.2376
 1759poe     o2 8144   3.086   2.063   4.189  0.1517  0.2301  0.1623
 1759poe    c23 8145   3.141   2.068   4.059  0.4823 -0.3056  0.2778
 1759poe    c23 8146   3.027   2.026   3.965  0.5569 -0.0362  0.0661
 1759poe     o2 8147   2.967   1.911   4.022  0.1033  0.5677  0.8287
 1759poe    c31 8148   2.871   1.850   3.940  0.8748 -0.3982  0.6205
 1760poe    c31 8149   4.314   5.580   6.892  0.7328  0.0901 -0.2878
 1760poe     o2 8150   4.248   5.704   6.894  0.1580 -0.2149  0.0725
 1760poe    c23 8151   4.155   5.707   7.000 -0.3141  0.3389 -0.3445
 1760poe    c23 8152   4.097   5.845   7.036 -0.2038  0.3125 -0.0547
 1760poe     o2 8153   4.200   5.933   7.074 -0.0495 -0.1488  0.6033
 1760poe    c23 8154   4.154   6.042   7.152 -0.5161  0.2934 -0.2676
 1760poe    c23 8155   4.271   6.139   7.176  0.0069 -0.4165  0.1074
 1760poe     o2 8156   4.340   6.184   7.061 -0.6539  0.2433 -0.0400
 1760poe    c23 8157   4.472   6.205   7.108 -0.4825 -0.1610 -0.3332
 1760poe    c23 8158   4.547   6.263   6.987 -0.5581  0.1416 -0.2350
 1760poe     o2 8159   4.563   6.169   6.883 -0.5047 -0.2014  0.0818
 1760poe    c31 8160   4.695   6.154   6.836 -0.7220  0.4304 -0.7763
 1761poe    c31 8161   4.797   6.327   0.345  0.3667  0.0253  0.0116
 1761poe     o2 8162   4.702   6.346   0.446  0.1655 -0.0298 -0.1671
 1761poe    c23 8163   4.623   6.232   0.472 -0.0983  0.1828 -0.0210
 1761poe    c23 8164   4.486   6.271   0.530 -0.0641 -0.0854  0.2409
 1761poe     o2 8165   4.505   6.362   0.636 -0.1434  0.4337 -0.1865
 1761poe    c23 8166   4.546   6.308   0.759 -0.1330  0.8434 -0.0096
 1761poe    c23 8167   4.550   6.412   0.873 -0.2834  0.3885  0.4196
 1761poe     o2 8168   4.617   6.536   0.856  0.4852 -0.1234 -0.4071
 1761poe    c23 8169   4.625   6.611   0.975 -0.3738 -0.4519 -0.1346
 1761poe    c23 8170   4.719   6.731   0.953  0.2147 -0.8774  0.0346
 1761poe     o2 8171   4.856   6.701   0.964  0.4372 -0.0031 -0.2983
 1761poe    c31 8172   4.931   6.729   1.080 -0.0610 -0.2625  0.0904
 1762poe    c31 8173   1.756   4.005   1.325  0.3253 -0.1140 -0.4842
 1762poe     o2 8174   1.618   3.977   1.323  0.1814  0.4273  0.6404
 1762poe    c23 8175   1.585   3.872   1.411  0.4169  0.2105  0.4716
 1762poe    c23 8176   1.435   3.843   1.395  0.3575  0.4629  0.5681
 1762poe     o2 8177   1.350   3.934   1.461 -0.1035  0.2814  0.2252
 1762poe    c23 8178   1.216   3.892   1.448  0.1140 -0.3795  0.0942
 1762poe    c23 8179   1.135   4.001   1.520  0.0719  0.0096 -0.5386
 1762poe     o2 8180   1.182   4.124   1.470 -0.1148  0.2805 -0.0560
 1762poe    c23 8181   1.104   4.235   1.508 -0.2407  0.1054  0.1939
 1762poe    c23 8182   1.161   4.361   1.440 -0.2510 -0.1124 -0.2243
 1762poe     o2 8183   1.297   4.348   1.472 -0.3077 -0.1167  0.0163
 1762poe    c31 8184   1.363   4.469   1.440 -0.2374 -0.0567  0.3734
 1763poe    c31 8185   4.787   3.446   5.430 -0.3327 -1.0561  0.0559
 1763poe     o2 8186   4.791   3.516   5.308 -0.0480 -0.3508  0.4643
 1763poe    c23 8187   4.672   3.591   5.299  0.5323  0.5861  0.4625
 1763poe    c23 8188   4.688   3.678   5.173 -0.4086  0.1322  0.0249
 1763poe     o2 8189   4.689   3.610   5.049  0.0955  0.1854  0.0002
 1763poe    c23 8190   4.735   3.698   4.949 -0.5394  0.0548 -0.4097
 1763poe    c23 8191   4.621   3.749   4.859 -0.5100  0.1973 -0.3669
 1763poe     o2 8192   4.580   3.635   4.787 -0.1736 -0.2584  0.1521
 1763poe    c23 8193   4.458   3.652   4.718  0.2534  0.1943 -0.5117
 1763poe    c23 8194   4.406   3.512   4.681  0.1191  0.0088  0.3562
 1763poe     o2 8195   4.394   3.427   4.794 -0.2365  0.1079  0.3958
 1763poe    c31 8196   4.337   3.307   4.749 -0.0324  0.0931  0.1694
 1764poe    c31 8197   1.198   6.510   6.999 -0.6224  0.1127  0.0864
 1764poe     o2 8198   1.232   6.378   6.961  0.0067  0.2886  0.0338
 1764poe    c23 8199   1.295   6.390   6.835 -0.0959 -0.1102 -0.0569
 1764poe    c23 8200   1.379   6.267   6.797 -0.3847 -0.5325  0.6484
 1764poe     o2 8201   1.295   6.163   6.750 -0.0440 -0.2736 -0.5734
 1764poe    c23 8202   1.368   6.051   6.706  0.4755  0.0227 -0.4860
 1764poe    c23 8203   1.341   5.924   6.789 -0.1296  0.4256 -0.0555
 1764poe     o2 8204   1.361   5.938   6.928  0.2095  0.3355 -0.0927
 1764poe    c23 8205   1.338   5.811   6.985  0.0787  0.3097 -0.2033
 1764poe    c23 8206   1.393   5.803   7.128  0.3461  0.4992 -0.2951
 1764poe     o2 8207   1.333   5.902   7.209  0.0136  0.1482 -0.1085
 1764poe    c31 8208   1.366   5.897   7.346  1.0559 -0.0131 -0.3499
 1765poe    c31 8209   2.388   3.754   5.876  0.2215  0.0299  0.0918
 1765poe     o2 8210   2.306   3.868   5.886 -0.3023 -0.3628  0.3508
 1765poe    c23 8211   2.370   3.984   5.936  0.0174 -0.2231 -0.3705
 1765poe    c23 8212   2.424   4.082   5.830 -0.3144 -0.3179 -0.6297
 1765poe     o2 8213   2.324   4.154   5.762 -0.5735 -0.3473 -0.2852
 1765poe    c23 8214   2.375   4.236   5.658  0.2897  0.2227  0.5730
 1765poe    c23 8215   2.272   4.315   5.575 -0.1023 -0.8327  0.0295
 1765poe     o2 8216   2.160   4.233   5.552 -0.2973 -0.6710  0.3845
 1765poe    c23 8217   2.057   4.298   5.481 -0.2857 -0.7361  0.3071
 1765poe    c23 8218   1.957   4.191   5.434 -0.3235 -0.3448 -0.5154
 1765poe     o2 8219   1.950   4.099   5.541  0.5980  0.0996 -0.0614
 1765poe    c31 8220   1.872   3.986   5.508  0.6883  0.1819 -0.5642
 1766poe    c31 8221   2.245   2.109   0.446  0.7304  0.5524 -0.1032
 1766poe     o2 8222   2.252   2.146   0.582  0.2009  0.0116  0.0786
 1766poe    c23 8223   2.267   2.026   0.656 -0.4016  0.2366  0.5700
 1766poe    c23 8224   2.301   2.064   0.801  0.4560  0.1787  0.3884
 1766poe     o2 8225   2.217   2.173   0.830  0.0383 -0.0860  0.1895
 1766poe    c23 8226   2.187   2.173   0.968 -0.5549 -0.4517  0.0606
 1766poe    c23 8227   2.115   2.301   1.013  0.1340 -0.0346 -0.0082
 1766poe     o2 8228   2.195   2.411   0.978 -0.0305  0.0984  0.0309
 1766poe    c23 8229   2.110   2.524   0.982 -0.0661  0.0767 -0.1027
 1766poe    c23 8230   2.173   2.645   0.911 -0.3893  0.0383 -0.4540
 1766poe     o2 8231   2.210   2.611   0.779  0.1252 -0.4655 -0.1838
 1766poe    c31 8232   2.183   2.724   0.699  0.2440 -0.2002  0.1496
 1767poe    c31 8233   4.173   0.785   3.513 -0.2745  0.5023  0.1703
 1767poe     o2 8234   4.228   0.823   3.389 -0.4385 -0.0938 -0.0861
 1767poe    c23 8235   4.137   0.881   3.298 -0.1487  0.4062 -0.0558
 1767poe    c23 8236   4.199   0.904   3.159 -0.1160 -0.2373 -0.1525
 1767poe     o2 8237   4.219   0.791   3.077  0.0456 -0.1472 -0.2385
 1767poe    c23 8238   4.259   0.814   2.943 -0.3423 -0.0781 -0.3439
 1767poe    c23 8239   4.255   0.676   2.876 -0.1545 -0.2864  0.0688
 1767poe     o2 8240   4.343   0.586   2.941 -0.0124 -0.3938 -0.2698
 1767poe    c23 8241   4.458   0.555   2.866  0.0829 -0.1958 -0.2050
 1767poe    c23 8242   4.579   0.631   2.924  0.2031 -0.7137  0.2278
 1767poe     o2 8243   4.611   0.586   3.054  0.2039 -0.1836  0.4139
 1767poe    c31 8244   4.680   0.463   3.062 -0.0814 -0.3079  1.0708
 1768poe    c31 8245   5.687   6.746   0.627 -0.1063  0.1292 -0.2657
 1768poe     o2 8246   5.756   6.634   0.578  0.0409  0.0841  0.0428
 1768poe    c23 8247   5.890   6.664   0.611  0.1870 -0.0325 -0.4283
 1768poe    c23 8248   5.977   6.538   0.600 -0.0691 -0.1944 -0.6098
 1768poe     o2 8249   5.938   6.475   0.480 -0.6608 -0.2036 -0.4137
 1768poe    c23 8250   6.012   6.367   0.428 -0.3432 -0.0918 -0.1962
 1768poe    c23 8251   5.948   6.328   0.293 -0.2576  0.4840 -0.4031
 1768poe     o2 8252   5.808   6.339   0.309 -0.2451  0.0087  0.0515
 1768poe    c23 8253   5.743   6.294   0.193 -0.4366  0.9389 -0.2088
 1768poe    c23 8254   5.591   6.270   0.204 -0.2016 -0.4423  0.1888
 1768poe     o2 8255   5.530   6.395   0.227  0.3290 -0.1482  0.0163
 1768poe    c31 8256   5.395   6.379   0.265  0.2450  0.0756 -0.1925
 1769poe    c31 8257   4.813   3.321   2.895  0.1029 -0.1519  0.1124
 1769poe     o2 8258   4.840   3.278   2.764  0.0434 -0.0352  0.0610
 1769poe    c23 8259   4.975   3.304   2.736 -0.0195  0.0207 -0.1996
 1769poe    c23 8260   5.028   3.440   2.685  0.1758  0.1443  0.3161
 1769poe     o2 8261   4.973   3.468   2.558  0.0564  0.1029  0.3578
 1769poe    c23 8262   5.021   3.593   2.512  0.1885 -0.0433  0.0918
 1769poe    c23 8263   4.957   3.650   2.384  0.2417 -0.9136 -0.3280
 1769poe     o2 8264   5.022   3.582   2.279  0.3765 -0.8482 -0.2863
 1769poe    c23 8265   4.939   3.591   2.166  0.6023 -0.1844 -0.4040
 1769poe    c23 8266   5.004   3.549   2.033  0.2504 -0.6651 -0.4257
 1769poe     o2 8267   5.092   3.645   1.978  0.3210 -0.4575  0.0457
 1769poe    c31 8268   5.154   3.612   1.856  0.1263 -0.1080 -0.1496
 1770poe    c31 8269   0.710   6.882   0.246  0.1683  0.0945  0.3155
 1770poe     o2 8270   0.817   6.968   0.277  0.1824  0.0307  0.4417
 1770poe    c23 8271   0.883   7.004   0.158  0.1776  0.2466  0.5032
 1770poe    c23 8272   1.001   7.102   0.164  0.3985  0.0288 -0.1859
 1770poe     o2 8273   0.950   7.230   0.197  0.5068  0.0534 -0.1121
 1770poe    c23 8274   1.053   7.325   0.208  0.2501  0.3130  0.0547
 1770poe    c23 8275   1.025   7.457   0.282  0.4678  0.4153 -0.0419
 1770poe     o2 8276   0.921   7.527   0.216  0.4576  0.2352 -0.2159
 1770poe    c23 8277   0.854   7.607   0.310  0.3110 -0.1320 -0.0053
 1770poe    c23 8278   0.716   7.660   0.267  0.1176 -0.3431  0.3506
 1770poe     o2 8279   0.633   7.561   0.211  0.0471 -0.2829  0.3482
 1770poe    c31 8280   0.541   7.631   0.130  0.2462 -0.3276  0.0797
 1771poe    c31 8281   3.616   2.249   2.430  0.4095 -0.5231  0.4625
 1771poe     o2 8282   3.682   2.174   2.332 -0.0051  0.0310 -0.2519
 1771poe    c23 8283   3.761   2.073   2.391  0.3770  0.6220  0.2564
 1771poe    c23 8284   3.848   2.014   2.278  0.2041  0.1206  0.3802
 1771poe     o2 8285   3.945   2.113   2.250 -0.0832  0.3712  0.2603
 1771poe    c23 8286   4.038   2.063   2.156 -0.1417  0.3172  0.2305
 1771poe    c23 8287   4.139   2.175   2.125  0.0745 -0.1112 -0.6368
 1771poe     o2 8288   4.084   2.291   2.066 -0.2148  0.4413  0.6832
 1771poe    c23 8289   4.193   2.342   1.993 -0.5559 -0.1058 -0.2245
 1771poe    c23 8290   4.162   2.492   1.999  0.0138 -0.0045  0.2460
 1771poe     o2 8291   4.024   2.509   1.976 -0.0174  0.5422  0.7975
 1771poe    c31 8292   3.989   2.642   1.947 -0.3723  0.1822 -0.5052
 1772poe    c31 8293   5.844   5.639   0.305  0.4408  0.0072 -0.2766
 1772poe     o2 8294   5.750   5.664   0.203  0.2335 -0.1973 -0.1341
 1772poe    c23 8295   5.637   5.582   0.226 -0.4275  0.5356 -0.7306
 1772poe    c23 8296   5.605   5.488   0.108  0.1269 -0.2287 -0.2755
 1772poe     o2 8297   5.572   5.559  -0.009 -0.7295 -0.1100  0.0318
 1772poe    c23 8298   5.559   5.483  -0.126 -0.2607  0.1065 -0.1646
 1772poe    c23 8299   5.522   5.577  -0.243 -0.1241  0.1189 -0.1985
 1772poe     o2 8300   5.605   5.690  -0.258  0.3897 -0.2124  0.0991
 1772poe    c23 8301   5.567   5.751  -0.380  0.3648 -0.0026  0.2120
 1772poe    c23 8302   5.676   5.837  -0.446  0.3646  0.2425  0.5237
 1772poe     o2 8303   5.770   5.757  -0.514 -0.5526 -0.0195 -0.4788
 1772poe    c31 8304   5.883   5.831  -0.558 -0.0083 -0.3750  0.2976
 1773poe    c31 8305   6.196   1.514   0.057  0.1298 -0.3608 -0.7662
 1773poe     o2 8306   6.210   1.575  -0.069 -0.1503  0.4300 -0.4230
 1773poe    c23 8307   6.091   1.641  -0.106 -0.4506 -0.0804 -0.3741
 1773poe    c23 8308   6.092   1.643  -0.260 -0.1428  0.6490 -0.3686
 1773poe     o2 8309   6.221   1.681  -0.302  0.1316  0.3511  0.1897
 1773poe    c23 8310   6.241   1.645  -0.437  0.2917  0.1834  0.2579
 1773poe    c23 8311   6.357   1.544  -0.441  0.1224 -0.0155  0.3188
 1773poe     o2 8312   6.432   1.561  -0.323  0.2724  0.1576  0.2005
 1773poe    c23 8313   6.520   1.454  -0.297 -0.0922 -0.0682  0.5280
 1773poe    c23 8314   6.614   1.496  -0.182  0.3742 -0.3929  0.2705
 1773poe     o2 8315   6.528   1.549  -0.083  0.1773 -0.3649  0.0845
 1773poe    c31 8316   6.573   1.526   0.048  0.0699 -0.0914  0.1702
 1774poe    c31 8317   1.531   2.786   1.557  0.6308 -0.4361  0.6970
 1774poe     o2 8318   1.515   2.663   1.489  0.0565 -0.0541  0.1164
 1774poe    c23 8319   1.635   2.591   1.475  0.4119  0.3565  0.9167
 1774poe    c23 8320   1.596   2.444   1.447 -0.5146  0.7559  0.0286
 1774poe     o2 8321   1.498   2.443   1.346  0.3866  0.5101 -0.8540
 1774poe    c23 8322   1.467   2.311   1.307 -0.1359  0.2306  0.4583
 1774poe    c23 8323   1.339   2.323   1.223  0.1388 -0.3375 -0.0492
 1774poe     o2 8324   1.258   2.402   1.307  0.0168  0.3169 -0.7681
 1774poe    c23 8325   1.129   2.383   1.253 -0.1817  0.2777 -0.2894
 1774poe    c23 8326   1.021   2.451   1.338  0.1622  0.4868 -0.0154
 1774poe     o2 8327   1.008   2.403   1.470 -0.0799  0.7468  0.0563
 1774poe    c31 8328   0.886   2.447   1.526 -0.4595  0.3574 -0.4569
 1775poe    c31 8329   3.667   2.684   5.301 -0.6108 -0.0880  0.0418
 1775poe     o2 8330   3.636   2.820   5.321  0.0292  0.1485 -0.5566
 1775poe    c23 8331   3.640   2.877   5.191 -0.0840  0.1317 -0.5678
 1775poe    c23 8332   3.601   3.025   5.179 -0.2470  0.1826  0.4830
 1775poe     o2 8333   3.463   3.047   5.200 -0.3827 -0.0978 -0.0999
 1775poe    c23 8334   3.425   3.171   5.145 -0.1108  0.0323  0.0007
 1775poe    c23 8335   3.311   3.214   5.239 -0.1128  0.1178 -0.0406
 1775poe     o2 8336   3.237   3.102   5.282  0.2281 -0.0524  0.1073
 1775poe    c23 8337   3.123   3.129   5.361  0.3524  0.0263  0.2592
 1775poe    c23 8338   3.068   2.986   5.373 -0.0115  0.1568  0.1643
 1775poe     o2 8339   3.180   2.910   5.414 -0.1683 -0.0536  0.2076
 1775poe    c31 8340   3.134   2.790   5.471  0.0380 -0.2891 -0.1160
 1776poe    c31 8341   4.405   2.800   0.808  0.1903 -0.0622  0.6128
 1776poe     o2 8342   4.478   2.679   0.815  0.4029  0.0163 -0.1808
 1776poe    c23 8343   4.573   2.688   0.919  0.0287  0.4145  0.1344
 1776poe    c23 8344   4.712   2.690   0.854 -0.0716 -0.3128 -0.1133
 1776poe     o2 8345   4.734   2.574   0.776  0.1592 -0.3410 -0.0072
 1776poe    c23 8346   4.853   2.592   0.702 -0.3127 -0.0209 -0.6867
 1776poe    c23 8347   4.876   2.471   0.609 -0.0088 -0.0943 -0.5156
 1776poe     o2 8348   4.756   2.448   0.538 -0.1492 -0.0774 -0.2876
 1776poe    c23 8349   4.772   2.368   0.423 -0.0405  0.1345 -0.4228
 1776poe    c23 8350   4.625   2.351   0.381  0.0739 -0.9438 -0.4334
 1776poe     o2 8351   4.549   2.316   0.494  0.2574 -0.0602 -0.0289
 1776poe    c31 8352   4.424   2.266   0.452 -0.1231  0.3704  0.5701
 1777poe    c31 8353   3.845   6.296   3.316  0.2774  0.1074 -0.8367
 1777poe     o2 8354   3.926   6.385   3.243  0.5624  0.1390 -0.4822
 1777poe    c23 8355   3.998   6.468   3.331  0.2556 -0.3024  0.1994
 1777poe    c23 8356   4.058   6.586   3.251 -0.2369 -0.1900 -0.0052
 1777poe     o2 8357   4.136   6.531   3.148 -0.0958 -0.0718  0.0391
 1777poe    c23 8358   4.195   6.639   3.078 -0.0161 -0.3646 -0.3456
 1777poe    c23 8359   4.303   6.586   2.981  0.1971 -0.1396 -0.2316
 1777poe     o2 8360   4.233   6.504   2.890 -0.3903  0.6761 -0.5323
 1777poe    c23 8361   4.308   6.477   2.773  0.4480  0.2961  0.0832
 1777poe    c23 8362   4.225   6.376   2.691  0.4529  0.3297  0.0384
 1777poe     o2 8363   4.172   6.276   2.775  0.1990  0.0230 -0.4836
 1777poe    c31 8364   4.130   6.157   2.711 -0.5531  0.0169  0.0135
 1778poe    c31 8365   5.771   4.610   3.971 -1.0423 -0.1253 -0.1172
 1778poe     o2 8366   5.719   4.480   3.960 -0.8697 -0.2134  0.1130
 1778poe    c23 8367   5.816   4.388   4.006 -0.3293  0.1906 -0.2065
 1778poe    c23 8368   5.767   4.243   4.022 -0.2002  0.1786  0.0834
 1778poe     o2 8369   5.660   4.238   4.114 -0.2575  0.4912  0.0355
 1778poe    c23 8370   5.588   4.117   4.100  0.8935 -0.2527  0.3498
 1778poe    c23 8371   5.487   4.073   4.206  0.0616  0.4831 -0.1228
 1778poe     o2 8372   5.385   4.168   4.226  0.0616  0.3889  0.3563
 1778poe    c23 8373   5.303   4.114   4.327 -0.0351 -0.4015 -0.1361
 1778poe    c23 8374   5.166   4.180   4.353  0.1312 -0.2258  0.3021
 1778poe     o2 8375   5.076   4.170   4.245  0.5347  0.5475 -0.1213
 1778poe    c31 8376   4.961   4.246   4.271  0.2101 -0.0332  0.1669
 1779poe    c31 8377   0.572   1.760   4.279  0.0100  0.2449 -0.2404
 1779poe     o2 8378   0.568   1.691   4.402  0.2765 -0.0015 -0.3671
 1779poe    c23 8379   0.453   1.615   4.432  0.4106  0.0118  0.1933
 1779poe    c23 8380   0.472   1.536   4.563 -0.1463 -0.1725  0.1675
 1779poe     o2 8381   0.548   1.610   4.655  0.0585 -0.3527  0.1447
 1779poe    c23 8382   0.538   1.554   4.784  0.0105  0.1538  0.3651
 1779poe    c23 8383   0.607   1.657   4.875  0.2060  0.6964 -0.3885
 1779poe     o2 8384   0.742   1.678   4.840  0.5108 -0.1686  0.2265
 1779poe    c23 8385   0.821   1.768   4.916 -0.5325  0.6938  0.3100
 1779poe    c23 8386   0.941   1.827   4.841  0.0770  0.1609  0.8575
 1779poe     o2 8387   0.887   1.933   4.766  0.1848 -0.8330 -0.6961
 1779poe    c31 8388   0.967   1.980   4.660  0.0110  0.0962 -0.4315
 1780poe    c31 8389   0.875   6.245   2.950  0.3632  0.3213  0.0369
 1780poe     o2 8390   0.836   6.272   2.817 -0.5096  0.2668  0.2806
 1780poe    c23 8391   0.879   6.403   2.792 -0.1278  0.0668 -0.1268
 1780poe    c23 8392   0.773   6.503   2.740  0.0025  0.2838  0.0235
 1780poe     o2 8393   0.735   6.478   2.607 -0.2503  0.1512  0.1203
 1780poe    c23 8394   0.606   6.534   2.593 -0.5444 -0.4632  0.3247
 1780poe    c23 8395   0.547   6.470   2.466 -0.1392 -0.4142  0.1097
 1780poe     o2 8396   0.575   6.332   2.458  0.0080 -0.3939  0.2770
 1780poe    c23 8397   0.485   6.268   2.371 -0.2458 -0.1827  0.3837
 1780poe    c23 8398   0.533   6.122   2.364 -0.0142 -0.1027  0.2865
 1780poe     o2 8399   0.672   6.121   2.343 -0.0238 -0.3974  0.2350
 1780poe    c31 8400   0.709   5.993   2.294 -0.0816 -0.4480  0.3228
 1781poe    c31 8401   3.777   0.917   3.450  0.0681  0.2083 -0.3588
 1781poe     o2 8402   3.681   0.814   3.458 -0.0848  0.3878  0.1415
 1781poe    c23 8403   3.586   0.849   3.556 -0.0705  0.1733  0.2309
 1781poe    c23 8404   3.460   0.760   3.543  0.0761 -0.0064  0.0353
 1781poe     o2 8405   3.512   0.629   3.547  0.0487 -0.0285 -0.2674
 1781poe    c23 8406   3.415   0.533   3.513 -0.0146  0.1851 -0.6892
 1781poe    c23 8407   3.453   0.391   3.558 -0.2918  0.1603 -0.5333
 1781poe     o2 8408   3.584   0.357   3.519 -0.2676 -0.2572 -0.1009
 1781poe    c23 8409   3.614   0.219   3.524  0.0018 -0.1976 -0.0923
 1781poe    c23 8410   3.767   0.207   3.510  0.1313  0.1613  0.9081
 1781poe     o2 8411   3.819   0.329   3.558 -0.1578  0.6232  0.0669
 1781poe    c31 8412   3.960   0.316   3.560 -0.2041  0.0908  0.0087
 1782poe    c31 8413   3.198   3.870   2.910  0.7045  0.2186 -0.1569
 1782poe     o2 8414   3.157   3.793   3.021  0.7268 -0.1548 -0.4072
 1782poe    c23 8415   3.263   3.791   3.114  0.3986 -1.0026 -0.0429
 1782poe    c23 8416   3.213   3.726   3.244 -0.1922 -0.4384  0.0184
 1782poe     o2 8417   3.099   3.798   3.285  0.1894 -0.0074  0.3333
 1782poe    c23 8418   3.032   3.750   3.399  0.2258 -0.1727  0.2860
 1782poe    c23 8419   2.895   3.819   3.413  0.1697 -0.2454  0.0855
 1782poe     o2 8420   2.820   3.824   3.294 -0.3304  0.3334  0.4210
 1782poe    c23 8421   2.685   3.853   3.324 -0.3887  0.1196  0.3707
 1782poe    c23 8422   2.604   3.857   3.193  0.0163 -0.0629  0.1116
 1782poe     o2 8423   2.609   3.746   3.107  0.1459  0.5480 -0.6850
 1782poe    c31 8424   2.544   3.784   2.988 -1.0011 -0.2432 -0.3297
 1783poe    c31 8425   3.290   0.974   5.749  0.0399 -0.5720 -0.1513
 1783poe     o2 8426   3.294   0.874   5.650 -0.3009 -0.0065 -0.7448
 1783poe    c23 8427   3.174   0.801   5.637 -0.3042 -0.1055 -0.1670
 1783poe    c23 8428   3.172   0.679   5.732  0.7691  0.2911  0.3839
 1783poe     o2 8429   3.258   0.574   5.692  0.0241 -0.1055 -0.2018
 1783poe    c23 8430   3.233   0.464   5.776  0.2167  0.2578  0.3351
 1783poe    c23 8431   3.338   0.357   5.740  0.2637  0.5593 -0.4419
 1783poe     o2 8432   3.467   0.412   5.737  0.4191  0.2083 -0.2330
 1783poe    c23 8433   3.546   0.337   5.648  0.0279 -0.2446 -0.2027
 1783poe    c23 8434   3.680   0.324   5.724 -0.1559 -0.2628  0.1176
 1783poe     o2 8435   3.704   0.462   5.741 -0.5863 -0.1699  0.0000
 1783poe    c31 8436   3.827   0.478   5.809 -0.4890 -0.2557 -0.1526
 1784poe    c31 8437   1.307   3.005   3.887 -0.0353  0.1041 -0.2682
 1784poe     o2 8438   1.312   2.864   3.895  0.0606  0.1086 -0.2520
 1784poe    c23 8439   1.449   2.837   3.875  0.0750 -0.1171  0.1499
 1784poe    c23 8440   1.457   2.686   3.846 -0.1997 -0.1456  0.2217
 1784poe     o2 8441   1.386   2.637   3.957  0.3340 -0.0658  0.5988
 1784poe    c23 8442   1.363   2.498   3.949 -0.3235  0.0737  0.0070
 1784poe    c23 8443   1.283   2.439   4.067 -0.1255  0.5796  0.3981
 1784poe     o2 8444   1.163   2.512   4.076 -0.2234  0.4261  0.3288
 1784poe    c23 8445   1.065   2.423   4.126  0.2928 -0.1092  0.4010
 1784poe    c23 8446   0.929   2.495   4.137  0.6189  0.5162  0.4074
 1784poe     o2 8447   0.907   2.557   4.012 -0.0541 -0.1321  0.1943
 1784poe    c31 8448   0.775   2.603   3.996  0.1486  0.2767 -0.3221
 1785poe    c31 8449   2.815   5.688   0.726  0.1658 -0.0702 -0.5213
 1785poe     o2 8450   2.712   5.712   0.633 -0.1220  0.1130 -0.1600
 1785poe    c23 8451   2.780   5.699   0.510  0.3319 -0.0383  0.1025
 1785poe    c23 8452   2.679   5.714   0.395  0.0965  0.6243  0.3904
 1785poe     o2 8453   2.628   5.846   0.391 -0.0508  0.5531 -0.3392
 1785poe    c23 8454   2.498   5.858   0.338 -0.2486 -0.1994 -0.0313
 1785poe    c23 8455   2.437   5.996   0.369 -0.6578 -0.4230  0.1730
 1785poe     o2 8456   2.408   6.005   0.507 -0.2773 -0.4509  0.2562
 1785poe    c23 8457   2.348   6.129   0.537 -0.7551 -0.5147 -0.4107
 1785poe    c23 8458   2.299   6.125   0.683  0.2354 -0.2408 -0.0646
 1785poe     o2 8459   2.393   6.106   0.787  0.1359 -0.1251  0.0467
 1785poe    c31 8460   2.358   6.188   0.896  0.1344 -0.5386  0.3578
 1786poe    c31 8461   6.210   6.576   5.280  0.5345  0.3339 -0.4512
 1786poe     o2 8462   6.203   6.656   5.164 -0.2646  0.3953 -0.3615
 1786poe    c23 8463   6.327   6.691   5.107  0.1073  0.0192  0.2139
 1786poe    c23 8464   6.299   6.751   4.968  0.3035 -0.6139 -0.0994
 1786poe     o2 8465   6.176   6.819   4.969  0.3141 -0.5873 -0.4997
 1786poe    c23 8466   6.112   6.824   4.844 -0.1971  1.0489 -0.1937
 1786poe    c23 8467   5.993   6.922   4.842 -0.4366  0.7657  0.1703
 1786poe     o2 8468   5.920   6.891   4.959  0.1432  0.1662  0.3826
 1786poe    c23 8469   5.801   6.967   4.947  0.2189  0.2240 -0.0164
 1786poe    c23 8470   5.697   6.924   5.052  0.1996 -0.2894 -0.2457
 1786poe     o2 8471   5.750   6.956   5.179 -0.1654 -0.1874 -0.1193
 1786poe    c31 8472   5.659   6.927   5.283  0.2614  0.1811  0.3578
 1787poe    c31 8473   1.539   3.672   1.041  0.4897 -0.3345  0.5399
 1787poe     o2 8474   1.562   3.811   1.047 -0.3511 -0.1544 -0.1946
 1787poe    c23 8475   1.453   3.886   0.997 -0.4091  0.0780  0.2766
 1787poe    c23 8476   1.503   4.027   0.963 -0.1002 -0.0223  0.3141
 1787poe     o2 8477   1.636   4.024   0.915 -0.1551 -0.0599  0.1641
 1787poe    c23 8478   1.673   4.152   0.868 -0.0338 -0.0902  0.1769
 1787poe    c23 8479   1.812   4.142   0.803 -0.0945 -0.1356  0.0538
 1787poe     o2 8480   1.880   4.026   0.846  0.0000 -0.0407  0.1613
 1787poe    c23 8481   2.008   4.014   0.788 -0.2305  0.1967 -0.4067
 1787poe    c23 8482   2.078   3.887   0.840 -0.2888  0.3341  0.0097
 1787poe     o2 8483   2.075   3.874   0.980  0.3765  0.3815  0.0326
 1787poe    c31 8484   2.179   3.783   1.008  0.2527  0.1170 -0.3647
 1788poe    c31 8485   4.471   6.515   0.245 -0.1299  0.5396  0.0856
 1788poe     o2 8486   4.452   6.552   0.380  0.0278 -0.1570  0.2985
 1788poe    c23 8487   4.536   6.662   0.407 -0.2377  0.1575 -0.1536
 1788poe    c23 8488   4.509   6.709   0.551  0.1811  0.2873 -0.1162
 1788poe     o2 8489   4.376   6.749   0.579 -0.0483 -0.6044  0.1059
 1788poe    c23 8490   4.343   6.750   0.716  0.4728 -0.2005  0.2331
 1788poe    c23 8491   4.206   6.822   0.720 -0.0540 -1.1512 -0.2232
 1788poe     o2 8492   4.120   6.768   0.622 -0.4263  0.1201 -0.6095
 1788poe    c23 8493   3.988   6.817   0.628 -0.2925  0.4536 -0.2844
 1788poe    c23 8494   3.926   6.808   0.487  0.1814 -0.2296 -0.4517
 1788poe     o2 8495   4.030   6.800   0.392  0.4511 -0.2976 -0.1524
 1788poe    c31 8496   3.974   6.812   0.263 -0.4088 -0.0074  0.2392
 1789poe    c31 8497   1.385   2.032   4.790  0.4142  0.0335 -0.3639
 1789poe     o2 8498   1.363   2.170   4.773 -0.1790 -0.0291 -0.1075
 1789poe    c23 8499   1.465   2.240   4.707 -0.1474 -0.1647 -0.2018
 1789poe    c23 8500   1.449   2.393   4.702 -0.7829 -0.2293 -0.1411
 1789poe     o2 8501   1.486   2.450   4.826 -0.1196 -0.2005 -0.3495
 1789poe    c23 8502   1.505   2.589   4.809 -0.0583 -0.1426  0.1831
 1789poe    c23 8503   1.581   2.641   4.933 -0.1275  0.7186 -0.1343
 1789poe     o2 8504   1.508   2.596   5.045 -0.0766  0.0111 -0.3790
 1789poe    c23 8505   1.578   2.618   5.166 -0.3677 -0.1037 -0.1876
 1789poe    c23 8506   1.473   2.624   5.278 -0.3161  0.2658 -0.1552
 1789poe     o2 8507   1.388   2.513   5.254  0.5167 -0.4267  0.0342
 1789poe    c31 8508   1.338   2.454   5.372  0.4318  0.1693  0.3016
 1790poe    c31 8509   3.006   6.879   2.292  0.0755 -0.3995  0.1707
 1790poe     o2 8510   2.918   6.770   2.271 -0.5348  0.0554  0.3481
 1790poe    c23 8511   2.992   6.651   2.256  0.0955  0.4242  0.4712
 1790poe    c23 8512   2.911   6.535   2.194 -0.0267  0.6271  0.2487
 1790poe     o2 8513   2.842   6.562   2.074  0.0256  0.1135  0.0995
 1790poe    c23 8514   2.739   6.467   2.056  0.6779 -0.4720 -0.5947
 1790poe    c23 8515   2.659   6.494   1.927  0.4210 -0.5423 -0.4507
 1790poe     o2 8516   2.761   6.530   1.837  0.3381  0.7578 -0.0438
 1790poe    c23 8517   2.718   6.538   1.703  0.0553  0.4225  0.0255
 1790poe    c23 8518   2.814   6.628   1.623  0.2112  0.2535  0.0220
 1790poe     o2 8519   2.871   6.720   1.714  0.6550 -0.1295  0.1361
 1790poe    c31 8520   2.941   6.822   1.646  0.0362  0.2884  0.1136
 1791poe    c31 8521   5.913   1.469   2.473 -0.3250 -0.8299 -0.4806
 1791poe     o2 8522   5.810   1.523   2.394 -0.3601 -0.4190 -0.1589
 1791poe    c23 8523   5.850   1.541   2.260  0.2382  0.4459  0.1320
 1791poe    c23 8524   5.751   1.614   2.168  0.4350  0.3312 -0.1736
 1791poe     o2 8525   5.742   1.745   2.217 -0.0526  0.2365  0.0012
 1791poe    c23 8526   5.648   1.815   2.140 -0.0515  0.0696 -0.1512
 1791poe    c23 8527   5.606   1.950   2.201  0.1168 -0.0998  0.3427
 1791poe     o2 8528   5.535   1.916   2.318 -0.7098 -0.0846 -0.1450
 1791poe    c23 8529   5.512   2.035   2.390 -0.3253 -0.0890 -0.0101
 1791poe    c23 8530   5.391   1.988   2.473 -0.1868 -0.5759 -0.0823
 1791poe     o2 8531   5.429   1.871   2.541  0.2948  0.0780  0.7754
 1791poe    c31 8532   5.338   1.840   2.644  0.0112 -0.6819  0.3066
 1792poe    c31 8533   1.499   3.816   5.744 -0.0650 -0.0730 -0.1763
 1792poe     o2 8534   1.638   3.794   5.735 -0.0508 -0.2237  0.3492
 1792poe    c23 8535   1.696   3.748   5.855 -0.0201 -0.1176  0.3751
 1792poe    c23 8536   1.850   3.741   5.849 -0.0174  0.1197  0.1514
 1792poe     o2 8537   1.903   3.646   5.759  0.2082  0.4611 -0.0800
 1792poe    c23 8538   2.043   3.637   5.772  0.1816 -0.4191 -0.2985
 1792poe    c23 8539   2.107   3.507   5.721 -0.2415 -0.6814 -0.1613
 1792poe     o2 8540   2.120   3.497   5.581 -0.4301  0.0961 -0.2377
 1792poe    c23 8541   2.203   3.586   5.509 -0.1945 -0.0671 -0.1696
 1792poe    c23 8542   2.343   3.534   5.474 -0.0293  0.4903 -0.3406
 1792poe     o2 8543   2.336   3.419   5.392  0.1208  0.1659  0.0997
 1792poe    c31 8544   2.463   3.358   5.391  0.0275 -0.0227 -0.2204
 1793poe    c31 8545   1.460   0.769   4.164 -0.4895 -0.2913 -0.7579
 1793poe     o2 8546   1.426   0.878   4.081  0.3638  0.4467 -0.1645
 1793poe    c23 8547   1.311   0.942   4.132 -0.3234 -0.5722 -0.4095
 1793poe    c23 8548   1.264   1.045   4.028 -0.1078  0.0303  0.0817
 1793poe     o2 8549   1.360   1.135   3.976  0.2318 -0.3645  0.0209
 1793poe    c23 8550   1.307   1.203   3.864 -0.2969 -0.3911  0.2504
 1793poe    c23 8551   1.400   1.292   3.779  0.0324 -0.5250  0.4664
 1793poe     o2 8552   1.507   1.224   3.717  0.0231 -0.2452  0.1434
 1793poe    c23 8553   1.606   1.318   3.680 -0.1641 -0.0077  0.2388
 1793poe    c23 8554   1.729   1.259   3.609 -0.0265 -0.0531  0.5143
 1793poe     o2 8555   1.734   1.201   3.481 -0.1952  0.3969  0.3042
 1793poe    c31 8556   1.680   1.280   3.377  0.1638 -0.0374 -0.2143
 1794poe    c31 8557   6.623   5.387   1.752 -0.6090  0.3549 -0.3821
 1794poe     o2 8558   6.587   5.269   1.820 -0.1253  0.2926 -0.2277
 1794poe    c23 8559   6.523   5.181   1.730 -0.5381  0.3455  0.0146
 1794poe    c23 8560   6.446   5.071   1.806 -0.0562  0.0580  0.0844
 1794poe     o2 8561   6.535   5.034   1.909  0.1190  0.0258 -0.0779
 1794poe    c23 8562   6.488   4.941   2.004  0.1726  0.0591 -0.0194
 1794poe    c23 8563   6.599   4.910   2.107  0.0962 -0.2036 -0.0160
 1794poe     o2 8564   6.674   5.029   2.123 -0.1367 -0.0527 -0.0455
 1794poe    c23 8565   6.774   5.006   2.219 -0.2222  0.1196  0.0847
 1794poe    c23 8566   6.875   5.121   2.234  0.2218 -0.2507 -0.0520
 1794poe     o2 8567   6.969   5.107   2.130  0.2282 -0.0751 -0.0690
 1794poe    c31 8568   7.056   5.218   2.118  0.1360 -0.0352 -0.3900
 1795poe    c31 8569   3.977   3.164   4.245 -0.0431  0.1531  0.1499
 1795poe     o2 8570   3.935   3.296   4.220 -0.8141 -0.0476  0.3420
 1795poe    c23 8571   3.989   3.347   4.100 -0.1299 -0.5401  0.4307
 1795poe    c23 8572   3.944   3.494   4.093  0.4884 -0.3572  0.2334
 1795poe     o2 8573   3.996   3.571   4.199  0.2114 -0.0566  0.1549
 1795poe    c23 8574   3.965   3.708   4.184 -0.0486 -0.1156  0.1567
 1795poe    c23 8575   4.046   3.789   4.286 -0.0533  0.0307  0.0436
 1795poe     o2 8576   4.026   3.751   4.421 -0.2468  0.4940  0.1480
 1795poe    c23 8577   4.095   3.833   4.513  0.5034 -0.0243  0.0527
 1795poe    c23 8578   4.052   3.776   4.650  0.4718 -0.0516  0.0320
 1795poe     o2 8579   4.042   3.636   4.639  0.3052 -0.0562  0.2438
 1795poe    c31 8580   4.007   3.579   4.763  0.1190 -0.1582  0.1445
 1796poe    c31 8581   4.414   4.250   2.850 -0.5143 -0.2718 -0.3393
 1796poe     o2 8582   4.306   4.175   2.799 -0.1067 -1.0044 -0.1243
 1796poe    c23 8583   4.235   4.252   2.705  0.3511 -0.1609  0.2081
 1796poe    c23 8584   4.117   4.181   2.636  0.1157  0.5976 -0.1770
 1796poe     o2 8585   4.014   4.166   2.731 -0.0386  0.1915 -0.4067
 1796poe    c23 8586   3.898   4.133   2.658 -0.4524  0.2466  0.2159
 1796poe    c23 8587   3.778   4.162   2.751 -0.3849  0.1914  0.3207
 1796poe     o2 8588   3.780   4.087   2.870  0.3182 -0.3191 -0.0055
 1796poe    c23 8589   3.660   4.128   2.931  0.2334 -0.1065 -0.3111
 1796poe    c23 8590   3.576   4.010   2.982 -0.0423  0.1603 -0.1466
 1796poe     o2 8591   3.624   3.934   3.091 -0.6360 -0.2448 -0.1617
 1796poe    c31 8592   3.614   3.797   3.058 -0.0866 -0.2983 -0.1018
 1797poe    c31 8593   4.638   4.996   0.083  0.1810  0.0026  0.3296
 1797poe     o2 8594   4.665   5.089   0.186  0.2262  0.4989 -0.1249
 1797poe    c23 8595   4.553   5.174   0.195 -0.0687  0.0405  0.6351
 1797poe    c23 8596   4.582   5.268   0.313  0.2469  0.4388  0.2467
 1797poe     o2 8597   4.716   5.310   0.307  0.2097  0.5147 -0.0790
 1797poe    c23 8598   4.736   5.428   0.382  0.3246  0.2296  0.3419
 1797poe    c23 8599   4.885   5.443   0.420  0.4264  0.2161 -0.0462
 1797poe     o2 8600   4.961   5.484   0.309 -0.3108  0.6393 -0.4013
 1797poe    c23 8601   5.098   5.495   0.340 -0.3499  0.0275  0.0016
 1797poe    c23 8602   5.180   5.512   0.211  0.2223  0.1983  0.3833
 1797poe     o2 8603   5.155   5.393   0.141  0.1918  0.4059  0.0382
 1797poe    c31 8604   5.240   5.382   0.028 -0.0372 -0.0208 -0.0972
 1798poe    c31 8605   5.666   4.423   0.319 -0.3491 -0.0918 -0.1118
 1798poe     o2 8606   5.574   4.528   0.297 -0.1669  0.1238  0.1446
 1798poe    c23 8607   5.529   4.522   0.164  0.5875  0.2253 -0.1224
 1798poe    c23 8608   5.529   4.664   0.104 -0.0498  0.5050  0.5247
 1798poe     o2 8609   5.469   4.744   0.203 -0.2127  0.7143  0.2597
 1798poe    c23 8610   5.493   4.878   0.166  0.8566  0.3882 -0.2592
 1798poe    c23 8611   5.384   4.967   0.229  0.3769 -0.1618 -0.3068
 1798poe     o2 8612   5.355   4.936   0.363 -0.0167  0.4766 -0.2396
 1798poe    c23 8613   5.242   5.001   0.416 -0.1156 -0.0225  0.1693
 1798poe    c23 8614   5.215   4.973   0.565  0.0577  0.0390  0.2120
 1798poe     o2 8615   5.187   4.836   0.583 -0.3360  0.1022  0.0760
 1798poe    c31 8616   5.103   4.828   0.695  0.2226 -0.3533  0.4643
 1799poe    c31 8617   2.782   4.626   2.592  0.2788  0.1637  0.4530
 1799poe     o2 8618   2.654   4.610   2.648  0.1698 -0.0097  0.1576
 1799poe    c23 8619   2.596   4.508   2.571  0.0474  0.2154 -0.0501
 1799poe    c23 8620   2.448   4.491   2.612  0.0461 -0.2691 -0.2488
 1799poe     o2 8621   2.445   4.435   2.741 -0.1930  0.1273 -0.0812
 1799poe    c23 8622   2.316   4.395   2.783  0.0875 -0.3527  0.3395
 1799poe    c23 8623   2.313   4.347   2.929  0.1083 -0.0635  0.4367
 1799poe     o2 8624   2.389   4.431   3.012  0.3548  0.0870  0.0625
 1799poe    c23 8625   2.357   4.430   3.150 -0.0992 -0.1339 -0.0430
 1799poe    c23 8626   2.487   4.478   3.217  0.0101  0.0312 -0.3676
 1799poe     o2 8627   2.545   4.586   3.149  0.4077 -0.0145 -0.1034
 1799poe    c31 8628   2.623   4.669   3.232 -0.0968 -0.0521  0.4152
 1800poe    c31 8629   4.524   5.237   3.263  0.1832 -0.0638  0.0461
 1800poe     o2 8630   4.564   5.367   3.301  0.3371 -0.2463  0.5136
 1800poe    c23 8631   4.461   5.441   3.363  0.0261 -0.1369 -0.1281
 1800poe    c23 8632   4.481   5.593   3.378 -0.4518 -0.0693 -0.1523
 1800poe     o2 8633   4.572   5.605   3.485 -0.3462 -0.0599 -0.2433
 1800poe    c23 8634   4.582   5.739   3.528  0.1526 -0.3064  0.4342
 1800poe    c23 8635   4.605   5.738   3.680  0.0955  0.0278  0.4450
 1800poe     o2 8636   4.721   5.664   3.711 -0.3039 -0.7598  0.0681
 1800poe    c23 8637   4.722   5.621   3.846  0.1220 -0.3606  0.1916
 1800poe    c23 8638   4.855   5.549   3.872  0.3185 -0.0747 -0.0056
 1800poe     o2 8639   4.866   5.423   3.809 -0.3075 -0.0490 -0.1658
 1800poe    c31 8640   4.838   5.304   3.880  0.6211 -0.0567  0.2039
 1801poe    c31 8641   6.524   1.110   5.570  0.1481  0.3196 -0.7303
 1801poe     o2 8642   6.591   1.004   5.506  0.3082  0.2239 -0.4056
 1801poe    c23 8643   6.656   0.922   5.600 -0.3162 -0.1623 -0.3068
 1801poe    c23 8644   6.756   0.832   5.525  0.1629  0.2358 -0.1542
 1801poe     o2 8645   6.676   0.768   5.428  0.2825 -0.0068 -0.0918
 1801poe    c23 8646   6.742   0.699   5.324  0.1854  0.0675 -0.2012
 1801poe    c23 8647   6.652   0.624   5.224 -0.2830  0.2013  0.1164
 1801poe     o2 8648   6.543   0.706   5.187 -0.1799  0.4496  0.3613
 1801poe    c23 8649   6.498   0.665   5.060  0.7536  0.9705 -0.1548
 1801poe    c23 8650   6.369   0.745   5.033  0.2592  0.0262 -0.6694
 1801poe     o2 8651   6.393   0.884   5.022  0.1105  0.1273  0.1847
 1801poe    c31 8652   6.281   0.955   4.972  0.0557 -0.4685 -0.5554
 1802poe    c31 8653   6.690   5.372   2.470 -0.1060 -0.0793  0.1906
 1802poe     o2 8654   6.603   5.357   2.360  0.0461  0.5602 -0.0203
 1802poe    c23 8655   6.484   5.295   2.404  0.4957 -0.4723 -0.2175
 1802poe    c23 8656   6.421   5.197   2.304 -0.0654  0.0917 -0.4263
 1802poe     o2 8657   6.357   5.277   2.207 -0.1762  0.2084 -0.2571
 1802poe    c23 8658   6.264   5.213   2.122 -0.4357 -0.1860  0.3177
 1802poe    c23 8659   6.192   5.310   2.027  0.1243  0.1990  0.2847
 1802poe     o2 8660   6.255   5.342   1.905  0.1620 -0.1089  0.2221
 1802poe    c23 8661   6.170   5.408   1.814  0.2282 -0.3230  0.0044
 1802poe    c23 8662   6.200   5.380   1.665  0.5069 -0.3575  0.0668
 1802poe     o2 8663   6.158   5.247   1.643  0.3041 -0.3221  0.2377
 1802poe    c31 8664   6.232   5.202   1.532 -0.1098 -0.2180 -0.0846
 1803poe    c31 8665   1.168   2.474   2.289 -0.3099 -0.0160 -0.3805
 1803poe     o2 8666   1.294   2.417   2.260 -0.1958 -0.0736  0.2146
 1803poe    c23 8667   1.397   2.513   2.272  0.1253 -0.4297  0.2903
 1803poe    c23 8668   1.530   2.454   2.220  0.0145 -0.6705  0.2759
 1803poe     o2 8669   1.502   2.373   2.108  0.0091  0.2937 -0.4355
 1803poe    c23 8670   1.618   2.327   2.042  0.0933 -0.0206 -0.0718
 1803poe    c23 8671   1.591   2.186   1.985 -0.0090  0.0784 -0.2685
 1803poe     o2 8672   1.475   2.198   1.906 -0.1024  0.7871 -0.0381
 1803poe    c23 8673   1.460   2.086   1.822  0.2588  0.7761 -0.0878
 1803poe    c23 8674   1.348   2.113   1.720 -0.1197  0.0425  0.1273
 1803poe     o2 8675   1.234   2.148   1.795 -0.3166 -0.0631 -0.1217
 1803poe    c31 8676   1.130   2.141   1.699 -0.3430 -0.1459 -0.0869
 1804poe    c31 8677   1.617   5.120   0.340  0.3053  0.0231 -0.2225
 1804poe     o2 8678   1.600   4.984   0.306  0.3216  0.0144 -0.1975
 1804poe    c23 8679   1.714   4.902   0.312 -0.0147 -0.4744 -0.4147
 1804poe    c23 8680   1.755   4.845   0.449  0.4538 -0.3379 -0.4955
 1804poe     o2 8681   1.669   4.747   0.502  0.1133  0.3005  0.1357
 1804poe    c23 8682   1.689   4.720   0.639 -0.2157 -0.2486  0.0782
 1804poe    c23 8683   1.631   4.579   0.661  0.2823 -0.4340  0.2112
 1804poe     o2 8684   1.496   4.601   0.627  0.1997 -0.2138  0.6788
 1804poe    c23 8685   1.404   4.504   0.671 -0.1182 -0.4644 -0.5016
 1804poe    c23 8686   1.280   4.528   0.583 -0.4736 -0.2101  0.0606
 1804poe     o2 8687   1.333   4.524   0.452 -0.0766 -0.0993  0.2146
 1804poe    c31 8688   1.241   4.462   0.365 -0.1888  0.4431 -0.0566
 1805poe    c31 8689   6.469   3.372   3.487  0.0395 -0.3127  0.6179
 1805poe     o2 8690   6.339   3.426   3.493  0.1802 -0.0057  0.9757
 1805poe    c23 8691   6.253   3.324   3.535  0.1535  0.1595  1.3253
 1805poe    c23 8692   6.112   3.386   3.536  0.1993  0.3053  0.2032
 1805poe     o2 8693   6.106   3.456   3.414 -0.1985  0.0394  0.0694
 1805poe    c23 8694   5.991   3.537   3.411 -0.1052  0.1761  0.2082
 1805poe    c23 8695   5.972   3.623   3.285  0.1548  0.6416  0.4831
 1805poe     o2 8696   6.105   3.665   3.261  0.3943 -0.4485 -0.1563
 1805poe    c23 8697   6.101   3.781   3.181  0.0620 -0.2320  0.1706
 1805poe    c23 8698   6.143   3.740   3.038  0.0385  0.6975 -0.1081
 1805poe     o2 8699   6.268   3.675   3.036  0.2035  1.0180 -0.3026
 1805poe    c31 8700   6.316   3.640   2.908  0.3738  0.1732 -0.0215
 1806poe    c31 8701   1.875   6.616   4.411  0.4365 -0.0655  0.1609
 1806poe     o2 8702   1.871   6.475   4.403 -0.1821 -0.0563  0.2888
 1806poe    c23 8703   1.742   6.433   4.441 -0.3427  0.3202  0.1721
 1806poe    c23 8704   1.750   6.284   4.480 -0.4487  0.1933 -0.2828
 1806poe     o2 8705   1.850   6.213   4.410 -0.4499  0.1897 -0.2812
 1806poe    c23 8706   1.837   6.075   4.436  0.2462  0.2063  0.1708
 1806poe    c23 8707   1.942   5.992   4.360  0.4067 -0.0960  0.7153
 1806poe     o2 8708   2.073   6.023   4.404  0.4461  0.3134  0.3105
 1806poe    c23 8709   2.162   5.946   4.326  0.4435  0.1510  0.4701
 1806poe    c23 8710   2.309   5.954   4.373  0.6247 -0.6559  0.0514
 1806poe     o2 8711   2.321   5.906   4.505 -0.1608 -0.2423  0.2822
 1806poe    c31 8712   2.446   5.844   4.525  0.1320  0.2080 -0.1087
 1807poe    c31 8713   5.624   2.910   1.909  0.2996 -0.3228  0.1786
 1807poe     o2 8714   5.730   2.972   1.839 -0.1166  0.2659  0.0558
 1807poe    c23 8715   5.701   2.996   1.703 -0.8404  0.8830  0.3138
 1807poe    c23 8716   5.813   3.029   1.602 -1.0382  0.2358 -0.1227
 1807poe     o2 8717   5.886   3.147   1.626  0.0476 -0.4950  0.2512
 1807poe    c23 8718   6.007   3.162   1.555 -0.2056 -0.0246 -0.0825
 1807poe    c23 8719   6.053   3.306   1.580 -0.6489  0.1170 -0.0630
 1807poe     o2 8720   6.016   3.344   1.711 -0.4770 -0.0670  0.0402
 1807poe    c23 8721   6.061   3.474   1.745  0.0361 -0.2019 -0.1104
 1807poe    c23 8722   6.014   3.509   1.887  0.3946  0.3259 -0.1193
 1807poe     o2 8723   5.875   3.536   1.882  0.4678  0.6831 -0.2301
 1807poe    c31 8724   5.826   3.532   2.014  0.0717  0.4186 -0.3861
 1808poe    c31 8725   2.001   1.775   2.597  0.3906  0.1777 -0.6100
 1808poe     o2 8726   1.904   1.805   2.695  0.4501 -0.2183 -0.4250
 1808poe    c23 8727   1.772   1.779   2.653  0.2715 -0.2179  0.1249
 1808poe    c23 8728   1.710   1.721   2.781  0.6047  0.0026  0.3858
 1808poe     o2 8729   1.699   1.821   2.881  0.1293 -0.3576  0.7011
 1808poe    c23 8730   1.579   1.802   2.952 -0.2726  0.1982  0.1792
 1808poe    c23 8731   1.560   1.934   3.029 -0.0592  0.0977  0.4047
 1808poe     o2 8732   1.689   1.953   3.084  0.1307  0.1069 -0.0418
 1808poe    c23 8733   1.678   2.003   3.215 -0.3284 -0.8469  0.2887
 1808poe    c23 8734   1.808   1.954   3.282  0.1923  0.5409  0.3122
 1808poe     o2 8735   1.904   1.970   3.181 -0.1195  1.0529  0.0940
 1808poe    c31 8736   2.030   1.927   3.226 -0.3722 -0.2364 -0.3983
 1809poe    c31 8737   3.131   3.050   3.232 -0.2129  0.1112 -0.3224
 1809poe     o2 8738   3.136   3.129   3.116  0.3518  0.2090 -0.2343
 1809poe    c23 8739   3.107   3.266   3.136 -0.2724  0.0763 -0.2177
 1809poe    c23 8740   3.157   3.370   3.035 -0.3103  0.4524  0.1471
 1809poe     o2 8741   3.064   3.385   2.930  0.1451 -0.4303 -0.3977
 1809poe    c23 8742   3.108   3.482   2.837 -0.3556  0.1510 -0.0343
 1809poe    c23 8743   2.992   3.535   2.751 -0.1681  0.1547 -0.2860
 1809poe     o2 8744   2.894   3.604   2.826 -0.4405 -0.4686 -0.0578
 1809poe    c23 8745   2.813   3.684   2.742  0.1545 -0.3861 -0.5615
 1809poe    c23 8746   2.705   3.621   2.652 -0.1663 -0.1395 -0.3516
 1809poe     o2 8747   2.602   3.572   2.734  0.1655 -0.3852 -0.0765
 1809poe    c31 8748   2.497   3.510   2.663 -0.2171 -0.5095  0.5815
 1810poe    c31 8749   1.511   4.641   5.163  0.0331  0.6329 -0.1963
 1810poe     o2 8750   1.605   4.654   5.059  0.0584  0.2454 -0.2209
 1810poe    c23 8751   1.738   4.638   5.105  0.1965  0.4965 -0.5293
 1810poe    c23 8752   1.832   4.689   4.995  0.4355  0.2967 -0.4197
 1810poe     o2 8753   1.835   4.596   4.889 -0.9371 -0.0942 -0.1378
 1810poe    c23 8754   1.959   4.596   4.821 -0.7198  0.1501  0.2518
 1810poe    c23 8755   1.958   4.488   4.711  0.7118  0.8383 -0.4653
 1810poe     o2 8756   1.827   4.487   4.658  0.5626 -0.0567 -0.1097
 1810poe    c23 8757   1.804   4.364   4.594  0.0977  0.1700 -0.3812
 1810poe    c23 8758   1.658   4.353   4.546 -0.0271  0.1360  0.0016
 1810poe     o2 8759   1.587   4.395   4.660  0.3630  0.4519  0.1299
 1810poe    c31 8760   1.454   4.347   4.664  0.4493  0.1332 -0.6678
 1811poe    c31 8761   3.915   2.138   4.571  0.0626 -0.1393 -0.4886
 1811poe     o2 8762   4.022   2.066   4.626 -0.1041  0.0380  0.0774
 1811poe    c23 8763   3.980   2.032   4.756 -0.3606 -0.4860 -0.1400
 1811poe    c23 8764   4.078   1.930   4.816 -0.2416 -0.3345 -0.0780
 1811poe     o2 8765   4.132   1.847   4.716 -0.4417 -0.0464 -0.4301
 1811poe    c23 8766   4.182   1.730   4.777  0.5908  0.5373 -0.1265
 1811poe    c23 8767   4.204   1.643   4.651  0.0240 -0.3096  0.3431
 1811poe     o2 8768   4.328   1.671   4.589 -0.1452 -0.0075  0.1398
 1811poe    c23 8769   4.374   1.554   4.525  0.2302 -0.0003  0.3922
 1811poe    c23 8770   4.439   1.561   4.385 -0.2954 -0.1399  0.1379
 1811poe     o2 8771   4.332   1.586   4.297 -0.0919  0.4288  0.0541
 1811poe    c31 8772   4.375   1.592   4.163  0.2684  0.5416  0.1723
 1812poe    c31 8773   6.836   6.030   3.005  0.0404  0.0121 -0.2632
 1812poe     o2 8774   6.727   6.112   3.040  0.0329 -0.1079 -0.0011
 1812poe    c23 8775   6.662   6.092   3.163  0.0308  0.3048  0.0672
 1812poe    c23 8776   6.556   6.202   3.175 -0.1472  0.1122  0.2873
 1812poe     o2 8777   6.439   6.193   3.096  0.1274  0.3507 -0.1545
 1812poe    c23 8778   6.348   6.297   3.126 -0.0699  0.1544 -0.0652
 1812poe    c23 8779   6.238   6.296   3.019  0.2846  0.1041 -0.4328
 1812poe     o2 8780   6.298   6.273   2.893  0.5423  0.3683 -0.3589
 1812poe    c23 8781   6.199   6.253   2.795 -0.2992 -0.2338  0.5860
 1812poe    c23 8782   6.271   6.205   2.667  0.0438  0.3988  0.5398
 1812poe     o2 8783   6.346   6.101   2.725 -0.3715 -0.4535 -0.4271
 1812poe    c31 8784   6.435   6.039   2.635  0.3046  0.2449 -0.2529
 1813poe    c31 8785   2.584   0.253   0.051  0.3274 -0.2492  0.0251
 1813poe     o2 8786   2.481   0.229   0.143 -0.4106 -0.3065 -0.8035
 1813poe    c23 8787   2.404   0.347   0.133 -0.3266 -0.1713  0.0195
 1813poe    c23 8788   2.327   0.384   0.261 -0.3454  0.5392 -0.1913
 1813poe     o2 8789   2.209   0.313   0.288  0.1876 -0.2259  0.1659
 1813poe    c23 8790   2.165   0.346   0.418 -0.0959  0.3919 -0.0834
 1813poe    c23 8791   2.017   0.387   0.428 -0.2853 -0.2595 -0.1482
 1813poe     o2 8792   1.992   0.515   0.373 -0.5540 -0.1308  0.2720
 1813poe    c23 8793   1.855   0.536   0.344 -0.4244 -0.0630 -0.2861
 1813poe    c23 8794   1.843   0.672   0.273  0.1178  0.3678  0.4306
 1813poe     o2 8795   1.898   0.777   0.349  0.4605  0.4697  0.0469
 1813poe    c31 8796   1.885   0.895   0.273  0.3611  0.2951 -0.2101
 1814poe    c31 8797   6.939   0.727   0.070  0.4397 -0.1418  0.0106
 1814poe     o2 8798   6.940   0.641  -0.041  0.0707  0.1748 -0.2372
 1814poe    c23 8799   6.943   0.717  -0.160 -0.0515  0.2513 -0.1913
 1814poe    c23 8800   6.936   0.616  -0.275 -0.1684  0.2944 -0.2221
 1814poe     o2 8801   7.024   0.506  -0.260 -0.0721  0.3470 -0.3997
 1814poe    c23 8802   7.051   0.429  -0.375  0.8879  0.3764 -0.2047
 1814poe    c23 8803   7.181   0.349  -0.357  0.7175  0.2879  0.6985
 1814poe     o2 8804   7.188   0.247  -0.260 -0.6078 -0.8940 -0.4068
 1814poe    c23 8805   7.297   0.166  -0.298 -0.3257 -0.6888 -0.0346
 1814poe    c23 8806   7.421   0.197  -0.212 -0.4998 -0.1314  0.0196
 1814poe     o2 8807   7.387   0.224  -0.078  0.2154  0.4173  0.0976
 1814poe    c31 8808   7.502   0.261  -0.005  0.4260 -0.0539  0.0022
 1815poe    c31 8809   3.334   4.286   5.343  0.2110 -0.1450 -0.0273
 1815poe     o2 8810   3.260   4.349   5.446 -0.1349 -0.3529 -0.1497
 1815poe    c23 8811   3.138   4.409   5.410  0.1179  0.0811 -0.2914
 1815poe    c23 8812   3.074   4.492   5.523  0.2073  0.1373 -0.2828
 1815poe     o2 8813   3.101   4.418   5.640  0.3839 -0.1193 -0.4844
 1815poe    c23 8814   3.091   4.500   5.754 -0.1297 -0.8014 -0.0264
 1815poe    c23 8815   3.183   4.438   5.860  0.3244 -0.5920 -0.2959
 1815poe     o2 8816   3.306   4.408   5.796  0.1464 -0.2169 -0.8118
 1815poe    c23 8817   3.375   4.312   5.872  0.3465  0.6794  0.1544
 1815poe    c23 8818   3.493   4.254   5.793  0.1384 -0.0081  0.3463
 1815poe     o2 8819   3.446   4.224   5.663  0.1875 -0.3357  0.4028
 1815poe    c31 8820   3.549   4.151   5.601  0.3733  0.3121 -0.0618
 1816poe    c31 8821   5.752   1.114   5.594 -0.5655  0.1975 -0.6082
 1816poe     o2 8822   5.752   1.138   5.455 -0.8162 -0.1178 -0.6650
 1816poe    c23 8823   5.748   1.278   5.437  0.2060 -0.0136 -0.1402
 1816poe    c23 8824   5.690   1.317   5.300 -0.3516  0.9685  0.3647
 1816poe     o2 8825   5.556   1.277   5.280 -0.0375 -0.0416  0.2069
 1816poe    c23 8826   5.532   1.317   5.147 -0.1514 -0.0874  0.2139
 1816poe    c23 8827   5.425   1.221   5.092 -0.1753  0.4928 -0.7742
 1816poe     o2 8828   5.331   1.235   5.197  0.0554  0.0437 -0.5064
 1816poe    c23 8829   5.219   1.151   5.176 -0.0770  0.1048 -0.0473
 1816poe    c23 8830   5.111   1.139   5.286 -0.0160 -0.4513 -0.0448
 1816poe     o2 8831   5.152   1.077   5.405 -0.1640  0.1002  0.2987
 1816poe    c31 8832   5.041   1.051   5.489 -0.7012 -0.2640 -0.5081
 1817poe    c31 8833   3.624   4.627   1.780 -0.3373 -0.0108 -0.1414
 1817poe     o2 8834   3.532   4.722   1.828 -0.5479 -0.1143 -0.3433
 1817poe    c23 8835   3.403   4.665   1.816 -0.4470 -0.2761 -0.6968
 1817poe    c23 8836   3.310   4.784   1.848  0.2025  0.0578  0.0020
 1817poe     o2 8837   3.367   4.856   1.955  0.3477 -0.0308 -0.0157
 1817poe    c23 8838   3.327   4.990   1.946 -0.2325 -0.1601  0.6426
 1817poe    c23 8839   3.354   5.081   2.068 -0.0817  0.8847 -0.1594
 1817poe     o2 8840   3.495   5.072   2.073 -0.1258  0.2621 -0.0405
 1817poe    c23 8841   3.539   5.155   2.177  0.3213 -0.2536  0.1869
 1817poe    c23 8842   3.691   5.147   2.204  0.3081  0.4108  0.4852
 1817poe     o2 8843   3.730   5.013   2.222  0.0903  0.2484 -0.2137
 1817poe    c31 8844   3.842   5.025   2.306  0.1779  0.2912 -0.3372
 1818poe    c31 8845   4.457   6.769   5.020  0.0386 -0.3389 -0.1938
 1818poe     o2 8846   4.371   6.870   4.974 -0.1173 -0.1903  0.4119
 1818poe    c23 8847   4.447   6.973   4.915 -0.3370 -0.3878 -0.2176
 1818poe    c23 8848   4.369   7.103   4.892  1.0775  0.5791  0.3133
 1818poe     o2 8849   4.341   7.158   5.019 -0.0442  0.3633  0.1694
 1818poe    c23 8850   4.215   7.222   5.013  0.1797  0.8127  0.2119
 1818poe    c23 8851   4.178   7.259   5.158 -0.2475  0.1535  0.2752
 1818poe     o2 8852   4.131   7.145   5.228  0.2575 -0.3559 -0.2001
 1818poe    c23 8853   4.165   7.174   5.362  0.0836 -0.5749 -0.1092
 1818poe    c23 8854   4.223   7.049   5.431  0.8061  0.2499  0.8096
 1818poe     o2 8855   4.355   7.025   5.388  0.4518 -0.2660 -0.0155
 1818poe    c31 8856   4.426   6.910   5.428 -0.0790 -0.7588 -0.4851
 1819poe    c31 8857   3.288   0.505   6.299  0.0015  0.3474  0.3888
 1819poe     o2 8858   3.153   0.542   6.320 -0.3817 -0.5450 -0.4606
 1819poe    c23 8859   3.133   0.671   6.268  0.1764 -0.4607 -0.4732
 1819poe    c23 8860   2.985   0.709   6.247  0.2264 -0.0887 -0.1630
 1819poe     o2 8861   2.929   0.715   6.376  0.3789 -0.1128 -0.0947
 1819poe    c23 8862   2.846   0.829   6.383 -0.0186 -0.3712 -0.5204
 1819poe    c23 8863   2.798   0.839   6.529 -0.3094  0.2700 -0.6586
 1819poe     o2 8864   2.902   0.872   6.619 -0.5272  0.3379 -0.4285
 1819poe    c23 8865   2.863   0.868   6.754 -0.3043  0.4640 -0.3600
 1819poe    c23 8866   2.957   0.934   6.857 -0.2244  0.0833 -0.1845
 1819poe     o2 8867   3.039   0.839   6.919  0.0756  0.4800  0.0333
 1819poe    c31 8868   3.118   0.894   7.022 -0.0489  0.8056 -0.0461
 1820poe    c31 8869   2.858   4.083   5.857 -0.3521 -0.6796  0.3210
 1820poe     o2 8870   2.869   3.943   5.854  0.5551 -0.6146  0.0220
 1820poe    c23 8871   2.767   3.862   5.908  0.4635 -0.1406  0.5728
 1820poe    c23 8872   2.789   3.720   5.851  0.0807  0.1453 -0.3049
 1820poe     o2 8873   2.929   3.707   5.855  0.0418 -0.1004  0.4523
 1820poe    c23 8874   2.956   3.571   5.828 -0.1749 -0.1272  0.3697
 1820poe    c23 8875   3.092   3.527   5.885  0.1041 -0.2296 -0.3725
 1820poe     o2 8876   3.198   3.591   5.817  0.3694 -0.3730 -0.0974
 1820poe    c23 8877   3.323   3.563   5.876  0.2463  0.0598  0.3760
 1820poe    c23 8878   3.418   3.681   5.848 -0.4092  0.4676 -0.1694
 1820poe     o2 8879   3.393   3.790   5.933 -0.4742  0.4205 -0.1288
 1820poe    c31 8880   3.448   3.792   6.063  0.6510 -0.4977 -0.5809
 1821poe    c31 8881   5.413   5.595   2.196  0.1501 -0.0453  0.4568
 1821poe     o2 8882   5.537   5.556   2.141 -0.1320 -0.4867  0.1284
 1821poe    c23 8883   5.640   5.626   2.207 -0.0989 -0.5656  0.1607
 1821poe    c23 8884   5.769   5.543   2.191  0.2910  0.1147 -0.2746
 1821poe     o2 8885   5.774   5.452   2.299  0.5706 -0.0314 -0.4087
 1821poe    c23 8886   5.893   5.376   2.299  0.5654 -0.0390 -0.4101
 1821poe    c23 8887   5.886   5.245   2.378  0.6747 -0.1591 -0.5977
 1821poe     o2 8888   5.823   5.136   2.313 -0.4764  0.2186 -0.1531
 1821poe    c23 8889   5.811   5.023   2.396 -0.0421  0.1029 -0.2426
 1821poe    c23 8890   5.783   4.893   2.317 -0.0404  0.0646 -0.1802
 1821poe     o2 8891   5.651   4.883   2.268 -0.3388 -0.2719  0.6622
 1821poe    c31 8892   5.639   4.752   2.218 -0.3172 -0.0173 -0.0271
 1822poe    c31 8893   2.585   4.485   4.838  0.8001 -0.5284 -0.4547
 1822poe     o2 8894   2.628   4.619   4.845 -0.1315 -0.2357 -0.1171
 1822poe    c23 8895   2.762   4.641   4.807 -0.0676  0.3446  0.4237
 1822poe    c23 8896   2.785   4.792   4.791  0.0836  0.2786 -0.0137
 1822poe     o2 8897   2.740   4.878   4.893 -0.1112 -0.6818  0.7251
 1822poe    c23 8898   2.752   5.017   4.875  0.0546 -0.7277  0.4783
 1822poe    c23 8899   2.676   5.109   4.973  0.0535 -0.1995 -0.0143
 1822poe     o2 8900   2.545   5.060   4.985  0.0557 -0.1944  0.0291
 1822poe    c23 8901   2.454   5.153   5.039 -0.1062 -0.1680 -0.2850
 1822poe    c23 8902   2.317   5.084   5.050 -0.0730 -0.2029 -0.0737
 1822poe     o2 8903   2.292   5.026   4.924 -0.0436 -0.3889  0.0049
 1822poe    c31 8904   2.172   4.951   4.929 -0.2653 -0.0683 -0.4137
 1823poe    c31 8905   6.701   1.959   6.175  0.2289  0.4402 -0.2539
 1823poe     o2 8906   6.817   1.962   6.096  0.0912  0.0257 -0.4710
 1823poe    c23 8907   6.887   2.081   6.124 -0.0650 -0.0276  0.1562
 1823poe    c23 8908   7.013   2.094   6.037 -0.2338  0.9644  0.0413
 1823poe     o2 8909   6.971   2.054   5.908  0.0219  0.4887  0.1028
 1823poe    c23 8910   7.065   2.088   5.809  0.0398  0.2619  0.0420
 1823poe    c23 8911   7.018   2.069   5.664 -0.3305  0.6518  0.1111
 1823poe     o2 8912   6.990   1.932   5.644 -0.0295  0.5918  0.0991
 1823poe    c23 8913   7.012   1.881   5.515 -0.1232 -0.2326  0.4021
 1823poe    c23 8914   7.037   1.730   5.533  0.6364 -0.1696 -0.0735
 1823poe     o2 8915   6.922   1.664   5.580  0.3430  0.2325 -0.2240
 1823poe    c31 8916   6.928   1.523   5.580 -0.2942  0.2009 -0.2820
 1824poe    c31 8917   3.152   6.837   6.410  0.0319 -0.0199  0.5042
 1824poe     o2 8918   3.270   6.840   6.487  0.3908 -0.2405 -0.0311
 1824poe    c23 8919   3.264   6.739   6.585 -0.4604  0.3733  0.5553
 1824poe    c23 8920   3.396   6.695   6.650 -0.3038 -0.4493 -0.3072
 1824poe     o2 8921   3.481   6.632   6.556  0.5368  0.2795 -0.0528
 1824poe    c23 8922   3.604   6.587   6.607  0.1487 -0.3415  0.3637
 1824poe    c23 8923   3.687   6.523   6.494  0.7368 -0.3450  0.7917
 1824poe     o2 8924   3.720   6.616   6.394  0.1670  0.1143  1.0227
 1824poe    c23 8925   3.822   6.579   6.303  0.1469  0.3105  0.9195
 1824poe    c23 8926   3.846   6.706   6.219 -0.6661  0.0060  0.2048
 1824poe     o2 8927   3.733   6.779   6.176 -0.4824 -0.3181 -0.8463
 1824poe    c31 8928   3.793   6.897   6.131  0.1605 -0.5445 -0.5920
 1825poe    c31 8929   3.022   3.160   4.267  0.2706 -0.4761  0.6202
 1825poe     o2 8930   3.079   3.062   4.183  0.1161 -0.4067  0.4364
 1825poe    c23 8931   3.213   3.099   4.160 -0.0319 -0.1732 -0.0756
 1825poe    c23 8932   3.279   2.971   4.104  0.4025  0.0944 -0.1801
 1825poe     o2 8933   3.192   2.935   3.999  0.1767 -0.2405  0.1177
 1825poe    c23 8934   3.228   2.811   3.943 -0.0170 -0.5912  0.7550
 1825poe    c23 8935   3.114   2.769   3.848  0.2640 -0.1650  0.2255
 1825poe     o2 8936   2.988   2.819   3.883  0.1690 -0.0861 -0.2165
 1825poe    c23 8937   2.881   2.776   3.802  0.1218  0.2220 -0.3202
 1825poe    c23 8938   2.740   2.803   3.857  0.1044  0.4064 -0.4545
 1825poe     o2 8939   2.714   2.941   3.848 -0.6010  0.2639 -0.6840
 1825poe    c31 8940   2.582   2.980   3.879 -0.6209  0.2636 -0.7687
 1826poe    c31 8941   3.582   0.691   2.576 -0.4800 -0.0919 -0.1488
 1826poe     o2 8942   3.691   0.660   2.493 -0.2375  0.6226 -0.1000
 1826poe    c23 8943   3.785   0.765   2.484 -0.0505  0.4869  0.2700
 1826poe    c23 8944   3.903   0.721   2.395 -0.4784  0.3826 -0.2485
 1826poe     o2 8945   4.003   0.641   2.455 -0.7508  0.3218  0.1312
 1826poe    c23 8946   4.085   0.586   2.354 -0.8548 -0.0087  0.2268
 1826poe    c23 8947   4.147   0.460   2.417 -0.3109  0.0168 -0.2497
 1826poe     o2 8948   4.052   0.356   2.427 -0.4672  0.1779 -0.0480
 1826poe    c23 8949   4.117   0.231   2.415 -0.4609  0.1512  0.2394
 1826poe    c23 8950   4.012   0.119   2.425 -0.4276  0.1245  0.2931
 1826poe     o2 8951   3.902   0.159   2.504 -0.6772 -0.1472  0.0899
 1826poe    c31 8952   3.815   0.049   2.504 -1.0225  0.1257 -0.3567
 1827poe    c31 8953   4.571   0.433   4.235 -0.1361 -0.0024  0.0536
 1827poe     o2 8954   4.643   0.312   4.243 -0.2847 -0.0872  0.1083
 1827poe    c23 8955   4.626   0.276   4.378  0.3037  0.3368  0.2979
 1827poe    c23 8956   4.744   0.185   4.416 -0.2144 -0.1559  0.7547
 1827poe     o2 8957   4.737   0.077   4.327  0.0467  0.4367  0.0078
 1827poe    c23 8958   4.820  -0.030   4.367 -0.1252  0.2456 -0.1409
 1827poe    c23 8959   4.798  -0.142   4.264  0.0386  0.1668 -0.0898
 1827poe     o2 8960   4.840  -0.095   4.138  0.0064 -0.2025 -0.2411
 1827poe    c23 8961   4.823  -0.188   4.033  0.5698  0.3882 -0.8658
 1827poe    c23 8962   4.685  -0.198   3.967  0.3686 -0.1157 -0.3755
 1827poe     o2 8963   4.642  -0.075   3.913  0.4363  0.1960  0.2696
 1827poe    c31 8964   4.667  -0.072   3.774  0.3075  0.1466  0.2454
 1828poe    c31 8965   0.292   2.743   0.172  0.7093  0.0534  0.5499
 1828poe     o2 8966   0.161   2.780   0.209  0.5518  0.0467  0.0008
 1828poe    c23 8967   0.170   2.903   0.277 -0.1131 -0.2612  0.6615
 1828poe    c23 8968   0.037   2.971   0.313  0.1181  0.2976  0.4633
 1828poe     o2 8969  -0.049   2.887   0.386 -0.5281  0.2110 -0.3802
 1828poe    c23 8970  -0.144   2.966   0.454  0.3050  0.1758  0.8756
 1828poe    c23 8971  -0.213   2.871   0.553 -0.0734 -0.0611  0.3865
 1828poe     o2 8972  -0.251   2.751   0.489  0.3245 -0.0869  0.1933
 1828poe    c23 8973  -0.333   2.661   0.561  1.0297 -0.7269  0.1997
 1828poe    c23 8974  -0.358   2.531   0.481 -0.1015 -0.3336 -0.1083
 1828poe     o2 8975  -0.233   2.502   0.423 -0.0501 -0.0948 -0.1165
 1828poe    c31 8976  -0.248   2.387   0.343 -0.0573 -0.1178 -0.0817
 1829poe    c31 8977   0.841   4.472   4.901  0.0657  0.2125 -0.0977
 1829poe     o2 8978   0.849   4.602   4.846 -0.7125  0.1964 -0.2623
 1829poe    c23 8979   0.874   4.694   4.951 -0.1694  0.0855 -0.2923
 1829poe    c23 8980   1.020   4.724   4.988 -0.2273  0.2337 -0.1835
 1829poe     o2 8981   1.107   4.751   4.881 -0.3240 -0.1311 -0.3555
 1829poe    c23 8982   1.217   4.836   4.907  0.0680 -0.5308 -0.6856
 1829poe    c23 8983   1.291   4.885   4.781  0.6845 -0.3656 -0.2638
 1829poe     o2 8984   1.367   4.786   4.717  1.1311 -0.0833 -0.1691
 1829poe    c23 8985   1.383   4.816   4.580 -0.1831  0.7063 -0.1687
 1829poe    c23 8986   1.399   4.692   4.490  0.1582  0.1957  0.5798
 1829poe     o2 8987   1.288   4.605   4.490  0.0270  0.3527 -0.3258
 1829poe    c31 8988   1.288   4.505   4.390 -0.6265  0.0530 -0.0312
 1830poe    c31 8989   4.839   6.011   0.722 -0.0330  0.4974 -0.3998
 1830poe     o2 8990   4.857   6.103   0.828 -0.2642 -0.1413  0.2043
 1830poe    c23 8991   4.878   6.044   0.954  0.5103  0.3184  0.2961
 1830poe    c23 8992   4.860   6.155   1.058 -0.0587  0.4632  0.0453
 1830poe     o2 8993   4.970   6.244   1.063 -0.0634  0.4694  0.0320
 1830poe    c23 8994   4.962   6.328   1.176  0.2766  0.1582  0.2880
 1830poe    c23 8995   5.101   6.390   1.198  0.5826 -0.3784 -0.0989
 1830poe     o2 8996   5.151   6.431   1.073 -0.0828  0.6911 -0.0227
 1830poe    c23 8997   5.274   6.500   1.079  0.1447  0.2934 -0.0644
 1830poe    c23 8998   5.357   6.484   0.951 -0.0363 -0.2990 -0.1077
 1830poe     o2 8999   5.277   6.474   0.835  0.1017 -0.2869 -0.2050
 1830poe    c31 9000   5.347   6.441   0.718  0.0889 -0.2688 -0.2179
 1831poe    c31 9001   1.117   1.281   5.708 -0.0417  0.0201  0.6867
 1831poe     o2 9002   1.038   1.398   5.708 -0.4227 -0.2305  0.0208
 1831poe    c23 9003   1.115   1.512   5.676 -0.3573 -0.2144  0.2307
 1831poe    c23 9004   1.041   1.641   5.715  0.3650  0.2639  0.0396
 1831poe     o2 9005   0.924   1.671   5.642 -0.0553 -0.1194  0.5554
 1831poe    c23 9006   0.846   1.779   5.688  0.3414  0.2592  0.3380
 1831poe    c23 9007   0.747   1.823   5.579  0.0443  0.1443  0.5580
 1831poe     o2 9008   0.647   1.731   5.541  0.4740 -0.0254 -0.2033
 1831poe    c23 9009   0.577   1.762   5.422  0.1858  0.4214  0.0778
 1831poe    c23 9010   0.458   1.666   5.402  0.3907  0.1972 -0.0770
 1831poe     o2 9011   0.500   1.541   5.451 -0.1709  0.0595  0.0513
 1831poe    c31 9012   0.389   1.454   5.450 -0.0054 -0.1486 -0.4483
 1832poe    c31 9013   4.937   6.199   6.287  0.7340 -0.4103  0.2164
 1832poe     o2 9014   4.963   6.338   6.283 -0.2255 -0.2313 -0.1783
 1832poe    c23 9015   5.095   6.353   6.235 -0.0186  0.1674  0.4966
 1832poe    c23 9016   5.093   6.498   6.186 -0.1352  0.0435  0.1329
 1832poe     o2 9017   5.028   6.565   6.292 -0.0678  0.1508  0.1064
 1832poe    c23 9018   5.022   6.706   6.283  0.5546  0.1793  0.0688
 1832poe    c23 9019   4.958   6.752   6.416  0.3600 -0.2986  0.1435
 1832poe     o2 9020   4.842   6.681   6.453 -0.1868  0.3979 -0.2196
 1832poe    c23 9021   4.755   6.760   6.531 -0.5812 -0.0181 -0.2355
 1832poe    c23 9022   4.645   6.670   6.590 -0.0512 -0.4427  0.1225
 1832poe     o2 9023   4.577   6.612   6.481 -0.3705  0.0479  0.0583
 1832poe    c31 9024   4.491   6.505   6.512  0.0459 -0.2263  0.2741
 1833poe    c31 9025   0.636   2.858   2.318 -0.2522  0.4350 -0.4464
 1833poe     o2 9026   0.618   2.729   2.373  0.0816  0.3890 -0.4429
 1833poe    c23 9027   0.707   2.640   2.309  0.2571  0.1179  0.1663
 1833poe    c23 9028   0.688   2.495   2.356 -0.1763  0.1929  0.2271
 1833poe     o2 9029   0.559   2.445   2.326 -0.1361  0.1143  0.1838
 1833poe    c23 9030   0.550   2.305   2.324  0.2013  0.0979 -0.2370
 1833poe    c23 9031   0.403   2.258   2.326  0.0653  0.5218 -0.2063
 1833poe     o2 9032   0.320   2.332   2.413  0.1328 -0.2304  0.5146
 1833poe    c23 9033   0.184   2.296   2.402  0.1787 -0.2662  0.0492
 1833poe    c23 9034   0.109   2.426   2.367 -0.0424 -0.3217  0.3156
 1833poe     o2 9035   0.149   2.524   2.460 -0.2936  0.0771  0.0090
 1833poe    c31 9036   0.066   2.637   2.471  0.0244  0.3504 -0.3718
 1834poe    c31 9037   2.552   1.550   5.707 -0.3007 -0.1754  0.1947
 1834poe     o2 9038   2.616   1.471   5.608  0.1752  0.4299  0.0136
 1834poe    c23 9039   2.601   1.535   5.484 -0.2295 -0.1101 -0.2164
 1834poe    c23 9040   2.662   1.443   5.376 -0.3588  0.0007 -0.3850
 1834poe     o2 9041   2.595   1.320   5.361 -0.1936 -0.1028 -0.2771
 1834poe    c23 9042   2.566   1.296   5.225 -0.0777 -0.3148 -0.2653
 1834poe    c23 9043   2.454   1.192   5.218 -0.0505 -0.3602 -0.0543
 1834poe     o2 9044   2.474   1.094   5.317  0.0954 -0.6133 -0.3302
 1834poe    c23 9045   2.413   0.971   5.283 -0.1772 -0.5106 -0.2140
 1834poe    c23 9046   2.492   0.853   5.343  0.0126 -0.2236  0.1058
 1834poe     o2 9047   2.472   0.859   5.482 -0.0057  0.1505  0.0878
 1834poe    c31 9048   2.526   0.746   5.545 -0.1135 -0.1282 -0.3159
 1835poe    c31 9049   6.612   6.505   0.197  0.1634 -0.1880  0.0538
 1835poe     o2 9050   6.588   6.430   0.080 -0.4767  0.1348 -0.0221
 1835poe    c23 9051   6.453   6.447   0.041 -0.5527  0.2504  0.2860
 1835poe    c23 9052   6.459   6.384  -0.099  0.5216 -0.0143  0.4425
 1835poe     o2 9053   6.515   6.254  -0.095  0.0676 -0.2265 -0.0944
 1835poe    c23 9054   6.526   6.209  -0.228 -0.0712  0.1830 -0.2476
 1835poe    c23 9055   6.541   6.057  -0.204 -0.4180  0.1917  0.0222
 1835poe     o2 9056   6.646   6.023  -0.116 -0.3768  0.2137 -0.0183
 1835poe    c23 9057   6.627   5.898  -0.053  0.4145  0.1374  0.0694
 1835poe    c23 9058   6.737   5.842   0.040  0.3600  0.0390  0.0746
 1835poe     o2 9059   6.757   5.918   0.157  0.8829  0.4051 -0.2478
 1835poe    c31 9060   6.878   5.872   0.213  0.6277  0.0927  0.0489
 1836poe    c31 9061   1.793   2.122   4.410  0.2203 -0.1345 -0.4672
 1836poe     o2 9062   1.904   2.043   4.444  0.1149  0.1396  0.5343
 1836poe    c23 9063   1.878   1.914   4.394 -0.6112  0.4159  0.1884
 1836poe    c23 9064   1.992   1.811   4.414 -0.6049  0.3421 -0.2299
 1836poe     o2 9065   2.097   1.849   4.327  0.1227  0.1533  0.5579
 1836poe    c23 9066   2.193   1.747   4.338  0.3655  0.3409  0.1641
 1836poe    c23 9067   2.305   1.762   4.233  0.4618 -0.2463  0.1779
 1836poe     o2 9068   2.380   1.881   4.241  0.4759 -0.2490  0.0940
 1836poe    c23 9069   2.442   1.904   4.117  0.4870 -0.3653  0.0777
 1836poe    c23 9070   2.495   2.049   4.118 -0.3777 -0.0423  0.0702
 1836poe     o2 9071   2.381   2.131   4.113 -0.0401  0.4521  0.3707
 1836poe    c31 9072   2.405   2.269   4.126 -0.2750  0.5381 -0.0900
 1837poe    c31 9073   3.758   3.544   1.346  0.1664 -0.4145 -0.3526
 1837poe     o2 9074   3.730   3.622   1.461  0.0076 -0.2956 -0.4721
 1837poe    c23 9075   3.851   3.635   1.531  0.0603 -0.3998 -0.5425
 1837poe    c23 9076   3.842   3.733   1.649  0.0895 -0.3008 -0.6214
 1837poe     o2 9077   3.752   3.683   1.746  0.5505 -0.2166 -0.1446
 1837poe    c23 9078   3.737   3.759   1.864  0.0565 -0.1206 -0.2699
 1837poe    c23 9079   3.656   3.674   1.963  0.5866  0.1802  0.4287
 1837poe     o2 9080   3.712   3.553   2.008  0.3029 -0.2037 -0.2332
 1837poe    c23 9081   3.652   3.513   2.129  0.2410 -0.1324 -0.2405
 1837poe    c23 9082   3.508   3.464   2.113  0.1316  0.1547 -0.1509
 1837poe     o2 9083   3.487   3.367   2.012  0.1417  0.3616 -0.3502
 1837poe    c31 9084   3.349   3.349   1.994  0.0178  0.1007  0.7798
 1838poe    c31 9085   4.095   0.121   3.879  0.4179  0.1328 -0.2510
 1838poe     o2 9086   4.057  -0.007   3.836 -0.0652  0.1444  0.1371
 1838poe    c23 9087   3.924  -0.005   3.789 -0.2971 -0.2829  0.7557
 1838poe    c23 9088   3.884  -0.153   3.804 -0.1985 -0.4091 -0.1973
 1838poe     o2 9089   3.982  -0.223   3.730  0.3240  0.0338  0.0691
 1838poe    c23 9090   3.982  -0.362   3.751 -0.1556  0.0462  0.1562
 1838poe    c23 9091   4.089  -0.423   3.658  0.2401 -0.6332  1.0434
 1838poe     o2 9092   4.213  -0.362   3.685  0.0550  0.3562 -0.2718
 1838poe    c23 9093   4.308  -0.421   3.599  0.4435  0.2731  0.2115
 1838poe    c23 9094   4.437  -0.344   3.564  0.3830  0.4108  0.2940
 1838poe     o2 9095   4.403  -0.246   3.469  0.2098  0.4011  0.3454
 1838poe    c31 9096   4.511  -0.164   3.431  0.3803  0.1873  0.3676
 1839poe    c31 9097   1.326   3.692   0.579 -0.0700 -0.0343 -0.4087
 1839poe     o2 9098   1.457   3.742   0.584 -0.0144 -0.1267 -0.8727
 1839poe    c23 9099   1.460   3.881   0.560 -0.3112  0.0109 -0.1379
 1839poe    c23 9100   1.571   3.908   0.456  0.1003  0.2231  0.3535
 1839poe     o2 9101   1.692   3.864   0.513 -0.1093  0.3114  0.8728
 1839poe    c23 9102   1.797   3.856   0.420 -0.6334 -0.2587  0.3156
 1839poe    c23 9103   1.918   3.783   0.483 -0.2126  0.1787  0.0227
 1839poe     o2 9104   1.882   3.652   0.522  0.1378 -0.0699 -0.4735
 1839poe    c23 9105   1.992   3.576   0.566 -0.0687 -0.2544 -0.2758
 1839poe    c23 9106   1.946   3.476   0.673  0.1919 -0.1223 -0.0394
 1839poe     o2 9107   1.880   3.543   0.778  0.0173 -0.2614 -0.0590
 1839poe    c31 9108   1.862   3.436   0.867  0.4058 -0.1417  0.1667
 1840poe    c31 9109   5.509   6.359   4.267  0.3521  0.2755  0.1324
 1840poe     o2 9110   5.451   6.232   4.281  0.6459  0.1283  0.0102
 1840poe    c23 9111   5.553   6.155   4.342  0.3819 -0.0305  0.2554
 1840poe    c23 9112   5.548   6.005   4.307 -0.2707  0.0668 -0.0995
 1840poe     o2 9113   5.438   5.956   4.380  0.1298 -0.4025  0.1931
 1840poe    c23 9114   5.431   5.823   4.333  0.0741 -0.3918  0.1722
 1840poe    c23 9115   5.302   5.751   4.377 -0.0048 -0.4297 -0.1215
 1840poe     o2 9116   5.196   5.810   4.306  0.0235 -0.5700 -0.2850
 1840poe    c23 9117   5.079   5.751   4.358  0.0056 -0.0461  0.2889
 1840poe    c23 9118   4.954   5.777   4.272  0.1004  0.4594  0.3005
 1840poe     o2 9119   4.987   5.905   4.222  0.2530  0.1382 -0.4361
 1840poe    c31 9120   4.873   5.970   4.169  0.1909  0.1937 -0.2354
 1841poe    c31 9121   0.146   2.342   3.155 -0.0385  0.4895  0.3913
 1841poe     o2 9122   0.010   2.370   3.178 -0.1470  0.1138  0.2208
 1841poe    c23 9123  -0.036   2.474   3.094 -0.2282  0.0584  0.1965
 1841poe    c23 9124  -0.187   2.499   3.101 -0.1978  0.2808  0.0891
 1841poe     o2 9125  -0.244   2.556   3.217 -0.1964  0.1128  0.1735
 1841poe    c23 9126  -0.250   2.474   3.331 -0.0146 -0.0883  0.0398
 1841poe    c23 9127  -0.248   2.552   3.463  0.5394  0.6845 -0.4206
 1841poe     o2 9128  -0.356   2.642   3.446 -0.2977 -0.2612 -0.1665
 1841poe    c23 9129  -0.376   2.676   3.581 -0.4509 -0.4596 -0.1368
 1841poe    c23 9130  -0.467   2.799   3.567  0.2550  0.1159  0.2251
 1841poe     o2 9131  -0.433   2.863   3.446 -0.2445 -0.0954 -0.0311
 1841poe    c31 9132  -0.476   2.997   3.454  0.4156  0.1176  0.0266
 1842poe    c31 9133   2.324   3.724   4.030  0.2831 -0.2917 -0.3899
 1842poe     o2 9134   2.256   3.603   4.053  0.3500 -0.1595  0.5461
 1842poe    c23 9135   2.330   3.498   3.994 -0.2071 -0.2326 -0.0345
 1842poe    c23 9136   2.242   3.372   4.007 -0.0903 -0.3312 -0.2011
 1842poe     o2 9137   2.202   3.360   4.142  0.1234 -0.1105 -0.1163
 1842poe    c23 9138   2.156   3.229   4.167 -0.0003 -0.0657 -0.1078
 1842poe    c23 9139   2.135   3.196   4.316 -0.4100 -0.1289 -0.1791
 1842poe     o2 9140   2.039   3.280   4.376 -0.0517 -0.1377  0.4122
 1842poe    c23 9141   1.986   3.229   4.497  0.1167 -0.2070  0.4573
 1842poe    c23 9142   1.881   3.119   4.469 -0.0466  0.0289  0.1401
 1842poe     o2 9143   1.936   2.997   4.425  0.1024  0.0552  0.2537
 1842poe    c31 9144   1.852   2.911   4.352  0.2740  0.1890 -0.1029
 1843poe    c31 9145   4.446   3.734   3.041  0.4293  0.1297 -0.3768
 1843poe     o2 9146   4.484   3.838   3.128  0.3800  0.1152 -0.3375
 1843poe    c23 9147   4.486   3.965   3.066 -0.0902  0.3872  0.1951
 1843poe    c23 9148   4.565   4.055   3.163  0.0088  0.2289  0.2621
 1843poe     o2 9149   4.507   4.094   3.286 -0.5112 -0.3009  0.1905
 1843poe    c23 9150   4.590   4.185   3.356 -0.1660  0.0616 -0.6758
 1843poe    c23 9151   4.522   4.249   3.478 -0.4999 -0.4053 -0.6143
 1843poe     o2 9152   4.439   4.352   3.428  0.1017  0.4581  0.1443
 1843poe    c23 9153   4.338   4.392   3.518  0.0198 -0.0388  0.2810
 1843poe    c23 9154   4.265   4.513   3.457  0.1006  0.0029  0.2662
 1843poe     o2 9155   4.200   4.498   3.332  0.3091  0.2642  0.1243
 1843poe    c31 9156   4.163   4.628   3.295  0.5752  0.2070 -0.3485
 1844poe    c31 9157   0.683   4.078   2.997 -0.2753  0.1063 -0.6157
 1844poe     o2 9158   0.611   3.963   2.959  0.3060 -0.2780 -0.5705
 1844poe    c23 9159   0.704   3.858   2.947  0.4738 -0.2050  0.0666
 1844poe    c23 9160   0.638   3.725   2.906 -0.7840  0.4307 -0.0158
 1844poe     o2 9161   0.536   3.675   2.989  0.3534 -0.5327  0.8341
 1844poe    c23 9162   0.507   3.541   2.958 -0.0326 -0.3092  0.1964
 1844poe    c23 9163   0.367   3.506   3.013  0.0803 -0.7681  0.1984
 1844poe     o2 9164   0.365   3.552   3.146  0.1259 -0.5944  0.1401
 1844poe    c23 9165   0.246   3.503   3.203 -0.2774 -0.1728 -0.3358
 1844poe    c23 9166   0.230   3.538   3.352  0.9144 -0.5139 -0.1178
 1844poe     o2 9167   0.257   3.675   3.372  0.8495 -0.5338  0.1096
 1844poe    c31 9168   0.258   3.701   3.510  0.0901  0.3301 -0.0363
 1845poe    c31 9169   1.840   0.840   6.021  0.0672 -0.3946  0.4138
 1845poe     o2 9170   1.920   0.827   5.905 -0.1263  0.2375  0.2062
 1845poe    c23 9171   2.054   0.847   5.944  0.2460 -0.0791 -0.8650
 1845poe    c23 9172   2.134   0.899   5.824  0.0176  0.6494 -0.7069
 1845poe     o2 9173   2.095   0.814   5.719  0.1730  0.2549 -0.4466
 1845poe    c23 9174   2.148   0.850   5.594  0.2215  0.4835 -0.3601
 1845poe    c23 9175   2.061   0.769   5.496  0.0654 -0.4980  0.5700
 1845poe     o2 9176   1.927   0.790   5.537  0.0124  0.4336 -0.0333
 1845poe    c23 9177   1.852   0.734   5.431  0.6163  0.4499 -0.4789
 1845poe    c23 9178   1.763   0.846   5.372 -0.1686 -0.1844 -0.5135
 1845poe     o2 9179   1.678   0.902   5.469  0.2826  0.0739 -0.2639
 1845poe    c31 9180   1.575   0.988   5.426 -0.5184 -0.7166  0.0523
 1846poe    c31 9181   1.453   5.090   3.083 -0.2557  0.2187  0.3562
 1846poe     o2 9182   1.564   5.163   3.035 -0.3548  0.1535  0.0300
 1846poe    c23 9183   1.593   5.146   2.898  0.3683  0.2537  0.1689
 1846poe    c23 9184   1.736   5.102   2.861  0.1328 -0.2837 -0.0986
 1846poe     o2 9185   1.819   5.213   2.881  0.0124 -0.1734 -0.2082
 1846poe    c23 9186   1.945   5.152   2.902 -0.1485 -0.5433 -0.3119
 1846poe    c23 9187   2.036   5.271   2.937 -0.3468 -0.4012 -0.2755
 1846poe     o2 9188   2.011   5.306   3.071 -0.1595  0.2805 -0.4166
 1846poe    c23 9189   2.116   5.382   3.127 -0.2980  0.2441 -0.1037
 1846poe    c23 9190   2.077   5.398   3.275 -0.2055 -0.4435 -0.0027
 1846poe     o2 9191   1.940   5.430   3.277  0.0066  0.4742  0.2834
 1846poe    c31 9192   1.912   5.489   3.402  0.3412  0.2012  0.4870
 1847poe    c31 9193   5.734   3.316   6.642 -0.6792  0.2415  0.6948
 1847poe     o2 9194   5.685   3.443   6.608 -0.1352  0.2201 -0.2047
 1847poe    c23 9195   5.648   3.500   6.731  0.0329  0.1683 -0.1307
 1847poe    c23 9196   5.635   3.654   6.727 -0.1742  0.1566  0.0627
 1847poe     o2 9197   5.760   3.708   6.688  0.1436 -0.3781  0.3187
 1847poe    c23 9198   5.752   3.842   6.645  0.5418 -0.3626  0.2937
 1847poe    c23 9199   5.889   3.885   6.588  0.3239  0.4418  0.3559
 1847poe     o2 9200   5.961   3.804   6.497 -0.4664  0.0696  0.0451
 1847poe    c23 9201   5.973   3.883   6.381  0.2165 -0.3189 -0.1510
 1847poe    c23 9202   6.089   3.810   6.310  0.0720 -0.1360 -0.5820
 1847poe     o2 9203   6.051   3.675   6.296  0.0979 -0.1728 -0.3144
 1847poe    c31 9204   6.160   3.612   6.234  0.1662 -0.1438 -0.2222
 1848poe    c31 9205   1.611   4.606   6.985  0.1483  0.6539  0.1515
 1848poe     o2 9206   1.541   4.603   6.862  0.4163 -0.1945  0.0093
 1848poe    c23 9207   1.478   4.729   6.850  0.5717 -0.1352 -0.1818
 1848poe    c23 9208   1.395   4.730   6.721 -0.4267 -0.0947  0.4473
 1848poe     o2 9209   1.281   4.648   6.730 -0.1346 -0.5066  0.4225
 1848poe    c23 9210   1.216   4.641   6.605 -0.0989  0.8883  0.3104
 1848poe    c23 9211   1.116   4.526   6.584  0.2972  0.5735  0.1190
 1848poe     o2 9212   1.173   4.397   6.592 -0.2358  0.3310  0.0537
 1848poe    c23 9213   1.064   4.308   6.584  0.1173 -0.1078  0.1007
 1848poe    c23 9214   1.118   4.184   6.658  0.2296 -0.1982 -0.1343
 1848poe     o2 9215   1.258   4.194   6.669  0.1710 -0.3028  0.7432
 1848poe    c31 9216   1.322   4.073   6.703  0.0921 -0.4898  0.2396
 1849poe    c31 9217   5.026   3.443   6.009 -0.3311 -0.5007 -0.1062
 1849poe     o2 9218   5.067   3.318   6.060  0.2809  0.0995  0.8882
 1849poe    c23 9219   5.179   3.266   5.994 -0.0144 -0.3273  0.7204
 1849poe    c23 9220   5.228   3.133   6.055  0.1839 -0.6816 -0.1980
 1849poe     o2 9221   5.146   3.020   6.034  0.0185 -0.6281  0.1483
 1849poe    c23 9222   5.209   2.913   5.967 -0.0696 -0.6657  0.1244
 1849poe    c23 9223   5.098   2.830   5.900 -0.6227  0.1389  0.0377
 1849poe     o2 9224   4.995   2.835   5.997 -0.5211 -0.2480  0.1667
 1849poe    c23 9225   4.875   2.778   5.950 -0.2576 -0.7410  0.0797
 1849poe    c23 9226   4.783   2.771   6.074 -0.7777  0.0976 -0.2477
 1849poe     o2 9227   4.802   2.882   6.158  0.3980 -0.3234  0.0546
 1849poe    c31 9228   4.708   2.908   6.259 -0.0390 -0.0642 -0.4130
 1850poe    c31 9229   0.932   4.343   4.112 -0.4668  0.2711 -0.1641
 1850poe     o2 9230   0.989   4.275   4.003  0.2101 -0.0511  0.3795
 1850poe    c23 9231   1.051   4.154   4.041 -0.2314 -0.5120 -0.3483
 1850poe    c23 9232   1.106   4.075   3.920 -0.0034 -0.0778 -0.5319
 1850poe     o2 9233   1.197   4.160   3.855 -0.0722  0.4083 -0.0055
 1850poe    c23 9234   1.260   4.074   3.762  0.0906 -0.3645  0.8022
 1850poe    c23 9235   1.372   4.158   3.697 -0.4992 -0.4283 -0.3273
 1850poe     o2 9236   1.339   4.293   3.674  0.0805 -0.2554 -0.1468
 1850poe    c23 9237   1.452   4.368   3.635  0.0110 -0.0413  0.0583
 1850poe    c23 9238   1.413   4.517   3.627  0.3237  0.0436  0.1052
 1850poe     o2 9239   1.350   4.565   3.743 -0.7865 -0.0307 -0.4526
 1850poe    c31 9240   1.315   4.699   3.720  0.4247  0.3458 -0.1447
 1851poe    c31 9241   6.636   0.704   4.720 -0.4283 -0.3153  0.2595
 1851poe     o2 9242   6.762   0.755   4.686 -0.7616  0.1864 -0.2409
 1851poe    c23 9243   6.749   0.893   4.661 -0.1377  0.2516 -0.2240
 1851poe    c23 9244   6.734   1.005   4.765 -0.1729  0.4489 -0.4395
 1851poe     o2 9245   6.752   1.132   4.706  0.5812  0.4839 -0.1416
 1851poe    c23 9246   6.760   1.237   4.800  0.0771  0.1874  0.2420
 1851poe    c23 9247   6.764   1.384   4.752  0.2058  0.1677  0.1915
 1851poe     o2 9248   6.633   1.415   4.711  0.2005 -0.0081  0.0723
 1851poe    c23 9249   6.606   1.551   4.735  0.0983  0.0135 -0.1618
 1851poe    c23 9250   6.458   1.592   4.725  0.1649  0.2550 -0.1768
 1851poe     o2 9251   6.399   1.603   4.597 -0.3565 -0.0972  0.0295
 1851poe    c31 9252   6.267   1.653   4.595 -0.3130  0.0349  0.3718
 1852poe    c31 9253   3.519   6.085   2.862  0.2838 -0.0842 -0.6091
 1852poe     o2 9254   3.508   6.216   2.912 -0.9884 -0.4333  0.0869
 1852poe    c23 9255   3.528   6.209   3.051  0.0582  0.6837  0.0140
 1852poe    c23 9256   3.510   6.341   3.127  0.1954  0.2735  0.7739
 1852poe     o2 9257   3.609   6.431   3.081  0.0641 -0.1708 -0.3937
 1852poe    c23 9258   3.592   6.548   3.157  0.4127 -0.4046  0.0473
 1852poe    c23 9259   3.673   6.673   3.118  0.2517 -0.1236  0.5965
 1852poe     o2 9260   3.633   6.704   2.986  0.0517  0.2597  0.7447
 1852poe    c23 9261   3.732   6.781   2.923 -0.1778 -0.0487 -0.0058
 1852poe    c23 9262   3.737   6.788   2.769  0.1046 -0.1038 -0.0006
 1852poe     o2 9263   3.781   6.664   2.719  0.5349  0.0100  0.0923
 1852poe    c31 9264   3.839   6.685   2.592 -0.2641 -0.6675 -0.3917
 1853poe    c31 9265   5.824   4.409   1.553 -0.8546  0.1965 -0.5724
 1853poe     o2 9266   5.913   4.403   1.444  0.0225 -0.8983  0.1843
 1853poe    c23 9267   5.841   4.389   1.323 -0.0538 -0.0584  0.1238
 1853poe    c23 9268   5.938   4.342   1.214 -0.0073 -0.3293  0.2794
 1853poe     o2 9269   6.053   4.421   1.190 -0.4072  0.2319  0.2041
 1853poe    c23 9270   6.093   4.407   1.056 -0.4869  0.9218  0.1029
 1853poe    c23 9271   6.218   4.495   1.036  0.1504  0.1147  0.4314
 1853poe     o2 9272   6.315   4.448   1.126  0.3592 -0.5289 -0.1199
 1853poe    c23 9273   6.424   4.537   1.134 -0.2787  0.2271  0.3592
 1853poe    c23 9274   6.499   4.493   1.261  0.2516 -0.0170 -0.0340
 1853poe     o2 9275   6.402   4.485   1.364 -0.2606 -0.0790 -0.5136
 1853poe    c31 9276   6.466   4.479   1.490 -0.2082  0.6885 -0.5020
 1854poe    c31 9277   5.984   1.781   1.019 -0.1415  0.3959 -0.2989
 1854poe     o2 9278   5.900   1.722   1.115  0.0318  0.0589 -0.3496
 1854poe    c23 9279   5.965   1.618   1.184 -0.0841  0.3517  0.2083
 1854poe    c23 9280   5.881   1.583   1.309 -0.0486  0.5270  0.2820
 1854poe     o2 9281   5.749   1.562   1.265  0.0134  0.0964  0.2977
 1854poe    c23 9282   5.667   1.489   1.354 -0.6913  0.0987 -0.3379
 1854poe    c23 9283   5.520   1.495   1.308 -0.9019 -0.5199  0.2441
 1854poe     o2 9284   5.517   1.634   1.286 -0.4556 -0.4958  0.3246
 1854poe    c23 9285   5.383   1.676   1.284 -0.2923  0.0129 -0.3602
 1854poe    c23 9286   5.360   1.825   1.316  0.3273  0.1147 -0.3765
 1854poe     o2 9287   5.432   1.920   1.240  0.7935  0.0245 -0.0492
 1854poe    c31 9288   5.425   2.050   1.294 -0.1036  0.1026 -0.3278
 1855poe    c31 9289   1.114   6.388   6.470 -0.0936 -0.1767 -0.0449
 1855poe     o2 9290   0.983   6.336   6.469 -0.2856  0.3175 -0.6612
 1855poe    c23 9291   0.980   6.196   6.456 -0.1129  0.2180  0.2799
 1855poe    c23 9292   0.832   6.159   6.482 -0.2689  0.1399 -0.6461
 1855poe     o2 9293   0.753   6.250   6.410  0.1420  0.6396 -0.4769
 1855poe    c23 9294   0.634   6.188   6.366  0.3815 -0.2319  0.0844
 1855poe    c23 9295   0.514   6.257   6.434 -0.2022 -0.3843 -0.7758
 1855poe     o2 9296   0.523   6.396   6.412  0.0944 -0.3287 -0.3215
 1855poe    c23 9297   0.425   6.483   6.463  0.3470 -0.0544 -0.3024
 1855poe    c23 9298   0.445   6.632   6.429 -0.4697  0.3000  0.7359
 1855poe     o2 9299   0.542   6.693   6.511  0.4630 -0.1917  0.0054
 1855poe    c31 9300   0.558   6.823   6.458 -0.1801 -0.1340 -0.0469
 1856poe    c31 9301   4.550   3.099   0.075  0.3378 -0.0616 -0.2763
 1856poe     o2 9302   4.682   3.050   0.070  0.2690 -0.2420 -0.3449
 1856poe    c23 9303   4.773   3.157   0.085 -0.0255  0.0353 -0.5283
 1856poe    c23 9304   4.911   3.090   0.099 -0.0378  0.1638  0.2471
 1856poe     o2 9305   4.912   2.981   0.009  0.5209  0.1656  0.2451
 1856poe    c23 9306   5.041   2.926   0.011  0.4522 -0.0096 -0.0487
 1856poe    c23 9307   5.060   2.824  -0.103  0.3424  0.0423 -0.1129
 1856poe     o2 9308   4.959   2.726  -0.101  0.3327  0.0491 -0.2586
 1856poe    c23 9309   4.972   2.617  -0.190 -0.1108 -0.0615 -0.1901
 1856poe    c23 9310   4.920   2.637  -0.333  0.0607 -0.7249 -0.3481
 1856poe     o2 9311   4.781   2.659  -0.349  0.0561 -0.5597 -0.0884
 1856poe    c31 9312   4.762   2.647  -0.488  0.0094 -0.5543 -0.0819
 1857poe    c31 9313   5.734   2.603   1.680 -0.7405 -0.4579  0.1589
 1857poe     o2 9314   5.620   2.632   1.601 -0.0550  0.6473 -0.4493
 1857poe    c23 9315   5.614   2.580   1.471  0.0905 -0.7328  0.0775
 1857poe    c23 9316   5.502   2.646   1.389  0.2978 -0.5035 -0.0234
 1857poe     o2 9317   5.373   2.603   1.427  0.1103  0.0803  0.0088
 1857poe    c23 9318   5.330   2.495   1.347  0.1601 -0.2478  0.4230
 1857poe    c23 9319   5.183   2.474   1.388  0.0656 -0.8005 -0.1832
 1857poe     o2 9320   5.190   2.459   1.528 -0.2753  0.5693 -0.0123
 1857poe    c23 9321   5.064   2.453   1.591 -0.2262 -0.2711  0.0103
 1857poe    c23 9322   5.076   2.487   1.740 -0.2675 -0.0053 -0.0472
 1857poe     o2 9323   5.136   2.615   1.733  0.2425 -0.2358  0.0372
 1857poe    c31 9324   5.084   2.692   1.840 -0.1973  0.0407 -0.3711
 1858poe    c31 9325   2.437   3.659   4.430  0.1948  0.3565  0.5925
 1858poe     o2 9326   2.550   3.715   4.368 -0.1957 -0.1749 -0.6273
 1858poe    c23 9327   2.649   3.615   4.359 -0.1169 -0.1501 -0.0294
 1858poe    c23 9328   2.796   3.660   4.354 -0.0652 -0.2994  0.1139
 1858poe     o2 9329   2.852   3.722   4.469 -0.1580 -0.0798  0.0415
 1858poe    c23 9330   2.992   3.730   4.464 -0.2446  1.1487 -0.7323
 1858poe    c23 9331   3.039   3.775   4.604 -0.3057 -0.0438 -0.3183
 1858poe     o2 9332   2.950   3.878   4.641 -0.5553 -0.4841  0.3157
 1858poe    c23 9333   2.983   3.956   4.753 -0.2066 -0.0723 -0.0723
 1858poe    c23 9334   2.874   4.061   4.779 -0.1206 -0.0095  0.0356
 1858poe     o2 9335   2.746   4.002   4.771 -0.0465 -0.1558 -0.0801
 1858poe    c31 9336   2.644   4.085   4.822 -0.4779 -0.5985 -0.2120
 1859poe    c31 9337   1.607   1.483   0.257 -0.4226 -0.1246 -0.2441
 1859poe     o2 9338   1.712   1.425   0.182 -0.3129 -0.0195 -0.1726
 1859poe    c23 9339   1.728   1.285   0.192  0.5115  0.0480 -0.4704
 1859poe    c23 9340   1.833   1.233   0.092  0.0696 -0.1005 -0.8581
 1859poe     o2 9341   1.960   1.267   0.142  0.0150 -0.4487 -0.4731
 1859poe    c23 9342   2.058   1.235   0.046  0.1075 -0.0224 -0.5218
 1859poe    c23 9343   2.188   1.318   0.057 -0.0409  0.1986 -0.4284
 1859poe     o2 9344   2.166   1.456   0.039  0.1130  0.2270 -0.3928
 1859poe    c23 9345   2.285   1.531   0.056  0.0365  0.3557 -0.4253
 1859poe    c23 9346   2.238   1.677   0.061  0.0407  0.3358  0.1902
 1859poe     o2 9347   2.120   1.688   0.139 -0.2592 -0.3160 -0.1626
 1859poe    c31 9348   2.104   1.827   0.159  0.0164 -0.2032 -0.7105
 1860poe    c31 9349   0.320   0.822   4.200 -0.0166 -0.4219  0.1031
 1860poe     o2 9350   0.254   0.832   4.324 -0.3205  0.1513 -0.1010
 1860poe    c23 9351   0.127   0.889   4.301 -0.2471  0.3949  0.0941
 1860poe    c23 9352   0.055   0.922   4.433  0.1855 -0.1224  0.4663
 1860poe     o2 9353   0.098   1.045   4.487  0.4185 -0.0778  0.1751
 1860poe    c23 9354   0.088   1.056   4.627  0.3957 -0.4242  0.2018
 1860poe    c23 9355   0.208   1.138   4.679  0.2933 -0.1592  0.0243
 1860poe     o2 9356   0.328   1.067   4.658  0.4135  0.1735 -0.4115
 1860poe    c23 9357   0.440   1.152   4.671  0.2447  0.2934  0.2882
 1860poe    c23 9358   0.565   1.086   4.731  0.3241  0.4797  0.3289
 1860poe     o2 9359   0.606   0.976   4.652 -0.5169  0.1234  0.3732
 1860poe    c31 9360   0.706   0.900   4.716 -0.1509  0.1182 -0.2011
 1861poe    c31 9361   2.914   4.243   4.403  0.4805 -0.0366 -0.5203
 1861poe     o2 9362   3.004   4.341   4.357  0.1192  0.4692 -0.1604
 1861poe    c23 9363   2.946   4.467   4.332  0.1146  0.4458 -0.2728
 1861poe    c23 9364   3.049   4.579   4.358  0.1562  0.2713  0.3223
 1861poe     o2 9365   3.142   4.582   4.252 -0.9246 -0.1898 -0.6666
 1861poe    c23 9366   3.184   4.715   4.232  0.1825 -0.4247  0.0366
 1861poe    c23 9367   3.275   4.695   4.109  0.1023  0.2546 -0.1363
 1861poe     o2 9368   3.365   4.587   4.109  0.2099  0.3439 -0.0447
 1861poe    c23 9369   3.471   4.582   4.016 -0.1362 -0.1667 -0.4166
 1861poe    c23 9370   3.567   4.473   4.067  0.0928  0.1180 -0.2355
 1861poe     o2 9371   3.478   4.371   4.109  0.2480 -0.0613 -0.3438
 1861poe    c31 9372   3.556   4.263   4.156  0.8621  0.4310 -0.2144
 1862poe    c31 9373   0.807   3.564   5.561  0.4503 -0.3122 -0.1465
 1862poe     o2 9374   0.855   3.614   5.438  0.4506 -0.4000 -0.1819
 1862poe    c23 9375   0.912   3.740   5.464  0.3287 -0.3771 -0.0242
 1862poe    c23 9376   1.009   3.807   5.365 -0.1167  0.2049 -0.0705
 1862poe     o2 9377   0.942   3.815   5.241 -0.2028  0.1316 -0.0284
 1862poe    c23 9378   1.013   3.909   5.164  0.4167 -0.1017  0.2471
 1862poe    c23 9379   0.970   3.906   5.016  0.5491 -0.1843  0.2100
 1862poe     o2 9380   0.987   3.780   4.956 -0.4356 -0.1039 -0.2577
 1862poe    c23 9381   1.004   3.803   4.818  0.8809  0.2711 -0.0470
 1862poe    c23 9382   1.085   3.683   4.767  0.3759  0.2914 -0.9267
 1862poe     o2 9383   1.223   3.681   4.799  0.2182 -0.0756 -0.2486
 1862poe    c31 9384   1.301   3.584   4.734 -0.4267 -0.6955 -0.1162
 1863poe    c31 9385   6.969   6.511   3.902  0.3079  0.2447 -0.5147
 1863poe     o2 9386   6.963   6.409   3.999 -0.1691  0.2078 -0.5841
 1863poe    c23 9387   6.851   6.324   3.983 -0.0625 -0.0840  0.2138
 1863poe    c23 9388   6.903   6.187   4.030 -0.0142 -0.2393 -0.2891
 1863poe     o2 9389   6.951   6.231   4.155 -0.2135 -0.3662 -0.1671
 1863poe    c23 9390   6.998   6.123   4.232  0.0010 -0.0175  0.1963
 1863poe    c23 9391   7.059   6.183   4.360 -0.3994 -0.1718  0.4597
 1863poe     o2 9392   7.147   6.289   4.332 -0.3792 -0.3068  0.0079
 1863poe    c23 9393   7.254   6.303   4.423 -0.4713 -0.2355  0.1040
 1863poe    c23 9394   7.345   6.425   4.403 -0.5200 -0.2229 -0.0445
 1863poe     o2 9395   7.276   6.545   4.428 -0.3967 -0.2412  0.3939
 1863poe    c31 9396   7.365   6.646   4.472  0.0660 -0.2795 -0.4474
 1864poe    c31 9397   0.161   5.299   1.289 -0.5111 -0.3669  0.2255
 1864poe     o2 9398   0.079   5.211   1.215 -0.4889  0.0053 -0.2507
 1864poe    c23 9399   0.139   5.164   1.097 -0.3170  0.1027 -0.2034
 1864poe    c23 9400   0.040   5.065   1.032  0.1115 -0.4085 -0.0901
 1864poe     o2 9401   0.040   4.942   1.100 -0.0212 -0.2045  0.2776
 1864poe    c23 9402  -0.075   4.863   1.077  0.1974 -0.2334 -0.7704
 1864poe    c23 9403  -0.048   4.725   1.140 -0.7590 -0.2264 -0.3338
 1864poe     o2 9404   0.077   4.682   1.091 -0.6136  0.0020 -0.1677
 1864poe    c23 9405   0.101   4.549   1.133 -0.2635 -0.0432 -0.5089
 1864poe    c23 9406   0.251   4.522   1.114  0.0088  0.7981  0.3464
 1864poe     o2 9407   0.321   4.628   1.174  0.4826  0.1782  0.8954
 1864poe    c31 9408   0.460   4.605   1.164  0.4094 -0.0976  0.4623
 1865poe    c31 9409   3.313   3.593   1.048  0.5709  0.6359  0.3259
 1865poe     o2 9410   3.283   3.694   1.142 -0.2142  0.5365  0.1840
 1865poe    c23 9411   3.165   3.644   1.201  0.2229 -0.1484  0.4886
 1865poe    c23 9412   3.086   3.760   1.264  0.8051  0.3254  0.3574
 1865poe     o2 9413   3.089   3.872   1.178 -0.0115  0.0740 -0.0122
 1865poe    c23 9414   3.076   3.996   1.243 -0.6877  0.0614 -0.1249
 1865poe    c23 9415   3.097   4.118   1.151 -0.2101 -0.3919 -0.6236
 1865poe     o2 9416   3.228   4.151   1.112  0.0226 -0.6666 -0.0919
 1865poe    c23 9417   3.232   4.267   1.033 -0.0063 -0.3353  0.3915
 1865poe    c23 9418   3.369   4.327   0.997 -0.3049 -0.0641 -0.3170
 1865poe     o2 9419   3.463   4.240   0.940  0.1027  0.2241 -0.0926
 1865poe    c31 9420   3.526   4.283   0.821  0.6546 -0.3303 -0.0113
 1866poe    c31 9421   3.315   4.242   2.824 -0.1930 -0.1602 -0.1338
 1866poe     o2 9422   3.328   4.383   2.821  0.2084 -0.2010 -0.3106
 1866poe    c23 9423   3.227   4.440   2.901  0.2893 -0.1548 -0.2415
 1866poe    c23 9424   3.222   4.587   2.856 -0.4525 -0.1084 -0.0140
 1866poe     o2 9425   3.329   4.656   2.917 -0.3259 -0.5153  0.2248
 1866poe    c23 9426   3.354   4.788   2.877  0.2765 -0.4477  0.8126
 1866poe    c23 9427   3.453   4.848   2.979  0.0035  0.5065  0.5266
 1866poe     o2 9428   3.563   4.761   2.992 -0.1811  0.2379  0.2999
 1866poe    c23 9429   3.664   4.799   3.083  0.3846  0.2120 -0.3111
 1866poe    c23 9430   3.791   4.713   3.068  0.2287  0.0540 -0.7496
 1866poe     o2 9431   3.750   4.583   3.104  0.0624  0.3527  0.1799
 1866poe    c31 9432   3.869   4.521   3.146 -0.1142 -0.2582 -0.2140
 1867poe    c31 9433   4.427   5.340   1.178  0.4113  0.1291  0.2120
 1867poe     o2 9434   4.339   5.284   1.272  0.1575 -0.5788 -0.4424
 1867poe    c23 9435   4.204   5.324   1.262  0.4346  0.4147 -0.2939
 1867poe    c23 9436   4.107   5.263   1.365  0.0796  0.1553 -0.7766
 1867poe     o2 9437   4.092   5.124   1.347  0.1073  0.0421  0.0109
 1867poe    c23 9438   4.001   5.073   1.442  0.1096 -0.1532 -0.0906
 1867poe    c23 9439   3.985   4.920   1.433 -0.0569 -0.1852  0.7121
 1867poe     o2 9440   4.115   4.866   1.442  0.0508 -0.0620 -0.0426
 1867poe    c23 9441   4.111   4.725   1.445  0.3927 -0.0698  0.1267
 1867poe    c23 9442   4.257   4.681   1.426  0.3838 -0.0274 -0.0363
 1867poe     o2 9443   4.338   4.770   1.352 -0.2259  0.4348 -0.1562
 1867poe    c31 9444   4.423   4.694   1.270 -0.5737  0.2657 -0.3649
 1868poe    c31 9445   6.180   6.116   0.827 -0.1931 -0.1987 -0.9482
 1868poe     o2 9446   6.203   5.982   0.791 -0.3291 -0.4335 -0.1851
 1868poe    c23 9447   6.302   5.965   0.691 -0.0579  1.1502 -0.2137
 1868poe    c23 9448   6.453   5.962   0.722 -0.2296  0.5855  0.6077
 1868poe     o2 9449   6.501   5.860   0.807 -0.0830  0.3264  0.2160
 1868poe    c23 9450   6.641   5.867   0.809 -0.0534 -0.0479 -0.3180
 1868poe    c23 9451   6.704   5.763   0.903 -0.0777  0.3455  0.1418
 1868poe     o2 9452   6.679   5.631   0.859 -0.2264  0.4590 -0.1170
 1868poe    c23 9453   6.761   5.538   0.926 -0.5261  0.3483  0.0963
 1868poe    c23 9454   6.751   5.402   0.854  0.1828  0.3555 -0.0298
 1868poe     o2 9455   6.616   5.361   0.848  0.2462  0.1279  0.0899
 1868poe    c31 9456   6.613   5.221   0.833  0.0446  0.0665  0.7063
 1869poe    c31 9457   5.670   6.285   2.340 -0.1347  0.2227  0.3361
 1869poe     o2 9458   5.764   6.322   2.242 -0.5346  0.1908 -0.0591
 1869poe    c23 9459   5.891   6.263   2.255 -0.7321 -0.1556  0.2960
 1869poe    c23 9460   5.909   6.169   2.134  0.5363  0.3732  0.0653
 1869poe     o2 9461   5.904   6.268   2.033  0.0241 -0.0949 -0.3703
 1869poe    c23 9462   5.911   6.220   1.901 -0.2523  0.0023 -0.4204
 1869poe    c23 9463   5.910   6.348   1.815  0.2783  0.1913 -0.1531
 1869poe     o2 9464   5.804   6.433   1.853  0.1811 -0.0643  0.1444
 1869poe    c23 9465   5.767   6.516   1.746 -0.1775 -0.3966  0.0062
 1869poe    c23 9466   5.641   6.597   1.782 -0.0855 -0.0425 -0.4453
 1869poe     o2 9467   5.528   6.521   1.819  0.0124 -0.1001 -0.2636
 1869poe    c31 9468   5.421   6.607   1.852  0.1260 -0.2866  0.6107
 1870poe    c31 9469   5.578   2.595   5.216 -0.0300  0.0566  0.0430
 1870poe     o2 9470   5.589   2.717   5.285  0.4657 -0.0968  0.2390
 1870poe    c23 9471   5.473   2.764   5.350  0.4831  0.0885  0.1361
 1870poe    c23 9472   5.495   2.881   5.448 -0.2439 -0.0764  0.5054
 1870poe     o2 9473   5.577   2.958   5.363 -0.5118  0.0174  0.3330
 1870poe    c23 9474   5.631   3.070   5.429 -0.1606  0.1556 -0.1799
 1870poe    c23 9475   5.686   3.152   5.310  0.2246  0.4282  0.1845
 1870poe     o2 9476   5.776   3.070   5.240 -0.3767 -0.0092 -0.0877
 1870poe    c23 9477   5.873   3.151   5.176  0.1852 -0.5455  0.0738
 1870poe    c23 9478   5.975   3.062   5.103  0.3554  0.1232 -0.5068
 1870poe     o2 9479   5.910   2.971   5.017  0.0568 -0.1915  0.0518
 1870poe    c31 9480   5.987   2.892   4.929  0.0387 -0.3254  0.1549
 1871poe    c31 9481   3.835   1.165   4.380  0.4034  0.2823  0.0155
 1871poe     o2 9482   3.958   1.098   4.364  0.1320 -0.1710 -0.1788
 1871poe    c23 9483   4.027   1.158   4.256  0.0648 -0.5236 -0.4173
 1871poe    c23 9484   4.158   1.081   4.230  0.4193 -0.0478 -0.0399
 1871poe     o2 9485   4.152   0.943   4.205  0.3628 -0.0566  0.0225
 1871poe    c23 9486   4.286   0.901   4.196  0.4410  0.1175  0.3767
 1871poe    c23 9487   4.276   0.773   4.111  0.0355  0.2642  0.2010
 1871poe     o2 9488   4.173   0.701   4.175  0.3704 -0.1658  0.2595
 1871poe    c23 9489   4.145   0.581   4.107  0.3982  0.1544 -0.3275
 1871poe    c23 9490   4.004   0.535   4.150  0.2933  0.2248 -0.5964
 1871poe     o2 9491   3.923   0.646   4.183  0.5302  0.0520  0.6298
 1871poe    c31 9492   3.807   0.592   4.243  0.0198  0.1883 -0.2129
 1872poe    c31 9493   6.769   3.365   0.021 -0.4739 -0.3944  0.2405
 1872poe     o2 9494   6.814   3.286  -0.087  0.1478  0.1786  0.0742
 1872poe    c23 9495   6.952   3.259  -0.093  0.0256 -0.3387 -0.4084
 1872poe    c23 9496   6.975   3.118  -0.036  0.1617  0.1803  0.8526
 1872poe     o2 9497   6.894   3.016  -0.090  0.4506  0.2969  0.1921
 1872poe    c23 9498   6.944   2.886  -0.068 -0.0679  0.0247 -0.1946
 1872poe    c23 9499   6.858   2.771  -0.123 -0.5806  0.2643  0.1006
 1872poe     o2 9500   6.733   2.756  -0.059 -0.7941  0.8015 -0.1871
 1872poe    c23 9501   6.667   2.673  -0.151 -0.1211  0.2250 -0.1504
 1872poe    c23 9502   6.515   2.691  -0.157 -0.1456  0.1838  0.3431
 1872poe     o2 9503   6.499   2.830  -0.176  0.5004  0.2960  0.5900
 1872poe    c31 9504   6.364   2.870  -0.165  0.4814  0.2866  0.3920
 1873poe    c31 9505   5.713   4.558   4.810  0.0583  0.6453 -0.2607
 1873poe     o2 9506   5.682   4.466   4.912 -0.0152  0.3624 -0.5388
 1873poe    c23 9507   5.729   4.338   4.878  0.8707  0.4207  0.4335
 1873poe    c23 9508   5.719   4.239   4.996  0.0196  0.1654  0.1525
 1873poe     o2 9509   5.589   4.208   5.039  0.0037 -0.0395 -0.0410
 1873poe    c23 9510   5.578   4.090   5.116 -0.1780 -0.2702 -0.4156
 1873poe    c23 9511   5.542   4.103   5.265  0.3049  0.3865 -0.3514
 1873poe     o2 9512   5.428   4.185   5.262 -0.0212 -0.0563 -0.2046
 1873poe    c23 9513   5.367   4.208   5.387  0.0408  0.0492 -0.1941
 1873poe    c23 9514   5.237   4.285   5.354 -0.1620 -0.0605  0.3402
 1873poe     o2 9515   5.262   4.363   5.240  0.0531  0.3201  0.6427
 1873poe    c31 9516   5.149   4.448   5.230  0.1089  0.3349  0.0774
 1874poe    c31 9517   0.650   6.759   5.108  0.4898  0.4321 -0.2730
 1874poe     o2 9518   0.682   6.650   5.025 -0.4388 -0.0347 -0.0277
 1874poe    c23 9519   0.718   6.542   5.109 -0.7151  0.1857  0.3771
 1874poe    c23 9520   0.737   6.408   5.036  0.3677  0.4546  0.1598
 1874poe     o2 9521   0.820   6.429   4.923 -0.4444 -0.2432 -0.5820
 1874poe    c23 9522   0.826   6.323   4.831  0.2211 -0.3515 -0.4199
 1874poe    c23 9523   0.924   6.355   4.717  0.2844  0.2061 -0.2107
 1874poe     o2 9524   0.910   6.479   4.652 -0.5028  0.3756  0.2704
 1874poe    c23 9525   1.008   6.504   4.553 -0.3991  0.0372  0.2856
 1874poe    c23 9526   0.933   6.574   4.438  0.5204  0.4995 -0.0466
 1874poe     o2 9527   0.849   6.668   4.501  0.1942  0.2522 -0.1089
 1874poe    c31 9528   0.804   6.773   4.418 -0.0534  0.2699  0.0453
 1875poe    c31 9529   0.605   6.642   3.485 -0.0980 -0.0377  0.1719
 1875poe     o2 9530   0.621   6.782   3.496 -0.3099 -0.0049  0.0700
 1875poe    c23 9531   0.528   6.837   3.406 -0.2845 -0.2921 -0.1346
 1875poe    c23 9532   0.489   6.981   3.444  0.1781 -0.2521  0.1990
 1875poe     o2 9533   0.602   7.053   3.487 -0.0129 -0.4105  0.9885
 1875poe    c23 9534   0.582   7.185   3.531 -0.6882 -0.2701  0.2881
 1875poe    c23 9535   0.708   7.240   3.601 -0.5810 -0.0144 -0.1026
 1875poe     o2 9536   0.753   7.173   3.716  0.1024  0.4499 -0.0941
 1875poe    c23 9537   0.878   7.222   3.760  0.1168  0.0433  0.3414
 1875poe    c23 9538   0.943   7.126   3.860  0.6374 -0.2232 -0.2454
 1875poe     o2 9539   0.968   7.001   3.799 -0.4944 -0.3645 -0.4451
 1875poe    c31 9540   1.022   6.907   3.889  0.2556 -0.4441 -0.9705
 1876poe    c31 9541   5.453   3.296   3.100  0.4755  0.3552 -0.3228
 1876poe     o2 9542   5.400   3.179   3.042  0.6090  0.1200  0.0268
 1876poe    c23 9543   5.378   3.197   2.904 -0.0114  0.5807  0.1840
 1876poe    c23 9544   5.284   3.096   2.836  0.3846  0.0919  0.3586
 1876poe     o2 9545   5.323   2.961   2.847 -0.3349 -0.1421  0.1305
 1876poe    c23 9546   5.221   2.872   2.808 -0.4976 -0.1617  0.6039
 1876poe    c23 9547   5.238   2.729   2.865 -0.3760 -0.3034  0.2111
 1876poe     o2 9548   5.252   2.737   3.005  0.5829 -0.0659  0.1095
 1876poe    c23 9549   5.218   2.625   3.084 -0.4148  0.1474 -0.0110
 1876poe    c23 9550   5.070   2.589   3.105 -0.3781 -0.0684 -0.1270
 1876poe     o2 9551   5.011   2.665   3.208 -0.1501  0.0740 -0.1021
 1876poe    c31 9552   4.871   2.650   3.216 -0.1002 -0.4917 -0.2620
 1877poe    c31 9553   5.797   5.344   3.267  0.2557 -0.2664 -0.5953
 1877poe     o2 9554   5.866   5.236   3.207 -0.0892 -0.4471 -0.6728
 1877poe    c23 9555   5.848   5.256   3.069 -0.3034  0.7043 -0.4902
 1877poe    c23 9556   5.913   5.148   2.980  0.0310  0.0902  0.4852
 1877poe     o2 9557   5.862   5.021   3.013 -0.6530  0.1889 -0.1388
 1877poe    c23 9558   5.912   4.926   2.921  0.0904  0.2495  0.1924
 1877poe    c23 9559   5.857   4.791   2.970  0.0283  0.3125  0.2975
 1877poe     o2 9560   5.725   4.808   3.019  0.1250  0.5183  0.4877
 1877poe    c23 9561   5.678   4.683   3.063  0.3946  0.0886 -0.4140
 1877poe    c23 9562   5.538   4.698   3.126  0.3023 -0.3053 -0.5242
 1877poe     o2 9563   5.544   4.829   3.178 -0.1402 -0.6445  0.4068
 1877poe    c31 9564   5.421   4.882   3.220 -0.0149  0.1750 -0.2268
 1878poe    c31 9565   3.587   4.988   2.585 -0.2793  0.1063 -0.9058
 1878poe     o2 9566   3.563   4.852   2.554 -0.4063 -0.1064  0.1033
 1878poe    c23 9567   3.689   4.789   2.548 -0.2687  0.2041 -0.3846
 1878poe    c23 9568   3.677   4.652   2.478  0.0252 -0.2223  0.3863
 1878poe     o2 9569   3.584   4.564   2.536  0.1630 -0.1713  0.6866
 1878poe    c23 9570   3.573   4.448   2.457 -0.3397  0.3655 -0.0380
 1878poe    c23 9571   3.436   4.379   2.467 -0.0888 -0.2067 -0.4723
 1878poe     o2 9572   3.347   4.462   2.397 -0.1350  0.0043 -0.1635
 1878poe    c23 9573   3.218   4.405   2.395 -0.3131  0.3999 -0.0479
 1878poe    c23 9574   3.156   4.481   2.276  0.2742  0.5044 -0.2885
 1878poe     o2 9575   3.181   4.620   2.281  0.5744  0.4371  0.1728
 1878poe    c31 9576   3.102   4.682   2.182  0.4539 -0.3589 -0.2404
 1879poe    c31 9577   0.540   0.917   1.153 -0.3887 -0.3147  0.2447
 1879poe     o2 9578   0.461   0.874   1.044  0.0817  0.0501 -0.2391
 1879poe    c23 9579   0.558   0.833   0.950  0.5273  0.1884  0.1562
 1879poe    c23 9580   0.492   0.767   0.828  0.4854  0.2932  0.1224
 1879poe     o2 9581   0.383   0.844   0.783  0.1457 -0.2292  0.0307
 1879poe    c23 9582   0.310   0.785   0.678  0.3686 -0.5430  0.0503
 1879poe    c23 9583   0.194   0.884   0.653  0.7468 -0.1099  0.0058
 1879poe     o2 9584   0.125   0.900   0.774  0.6259  0.3126 -0.1172
 1879poe    c23 9585   0.012   0.984   0.759  0.0408 -0.4798 -0.2205
 1879poe    c23 9586  -0.074   0.990   0.886  0.1921  0.1817 -0.1435
 1879poe     o2 9587  -0.002   1.050   0.991  0.0391  0.4823 -0.2081
 1879poe    c31 9588  -0.086   1.084   1.100 -0.1285 -0.0199 -0.1777
 1880poe    c31 9589   1.446   0.207   6.771  0.1825 -0.1376 -0.0877
 1880poe     o2 9590   1.518   0.213   6.650  0.3960  0.1023  0.0489
 1880poe    c23 9591   1.482   0.329   6.578 -0.4937 -0.5081 -0.5151
 1880poe    c23 9592   1.559   0.337   6.445  0.2950 -0.0519 -0.0358
 1880poe     o2 9593   1.563   0.205   6.396  0.0740 -0.0705 -0.0050
 1880poe    c23 9594   1.657   0.200   6.291  0.2496 -0.0784  0.1503
 1880poe    c23 9595   1.652   0.056   6.235 -0.2918  0.0146 -0.0476
 1880poe     o2 9596   1.671  -0.044   6.332 -0.2744  0.3194  0.2632
 1880poe    c23 9597   1.668  -0.173   6.275 -0.3046  0.2343  0.4550
 1880poe    c23 9598   1.656  -0.285   6.379 -0.2794 -0.0887  0.1114
 1880poe     o2 9599   1.541  -0.268   6.459 -0.3139 -0.2641  0.1007
 1880poe    c31 9600   1.524  -0.374   6.550 -0.1597 -0.3195  0.0661
 1881poe    c31 9601   2.262   3.026   5.234 -0.4496 -0.7787 -0.2958
 1881poe     o2 9602   2.230   3.081   5.360  0.3139 -0.0447 -0.4088
 1881poe    c23 9603   2.275   2.984   5.452 -0.2571  0.1706  0.0992
 1881poe    c23 9604   2.273   3.034   5.598  0.3525  0.3128  0.0612
 1881poe     o2 9605   2.140   3.049   5.642  0.2031  0.4031 -0.4152
 1881poe    c23 9606   2.147   3.117   5.765  0.6737 -0.8883  0.2896
 1881poe    c23 9607   2.015   3.102   5.843  0.3096 -0.1075 -0.1609
 1881poe     o2 9608   1.909   3.127   5.754  0.1267 -0.4091 -0.0289
 1881poe    c23 9609   1.794   3.069   5.812 -0.2726  0.7720  0.3922
 1881poe    c23 9610   1.693   3.041   5.700  0.2399  0.7595 -0.0711
 1881poe     o2 9611   1.760   2.986   5.588  0.0600  0.2173  0.0802
 1881poe    c31 9612   1.667   2.911   5.514 -0.1506  0.4798  0.0727
 1882poe    c31 9613   0.028   5.462   5.105 -0.3073  0.4214 -0.1862
 1882poe     o2 9614   0.078   5.523   4.988  0.4283  0.0826 -0.0546
 1882poe    c23 9615   0.062   5.663   4.991 -0.0692  0.0279 -0.1630
 1882poe    c23 9616   0.119   5.717   4.859  0.7457  0.0245  0.1835
 1882poe     o2 9617   0.095   5.635   4.747  0.5256  0.2073  0.0948
 1882poe    c23 9618   0.119   5.702   4.626 -0.2585  0.4634  0.0771
 1882poe    c23 9619   0.103   5.614   4.501  0.3568  0.2223  0.1620
 1882poe     o2 9620   0.146   5.486   4.538 -0.0453 -0.0768 -0.3750
 1882poe    c23 9621   0.121   5.392   4.437  0.0129  0.1034 -0.5563
 1882poe    c23 9622   0.180   5.251   4.453 -0.2082  0.0477 -0.2193
 1882poe     o2 9623   0.129   5.190   4.569 -0.1587  0.0637 -0.1888
 1882poe    c31 9624   0.124   5.052   4.541  0.2036  0.0127 -0.0068
 1883poe    c31 9625   4.737   1.096   2.728  0.0787 -0.5285  0.2597
 1883poe     o2 9626   4.820   1.008   2.655  0.0153 -0.2870 -0.1056
 1883poe    c23 9627   4.958   1.025   2.680 -0.0838 -0.2555  0.4331
 1883poe    c23 9628   5.040   1.012   2.550 -0.5494  0.3373  0.0771
 1883poe     o2 9629   5.023   0.894   2.476  0.0694  0.3397 -0.0719
 1883poe    c23 9630   5.131   0.841   2.403  0.1990  0.0540  0.3253
 1883poe    c23 9631   5.131   0.688   2.386  0.3741  0.0830  0.0564
 1883poe     o2 9632   4.996   0.647   2.394  0.3386  0.3023  0.5480
 1883poe    c23 9633   4.980   0.512   2.359 -0.0091  0.4621  0.0789
 1883poe    c23 9634   4.830   0.481   2.375  0.1863 -0.2045  0.7200
 1883poe     o2 9635   4.756   0.601   2.372 -0.0635 -0.3685 -0.1039
 1883poe    c31 9636   4.619   0.571   2.391 -0.1855  0.2778  0.0672
 1884poe    c31 9637   6.874   0.779   1.972 -0.0352 -0.5535 -0.2826
 1884poe     o2 9638   6.922   0.770   1.840  0.0380  0.3082 -0.3265
 1884poe    c23 9639   6.828   0.812   1.743 -0.2686 -0.2007 -0.2580
 1884poe    c23 9640   6.879   0.755   1.610 -0.0192 -0.2497 -0.1425
 1884poe     o2 9641   6.994   0.832   1.580 -0.1910  0.0458 -0.0461
 1884poe    c23 9642   7.046   0.807   1.452  0.0493  0.0882  0.0420
 1884poe    c23 9643   7.172   0.895   1.450  0.1205 -0.0134  0.0408
 1884poe     o2 9644   7.132   1.029   1.430 -0.1307 -0.1689 -0.5124
 1884poe    c23 9645   7.238   1.101   1.372 -0.4219  0.2476 -0.5337
 1884poe    c23 9646   7.219   1.247   1.417 -0.4099  0.0306  0.1875
 1884poe     o2 9647   7.259   1.270   1.551  0.2563 -0.0390  0.0028
 1884poe    c31 9648   7.355   1.373   1.550 -0.2423  0.4255 -0.0049
 1885poe    c31 9649   2.474   0.980   3.930  0.1182  0.2972 -0.1135
 1885poe     o2 9650   2.554   1.084   3.981  0.0257  0.3568 -0.0884
 1885poe    c23 9651   2.465   1.171   4.047 -0.5470  0.0788 -0.4862
 1885poe    c23 9652   2.511   1.317   4.027 -0.4811  0.2199  0.6482
 1885poe     o2 9653   2.646   1.327   4.068 -0.3727  0.1053  0.3210
 1885poe    c23 9654   2.676   1.463   4.044  0.4812 -0.2053 -0.4333
 1885poe    c23 9655   2.823   1.500   4.074  0.2436  0.1070  0.3556
 1885poe     o2 9656   2.905   1.418   3.995 -0.0363  0.5207 -0.3783
 1885poe    c23 9657   3.039   1.441   4.032 -0.1101  0.1827  0.1122
 1885poe    c23 9658   3.129   1.331   3.973  0.0052  0.1213  0.3989
 1885poe     o2 9659   3.102   1.202   4.023 -0.4057 -0.1074 -0.3933
 1885poe    c31 9660   3.149   1.099   3.939  0.7104 -0.6385  0.8498
 1886poe    c31 9661   6.661   0.450   2.000  0.1218 -0.0568 -0.2549
 1886poe     o2 9662   6.713   0.396   1.880  0.2035 -0.2857 -0.1182
 1886poe    c23 9663   6.854   0.396   1.879  0.2067  0.5113 -0.1898
 1886poe    c23 9664   6.915   0.393   1.738  0.2593 -0.0943 -0.1553
 1886poe     o2 9665   6.874   0.274   1.673 -0.2295  0.0869 -0.1869
 1886poe    c23 9666   6.901   0.267   1.535  0.4452 -0.5609 -0.0276
 1886poe    c23 9667   6.838   0.140   1.476 -0.5040  0.0554 -0.3574
 1886poe     o2 9668   6.698   0.153   1.462 -0.4491  0.7049 -0.3456
 1886poe    c23 9669   6.643   0.047   1.386  0.3115  0.4866 -0.5999
 1886poe    c23 9670   6.504   0.086   1.334 -0.0071  0.5610  0.2805
 1886poe     o2 9671   6.495   0.152   1.209  0.1923 -0.0851 -0.0768
 1886poe    c31 9672   6.527   0.070   1.098 -0.0425  0.1851 -0.3426
 1887poe    c31 9673   6.830   2.698   5.112 -0.2747 -0.0906  0.1354
 1887poe     o2 9674   6.936   2.770   5.053 -0.5331 -0.1171 -0.3648
 1887poe    c23 9675   7.058   2.736   5.115 -0.1758  0.0320 -0.9720
 1887poe    c23 9676   7.176   2.825   5.073  0.0914  0.0838 -0.1363
 1887poe     o2 9677   7.218   2.767   4.951  0.2028 -0.5265  0.1884
 1887poe    c23 9678   7.348   2.810   4.916 -0.0581 -0.1209 -0.2888
 1887poe    c23 9679   7.381   2.788   4.768  0.1461  0.0583 -0.2708
 1887poe     o2 9680   7.288   2.851   4.682  0.3819  0.3892 -0.2858
 1887poe    c23 9681   7.313   2.843   4.543  0.0155  0.2512 -0.3435
 1887poe    c23 9682   7.176   2.870   4.477 -0.1366  0.4082  0.0302
 1887poe     o2 9683   7.095   2.963   4.544  0.1676  0.1157  0.8223
 1887poe    c31 9684   6.975   2.976   4.470  0.3691  0.1342  0.4997
 1888poe    c31 9685   5.307   4.775   3.942 -0.5995  0.2692 -0.2167
 1888poe     o2 9686   5.331   4.743   3.807  0.0444 -0.1976  0.0054
 1888poe    c23 9687   5.433   4.826   3.756  0.1371 -0.2717  0.0676
 1888poe    c23 9688   5.454   4.789   3.608 -0.1256 -0.2060  0.0139
 1888poe     o2 9689   5.493   4.654   3.614  0.3275 -0.0960 -0.3684
 1888poe    c23 9690   5.538   4.599   3.492  0.2420  0.1615 -0.5182
 1888poe    c23 9691   5.584   4.455   3.522  0.3936  0.3621  0.2502
 1888poe     o2 9692   5.489   4.408   3.615  0.3298  0.5781  0.2943
 1888poe    c23 9693   5.504   4.268   3.618  0.2414  0.5680  0.2593
 1888poe    c23 9694   5.399   4.206   3.712 -0.1300  0.3637 -0.2805
 1888poe     o2 9695   5.423   4.265   3.838  0.4113 -0.1219 -0.1474
 1888poe    c31 9696   5.313   4.230   3.918  0.5372 -0.0506  0.0569
 1889poe    c31 9697   4.275   5.690   6.319  0.6670  0.1344 -0.2847
 1889poe     o2 9698   4.210   5.772   6.413  0.0358 -0.4144 -0.2382
 1889poe    c23 9699   4.264   5.783   6.543 -0.1187  0.0409 -0.2098
 1889poe    c23 9700   4.204   5.911   6.603  0.1990 -0.0890  0.3899
 1889poe     o2 9701   4.063   5.912   6.594  0.2084 -0.3628  0.2327
 1889poe    c23 9702   4.022   6.034   6.650  0.0834 -0.2620 -0.0785
 1889poe    c23 9703   3.868   6.038   6.636  0.0872 -0.0280 -0.0519
 1889poe     o2 9704   3.845   5.988   6.506 -0.0297  0.0895 -0.0769
 1889poe    c23 9705   3.723   6.045   6.465 -0.0604 -0.1565 -0.3255
 1889poe    c23 9706   3.677   5.982   6.332 -0.3995  0.2129 -0.3853
 1889poe     o2 9707   3.769   6.001   6.226 -0.1710 -0.0337 -0.2341
 1889poe    c31 9708   3.714   5.960   6.103 -0.1231 -0.0824 -0.2392
 1890poe    c31 9709   2.491   5.508   4.141  0.2833  0.0372  0.2001
 1890poe     o2 9710   2.574   5.592   4.063  0.1404 -0.1513 -0.1553
 1890poe    c23 9711   2.584   5.721   4.118 -0.4134 -0.1082 -0.1513
 1890poe    c23 9712   2.666   5.805   4.019 -0.0454 -0.3082 -0.0168
 1890poe     o2 9713   2.608   5.827   3.893  0.5943  0.5506 -0.1679
 1890poe    c23 9714   2.688   5.913   3.814  0.5653  0.4503 -0.3075
 1890poe    c23 9715   2.635   5.904   3.670 -0.6394  0.3504  0.1310
 1890poe     o2 9716   2.620   5.767   3.641  0.4989  0.3046 -0.2957
 1890poe    c23 9717   2.606   5.761   3.501  0.2972  0.1595 -0.2704
 1890poe    c23 9718   2.639   5.617   3.457 -0.4895  0.0152 -0.4067
 1890poe     o2 9719   2.558   5.533   3.536  0.3784 -0.4127  0.0391
 1890poe    c31 9720   2.553   5.402   3.484  1.2041 -0.3543 -0.2013
 1891poe    c31 9721   0.688   2.935   5.058 -0.0745  0.2076  0.5115
 1891poe     o2 9722   0.738   2.810   5.099 -0.2436 -0.1244 -0.2897
 1891poe    c23 9723   0.658   2.772   5.208 -0.0238  0.1743 -0.0234
 1891poe    c23 9724   0.665   2.619   5.221  0.0853  0.1880  0.0838
 1891poe     o2 9725   0.794   2.565   5.199 -0.0570 -0.0060 -0.2890
 1891poe    c23 9726   0.783   2.427   5.221  0.0630  0.0724  0.2742
 1891poe    c23 9727   0.903   2.355   5.156  0.1982  0.4560  0.0968
 1891poe     o2 9728   0.908   2.374   5.017 -0.3813  0.1400  0.0321
 1891poe    c23 9729   0.996   2.282   4.956  0.0770  0.6062 -0.0105
 1891poe    c23 9730   1.025   2.334   4.814 -0.3551  0.8221 -0.0189
 1891poe     o2 9731   1.112   2.443   4.794  0.0373  0.6336  0.6425
 1891poe    c31 9732   1.114   2.484   4.659  0.9357  0.2607  0.5343
 1892poe    c31 9733   1.827   4.584   6.567  0.2692  0.3516 -0.1066
 1892poe     o2 9734   1.938   4.594   6.480  0.4068  0.1604  0.0472
 1892poe    c23 9735   2.031   4.488   6.482 -0.2686 -0.4336  0.1130
 1892poe    c23 9736   2.115   4.499   6.354  0.2890 -0.0087  0.5097
 1892poe     o2 9737   2.166   4.630   6.343 -0.7291  0.3549 -0.0025
 1892poe    c23 9738   2.257   4.644   6.236 -0.0710 -0.1015  0.4835
 1892poe    c23 9739   2.351   4.764   6.261 -0.0482  0.0518 -0.3127
 1892poe     o2 9740   2.273   4.875   6.300  0.0681 -0.0236  0.1370
 1892poe    c23 9741   2.352   4.990   6.310  0.0131  0.0617 -0.3677
 1892poe    c23 9742   2.276   5.111   6.367 -0.4116 -0.2917 -0.1858
 1892poe     o2 9743   2.218   5.081   6.492 -0.5226 -0.1224 -0.1960
 1892poe    c31 9744   2.123   5.175   6.537 -0.2244  0.1998 -0.2429
 1893poe    c31 9745   5.148   3.397   1.499  0.0759  0.3155 -0.0983
 1893poe     o2 9746   5.130   3.516   1.425  0.4798  0.2731 -0.2659
 1893poe    c23 9747   5.017   3.585   1.473  0.3690  0.1391 -0.3361
 1893poe    c23 9748   5.014   3.734   1.434 -0.1789  0.0351 -0.7074
 1893poe     o2 9749   5.136   3.787   1.479 -0.6737  0.0437  0.6830
 1893poe    c23 9750   5.125   3.922   1.519  0.0047  0.3174 -0.0268
 1893poe    c23 9751   5.264   3.974   1.562 -0.1152  0.4817  0.1649
 1893poe     o2 9752   5.333   3.888   1.649 -0.7257 -0.0177  0.1668
 1893poe    c23 9753   5.443   3.963   1.698 -0.4977 -0.0434 -0.2965
 1893poe    c23 9754   5.519   3.908   1.820 -0.0115  0.3011 -0.4418
 1893poe     o2 9755   5.606   3.809   1.771 -0.4348 -0.1833 -0.2260
 1893poe    c31 9756   5.742   3.846   1.782 -0.5005 -0.0220  0.0667
 1894poe    c31 9757   2.243   4.415   0.955 -0.5849 -0.3245  0.4413
 1894poe     o2 9758   2.224   4.552   0.980  0.6077 -0.0278 -0.1933
 1894poe    c23 9759   2.157   4.611   0.871 -0.1849  0.2941  0.4649
 1894poe    c23 9760   2.135   4.764   0.876 -0.0699  0.3442 -0.4093
 1894poe     o2 9761   2.258   4.833   0.877  0.0410  0.1457 -0.0347
 1894poe    c23 9762   2.220   4.969   0.870 -0.0806  0.1348  0.3963
 1894poe    c23 9763   2.340   5.049   0.818 -0.0175 -0.1176  0.1511
 1894poe     o2 9764   2.453   5.001   0.888 -0.1612 -0.4409  0.1667
 1894poe    c23 9765   2.569   5.069   0.844 -0.3944  0.0573  0.3113
 1894poe    c23 9766   2.676   4.990   0.922 -0.0658 -0.0403 -0.2337
 1894poe     o2 9767   2.655   4.856   0.886  0.1376 -0.1086 -0.1004
 1894poe    c31 9768   2.780   4.790   0.883  0.3804  0.2738  0.9894
 1895poe    c31 9769   2.229   2.006   3.713  0.5828 -0.0298  0.0255
 1895poe     o2 9770   2.115   1.923   3.707  0.2397  0.3945  0.5700
 1895poe    c23 9771   2.160   1.790   3.726 -0.1941  0.1237 -0.2875
 1895poe    c23 9772   2.042   1.691   3.718 -0.1420  0.0685 -0.3773
 1895poe     o2 9773   2.005   1.651   3.588 -0.5366  0.0802 -0.2706
 1895poe    c23 9774   1.879   1.708   3.563 -0.4163  0.3505 -0.2573
 1895poe    c23 9775   1.799   1.637   3.453 -0.0696  0.1822 -0.4022
 1895poe     o2 9776   1.856   1.654   3.325 -0.6246  0.2015 -0.6522
 1895poe    c23 9777   1.789   1.586   3.221 -0.2766 -0.9702 -0.1281
 1895poe    c23 9778   1.906   1.578   3.121  0.0092  0.3772  0.0750
 1895poe     o2 9779   2.003   1.487   3.168 -0.2686  0.0192 -0.0426
 1895poe    c31 9780   2.099   1.475   3.065 -0.2610  0.2354 -0.0613
 1896poe    c31 9781   6.198   4.690   4.767  0.0415  0.0408 -0.0248
 1896poe     o2 9782   6.105   4.742   4.859 -0.6219 -0.0323 -0.6408
 1896poe    c23 9783   6.080   4.880   4.854 -0.0621  0.1022  0.0986
 1896poe    c23 9784   5.942   4.907   4.917 -0.1002  0.3321 -0.0812
 1896poe     o2 9785   5.936   4.894   5.057 -0.3690  0.0829 -0.1158
 1896poe    c23 9786   5.806   4.915   5.106 -0.5837 -0.5633 -0.3980
 1896poe    c23 9787   5.773   4.809   5.212 -0.0867 -0.2131  0.1096
 1896poe     o2 9788   5.879   4.808   5.305 -0.4096 -0.3809  0.4800
 1896poe    c23 9789   5.861   4.717   5.411  0.2562 -0.8806  0.1693
 1896poe    c23 9790   5.989   4.744   5.493  0.2271 -0.3106  0.0303
 1896poe     o2 9791   6.099   4.734   5.406  0.0458 -0.3014 -0.2014
 1896poe    c31 9792   6.217   4.718   5.482 -0.2564 -0.1154  0.3079
 1897poe    c31 9793   5.820   1.423   4.329 -0.2064  0.0352 -0.8874
 1897poe     o2 9794   5.889   1.307   4.287 -0.0814 -0.2395  0.0540
 1897poe    c23 9795   5.909   1.300   4.147 -0.1239  0.1663  0.0274
 1897poe    c23 9796   5.940   1.155   4.107  0.0999  0.0781  0.5104
 1897poe     o2 9797   6.048   1.103   4.181 -0.0428 -0.5098  0.3141
 1897poe    c23 9798   6.092   0.979   4.130  0.1932 -0.0896 -0.5184
 1897poe    c23 9799   6.199   0.941   4.234 -0.3677 -0.0340  0.0891
 1897poe     o2 9800   6.163   0.982   4.364  0.2598 -0.0525  0.2722
 1897poe    c23 9801   6.226   0.919   4.474  0.1003  0.2318  0.5269
 1897poe    c23 9802   6.231   0.979   4.615 -0.0282  0.3572  0.4785
 1897poe     o2 9803   6.280   1.110   4.600  0.1078  0.2521 -0.0062
 1897poe    c31 9804   6.383   1.152   4.688  0.0262 -0.2493  0.3311
 1898poe    c31 9805   0.831   2.863   0.147  0.1740  0.1044  0.4051
 1898poe     o2 9806   0.896   2.862   0.022 -0.0439 -0.7884  0.2881
 1898poe    c23 9807   0.813   2.826  -0.086  0.1670 -0.2283 -0.0653
 1898poe    c23 9808   0.870   2.890  -0.213  0.7813  0.4126  0.5224
 1898poe     o2 9809   0.991   2.823  -0.240  0.5332  0.0718  0.2507
 1898poe    c23 9810   1.051   2.875  -0.356  0.3544 -0.3160 -0.0187
 1898poe    c23 9811   1.186   2.811  -0.393  0.4682  0.0092 -0.1789
 1898poe     o2 9812   1.261   2.830  -0.275 -0.4375  0.0428  0.4059
 1898poe    c23 9813   1.390   2.775  -0.295 -0.6130 -0.4032  0.4801
 1898poe    c23 9814   1.453   2.776  -0.155  0.2320 -0.3975  0.1059
 1898poe     o2 9815   1.365   2.715  -0.064 -0.0670 -0.0194  0.0733
 1898poe    c31 9816   1.437   2.671   0.049  0.2997  0.3834 -0.0043
 1899poe    c31 9817   6.202   0.627   1.527 -0.0276  0.6646 -0.7578
 1899poe     o2 9818   6.191   0.507   1.601  0.1685  0.8074 -0.4934
 1899poe    c23 9819   6.292   0.484   1.697  0.3372 -0.5342 -0.9830
 1899poe    c23 9820   6.265   0.359   1.782  0.4663 -0.0426 -0.2122
 1899poe     o2 9821   6.143   0.365   1.854  0.8362 -0.0529  0.4258
 1899poe    c23 9822   6.135   0.312   1.984  0.1172 -0.1442  0.3483
 1899poe    c23 9823   5.986   0.323   2.021  0.1126  0.1755  0.2307
 1899poe     o2 9824   5.900   0.250   1.938  0.0011  0.2328  0.2957
 1899poe    c23 9825   5.767   0.299   1.931  0.0900  0.4840  0.3515
 1899poe    c23 9826   5.673   0.215   1.843  1.1398 -0.0565 -0.2796
 1899poe     o2 9827   5.703   0.228   1.706  0.5368 -0.2366 -0.4334
 1899poe    c31 9828   5.638   0.135   1.623 -0.4260 -0.0217  0.0603
 1900poe    c31 9829   1.574   3.356   2.890 -0.8737 -0.5741  0.1506
 1900poe     o2 9830   1.577   3.219   2.856 -0.0767 -0.4757 -0.1979
 1900poe    c23 9831   1.698   3.176   2.797 -0.0285 -0.2985 -0.2300
 1900poe    c23 9832   1.703   3.189   2.643 -0.3035  0.4424 -0.1817
 1900poe     o2 9833   1.627   3.094   2.571 -0.4304  0.2827  0.1577
 1900poe    c23 9834   1.644   3.121   2.434  0.1282 -0.1464  0.1418
 1900poe    c23 9835   1.569   3.023   2.342 -0.3851  0.4444 -0.0779
 1900poe     o2 9836   1.429   3.043   2.342 -0.4048  0.3149  0.3094
 1900poe    c23 9837   1.358   2.952   2.261  0.4401 -0.0508 -0.0306
 1900poe    c23 9838   1.205   2.964   2.256  0.3709 -0.8258 -0.0231
 1900poe     o2 9839   1.124   2.894   2.348 -0.1009  0.0029  0.2086
 1900poe    c31 9840   0.995   2.921   2.297  0.1042 -0.5180 -0.6045
 1901poe    c31 9841   1.500   0.681   2.051  0.5667  0.6663  0.2354
 1901poe     o2 9842   1.379   0.649   2.117  0.5102 -0.1179 -0.2276
 1901poe    c23 9843   1.339   0.752   2.205  0.0859 -0.5086  0.0381
 1901poe    c23 9844   1.194   0.796   2.180  0.2696 -0.0702 -0.2648
 1901poe     o2 9845   1.102   0.690   2.193 -0.0803  0.2144 -0.3968
 1901poe    c23 9846   0.972   0.722   2.150 -0.1244  0.1538 -0.3097
 1901poe    c23 9847   0.867   0.609   2.151 -0.1401  0.1701 -0.0595
 1901poe     o2 9848   0.925   0.518   2.061 -0.0108 -0.0324  0.2289
 1901poe    c23 9849   0.835   0.430   1.997 -0.0564  0.0396  0.1942
 1901poe    c23 9850   0.905   0.369   1.874 -0.3076  0.0047  0.0685
 1901poe     o2 9851   1.035   0.327   1.908 -0.0873  0.4445 -0.2213
 1901poe    c31 9852   1.099   0.277   1.792  0.1119  0.0193  0.0701
 1902poe    c31 9853   5.712   4.046   0.245  0.0681 -0.0767 -0.1421
 1902poe     o2 9854   5.822   4.084   0.166  0.3182 -0.5292 -0.0156
 1902poe    c23 9855   5.941   4.082   0.242  0.3216  0.1350 -0.0035
 1902poe    c23 9856   6.072   4.126   0.176  0.1553  0.3112 -0.2175
 1902poe     o2 9857   6.050   4.260   0.138  0.4556  0.4436  0.0713
 1902poe    c23 9858   6.144   4.298   0.039  0.7480 -0.4212  0.0115
 1902poe    c23 9859   6.130   4.450   0.017 -0.1522 -0.4690  0.1967
 1902poe     o2 9860   5.994   4.471  -0.013 -0.0509  0.0210  0.0846
 1902poe    c23 9861   5.966   4.595  -0.074  0.3459  0.1663  0.1920
 1902poe    c23 9862   5.988   4.725   0.007  0.0143  0.3034  0.0659
 1902poe     o2 9863   5.890   4.739   0.107  0.2618 -0.6758  0.4581
 1902poe    c31 9864   5.873   4.876   0.131 -0.8157 -0.7264  0.0443
 1903poe    c31 9865   0.112   5.759   5.476  0.3562  0.5627  0.7676
 1903poe     o2 9866   0.060   5.634   5.517 -0.6932  0.4815 -0.7312
 1903poe    c23 9867  -0.074   5.625   5.473 -0.5398 -0.3058 -1.0489
 1903poe    c23 9868  -0.142   5.494   5.517 -0.2379 -0.2016 -0.2523
 1903poe     o2 9869  -0.066   5.382   5.480  0.1956 -0.1241  0.3854
 1903poe    c23 9870  -0.102   5.257   5.534  0.2612 -0.2260  0.1951
 1903poe    c23 9871  -0.016   5.153   5.459  0.1437 -0.3709  0.2613
 1903poe     o2 9872   0.115   5.172   5.509  0.2681  0.2980 -0.3040
 1903poe    c23 9873   0.164   5.044   5.539  0.3637  0.2247 -0.7690
 1903poe    c23 9874   0.294   5.066   5.618 -0.1214  0.3714 -0.0007
 1903poe     o2 9875   0.356   5.181   5.566  0.0794  0.0609 -0.4525
 1903poe    c31 9876   0.489   5.191   5.613  0.1679 -0.3495 -0.6065
 1904poe    c31 9877   5.789   1.106   3.494  0.1396  0.3597  0.1436
 1904poe     o2 9878   5.736   0.988   3.551 -0.2167  0.5571  0.2218
 1904poe    c23 9879   5.737   1.010   3.690 -0.1288  0.4490  0.2389
 1904poe    c23 9880   5.684   0.884   3.761  0.7005 -0.1766 -0.2395
 1904poe     o2 9881   5.547   0.867   3.731  0.5792 -0.0633  0.2385
 1904poe    c23 9882   5.484   0.768   3.808 -0.5495  0.3636 -0.1210
 1904poe    c23 9883   5.332   0.756   3.782 -0.5448 -0.2294  0.0933
 1904poe     o2 9884   5.319   0.716   3.647 -0.2773  0.5241 -0.1631
 1904poe    c23 9885   5.185   0.712   3.605 -0.2835 -0.2512 -0.0864
 1904poe    c23 9886   5.181   0.602   3.497  0.0870 -0.0811 -0.2773
 1904poe     o2 9887   5.291   0.623   3.412  0.0043  0.0743 -0.3464
 1904poe    c31 9888   5.293   0.526   3.310 -0.5964 -0.1746 -0.1265
 1905poe    c31 9889   6.383   4.381   0.599 -0.1127 -0.0625  0.4155
 1905poe     o2 9890   6.363   4.508   0.541 -0.2249 -0.2485  0.0401
 1905poe    c23 9891   6.440   4.530   0.425  0.4138 -0.3086  0.4478
 1905poe    c23 9892   6.435   4.678   0.384  0.0535 -0.5019 -0.2241
 1905poe     o2 9893   6.316   4.711   0.317 -0.0318  0.0891  0.2153
 1905poe    c23 9894   6.323   4.743   0.180 -0.4249  0.4766  0.2824
 1905poe    c23 9895   6.402   4.871   0.145  0.4151 -0.0062  0.3689
 1905poe     o2 9896   6.333   4.987   0.189  0.4855  0.0622  0.2987
 1905poe    c23 9897   6.391   5.102   0.132  0.2519  0.3195  0.5763
 1905poe    c23 9898   6.306   5.229   0.144 -0.3924 -0.0482 -0.0046
 1905poe     o2 9899   6.293   5.257   0.282 -0.2838 -0.9940  0.2055
 1905poe    c31 9900   6.187   5.346   0.309  0.1384 -0.2108 -0.6547
 1906poe    c31 9901   0.483   2.714   5.924  0.7275 -0.0375  0.4818
 1906poe     o2 9902   0.592   2.679   5.843  0.1171 -0.2696 -0.2521
 1906poe    c23 9903   0.591   2.744   5.718  0.3886  0.3999  0.0896
 1906poe    c23 9904   0.657   2.659   5.608 -0.3351 -0.0122 -0.0249
 1906poe     o2 9905   0.773   2.618   5.676 -0.0684  0.0966 -0.4122
 1906poe    c23 9906   0.869   2.581   5.580 -0.0739 -0.8596 -0.0534
 1906poe    c23 9907   0.999   2.534   5.649  0.5202  0.4579 -0.2470
 1906poe     o2 9908   0.956   2.440   5.744  0.1484  0.5758 -0.2967
 1906poe    c23 9909   1.058   2.400   5.834  0.0466 -0.2248 -0.5288
 1906poe    c23 9910   1.038   2.261   5.896  0.6867 -0.0630  0.0498
 1906poe     o2 9911   0.928   2.262   5.985  0.3106  0.7333 -0.4141
 1906poe    c31 9912   0.932   2.167   6.089 -0.0623  0.5847 -0.5369
 1907poe    c31 9913   3.340   1.738   4.839 -0.0441 -0.1137 -0.1277
 1907poe     o2 9914   3.431   1.840   4.872 -0.3100  0.1529 -0.2094
 1907poe    c23 9915   3.376   1.955   4.812  0.0119  0.1606 -0.4929
 1907poe    c23 9916   3.484   2.064   4.824  0.2007 -0.0548 -0.2197
 1907poe     o2 9917   3.548   2.045   4.948 -0.2231 -0.1549 -0.0139
 1907poe    c23 9918   3.659   2.130   4.963 -0.5128  0.1668  0.3121
 1907poe    c23 9919   3.693   2.118   5.113  0.5605 -0.2174  0.0440
 1907poe     o2 9920   3.707   1.982   5.148 -0.3902 -0.1870  0.5711
 1907poe    c23 9921   3.757   1.974   5.279  0.4287 -0.4937  0.2480
 1907poe    c23 9922   3.656   2.006   5.391 -0.1041 -0.3654 -0.2648
 1907poe     o2 9923   3.536   1.932   5.382 -0.1019 -0.3128 -0.7747
 1907poe    c31 9924   3.439   1.955   5.481  0.3766  0.1607 -0.4075
 1908poe    c31 9925   1.992   1.015   6.548  0.0724  0.2139  0.1564
 1908poe     o2 9926   2.025   1.150   6.530 -0.0984  0.2026 -0.2483
 1908poe    c23 9927   2.108   1.196   6.634 -0.7966  0.1073  0.3536
 1908poe    c23 9928   2.136   1.348   6.625 -0.3803  0.0277  0.2962
 1908poe     o2 9929   2.234   1.358   6.524 -0.5331  0.2523  0.1710
 1908poe    c23 9930   2.261   1.491   6.486  0.1697 -0.0231 -0.3082
 1908poe    c23 9931   2.342   1.482   6.355  0.6008 -0.3604 -0.0198
 1908poe     o2 9932   2.275   1.439   6.239  0.2080 -0.0730  0.0942
 1908poe    c23 9933   2.342   1.476   6.120  0.4644  0.0764  0.2849
 1908poe    c23 9934   2.238   1.458   6.008  0.1660  0.0395  0.5656
 1908poe     o2 9935   2.186   1.329   6.026 -0.1869  0.0977 -0.0127
 1908poe    c31 9936   2.106   1.281   5.920  0.1475 -0.1074 -0.1767
 1909poe    c31 9937   6.338   5.912   5.166 -0.5875 -0.0785  0.0510
 1909poe     o2 9938   6.306   5.796   5.239  0.2981 -0.0837  0.4506
 1909poe    c23 9939   6.430   5.742   5.279  0.5390  0.2087  0.1071
 1909poe    c23 9940   6.413   5.619   5.371  0.6993  0.1614  0.0750
 1909poe     o2 9941   6.355   5.521   5.289  0.3791  0.1573  0.3039
 1909poe    c23 9942   6.287   5.423   5.365  0.2608  0.0825  0.1044
 1909poe    c23 9943   6.204   5.323   5.282 -0.2683  0.4639  0.1655
 1909poe     o2 9944   6.149   5.386   5.169  0.2952 -0.0796 -0.4171
 1909poe    c23 9945   6.050   5.309   5.103  0.1689  0.1702 -0.5207
 1909poe    c23 9946   6.007   5.382   4.974 -0.0282  0.3608 -0.3487
 1909poe     o2 9947   6.001   5.520   5.002  0.4349  0.1808  0.6933
 1909poe    c31 9948   5.953   5.589   4.889  0.1430 -0.4216  0.4459
 1910poe    c31 9949   6.678   3.525   0.404 -0.4152  0.3213 -0.2392
 1910poe     o2 9950   6.801   3.593   0.413 -0.2226 -0.0200 -0.2993
 1910poe    c23 9951   6.791   3.707   0.495 -0.4793 -0.2930  0.0528
 1910poe    c23 9952   6.925   3.763   0.547 -0.5301  0.0606 -0.1880
 1910poe     o2 9953   7.008   3.816   0.446 -0.4957 -0.1039 -0.2464
 1910poe    c23 9954   7.080   3.921   0.506 -0.1122 -0.5624  0.1051
 1910poe    c23 9955   7.154   3.977   0.383 -0.0596  0.4105  0.5716
 1910poe     o2 9956   7.216   3.870   0.316  0.0496  0.2926  0.8560
 1910poe    c23 9957   7.304   3.912   0.214  0.0386 -0.6090  0.4583
 1910poe    c23 9958   7.384   3.788   0.173  0.2698 -0.2923 -0.0512
 1910poe     o2 9959   7.285   3.689   0.157 -0.2682  0.3658 -0.8441
 1910poe    c31 9960   7.334   3.569   0.101  0.6893  0.2536  0.2087
 1911poe    c31 9961   2.082   2.664   6.725 -0.3880  0.0369 -0.0130
 1911poe     o2 9962   2.123   2.561   6.640 -0.2032 -0.2230  0.3877
 1911poe    c23 9963   2.084   2.593   6.508  0.2071 -0.4080  0.2169
 1911poe    c23 9964   2.146   2.494   6.408 -0.0188 -0.0866 -0.2461
 1911poe     o2 9965   2.287   2.507   6.415 -0.0805  0.2902  0.4165
 1911poe    c23 9966   2.340   2.446   6.299 -0.4603 -0.0405  0.4150
 1911poe    c23 9967   2.492   2.423   6.296 -0.4475  0.0505  0.3606
 1911poe     o2 9968   2.524   2.356   6.416  0.2163 -0.0721  0.1208
 1911poe    c23 9969   2.662   2.328   6.413  0.2271 -0.0075 -0.0060
 1911poe    c23 9970   2.722   2.351   6.553 -0.0786 -0.2136  0.1613
 1911poe     o2 9971   2.623   2.321   6.648 -0.2059 -0.5330 -0.0690
 1911poe    c31 9972   2.683   2.338   6.775  0.6854 -0.3466 -0.5054
 1912poe    c31 9973   6.429   0.431   0.756 -0.1355  0.5747  0.4072
 1912poe     o2 9974   6.496   0.472   0.873  0.0745  0.6129  0.2722
 1912poe    c23 9975   6.622   0.408   0.874 -0.3496 -0.2257  0.3394
 1912poe    c23 9976   6.713   0.457   0.988  0.0232  0.2515 -0.1576
 1912poe     o2 9977   6.682   0.594   0.998  0.2265  0.3012 -0.1933
 1912poe    c23 9978   6.767   0.661   1.088 -0.0194  0.7390 -0.2836
 1912poe    c23 9979   6.696   0.752   1.190 -0.1994  0.2113  0.0620
 1912poe     o2 9980   6.616   0.845   1.121 -0.3115 -0.2391 -0.4303
 1912poe    c23 9981   6.534   0.920   1.209  0.0120 -0.2015 -0.1558
 1912poe    c23 9982   6.478   1.041   1.132 -0.4652  0.1192  0.6840
 1912poe     o2 9983   6.421   1.000   1.010  0.1416  0.3300  0.3229
 1912poe    c31 9984   6.339   1.093   0.944 -0.1868 -0.2315 -0.0784
 1913poe    c31 9985   4.165   1.952   6.679  0.0745 -0.5338 -0.3860
 1913poe     o2 9986   4.212   1.922   6.550  0.3385 -0.4304 -0.3147
 1913poe    c23 9987   4.103   1.944   6.462 -0.0966 -0.3441  0.2395
 1913poe    c23 9988   4.150   1.944   6.315 -0.2226 -0.4033  0.2002
 1913poe     o2 9989   4.180   1.812   6.276  0.6000 -0.3337  0.5876
 1913poe    c23 9990   4.253   1.810   6.156 -0.1342 -0.5335  0.1444
 1913poe    c23 9991   4.248   1.674   6.084  0.0318 -0.3285 -0.2591
 1913poe     o2 9992   4.323   1.576   6.153 -0.0540 -0.1305  0.1179
 1913poe    c23 9993   4.343   1.458   6.078 -0.1839  0.0095 -0.1397
 1913poe    c23 9994   4.421   1.349   6.155  0.3325  0.6388  0.2411
 1913poe     o2 9995   4.355   1.305   6.272  0.0763 -0.4809 -0.3076
 1913poe    c31 9996   4.432   1.219   6.353  0.5656  0.4131  0.1900
 1914poe    c31 9997   6.345   5.179   2.960  0.2085  0.3823  0.3652
 1914poe     o2 9998   6.459   5.231   3.025  0.1325  0.4930  0.4111
 1914poe    c23 9999   6.452   5.239   3.165 -0.0361 -0.0892  0.4379
 1914poe    c2310000   6.589   5.298   3.201  0.0667 -0.1784  0.1941
 1914poe     o210001   6.601   5.411   3.118 -0.2631  0.0424  0.4428
 1914poe    c2310002   6.729   5.470   3.128 -0.2546  0.0912  0.0867
 1914poe    c2310003   6.700   5.597   3.047  0.0994  0.0489 -0.1066
 1914poe     o210004   6.652   5.567   2.917 -0.2914 -0.2409  0.1043
 1914poe    c2310005   6.644   5.678   2.831  0.2353 -0.5157 -0.3047
 1914poe    c2310006   6.587   5.655   2.690 -0.5216 -0.1124 -0.0748
 1914poe     o210007   6.450   5.624   2.693 -0.5117 -0.1355  0.1678
 1914poe    c3110008   6.385   5.648   2.570 -0.7105  0.0194  0.3023
 1915poe    c3110009   2.112   5.425   0.035  0.2086  0.2382  0.3908
 1915poe     o210010   2.160   5.314   0.107 -0.0389 -0.5278 -0.6049
 1915poe    c2310011   2.057   5.267   0.191  0.1211 -0.1567 -0.1949
 1915poe    c2310012   2.123   5.192   0.308 -0.1108 -0.1726 -0.0745
 1915poe     o210013   2.223   5.113   0.249 -0.2068 -0.2837 -0.0871
 1915poe    c2310014   2.282   5.030   0.347  0.5954  0.4625  0.0639
 1915poe    c2310015   2.397   4.949   0.284 -0.0641 -0.2090 -0.2872
 1915poe     o210016   2.505   5.022   0.229  0.0649 -0.1900 -0.0076
 1915poe    c2310017   2.603   4.928   0.189  0.3478  0.1806 -0.1892
 1915poe    c2310018   2.724   4.981   0.110  0.4634  0.6068  0.2622
 1915poe     o210019   2.694   4.996  -0.027 -0.0311 -0.1370  0.2780
 1915poe    c3110020   2.811   5.017  -0.103 -0.4240 -0.1550 -0.3444
 1916poe    c3110021   5.966   5.432   3.695 -0.6256  0.1927 -0.0177
 1916poe     o210022   5.999   5.329   3.785 -0.2813  0.1339 -0.2100
 1916poe    c2310023   6.126   5.355   3.840  0.2234  0.0507 -1.3130
 1916poe    c2310024   6.171   5.219   3.897 -0.4936  0.1763 -0.4361
 1916poe     o210025   6.056   5.170   3.964  0.1066 -0.0890  0.4130
 1916poe    c2310026   6.094   5.073   4.059  0.2595  0.3166  0.7727
 1916poe    c2310027   5.976   5.003   4.128  0.0555 -0.1823 -0.0654
 1916poe     o210028   5.928   5.102   4.217  0.4925 -0.3683  0.3857
 1916poe    c2310029   5.796   5.083   4.263  0.2780 -0.1341 -0.1171
 1916poe    c2310030   5.740   5.218   4.314 -0.5292 -0.4152 -0.2455
 1916poe     o210031   5.688   5.307   4.219  0.3336  0.0040 -0.3385
 1916poe    c3110032   5.637   5.422   4.283 -0.1423 -0.4969  0.1959
 1917poe    c3110033   5.377   1.773   3.233 -0.8712  0.2761 -0.4705
 1917poe     o210034   5.480   1.762   3.138 -0.3125 -0.7909  0.2316
 1917poe    c2310035   5.536   1.891   3.128 -0.1678 -0.8595  0.1513
 1917poe    c2310036   5.626   1.905   3.004 -0.1178 -0.1145  0.2650
 1917poe     o210037   5.749   1.837   3.014  0.0093  0.0566 -0.1289
 1917poe    c2310038   5.811   1.807   2.890 -0.3525 -0.0685 -0.2796
 1917poe    c2310039   5.956   1.769   2.924 -0.3927 -0.3415 -0.4142
 1917poe     o210040   5.945   1.663   3.017 -0.2411 -0.2221 -0.2585
 1917poe    c2310041   6.069   1.631   3.075 -0.5851 -0.0850  0.5637
 1917poe    c2310042   6.036   1.541   3.196  0.2394 -0.9033  0.1947
 1917poe     o210043   5.948   1.616   3.276  0.2113 -0.3577 -0.3392
 1917poe    c3110044   5.913   1.554   3.398  0.1656 -0.1312 -0.2364
 1918poe    c3110045   1.224   1.366   5.324 -0.2009 -0.1227  0.3180
 1918poe     o210046   1.161   1.243   5.295 -0.0751 -0.0766 -0.1658
 1918poe    c2310047   1.192   1.136   5.381 -0.1844 -0.1838 -0.2597
 1918poe    c2310048   1.140   1.000   5.329 -0.2749 -0.2427 -0.0183
 1918poe     o210049   1.003   1.003   5.296 -0.1586  0.5091 -0.4532
 1918poe    c2310050   0.946   0.874   5.297  0.0308  0.4255  0.1343
 1918poe    c2310051   0.792   0.877   5.295  0.0215 -0.1640 -0.5664
 1918poe     o210052   0.746   0.989   5.224  0.3000  0.6665  0.5333
 1918poe    c2310053   0.605   0.998   5.224  0.2344 -0.2274 -0.4026
 1918poe    c2310054   0.580   1.116   5.129  0.0735 -0.1426 -0.2545
 1918poe     o210055   0.680   1.213   5.153  0.3784 -0.4094 -0.4463
 1918poe    c3110056   0.631   1.341   5.122 -0.3140 -0.5880 -0.1091
 1919poe    c3110057   5.990   1.395   6.072 -0.2113  0.0125 -0.2228
 1919poe     o210058   6.070   1.279   6.083 -0.2706  0.0514  0.7084
 1919poe    c2310059   5.985   1.173   6.043 -0.6971  0.5807  0.1956
 1919poe    c2310060   6.033   1.045   6.114 -0.1702  0.6553 -0.0209
 1919poe     o210061   6.168   1.041   6.074 -0.2236 -0.0073 -0.1410
 1919poe    c2310062   6.232   0.922   6.115 -0.2031  0.0963  0.1332
 1919poe    c2310063   6.372   0.942   6.054 -0.1483 -0.4657  0.0729
 1919poe     o210064   6.422   1.057   6.118 -0.0140 -0.1850 -0.5331
 1919poe    c2310065   6.556   1.078   6.080  0.2143 -0.1055  0.3133
 1919poe    c2310066   6.622   1.209   6.128  0.4706 -0.4685  0.9686
 1919poe     o210067   6.548   1.312   6.066  0.6962 -0.4893  0.6635
 1919poe    c3110068   6.607   1.437   6.090 -0.2708  0.0526  0.2436
 1920poe    c3110069   0.946   1.348   3.269 -0.3690 -0.2486 -0.0561
 1920poe     o210070   1.009   1.302   3.150 -0.1218  0.0531 -0.0430
 1920poe    c2310071   1.132   1.245   3.189 -0.0053  0.2502 -0.1215
 1920poe    c2310072   1.191   1.146   3.087 -0.6940 -0.1451 -0.1441
 1920poe     o210073   1.125   1.022   3.075  0.0248 -0.5114 -0.3613
 1920poe    c2310074   1.177   0.940   2.973  0.2756 -0.3378 -0.3733
 1920poe    c2310075   1.142   0.793   3.002  0.2639 -0.2346  0.1395
 1920poe     o210076   1.203   0.726   3.111  0.1894 -0.2891  0.1476
 1920poe    c2310077   1.315   0.646   3.084  0.4558 -0.1247  0.7667
 1920poe    c2310078   1.459   0.700   3.081  0.2575  0.3615 -0.0776
 1920poe     o210079   1.509   0.725   3.210 -0.1300  0.1142  0.1221
 1920poe    c3110080   1.606   0.827   3.201 -0.5439  0.4926 -0.0853
 1921poe    c3110081   4.500   6.003   2.501 -0.1079  0.1174 -0.4273
 1921poe     o210082   4.564   6.089   2.409 -0.1565 -0.0963 -0.6637
 1921poe    c2310083   4.703   6.089   2.434 -0.3025 -0.1650  0.1722
 1921poe    c2310084   4.777   6.189   2.344 -0.2348 -0.0384  0.3659
 1921poe     o210085   4.721   6.167   2.216  0.5515 -0.3298  0.0643
 1921poe    c2310086   4.789   6.236   2.114 -0.0184 -0.0660 -0.1445
 1921poe    c2310087   4.720   6.192   1.984  0.1376  0.1610 -0.3041
 1921poe     o210088   4.595   6.255   1.967  0.0011 -0.1476 -0.4602
 1921poe    c2310089   4.529   6.235   1.844  0.0114  0.2075 -0.5256
 1921poe    c2310090   4.394   6.308   1.859 -0.2026 -0.1884 -0.5162
 1921poe     o210091   4.291   6.239   1.927 -0.0025 -0.0788 -0.1011
 1921poe    c3110092   4.204   6.173   1.839 -0.3611  0.0538  0.1532
 1922poe    c3110093   4.204   6.809   6.360  0.0303 -0.0097 -0.2902
 1922poe     o210094   4.272   6.924   6.406  0.1908 -0.1956 -0.0613
 1922poe    c2310095   4.327   6.903   6.534 -0.1783 -0.1442  0.1061
 1922poe    c2310096   4.334   7.040   6.605  0.0604  0.2240 -0.6122
 1922poe     o210097   4.216   7.113   6.581 -0.0275  0.3146  0.0680
 1922poe    c2310098   4.199   7.214   6.678  0.2717  0.5925 -0.1625
 1922poe    c2310099   4.096   7.318   6.631 -0.0087  0.3596 -0.0730
 1922poe     o210100   4.149   7.380   6.516  0.3275  0.3347  0.0664
 1922poe    c2310101   4.068   7.480   6.458  0.1407  0.0831 -0.1077
 1922poe    c2310102   4.150   7.552   6.349  0.2761 -0.0482 -0.0932
 1922poe     o210103   4.135   7.493   6.221  0.1080  0.0659 -0.1261
 1922poe    c3110104   4.040   7.555   6.138  0.0869  0.1105 -0.0696
 1923poe    c3110105   4.845   0.941   4.546  0.8716 -0.0389  0.1624
 1923poe     o210106   4.897   0.825   4.607  0.3404 -0.4090 -0.0769
 1923poe    c2310107   4.930   0.844   4.743 -0.1375 -0.3387  0.0314
 1923poe    c2310108   5.077   0.885   4.763 -0.2608  0.1301 -0.0331
 1923poe     o210109   5.167   0.777   4.754  0.2011  0.5095 -0.0238
 1923poe    c2310110   5.272   0.814   4.668  0.2816  0.1762 -0.0685
 1923poe    c2310111   5.342   0.689   4.610 -0.0744 -0.3348  0.5916
 1923poe     o210112   5.260   0.622   4.517 -0.1857  0.0233  0.4273
 1923poe    c2310113   5.345   0.529   4.454 -0.4756 -0.1247  0.2502
 1923poe    c2310114   5.271   0.461   4.338  0.1212 -0.3467 -0.0069
 1923poe     o210115   5.159   0.393   4.390 -0.3461  0.1486 -0.3484
 1923poe    c3110116   5.145   0.262   4.341  0.2233 -0.2063  0.4281
 1924poe    c3110117   5.741   5.140   2.018  0.0204  0.5443 -0.6800
 1924poe     o210118   5.617   5.206   2.027 -0.1742  0.0774  0.1035
 1924poe    c2310119   5.545   5.209   1.906  0.0887 -0.2188 -0.0586
 1924poe    c2310120   5.418   5.292   1.930  0.3375  0.1772 -0.0999
 1924poe     o210121   5.377   5.268   2.063  0.1562  0.3074 -0.1315
 1924poe    c2310122   5.237   5.286   2.060  0.1912  0.5676 -0.3033
 1924poe    c2310123   5.178   5.280   2.202  0.4253  0.1062 -0.2199
 1924poe     o210124   5.238   5.363   2.299 -0.3092  0.0950  0.2512
 1924poe    c2310125   5.186   5.328   2.426  0.1443 -0.6790  0.2255
 1924poe    c2310126   5.263   5.409   2.532 -0.2012 -0.3160  0.1993
 1924poe     o210127   5.400   5.388   2.505 -0.0334  0.7607  0.1507
 1924poe    c3110128   5.478   5.422   2.618  0.0640 -0.4364  0.4627
 1925poe    c3110129   6.677   5.040   3.634 -0.0651  0.1801 -0.7369
 1925poe     o210130   6.551   4.983   3.659 -0.2212  0.6861 -0.3414
 1925poe    c2310131   6.530   4.957   3.796  0.4855 -0.1726 -0.3833
 1925poe    c2310132   6.401   4.880   3.831  0.7647 -0.3272  0.3228
 1925poe     o210133   6.414   4.746   3.790  0.1317 -0.3173  0.0726
 1925poe    c2310134   6.348   4.658   3.878  0.0401 -0.0717  0.2502
 1925poe    c2310135   6.298   4.522   3.824 -0.1529  0.0084  0.2277
 1925poe     o210136   6.415   4.489   3.754 -0.6366 -0.6727 -0.2685
 1925poe    c2310137   6.386   4.404   3.645 -0.4714 -0.6024 -0.3678
 1925poe    c2310138   6.511   4.380   3.558 -0.2092 -0.4751 -0.0310
 1925poe     o210139   6.551   4.507   3.512 -0.0988 -0.4720  0.0712
 1925poe    c3110140   6.621   4.500   3.389  0.5283  0.1497  0.3875
 1926poe    c3110141   3.268   2.125   1.637 -0.1870  0.3092 -0.2770
 1926poe     o210142   3.280   2.186   1.764 -0.2334  0.0314 -0.1371
 1926poe    c2310143   3.355   2.108   1.854 -1.1091  0.0820  0.6507
 1926poe    c2310144   3.436   2.193   1.953  0.3120 -0.2775 -0.1675
 1926poe     o210145   3.343   2.259   2.036  0.2107 -0.0540 -0.4565
 1926poe    c2310146   3.385   2.378   2.099 -0.5588 -0.1628  0.2908
 1926poe    c2310147   3.276   2.453   2.177 -0.0373  0.7678  0.1336
 1926poe     o210148   3.186   2.528   2.099 -0.1943  0.0540 -0.3719
 1926poe    c2310149   3.113   2.625   2.169 -0.0224 -0.1503  0.0911
 1926poe    c2310150   3.072   2.743   2.080 -0.2901 -0.0291  0.3720
 1926poe     o210151   2.969   2.718   1.987  0.4107 -0.1555 -0.3849
 1926poe    c3110152   2.914   2.840   1.943 -0.1484 -0.2484  0.0415
 1927poe    c3110153   2.527   6.320   3.526 -0.0033  0.0405 -0.4845
 1927poe     o210154   2.414   6.240   3.554  0.0407  0.0213 -0.3642
 1927poe    c2310155   2.410   6.218   3.693  0.1875 -0.1602 -0.3878
 1927poe    c2310156   2.281   6.145   3.735  0.2541 -0.6062 -0.9513
 1927poe     o210157   2.159   6.211   3.706  0.3502 -0.0230 -0.0634
 1927poe    c2310158   2.051   6.121   3.715  0.1367  0.2231 -0.1403
 1927poe    c2310159   1.928   6.198   3.666  0.2812  0.4701 -0.1148
 1927poe     o210160   1.923   6.242   3.532 -0.2642  0.6410 -0.0435
 1927poe    c2310161   1.799   6.293   3.489 -0.6600 -0.5222 -0.3320
 1927poe    c2310162   1.832   6.337   3.344  0.1019 -0.1965 -0.0676
 1927poe     o210163   1.959   6.396   3.333 -0.1071  0.2577 -0.0807
 1927poe    c3110164   1.957   6.477   3.218 -0.1635  0.7091  0.2319
 1928poe    c3110165   5.705   5.788   3.591  0.4502  0.0022  0.5347
 1928poe     o210166   5.637   5.907   3.627 -0.2635 -0.1177 -0.3690
 1928poe    c2310167   5.710   6.013   3.569 -0.1710 -0.0303 -0.0947
 1928poe    c2310168   5.690   6.161   3.607  0.3700  0.1261 -0.3951
 1928poe     o210169   5.563   6.216   3.580  0.0124 -0.1252  0.7001
 1928poe    c2310170   5.573   6.355   3.560  0.1764 -0.3194 -0.6716
 1928poe    c2310171   5.433   6.412   3.531  0.1304 -0.2570 -0.3296
 1928poe     o210172   5.362   6.365   3.419  0.1554 -0.1515 -0.3893
 1928poe    c2310173   5.240   6.435   3.423  0.5529  0.5523 -0.5404
 1928poe    c2310174   5.138   6.407   3.311  0.1831 -0.3843  0.0242
 1928poe     o210175   5.074   6.282   3.325 -0.2841 -0.1857 -0.3261
 1928poe    c3110176   4.937   6.293   3.295 -0.5789 -0.0033  1.0670
 1929poe    c3110177   3.277   1.325   5.708 -0.1045 -0.5756  0.3257
 1929poe     o210178   3.196   1.431   5.661  0.6729  0.0179  0.3028
 1929poe    c2310179   3.267   1.519   5.576  0.2639  0.2136  0.1631
 1929poe    c2310180   3.166   1.610   5.503 -0.0056 -0.2719 -0.0717
 1929poe     o210181   3.100   1.679   5.605  0.1215 -0.1527 -0.0697
 1929poe    c2310182   3.036   1.801   5.573  0.4197  0.0872  0.2407
 1929poe    c2310183   2.979   1.865   5.701 -0.3520 -0.3890  0.1460
 1929poe     o210184   2.899   1.767   5.763 -0.3233 -0.5014  0.0052
 1929poe    c2310185   2.830   1.832   5.868  0.7287  0.0923  0.3461
 1929poe    c2310186   2.764   1.741   5.973 -0.0638 -0.3212 -0.4964
 1929poe     o210187   2.843   1.642   6.035 -0.0678  0.2899  0.4942
 1929poe    c3110188   2.756   1.587   6.131 -0.0045 -0.6314  0.0338
 1930poe    c3110189   3.478   2.617   6.876  0.0774  0.5120  0.1605
 1930poe     o210190   3.443   2.615   7.013  0.2042 -0.6385  0.1856
 1930poe    c2310191   3.393   2.741   7.053  0.4192 -0.5460  0.1657
 1930poe    c2310192   3.364   2.760   7.203  0.1419  0.1979  0.0185
 1930poe     o210193   3.479   2.776   7.282 -0.0387 -0.0919  0.3444
 1930poe    c2310194   3.462   2.811   7.417  0.6499  0.1598  0.3703
 1930poe    c2310195   3.588   2.832   7.503  0.1930  0.1857  1.0425
 1930poe     o210196   3.652   2.707   7.511 -0.2679 -0.1366 -0.1173
 1930poe    c2310197   3.768   2.696   7.592 -0.7089 -0.3203  0.5019
 1930poe    c2310198   3.812   2.550   7.612 -0.3579 -0.2955 -0.0685
 1930poe     o210199   3.799   2.497   7.482  0.0323 -0.2371 -0.1308
 1930poe    c3110200   3.849   2.367   7.459  0.2220 -0.1491 -0.2246
 1931poe    c3110201   4.750   1.193   1.701 -0.2042  0.4016  0.0491
 1931poe     o210202   4.778   1.097   1.800 -0.2054 -0.3383 -0.6575
 1931poe    c2310203   4.663   1.023   1.831  0.0486 -0.4396  0.0557
 1931poe    c2310204   4.695   0.933   1.952  0.1145 -0.4372  0.0396
 1931poe     o210205   4.829   0.890   1.934  0.1298 -0.3366 -0.0871
 1931poe    c2310206   4.865   0.781   2.016  0.2319 -0.1885  0.0666
 1931poe    c2310207   5.001   0.722   1.974  0.1369 -0.0389 -0.4652
 1931poe     o210208   5.095   0.828   1.984 -0.1368  0.1561  0.0851
 1931poe    c2310209   5.229   0.794   1.957 -0.2336 -0.0225 -0.1784
 1931poe    c2310210   5.328   0.911   1.950 -0.6045  0.2746 -0.5633
 1931poe     o210211   5.281   0.988   1.842 -0.1348  0.3935 -0.6850
 1931poe    c3110212   5.386   1.078   1.811  0.1228  0.3589  0.0753
 1932poe    c3110213   1.050   6.431   4.021 -0.2326 -0.0252  0.2121
 1932poe     o210214   0.965   6.398   3.914  0.0961 -0.2776  0.0264
 1932poe    c2310215   0.842   6.467   3.921  0.3428  0.1602  0.0795
 1932poe    c2310216   0.741   6.407   3.821  0.0131  0.1305  0.4285
 1932poe     o210217   0.744   6.268   3.845 -0.3636  0.0331 -0.0792
 1932poe    c2310218   0.646   6.186   3.785  0.7496 -0.9140 -0.6431
 1932poe    c2310219   0.657   6.050   3.855 -0.0249 -0.6265  0.0540
 1932poe     o210220   0.796   6.029   3.864  0.0304 -0.0269  0.6411
 1932poe    c2310221   0.818   5.891   3.882  0.0370 -0.1302 -0.1072
 1932poe    c2310222   0.962   5.847   3.917  0.0629 -0.2012 -0.3014
 1932poe     o210223   1.020   5.916   4.025 -0.1660 -0.2267 -0.1609
 1932poe    c3110224   1.158   5.888   4.033 -0.1732 -0.0497  0.7417
 1933poe    c3110225   1.789   2.587   0.596  0.2602  0.3859  0.2165
 1933poe     o210226   1.657   2.635   0.603 -0.0551 -0.3551 -0.5137
 1933poe    c2310227   1.655   2.774   0.626 -0.3938 -0.3445 -0.6003
 1933poe    c2310228   1.512   2.831   0.623 -0.1073  0.3961 -0.2763
 1933poe     o210229   1.473   2.850   0.489  0.5781 -0.1671 -0.5573
 1933poe    c2310230   1.342   2.902   0.487  0.5576 -0.1922  0.1024
 1933poe    c2310231   1.282   2.904   0.345  0.1330  0.4562  0.2879
 1933poe     o210232   1.258   2.780   0.283  0.1820  0.3214  0.5376
 1933poe    c2310233   1.153   2.709   0.345  0.2071 -0.0563  0.1508
 1933poe    c2310234   1.138   2.564   0.295  0.0086  0.0603 -0.1305
 1933poe     o210235   1.241   2.474   0.331 -0.1266  0.0049  0.1242
 1933poe    c3110236   1.206   2.355   0.265 -0.2425  0.0986  0.0148
 1934poe    c3110237   1.437   1.596   4.256  0.1215  0.4466 -0.4580
 1934poe     o210238   1.300   1.609   4.225  0.0587  0.2323 -0.2670
 1934poe    c2310239   1.284   1.625   4.086 -0.5595  0.4533 -0.1730
 1934poe    c2310240   1.134   1.609   4.057 -0.3798 -0.4645 -0.6456
 1934poe     o210241   1.078   1.506   4.135 -0.2622  0.1947  0.3267
 1934poe    c2310242   0.943   1.494   4.098  0.0812 -0.5798 -0.7563
 1934poe    c2310243   0.893   1.369   4.173 -0.3243 -0.0123 -0.0597
 1934poe     o210244   0.915   1.396   4.309  0.0173 -0.8032  0.0455
 1934poe    c2310245   0.845   1.301   4.386 -0.4578 -0.3300  0.2037
 1934poe    c2310246   0.884   1.309   4.535 -0.3754 -0.0333  0.1659
 1934poe     o210247   0.866   1.435   4.596 -0.5018  0.1051 -0.1527
 1934poe    c3110248   0.889   1.427   4.735  0.1679 -0.7837 -0.3082
 1935poe    c3110249   6.407   3.912   3.295  0.5594 -0.3052  0.4476
 1935poe     o210250   6.494   3.999   3.226 -0.1948  0.3524  0.3101
 1935poe    c2310251   6.626   4.001   3.278 -0.0986  0.4086  0.0669
 1935poe    c2310252   6.715   4.120   3.237 -0.8747  0.9037 -0.2147
 1935poe     o210253   6.734   4.137   3.098  0.6232 -0.0570 -0.1563
 1935poe    c2310254   6.769   4.274   3.094  0.0263  0.1203  0.5134
 1935poe    c2310255   6.743   4.317   2.949 -0.1427 -0.9993  0.2021
 1935poe     o210256   6.604   4.331   2.933 -0.0032  0.3446  0.0403
 1935poe    c2310257   6.573   4.431   2.838 -0.4113  0.3590  0.1863
 1935poe    c2310258   6.554   4.570   2.900  0.4162  0.3983  0.3560
 1935poe     o210259   6.444   4.574   2.988 -0.0000 -0.2996 -0.1303
 1935poe    c3110260   6.447   4.709   3.029  0.5816 -0.2803 -0.2238
 1936poe    c3110261   6.493   6.538   1.691  0.5589 -0.5527 -0.1059
 1936poe     o210262   6.423   6.523   1.569 -0.1976 -0.3318  0.3012
 1936poe    c2310263   6.307   6.603   1.564  0.1369  0.1364 -0.0810
 1936poe    c2310264   6.233   6.567   1.434 -0.5476 -0.4561  0.4627
 1936poe     o210265   6.246   6.428   1.413  0.5824 -0.3628  0.4762
 1936poe    c2310266   6.140   6.377   1.336  0.2121 -0.0834  0.7945
 1936poe    c2310267   6.180   6.232   1.303 -0.0940  0.0319 -0.1252
 1936poe     o210268   6.290   6.233   1.214  0.2695 -0.3463  0.3163
 1936poe    c2310269   6.337   6.102   1.193 -0.2227 -0.4579 -0.1142
 1936poe    c2310270   6.464   6.093   1.108 -0.0444 -0.7299  0.1751
 1936poe     o210271   6.568   6.170   1.165 -0.5003  0.6350 -0.7906
 1936poe    c3110272   6.692   6.110   1.135 -0.1538  0.6613  0.5432
 1937poe    c3110273   3.647   3.917   6.552  0.6003 -0.3909 -0.1282
 1937poe     o210274   3.543   3.870   6.634  0.2167 -0.2015 -0.5038
 1937poe    c2310275   3.431   3.852   6.550 -0.2710  0.2761  0.0344
 1937poe    c2310276   3.306   3.809   6.629  0.1292 -0.0122  0.5165
 1937poe     o210277   3.318   3.871   6.755  0.2227  0.4832  0.2636
 1937poe    c2310278   3.195   3.902   6.817  0.0825  0.7319 -0.1304
 1937poe    c2310279   3.206   3.964   6.958  0.2490  0.1749  0.1045
 1937poe     o210280   3.279   3.875   7.040 -0.1707 -0.5879 -0.3311
 1937poe    c2310281   3.312   3.933   7.164  0.5725 -0.2964 -0.6607
 1937poe    c2310282   3.413   3.872   7.264  0.0979 -0.1091 -0.0592
 1937poe     o210283   3.372   3.816   7.386 -0.0775  0.4135  0.1263
 1937poe    c3110284   3.471   3.732   7.440 -0.4126  0.0022  0.1164
 1938poe    c3110285   4.257   1.382   5.633  0.1949  0.0943  0.4167
 1938poe     o210286   4.231   1.520   5.636 -0.1521  0.0559 -0.5690
 1938poe    c2310287   4.096   1.518   5.678  0.1465 -0.2298  0.4095
 1938poe    c2310288   4.029   1.655   5.664 -0.1771 -0.3749  0.5247
 1938poe     o210289   4.055   1.740   5.774  0.0908 -0.0016  0.1780
 1938poe    c2310290   3.983   1.861   5.770  0.4214  0.1979  0.2599
 1938poe    c2310291   4.055   1.987   5.720 -0.3860  0.5603 -0.0072
 1938poe     o210292   4.171   2.001   5.799 -0.3954  0.0258  0.1016
 1938poe    c2310293   4.231   2.122   5.760 -0.4557  0.0601  0.1142
 1938poe    c2310294   4.328   2.180   5.864 -0.1599  0.0372 -0.1493
 1938poe     o210295   4.452   2.113   5.871 -0.2217 -0.0597 -0.0006
 1938poe    c3110296   4.559   2.205   5.880 -0.2428 -0.0269 -0.0854
 1939poe    c3110297   3.005   4.879   5.929 -0.1190 -0.2893 -0.4474
 1939poe     o210298   2.933   4.998   5.951  0.2995 -0.2005  0.4811
 1939poe    c2310299   2.986   5.116   5.895  0.0052  0.0020  0.6248
 1939poe    c2310300   2.915   5.244   5.943 -0.1063  0.0422  0.3520
 1939poe     o210301   2.779   5.219   5.916 -0.0390  0.1858 -0.1446
 1939poe    c2310302   2.697   5.324   5.962 -0.0823 -0.0733  0.3833
 1939poe    c2310303   2.549   5.293   5.931  0.0192 -0.5502  0.3727
 1939poe     o210304   2.505   5.171   5.986  0.2156 -0.8422 -0.1072
 1939poe    c2310305   2.390   5.123   5.922  0.3334 -0.0618 -0.9160
 1939poe    c2310306   2.359   4.973   5.907 -0.1150 -0.0024 -0.5994
 1939poe     o210307   2.435   4.914   5.804 -0.6409  0.1331 -1.0734
 1939poe    c3110308   2.428   4.773   5.801  0.5188  0.0448 -0.3205
 1940poe    c3110309   6.671   5.997   3.834 -0.1669 -0.4902  0.5477
 1940poe     o210310   6.641   6.131   3.867 -0.2829 -0.3498 -0.1116
 1940poe    c2310311   6.510   6.174   3.839 -0.2563  0.0675  0.3887
 1940poe    c2310312   6.471   6.312   3.894 -0.3431  0.2617 -0.1561
 1940poe     o210313   6.449   6.293   4.032 -0.8227 -0.4319 -0.3213
 1940poe    c2310314   6.431   6.420   4.091 -0.1280 -0.3489 -0.2691
 1940poe    c2310315   6.541   6.459   4.191  0.1504 -0.7344 -0.4233
 1940poe     o210316   6.551   6.361   4.292  0.4298 -1.0561 -0.7597
 1940poe    c2310317   6.650   6.397   4.386 -0.6817  0.1625 -0.0297
 1940poe    c2310318   6.667   6.318   4.517  0.3736  1.1381  0.4386
 1940poe     o210319   6.549   6.331   4.593 -0.1202 -0.0347 -0.1090
 1940poe    c3110320   6.560   6.249   4.707  0.5817 -0.3772 -0.4116
 1941poe    c3110321   1.284   5.576   6.119 -0.0222  0.2217  0.7297
 1941poe     o210322   1.163   5.509   6.145 -0.0742  0.1867  0.3974
 1941poe    c2310323   1.077   5.529   6.034  0.6351 -0.5459 -0.2971
 1941poe    c2310324   0.935   5.474   6.056  0.2743  0.3275 -0.4209
 1941poe     o210325   0.923   5.457   6.195 -0.3240  0.1226 -0.4944
 1941poe    c2310326   0.792   5.441   6.246 -0.1772  0.1440 -0.1048
 1941poe    c2310327   0.794   5.448   6.399  0.3416  0.7917 -0.1380
 1941poe     o210328   0.888   5.350   6.436  0.0028  0.7286  0.5738
 1941poe    c2310329   0.895   5.323   6.575  0.4232 -0.1281  0.3977
 1941poe    c2310330   0.990   5.211   6.619  0.3411 -0.4967 -0.3478
 1941poe     o210331   1.127   5.223   6.589  0.1919 -0.0439 -0.8527
 1941poe    c3110332   1.179   5.105   6.645 -0.2795  0.1837  0.0812
 1942poe    c3110333   0.267   4.202   2.839  0.7002 -0.6675  0.3423
 1942poe     o210334   0.347   4.275   2.748  0.0204 -0.0574  0.2254
 1942poe    c2310335   0.262   4.337   2.654  0.0051 -0.5714 -0.1036
 1942poe    c2310336   0.355   4.410   2.555 -0.0196 -0.0134  0.2811
 1942poe     o210337   0.456   4.490   2.613  0.0821  0.3261 -0.3623
 1942poe    c2310338   0.544   4.542   2.515  0.3712  0.1944 -0.1730
 1942poe    c2310339   0.640   4.641   2.583  0.2760  0.1294  0.0589
 1942poe     o210340   0.682   4.576   2.700 -0.4676  0.3644  0.4645
 1942poe    c2310341   0.803   4.624   2.754 -0.1095 -0.3688  0.3328
 1942poe    c2310342   0.793   4.617   2.908  0.0820 -0.4819  0.3400
 1942poe     o210343   0.759   4.487   2.950 -0.2175 -0.4290  0.2614
 1942poe    c3110344   0.763   4.483   3.091 -0.6255  0.2023  0.2937
 1943poe    c3110345   2.622   2.128   0.511 -0.4767  0.0623 -0.3255
 1943poe     o210346   2.640   2.241   0.595 -0.0543  0.1180 -0.4877
 1943poe    c2310347   2.665   2.355   0.516  0.2920  0.4195  0.0547
 1943poe    c2310348   2.710   2.466   0.613 -0.1103  0.4511  0.2074
 1943poe     o210349   2.610   2.499   0.707 -0.4083  0.2293 -0.0322
 1943poe    c2310350   2.661   2.565   0.820  0.5688 -0.3858 -0.1031
 1943poe    c2310351   2.580   2.545   0.950  0.6643  0.1572  0.0425
 1943poe     o210352   2.597   2.412   0.993  0.3194  0.0767 -0.0666
 1943poe    c2310353   2.527   2.395   1.114 -0.2584 -0.8612 -0.5197
 1943poe    c2310354   2.568   2.278   1.206  0.0604 -0.1021  0.3245
 1943poe     o210355   2.504   2.161   1.160  0.1214 -0.0026 -0.0172
 1943poe    c3110356   2.435   2.095   1.264 -0.1673  0.4659  0.0915
 1944poe    c3110357   4.970   1.874   0.202 -0.0173 -0.1942 -0.2269
 1944poe     o210358   4.949   1.755   0.275 -0.5848 -0.0411 -0.1360
 1944poe    c2310359   4.993   1.644   0.200  0.1977 -0.0313  0.3044
 1944poe    c2310360   4.935   1.519   0.269 -0.5790  0.1953  0.0677
 1944poe     o210361   4.987   1.505   0.399 -0.0101 -0.4797 -0.2313
 1944poe    c2310362   4.958   1.381   0.462 -0.0067 -0.3512  0.0266
 1944poe    c2310363   5.023   1.371   0.601  0.1373  0.0371 -0.0117
 1944poe     o210364   4.978   1.481   0.677 -0.3678 -0.1482 -0.0432
 1944poe    c2310365   5.049   1.490   0.798 -0.3929 -0.2931 -0.0171
 1944poe    c2310366   5.020   1.627   0.862 -0.8570 -0.2599 -0.2923
 1944poe     o210367   5.021   1.737   0.773  0.2664 -0.1072 -0.1042
 1944poe    c3110368   4.997   1.860   0.838  0.1391 -0.2871  0.1920
 1945poe    c3110369   6.490   1.168   3.237 -0.1904 -0.0976  0.3753
 1945poe     o210370   6.612   1.209   3.295 -0.2438  0.8043 -0.1431
 1945poe    c2310371   6.641   1.345   3.270  0.4329  0.6379 -0.2830
 1945poe    c2310372   6.791   1.375   3.252  0.6215 -0.4148 -0.4888
 1945poe     o210373   6.873   1.364   3.366 -0.2070 -0.6175  0.0944
 1945poe    c2310374   7.006   1.369   3.319 -0.4338  0.4004 -0.4651
 1945poe    c2310375   7.101   1.369   3.440 -0.8096 -0.0436 -0.1647
 1945poe     o210376   7.060   1.262   3.523 -0.2433 -0.1131  0.0321
 1945poe    c2310377   7.130   1.254   3.645 -0.0269  0.0801 -0.0773
 1945poe    c2310378   7.073   1.126   3.711  0.1066  0.0259 -0.0675
 1945poe     o210379   6.933   1.131   3.713  0.1050  0.0546 -0.1919
 1945poe    c3110380   6.884   1.030   3.798 -0.6798  0.2163 -0.4387
 1946poe    c3110381   0.013   3.352   6.384  0.1045  0.2463 -0.1770
 1946poe     o210382   0.077   3.469   6.338 -0.2692  0.3929 -0.3352
 1946poe    c2310383   0.217   3.453   6.344 -0.2934  0.0838 -0.5448
 1946poe    c2310384   0.269   3.596   6.370  0.2362 -0.1498 -0.2988
 1946poe     o210385   0.199   3.692   6.294  0.4820  0.2052 -0.0780
 1946poe    c2310386   0.215   3.827   6.333 -0.6861  0.2694  0.2318
 1946poe    c2310387   0.115   3.919   6.261 -0.0811  0.4333 -0.4084
 1946poe     o210388   0.097   3.872   6.129 -0.5192 -0.7094  0.0472
 1946poe    c2310389   0.012   3.960   6.059  0.1047  0.0933  0.2825
 1946poe    c2310390   0.020   3.931   5.908 -0.3473 -0.0199  0.2796
 1946poe     o210391  -0.019   3.798   5.883 -0.6051  0.1069  0.0058
 1946poe    c3110392  -0.011   3.770   5.745  0.2376 -0.1918  0.1104
 1947poe    c3110393   3.260   6.338   2.139 -1.1700  0.0102 -0.1627
 1947poe     o210394   3.252   6.465   2.079  0.5307 -0.1906 -0.8584
 1947poe    c2310395   3.286   6.566   2.172 -0.1126 -0.0417 -0.7832
 1947poe    c2310396   3.339   6.700   2.117  0.0468 -0.0216 -0.5806
 1947poe     o210397   3.257   6.756   2.017 -0.1932  0.1577 -0.2872
 1947poe    c2310398   3.299   6.886   1.984 -0.1304  0.2399  0.1086
 1947poe    c2310399   3.192   6.972   1.914  0.1086  0.4527 -0.0013
 1947poe     o210400   3.096   7.016   2.007  0.3806  0.1292  0.4360
 1947poe    c2310401   3.072   7.153   1.983 -0.2230  0.0200  0.4048
 1947poe    c2310402   2.927   7.201   2.001 -0.2531 -0.1217  0.5387
 1947poe     o210403   2.827   7.134   1.928  0.4696 -0.2528 -0.3446
 1947poe    c3110404   2.700   7.195   1.937  0.5806 -0.1364  0.5209
 1948poe    c3110405   4.595   6.516   1.338 -0.1014  0.4331 -0.5439
 1948poe     o210406   4.632   6.587   1.454 -0.1757  0.0049 -0.2556
 1948poe    c2310407   4.694   6.498   1.544  0.2348  0.3033 -0.2385
 1948poe    c2310408   4.704   6.561   1.684 -0.0837  0.2645 -0.1959
 1948poe     o210409   4.578   6.599   1.732 -0.2266 -0.3929 -0.0353
 1948poe    c2310410   4.601   6.660   1.857  0.0435  0.0637 -0.3048
 1948poe    c2310411   4.488   6.757   1.897 -0.0143 -0.1154 -0.0349
 1948poe     o210412   4.464   6.860   1.804 -0.2467 -0.5132 -0.4220
 1948poe    c2310413   4.354   6.938   1.845  0.3195  0.0592  0.0304
 1948poe    c2310414   4.330   7.062   1.758 -0.4678 -0.1410 -0.0475
 1948poe     o210415   4.356   7.030   1.624  0.1587 -0.1559  0.0766
 1948poe    c3110416   4.307   7.141   1.552 -0.4471 -0.3113  0.2516
 1949poe    c3110417   0.725   6.462   6.766  0.4356 -0.2611  1.0465
 1949poe     o210418   0.591   6.421   6.761  0.2504  0.4508 -0.0602
 1949poe    c2310419   0.568   6.310   6.844 -0.4611  0.3533 -0.3775
 1949poe    c2310420   0.425   6.252   6.845 -0.2666 -0.1312 -0.2143
 1949poe     o210421   0.338   6.330   6.923 -0.0872 -0.4096  0.2684
 1949poe    c2310422   0.204   6.286   6.912 -0.3678  0.4362  0.1700
 1949poe    c2310423   0.115   6.379   6.996 -0.5361  0.2358  0.2121
 1949poe     o210424   0.156   6.513   6.983  0.2031  0.0085  0.1435
 1949poe    c2310425   0.099   6.601   7.077 -0.6698 -0.6975  0.2924
 1949poe    c2310426   0.159   6.740   7.047  0.0624 -1.0661  0.0158
 1949poe     o210427   0.299   6.731   7.035  0.1201 -0.2017 -0.0441
 1949poe    c3110428   0.361   6.856   7.021  0.4082 -0.2940  0.3879
 1950poe    c3110429   2.910   6.830   5.650 -0.0027 -0.5272 -0.1335
 1950poe     o210430   3.047   6.803   5.669  0.2195  0.0768 -0.8300
 1950poe    c2310431   3.084   6.667   5.666  0.0416  0.0061  0.0714
 1950poe    c2310432   3.236   6.655   5.642 -0.0147 -1.1947  0.2450
 1950poe     o210433   3.306   6.741   5.728 -0.6838 -0.2465 -0.1440
 1950poe    c2310434   3.443   6.743   5.695 -0.5493 -0.2699  0.4049
 1950poe    c2310435   3.512   6.791   5.825 -0.4561  0.3533  0.1284
 1950poe     o210436   3.450   6.910   5.870 -0.4156  0.4873 -0.1675
 1950poe    c2310437   3.498   6.949   5.996 -0.0945 -0.4596  0.0083
 1950poe    c2310438   3.437   7.071   6.066  0.2344 -0.3867  0.1743
 1950poe     o210439   3.299   7.048   6.084  0.0871  0.1705 -0.2011
 1950poe    c3110440   3.242   7.150   6.163  0.0930  0.2640 -0.3164
 1951poe    c3110441   1.179   5.143   1.296  0.5718 -0.8911  0.1805
 1951poe     o210442   1.102   5.102   1.408  0.1806 -0.5552  0.0382
 1951poe    c2310443   1.160   5.145   1.529 -0.2398  0.6754 -0.1843
 1951poe    c2310444   1.063   5.104   1.641 -0.0987 -0.0657 -0.3291
 1951poe     o210445   0.948   5.185   1.652  0.0685  0.1312 -0.0143
 1951poe    c2310446   0.842   5.130   1.726 -0.2937  0.5434 -0.2208
 1951poe    c2310447   0.706   5.150   1.658 -0.8393 -0.3114  0.5928
 1951poe     o210448   0.687   5.094   1.530  0.0162 -0.0099  0.3325
 1951poe    c2310449   0.558   5.131   1.485  0.1696  0.0961 -0.0253
 1951poe    c2310450   0.557   5.114   1.332 -0.4917 -0.0466 -0.0046
 1951poe     o210451   0.546   4.983   1.280  0.4347  0.0509 -0.4694
 1951poe    c3110452   0.527   5.001   1.142 -0.5981 -0.2980 -0.3800
 1952poe    c3110453   0.823   4.270   5.882 -0.3111  0.3931  0.0483
 1952poe     o210454   0.768   4.228   5.759 -0.3329 -0.2753  0.2824
 1952poe    c2310455   0.838   4.118   5.706  0.7131  0.3764  0.2928
 1952poe    c2310456   0.782   4.101   5.564 -0.6987  0.1456  0.8656
 1952poe     o210457   0.789   4.232   5.515 -0.0376  0.0274  0.6300
 1952poe    c2310458   0.744   4.237   5.381  0.4827 -0.6074  0.4291
 1952poe    c2310459   0.767   4.377   5.320 -0.3433 -0.4211  0.5457
 1952poe     o210460   0.707   4.479   5.397  0.5720  0.3670  0.2345
 1952poe    c2310461   0.693   4.601   5.328  0.2314  0.1554 -0.0732
 1952poe    c2310462   0.601   4.694   5.409  0.4960 -0.2171  0.6573
 1952poe     o210463   0.663   4.722   5.533  0.7861  0.1016  0.4416
 1952poe    c3110464   0.606   4.834   5.597  0.3860  0.2943 -0.2394
 1953poe    c3110465   3.696   3.788   4.996 -0.2901 -0.2206  0.1527
 1953poe     o210466   3.631   3.882   4.914 -0.1202 -0.2325  0.0036
 1953poe    c2310467   3.517   3.831   4.849  0.0243 -0.0853 -0.3670
 1953poe    c2310468   3.501   3.912   4.718 -0.0789  0.2275 -0.1623
 1953poe     o210469   3.466   4.047   4.737 -0.0277  0.2101  0.0667
 1953poe    c2310470   3.488   4.127   4.623  0.0516 -0.0254 -0.0844
 1953poe    c2310471   3.492   4.279   4.649  0.7765  0.0314 -0.5224
 1953poe     o210472   3.573   4.308   4.761  0.3287 -0.4503 -0.0689
 1953poe    c2310473   3.587   4.447   4.781  0.3343 -0.3068 -1.0314
 1953poe    c2310474   3.679   4.481   4.900 -0.3758 -0.4359 -0.4425
 1953poe     o210475   3.662   4.384   5.001 -0.0692  0.3254  0.3548
 1953poe    c3110476   3.760   4.415   5.097  1.1853  0.1803 -0.8446
 1954poe    c3110477   0.150   5.197   0.494  0.0023  0.0757  0.5896
 1954poe     o210478   0.255   5.290   0.486 -0.0940  0.1520  0.1831
 1954poe    c2310479   0.303   5.346   0.606  0.5479 -0.5093  0.2348
 1954poe    c2310480   0.441   5.413   0.587  0.4650 -0.4347 -0.1017
 1954poe     o210481   0.439   5.497   0.474 -0.1162 -0.5537 -0.1864
 1954poe    c2310482   0.564   5.556   0.445 -0.2774 -0.0886  0.0554
 1954poe    c2310483   0.558   5.661   0.333 -0.5200 -0.1821 -0.0193
 1954poe     o210484   0.507   5.603   0.215  0.0481 -0.3003 -0.2112
 1954poe    c2310485   0.529   5.678   0.098  0.1445  0.2906  0.1826
 1954poe    c2310486   0.512   5.591  -0.028  0.1338 -0.2313  0.5428
 1954poe     o210487   0.415   5.492  -0.006 -0.1690  0.0011  0.2553
 1954poe    c3110488   0.388   5.417  -0.123 -0.3691  1.0941 -0.4096
 1955poe    c3110489   0.896   5.760   2.047 -0.4571  0.5519 -0.4007
 1955poe     o210490   0.894   5.664   1.944  0.1594 -0.8559  0.8599
 1955poe    c2310491   1.025   5.619   1.923  0.4155  0.1793  0.1281
 1955poe    c2310492   1.018   5.531   1.796 -0.6568  0.2732  0.1130
 1955poe     o210493   0.997   5.597   1.673 -0.0562  0.0905 -0.0946
 1955poe    c2310494   0.971   5.499   1.575  0.3071 -0.0242 -0.0760
 1955poe    c2310495   0.943   5.553   1.433  0.1770 -0.6309 -0.2816
 1955poe     o210496   0.841   5.651   1.436  0.3121 -0.4975 -0.0136
 1955poe    c2310497   0.768   5.675   1.318 -0.0713  0.4164  0.4026
 1955poe    c2310498   0.628   5.730   1.347 -0.3292 -0.0993  0.1545
 1955poe     o210499   0.636   5.824   1.453 -0.6321 -0.0516  0.1369
 1955poe    c3110500   0.526   5.912   1.457 -0.8676 -0.3610  0.5820
 1956poe    c3110501   2.950   6.185   0.395 -0.0400  0.3219  0.1522
 1956poe     o210502   3.006   6.170   0.523  0.0378  0.9291  0.1960
 1956poe    c2310503   2.946   6.068   0.599  0.0060  0.6273 -0.2274
 1956poe    c2310504   3.003   6.059   0.742  0.0121 -0.4317 -0.2900
 1956poe     o210505   3.007   6.186   0.801 -0.2964 -0.3453 -0.4541
 1956poe    c2310506   3.044   6.182   0.937 -0.1913  0.2701 -0.4596
 1956poe    c2310507   3.039   6.331   0.976 -0.2520  0.3030 -0.5927
 1956poe     o210508   3.130   6.411   0.904  0.2267 -0.1885 -0.5396
 1956poe    c2310509   3.245   6.451   0.976 -0.3744  0.2214  0.2154
 1956poe    c2310510   3.341   6.532   0.887 -0.2589 -0.2661 -0.1075
 1956poe     o210511   3.399   6.442   0.795  0.0963  0.1227 -0.2676
 1956poe    c3110512   3.535   6.468   0.769  0.2967 -0.0769  0.5684
 1957poe    c3110513   3.178   3.948   2.150 -0.1534  0.2546 -0.4783
 1957poe     o210514   3.203   3.900   2.020  0.3122  0.5251 -0.4924
 1957poe    c2310515   3.228   3.761   2.021 -0.2582  0.4221 -0.0381
 1957poe    c2310516   3.220   3.689   1.885  0.3652 -0.0660  0.1854
 1957poe     o210517   3.312   3.724   1.784 -0.0001  0.2525 -0.0334
 1957poe    c2310518   3.309   3.631   1.678 -0.4210  0.4280 -0.1804
 1957poe    c2310519   3.410   3.669   1.568  0.1545 -0.6384 -0.0298
 1957poe     o210520   3.375   3.800   1.530  0.3345 -0.5936 -0.0428
 1957poe    c2310521   3.467   3.845   1.434 -0.2282  0.0165 -0.3017
 1957poe    c2310522   3.428   3.991   1.401  0.1063  0.2394  0.2722
 1957poe     o210523   3.418   4.055   1.526 -0.4517  0.5475  0.0722
 1957poe    c3110524   3.409   4.194   1.508  0.3284  0.5835 -0.0674
 1958poe    c3110525   1.276   0.025   5.322  0.5878 -0.2218  0.5028
 1958poe     o210526   1.182  -0.051   5.249  0.5166  0.1457  0.2080
 1958poe    c2310527   1.059   0.019   5.249 -0.0334 -0.7945 -0.3338
 1958poe    c2310528   0.957  -0.024   5.143 -0.0948 -0.3623 -0.4504
 1958poe     o210529   1.016   0.000   5.017  0.5550 -0.3810 -0.1548
 1958poe    c2310530   0.920  -0.011   4.914  0.2115  0.1003  0.1081
 1958poe    c2310531   0.993  -0.024   4.779 -0.2071 -0.1284 -0.0987
 1958poe     o210532   1.077  -0.137   4.794 -0.3096 -0.1591  0.2475
 1958poe    c2310533   1.141  -0.150   4.669 -0.4464 -0.2078  0.1833
 1958poe    c2310534   1.262  -0.244   4.683 -0.5211 -0.3163  0.1029
 1958poe     o210535   1.244  -0.348   4.778 -0.3435  0.0117  0.4968
 1958poe    c3110536   1.331  -0.456   4.755  0.4756  0.6453  0.5480
 1959poe    c3110537   1.550   0.804   4.952  0.1909  0.2189  0.3654
 1959poe     o210538   1.681   0.811   4.900 -0.1533  0.2854 -0.5141
 1959poe    c2310539   1.761   0.908   4.963  0.1544 -0.4439  0.2503
 1959poe    c2310540   1.904   0.923   4.906 -0.1327  0.4444 -0.2514
 1959poe     o210541   1.927   0.992   4.785 -0.0846  0.4369 -0.2464
 1959poe    c2310542   2.062   1.028   4.761  0.0272 -0.0630 -0.3914
 1959poe    c2310543   2.108   1.097   4.632 -0.7978  0.0893 -0.6096
 1959poe     o210544   2.082   1.234   4.612 -0.1777  0.3025  0.0303
 1959poe    c2310545   2.149   1.333   4.687 -0.0407  0.2155  0.0244
 1959poe    c2310546   2.100   1.477   4.661  0.1981  0.2338 -0.3282
 1959poe     o210547   1.965   1.507   4.689  0.1058 -0.6355  0.1915
 1959poe    c3110548   1.952   1.538   4.826 -0.0741 -0.2000  0.0753
 1960poe    c3110549   3.481   1.288   6.146  0.1301 -0.5132 -0.0074
 1960poe     o210550   3.364   1.261   6.221  0.0882 -0.0020  0.1209
 1960poe    c2310551   3.333   1.128   6.185 -0.0168  0.0239  0.1183
 1960poe    c2310552   3.225   1.064   6.274  0.1178 -0.2071  0.1153
 1960poe     o210553   3.272   1.075   6.407 -0.3804 -0.2424  0.2982
 1960poe    c2310554   3.184   1.011   6.496 -0.3510  0.2846  0.7046
 1960poe    c2310555   3.241   1.009   6.639 -0.0765  0.2431  0.5948
 1960poe     o210556   3.348   0.919   6.656 -0.1033  0.0882 -0.0308
 1960poe    c2310557   3.403   0.939   6.785  0.3048  0.4148 -0.2551
 1960poe    c2310558   3.557   0.937   6.795  0.2760 -0.3890  0.0651
 1960poe     o210559   3.589   0.804   6.762  0.1716 -0.3559 -0.1678
 1960poe    c3110560   3.724   0.793   6.724  0.0809  0.1485 -0.6559
 1961poe    c3110561   6.913   4.089   4.417 -0.0497 -0.1603 -0.0614
 1961poe     o210562   6.969   4.179   4.511 -0.2281 -0.2261  0.1092
 1961poe    c2310563   6.926   4.313   4.501  0.1437 -0.1480 -0.4711
 1961poe    c2310564   6.776   4.343   4.516  0.2284  0.0240  0.0256
 1961poe     o210565   6.728   4.354   4.648 -0.2001  0.2078 -0.1448
 1961poe    c2310566   6.590   4.381   4.666 -0.2043  0.3694 -0.4321
 1961poe    c2310567   6.558   4.387   4.816  0.1883  0.2009 -0.3407
 1961poe     o210568   6.657   4.460   4.885 -0.2819  0.5231  0.0032
 1961poe    c2310569   6.646   4.443   5.025  0.0568 -0.1274 -0.0410
 1961poe    c2310570   6.778   4.499   5.081 -0.1684  0.1623  0.2082
 1961poe     o210571   6.881   4.467   4.990 -0.1596 -0.0447  0.2894
 1961poe    c3110572   7.005   4.485   5.055  0.0999 -0.6969 -0.0146
 1962poe    c3110573   4.630   4.574   6.753 -0.0182 -0.4406 -0.4531
 1962poe     o210574   4.766   4.597   6.786 -0.1938 -0.1257  0.0684
 1962poe    c2310575   4.795   4.535   6.909  0.4014  0.6649  0.3348
 1962poe    c2310576   4.947   4.551   6.925  0.5279 -0.2764  0.1624
 1962poe     o210577   4.981   4.675   6.866 -0.2875 -0.1078  0.0404
 1962poe    c2310578   5.115   4.718   6.877 -0.2224 -0.2402 -0.2434
 1962poe    c2310579   5.128   4.842   6.786 -0.5195 -0.0296 -0.0020
 1962poe     o210580   5.075   4.819   6.657 -0.0883 -0.7357 -0.0616
 1962poe    c2310581   5.123   4.910   6.560 -0.1985  0.0670  0.6255
 1962poe    c2310582   5.042   4.909   6.430  0.3127  0.1675  0.3053
 1962poe     o210583   4.916   4.965   6.461 -0.1264 -0.6017 -0.0394
 1962poe    c3110584   4.828   4.985   6.353  0.1057 -0.2434 -0.1650
 1963poe    c3110585   3.538   5.779   4.206 -0.0267 -0.1362 -0.2880
 1963poe     o210586   3.573   5.913   4.179 -0.4593  0.0605  0.1029
 1963poe    c2310587   3.532   5.993   4.287 -0.5296  0.0498  0.0847
 1963poe    c2310588   3.560   6.144   4.276  0.1064 -0.0931 -0.3068
 1963poe     o210589   3.696   6.182   4.276  0.1230 -0.1527 -0.3559
 1963poe    c2310590   3.699   6.316   4.235  0.3306 -0.2913 -0.8012
 1963poe    c2310591   3.842   6.370   4.219  0.2965  0.1032  0.1405
 1963poe     o210592   3.908   6.299   4.116  0.1941 -0.0057  0.1503
 1963poe    c2310593   3.996   6.382   4.044  0.6585 -0.3650  0.3030
 1963poe    c2310594   4.100   6.289   3.978  0.6091 -0.2343  0.0432
 1963poe     o210595   4.032   6.226   3.872  0.0334  0.4597 -0.0102
 1963poe    c3110596   4.112   6.132   3.804 -0.5251  0.5327 -0.7918
 1964poe    c3110597   5.729   0.381   0.589  0.8068  0.0535  0.1736
 1964poe     o210598   5.680   0.453   0.700  0.2721 -0.0834  0.0290
 1964poe    c2310599   5.654   0.582   0.648  0.6713  0.0158  0.0751
 1964poe    c2310600   5.562   0.642   0.756  0.3878  0.0901 -0.2067
 1964poe     o210601   5.624   0.609   0.879 -0.1066  0.0411  0.0309
 1964poe    c2310602   5.549   0.648   0.992  0.2166  0.3351  0.1445
 1964poe    c2310603   5.590   0.575   1.121 -0.0990  0.1850  0.1598
 1964poe     o210604   5.615   0.442   1.081 -0.3947  0.0910  0.2810
 1964poe    c2310605   5.596   0.362   1.196  0.0584 -0.1382  0.1982
 1964poe    c2310606   5.639   0.214   1.191 -0.0958 -0.1819  0.1716
 1964poe     o210607   5.575   0.146   1.085 -0.5010 -0.0653  0.3382
 1964poe    c3110608   5.558   0.011   1.120  0.6886 -0.3371 -0.0723
 1965poe    c3110609   3.361   5.256   0.399 -0.0997  0.4119  0.0778
 1965poe     o210610   3.313   5.208   0.276  0.2196  0.2102  0.0312
 1965poe    c2310611   3.410   5.157   0.187  0.1896  0.1904  0.0096
 1965poe    c2310612   3.363   5.096   0.054 -0.0462 -0.0352  0.1954
 1965poe     o210613   3.299   5.192  -0.027  0.1537  0.2559  0.3815
 1965poe    c2310614   3.233   5.120  -0.129  0.1708  0.2910  0.3457
 1965poe    c2310615   3.139   5.204  -0.217  0.1182  0.2035  0.3188
 1965poe     o210616   3.040   5.261  -0.134  0.0648  0.5912 -0.0154
 1965poe    c2310617   2.937   5.331  -0.202 -0.6770 -0.4583  0.0095
 1965poe    c2310618   2.869   5.439  -0.116  0.1450 -0.0495  0.1500
 1965poe     o210619   2.964   5.486  -0.022  0.1488 -0.0166  0.1295
 1965poe    c3110620   2.903   5.582   0.062 -0.3155 -0.1859 -0.0075
 1966poe    c3110621   3.847   2.540   4.509 -0.2397  0.0573  0.7421
 1966poe     o210622   3.711   2.538   4.470 -0.0933 -0.1518  0.2295
 1966poe    c2310623   3.654   2.413   4.440 -0.0509  0.0345 -0.6530
 1966poe    c2310624   3.500   2.404   4.441 -0.0596  0.1771 -0.5758
 1966poe     o210625   3.482   2.468   4.565  0.2273 -0.4628 -0.1984
 1966poe    c2310626   3.359   2.444   4.631  0.1670  0.3640 -0.0036
 1966poe    c2310627   3.240   2.529   4.583 -0.1576  0.2784  0.6410
 1966poe     o210628   3.286   2.662   4.571  0.3729  0.0117 -0.4405
 1966poe    c2310629   3.189   2.764   4.576  0.0142 -0.3579  0.2879
 1966poe    c2310630   3.256   2.902   4.585 -0.1455 -0.2332 -0.4103
 1966poe     o210631   3.348   2.925   4.480 -0.0678 -0.0727 -0.3088
 1966poe    c3110632   3.425   3.040   4.505 -0.2923  0.1211 -0.5008
 1967poe    c3110633   6.304   6.633   2.815  0.0322  0.0114 -0.6355
 1967poe     o210634   6.404   6.604   2.720 -0.0704  0.2295 -0.8103
 1967poe    c2310635   6.353   6.567   2.593  0.0864 -0.5842 -0.6408
 1967poe    c2310636   6.469   6.536   2.496  0.1427 -0.1013 -0.7331
 1967poe     o210637   6.571   6.469   2.567 -0.2945  0.2031  0.1983
 1967poe    c2310638   6.680   6.455   2.479 -0.2872 -0.2442  0.2731
 1967poe    c2310639   6.806   6.409   2.556 -0.4192  0.0605  0.6804
 1967poe     o210640   6.845   6.498   2.658 -0.5168  0.4359  0.3940
 1967poe    c2310641   6.970   6.459   2.712 -0.4535 -0.0766 -0.1023
 1967poe    c2310642   6.995   6.544   2.838 -0.0753 -0.5401  0.1405
 1967poe     o210643   6.912   6.526   2.951 -0.2905 -0.1678  0.0468
 1967poe    c3110644   6.948   6.630   3.038 -0.3582 -0.1727  0.0805
 1968poe    c3110645   2.001   3.345   6.857 -0.1860 -0.0308  0.0749
 1968poe     o210646   2.005   3.295   6.988 -0.0160 -0.3707 -0.0586
 1968poe    c2310647   1.947   3.166   6.988 -0.6462 -0.0923 -0.4934
 1968poe    c2310648   1.971   3.092   7.120  0.0029  0.6119 -0.2035
 1968poe     o210649   1.901   3.135   7.235  0.0519  0.0850  0.0255
 1968poe    c2310650   1.872   3.026   7.320 -0.1452  0.1435  0.0326
 1968poe    c2310651   1.830   3.090   7.454 -0.1039  0.0168  0.1067
 1968poe     o210652   1.714   3.170   7.453 -0.0845  0.0417 -0.3237
 1968poe    c2310653   1.673   3.238   7.569 -0.0438 -0.2075 -0.1630
 1968poe    c2310654   1.521   3.259   7.549 -0.1222 -0.5176  0.0883
 1968poe     o210655   1.499   3.316   7.422  0.1256 -0.1373  0.2137
 1968poe    c3110656   1.369   3.296   7.373  0.0610 -0.0367  0.3437
 1969poe    c3110657   4.274   6.576   1.638  0.2833  0.2650  0.2802
 1969poe     o210658   4.173   6.510   1.711  0.2150 -0.0284 -0.0728
 1969poe    c2310659   4.109   6.418   1.626  0.2622 -0.0007 -0.1390
 1969poe    c2310660   3.956   6.439   1.630  0.2650 -0.0037 -0.0087
 1969poe     o210661   3.916   6.570   1.598  0.0132 -0.1327 -0.2206
 1969poe    c2310662   3.775   6.577   1.600  0.0148 -0.2567  0.5228
 1969poe    c2310663   3.716   6.718   1.620 -0.2693 -0.3344  0.2354
 1969poe     o210664   3.763   6.769   1.743 -0.2436  0.4785 -0.1013
 1969poe    c2310665   3.680   6.869   1.798 -0.0388  0.5147  0.1426
 1969poe    c2310666   3.745   6.915   1.930  0.2017 -0.0901  0.2389
 1969poe     o210667   3.885   6.915   1.907  0.1145  0.3371 -0.3251
 1969poe    c3110668   3.957   6.988   2.004  0.2235  0.2374 -0.3324
 1970poe    c3110669   4.342   1.287   1.175 -0.3878 -0.5699  0.3608
 1970poe     o210670   4.241   1.360   1.243  0.0869  0.1423  0.3126
 1970poe    c2310671   4.271   1.497   1.256 -0.0706  0.1387  0.7078
 1970poe    c2310672   4.186   1.561   1.367 -0.3248  0.0966  0.5397
 1970poe     o210673   4.055   1.593   1.327 -0.1491  0.0863 -0.0495
 1970poe    c2310674   4.019   1.717   1.383  0.2988  0.1220  0.1638
 1970poe    c2310675   3.919   1.804   1.305  0.4968  0.2397  0.0403
 1970poe     o210676   3.969   1.844   1.179 -0.0831 -0.0704 -0.2950
 1970poe    c2310677   3.895   1.948   1.118  0.0849  0.3910  0.2802
 1970poe    c2310678   3.915   1.974   0.968 -0.4078  0.4015  0.2141
 1970poe     o210679   4.035   2.040   0.934 -0.3584  0.1602 -0.0774
 1970poe    c3110680   4.047   2.085   0.800  0.1552 -0.4082 -0.2271
 1971poe    c3110681   1.930   0.305   6.741 -0.4401 -0.0709  0.4429
 1971poe     o210682   1.939   0.171   6.700 -0.2685 -0.0610  0.4450
 1971poe    c2310683   2.074   0.130   6.693 -0.3174 -0.0932 -0.4817
 1971poe    c2310684   2.093  -0.017   6.652  0.1224 -0.1396 -0.1235
 1971poe     o210685   2.092  -0.038   6.512  0.4406  0.2973 -0.1931
 1971poe    c2310686   2.108  -0.174   6.479 -0.1693  0.2591 -0.3434
 1971poe    c2310687   2.068  -0.199   6.332 -0.5554 -0.3311 -0.1358
 1971poe     o210688   2.173  -0.167   6.244 -0.2906  0.3459  0.4155
 1971poe    c2310689   2.127  -0.173   6.111 -0.3847  0.5502  0.4390
 1971poe    c2310690   2.231  -0.129   6.006 -0.2200 -0.1152  0.3220
 1971poe     o210691   2.262   0.006   6.030 -0.3246 -0.0174 -0.0841
 1971poe    c3110692   2.397   0.032   6.001 -0.4219  0.0446 -0.4811
 1972poe    c3110693   2.407   2.167   4.833  0.1506 -0.4899 -0.5782
 1972poe     o210694   2.540   2.142   4.873  0.0846  0.0916  0.0187
 1972poe    c2310695   2.609   2.260   4.838  0.3526 -0.1150 -0.1520
 1972poe    c2310696   2.750   2.222   4.887  0.6199  0.2231 -0.6532
 1972poe     o210697   2.757   2.229   5.028  0.2691  0.1720 -0.6315
 1972poe    c2310698   2.889   2.208   5.075  0.1809  0.0456 -0.4390
 1972poe    c2310699   2.920   2.289   5.202  0.1162 -0.6144  0.0014
 1972poe     o210700   2.815   2.251   5.288  0.0493  0.3685  0.3722
 1972poe    c2310701   2.820   2.320   5.411  0.6883  0.2174  0.4367
 1972poe    c2310702   2.725   2.238   5.500  0.0608  0.0398 -0.3763
 1972poe     o210703   2.616   2.201   5.419  0.1320 -0.1877 -0.3674
 1972poe    c3110704   2.503   2.173   5.498  0.2658  0.6983  0.1414
 1973poe    c3110705   5.193   0.706   6.313 -0.1269 -0.5089  0.1901
 1973poe     o210706   5.224   0.842   6.292 -0.3900 -0.3905  0.5567
 1973poe    c2310707   5.352   0.879   6.338 -0.5333  0.5264  0.2480
 1973poe    c2310708   5.332   1.030   6.360 -0.0050  0.6133  0.1378
 1973poe     o210709   5.243   1.082   6.263  0.1150  0.5539 -0.0040
 1973poe    c2310710   5.212   1.216   6.294  0.5119  0.6996 -0.2285
 1973poe    c2310711   5.111   1.271   6.192  0.3819  0.1793 -0.3833
 1973poe     o210712   4.991   1.197   6.193  0.4429  0.0803 -0.3719
 1973poe    c2310713   4.896   1.247   6.103 -0.2594  0.1245  0.3819
 1973poe    c2310714   4.794   1.136   6.069  0.0970 -0.0723 -0.0674
 1973poe     o210715   4.862   1.024   6.018  0.5468  0.2475 -0.1684
 1973poe    c3110716   4.772   0.919   5.994  0.4596  0.4214 -0.6094
 1974poe    c3110717   6.181   2.324   2.095 -0.1206 -0.9028 -0.6103
 1974poe     o210718   6.119   2.246   2.195  0.2791 -0.2714  0.1399
 1974poe    c2310719   5.984   2.228   2.160  0.2881 -0.2035  0.0705
 1974poe    c2310720   5.899   2.199   2.285  0.1208 -0.2061 -0.0434
 1974poe     o210721   5.953   2.077   2.332  0.2339 -0.1028  0.0937
 1974poe    c2310722   5.867   2.028   2.431  0.2292  0.2503  0.2665
 1974poe    c2310723   5.917   1.892   2.485  0.0845 -0.0216 -0.2807
 1974poe     o210724   6.052   1.918   2.513  0.1296 -0.1266 -0.4005
 1974poe    c2310725   6.122   1.802   2.554  0.1518 -0.3304 -1.0051
 1974poe    c2310726   6.273   1.834   2.550  0.1144  0.0917  0.3285
 1974poe     o210727   6.283   1.879   2.417  0.1081 -0.0294  0.2864
 1974poe    c3110728   6.417   1.915   2.389  0.1232 -0.0930  0.2753
 1975poe    c3110729   3.105   3.555   6.942 -0.2212 -0.5021 -0.2592
 1975poe     o210730   3.191   3.467   7.010 -0.1616  0.0146  0.3409
 1975poe    c2310731   3.242   3.541   7.118  0.0789  0.3505 -0.0025
 1975poe    c2310732   3.331   3.454   7.208 -0.6939 -0.5931 -0.1326
 1975poe     o210733   3.413   3.375   7.125 -0.2910 -0.2782 -0.0359
 1975poe    c2310734   3.493   3.284   7.198  0.0763 -0.2950 -0.4498
 1975poe    c2310735   3.613   3.250   7.110  0.6106  0.3272  0.0236
 1975poe     o210736   3.553   3.170   7.010  0.1362  0.2512  0.3686
 1975poe    c2310737   3.637   3.156   6.898 -0.0685 -0.4786  0.3030
 1975poe    c2310738   3.569   3.045   6.815 -0.1884 -0.3424  0.2203
 1975poe     o210739   3.432   3.076   6.811 -0.1045  0.0375  0.2019
 1975poe    c3110740   3.356   2.989   6.729  0.7979 -0.0454 -0.5587
 1976poe    c3110741   4.178   1.136   0.048  0.6872 -0.1041 -0.1931
 1976poe     o210742   4.173   0.996   0.055  0.5887 -0.0744  0.3922
 1976poe    c2310743   4.132   0.945  -0.070 -0.1130  0.1846  0.5129
 1976poe    c2310744   4.122   0.792  -0.056  0.0283  0.0558 -0.6340
 1976poe     o210745   4.033   0.756   0.047  0.6241 -0.0158 -0.1358
 1976poe    c2310746   4.024   0.618   0.072 -0.1743  0.0730  0.0966
 1976poe    c2310747   3.952   0.590   0.206  0.1288  0.0409  0.2524
 1976poe     o210748   3.819   0.635   0.200 -0.2227 -1.0206 -0.0464
 1976poe    c2310749   3.775   0.732   0.292  0.1230 -0.4476 -0.4832
 1976poe    c2310750   3.731   0.680   0.430  0.7992 -0.2145 -0.1748
 1976poe     o210751   3.842   0.635   0.504  0.4332 -0.1926  0.3889
 1976poe    c3110752   3.814   0.587   0.634 -0.1675  0.0285  0.3476
 1977poe    c3110753   6.879   0.075   3.551  0.6682  0.7362 -0.0666
 1977poe     o210754   6.994   0.104   3.627  0.3091 -0.0663  0.8062
 1977poe    c2310755   6.978   0.221   3.704  0.1514  0.5183 -0.1018
 1977poe    c2310756   7.072   0.242   3.824  0.3442 -0.6195 -0.0366
 1977poe     o210757   7.202   0.249   3.770  0.3258  0.3535  0.0273
 1977poe    c2310758   7.280   0.322   3.861 -0.0576  0.2183  0.4669
 1977poe    c2310759   7.430   0.336   3.830 -0.1297 -0.2468 -0.1007
 1977poe     o210760   7.460   0.427   3.726 -0.0186 -0.0397  0.1100
 1977poe    c2310761   7.505   0.549   3.781 -0.1915  0.2873 -0.4647
 1977poe    c2310762   7.555   0.648   3.675  0.1644  0.3851 -0.2040
 1977poe     o210763   7.660   0.588   3.602  0.1276 -0.0453  0.0919
 1977poe    c3110764   7.668   0.660   3.481 -0.7248  0.3995  0.2908
 1978poe    c3110765   4.941   2.514   2.579 -0.5217  0.4455  0.1051
 1978poe     o210766   4.998   2.548   2.455 -0.4497 -0.8349 -0.2257
 1978poe    c2310767   5.137   2.524   2.456 -0.2634  0.1869 -0.3450
 1978poe    c2310768   5.210   2.560   2.325  0.6153  0.4657  0.2119
 1978poe     o210769   5.194   2.699   2.306 -0.1140  0.3889  0.2328
 1978poe    c2310770   5.249   2.745   2.185  0.3276 -0.0627  0.2561
 1978poe    c2310771   5.206   2.892   2.167  0.0864 -0.1679 -0.0474
 1978poe     o210772   5.067   2.906   2.178  0.1407  0.1072  0.3091
 1978poe    c2310773   5.021   3.036   2.148 -0.4543 -0.1623  0.0166
 1978poe    c2310774   5.030   3.149   2.253 -0.0142  0.0075 -0.2024
 1978poe     o210775   4.944   3.131   2.363  0.0746  0.0969 -0.1179
 1978poe    c3110776   4.992   3.032   2.452  0.3163  0.3415  0.0279
 1979poe    c3110777   0.787   6.023   1.008  0.0614  0.8745  0.0760
 1979poe     o210778   0.673   5.984   0.935  0.3244 -0.2067  0.2356
 1979poe    c2310779   0.722   5.911   0.824  0.3294 -0.3951  0.3600
 1979poe    c2310780   0.612   5.887   0.719  0.5194  0.6121 -0.0819
 1979poe     o210781   0.595   5.998   0.633  0.2941  0.4440 -0.2570
 1979poe    c2310782   0.492   5.980   0.539  0.3271 -0.4666 -0.1309
 1979poe    c2310783   0.467   6.107   0.455  0.5411 -0.4171 -0.1218
 1979poe     o210784   0.583   6.164   0.400  0.2905  0.3589  0.1417
 1979poe    c2310785   0.553   6.269   0.311 -0.1681  0.5417  0.5057
 1979poe    c2310786   0.677   6.324   0.238 -0.2019  0.3138  0.2761
 1979poe     o210787   0.663   6.437   0.156  0.1908 -0.1424 -0.4331
 1979poe    c3110788   0.781   6.507   0.125  0.1885  0.0195 -0.0827
 1980poe    c3110789   3.031   2.713   6.959  0.5045 -0.0424 -0.0356
 1980poe     o210790   2.949   2.820   7.002  0.2010 -0.5028  0.5418
 1980poe    c2310791   2.817   2.771   7.016 -0.1024  0.1318 -0.0605
 1980poe    c2310792   2.738   2.842   7.127 -0.3530 -0.2321 -0.0072
 1980poe     o210793   2.732   2.982   7.114 -0.0641 -0.2196 -0.0028
 1980poe    c2310794   2.662   3.030   7.227 -0.4138 -0.1489 -0.2497
 1980poe    c2310795   2.706   3.177   7.245 -0.3506 -0.2550  0.4830
 1980poe     o210796   2.718   3.234   7.117  0.5776 -0.6686  0.3793
 1980poe    c2310797   2.778   3.361   7.123  0.2199 -0.4703 -0.1118
 1980poe    c2310798   2.780   3.425   6.983 -0.1216 -0.3805 -0.0765
 1980poe     o210799   2.861   3.353   6.893  0.6115  0.5552 -0.1870
 1980poe    c3110800   2.836   3.394   6.760 -0.2554  0.4138 -0.0751
 1981poe    c3110801   5.325   6.996   2.922 -0.5216 -0.3018 -0.1197
 1981poe     o210802   5.412   7.094   2.868 -0.0552 -0.7959 -0.2711
 1981poe    c2310803   5.367   7.112   2.735  0.5523 -0.3282 -0.4175
 1981poe    c2310804   5.440   7.240   2.692 -0.2407  0.1927 -0.2198
 1981poe     o210805   5.574   7.219   2.730 -0.1658  0.2061 -0.4775
 1981poe    c2310806   5.653   7.285   2.634 -0.2317 -0.0695 -0.7235
 1981poe    c2310807   5.788   7.328   2.694 -0.2695 -0.6416 -0.2281
 1981poe     o210808   5.830   7.244   2.799 -0.2195  0.0997  0.3575
 1981poe    c2310809   5.965   7.249   2.840 -0.4605  0.9332  1.0757
 1981poe    c2310810   5.999   7.132   2.934  0.2057  0.0935 -0.1953
 1981poe     o210811   5.987   7.011   2.862 -0.4029 -0.1749  0.3494
 1981poe    c3110812   6.014   6.904   2.950 -0.1370 -0.0167  0.4619
 1982poe    c3110813   2.903   1.227   4.542 -0.2071  0.5689  0.4243
 1982poe     o210814   2.947   1.124   4.456  0.2709  0.7544  0.4467
 1982poe    c2310815   2.852   1.019   4.463  0.5558  0.4649  0.0176
 1982poe    c2310816   2.896   0.906   4.368  0.0753  0.2010  0.1087
 1982poe     o210817   3.036   0.891   4.367  0.0775  0.2068  0.3624
 1982poe    c2310818   3.084   0.813   4.261 -0.5507  0.3273 -0.0139
 1982poe    c2310819   3.238   0.810   4.273 -0.5990  0.4968  0.6753
 1982poe     o210820   3.306   0.930   4.245  0.1519 -0.0542  0.1012
 1982poe    c2310821   3.428   0.940   4.315 -0.0206  0.1335  0.3788
 1982poe    c2310822   3.501   1.060   4.251  0.1759 -0.0568  0.2431
 1982poe     o210823   3.416   1.171   4.229  0.2701  0.0178  0.2572
 1982poe    c3110824   3.478   1.266   4.146  0.3651 -0.3731 -0.1258
 1983poe    c3110825   6.561   6.087   5.724 -0.5234  0.3719 -0.1173
 1983poe     o210826   6.679   6.108   5.798 -0.5897  0.6870 -0.1005
 1983poe    c2310827   6.662   6.129   5.936 -0.1480  0.6393 -0.0386
 1983poe    c2310828   6.800   6.140   6.005 -0.2709 -0.4983  0.4087
 1983poe     o210829   6.895   6.060   5.939  0.3231 -0.0159  0.6746
 1983poe    c2310830   7.016   6.071   6.011  0.3449  0.0135  0.6345
 1983poe    c2310831   7.129   6.014   5.922 -0.0516 -0.0062  0.1367
 1983poe     o210832   7.153   6.098   5.812  0.3497 -0.1645  0.1028
 1983poe    c2310833   7.262   6.059   5.732  0.7028  0.4406  0.2789
 1983poe    c2310834   7.293   6.172   5.632 -0.1914  0.5599  0.1305
 1983poe     o210835   7.175   6.202   5.560 -0.3634  1.0492  0.6088
 1983poe    c3110836   7.205   6.314   5.480  0.6058  0.2337 -0.2132
 1984poe    c3110837   2.287   2.209   3.131 -0.2024  0.2624  0.6404
 1984poe     o210838   2.397   2.237   3.214  0.2979  0.4610 -0.0835
 1984poe    c2310839   2.472   2.124   3.253 -0.1594  0.3439  0.4646
 1984poe    c2310840   2.577   2.145   3.364  0.2392  0.5572  0.0527
 1984poe     o210841   2.513   2.166   3.488 -0.2667 -0.2893 -0.0538
 1984poe    c2310842   2.608   2.204   3.584 -0.2785 -0.0958 -0.1177
 1984poe    c2310843   2.558   2.277   3.711 -0.1969 -0.0957 -0.0855
 1984poe     o210844   2.498   2.398   3.673  0.2577  0.1044 -0.1735
 1984poe    c2310845   2.461   2.494   3.770  0.0833 -0.1151 -0.0227
 1984poe    c2310846   2.424   2.623   3.695  0.2366 -0.1150 -0.0998
 1984poe     o210847   2.330   2.576   3.601  0.6263  0.2891 -0.7037
 1984poe    c3110848   2.247   2.679   3.553 -0.7876 -0.4164  0.1463
 1985poe    c3110849   0.783   0.100   3.076  0.0621  0.1134 -0.1489
 1985poe     o210850   0.665   0.177   3.073  0.1050  0.2059  0.4369
 1985poe    c2310851   0.679   0.280   2.976 -0.6496 -0.2794 -0.1943
 1985poe    c2310852   0.561   0.374   3.006 -0.5057 -0.2288  0.2290
 1985poe     o210853   0.432   0.317   2.994 -0.6361  0.1289 -0.0898
 1985poe    c2310854   0.349   0.430   3.012  0.2971  0.8817 -0.4202
 1985poe    c2310855   0.217   0.397   2.940  0.3845 -0.3345 -0.0483
 1985poe     o210856   0.149   0.287   2.997 -0.0565 -0.1754 -0.2632
 1985poe    c2310857   0.016   0.280   2.952 -0.1221  0.5219 -0.1828
 1985poe    c2310858  -0.008   0.189   2.830  0.1780  0.2752 -0.0565
 1985poe     o210859   0.006   0.056   2.875 -0.1147  0.1777 -0.2530
 1985poe    c3110860  -0.009  -0.027   2.761  0.2961 -0.0313 -0.1560
 1986poe    c3110861   0.108   5.705   0.453  0.3289  0.0283 -0.4645
 1986poe     o210862   0.057   5.598   0.377 -0.3488 -0.0498  0.0837
 1986poe    c2310863  -0.063   5.548   0.432 -0.3687 -0.2347 -0.1270
 1986poe    c2310864  -0.096   5.425   0.346  0.6663 -0.4125 -0.2862
 1986poe     o210865  -0.157   5.459   0.224  0.2886 -0.1595 -0.0282
 1986poe    c2310866  -0.192   5.343   0.151 -0.2858  0.1419 -0.2412
 1986poe    c2310867  -0.287   5.373   0.034 -0.9059  0.5521  0.3564
 1986poe     o210868  -0.214   5.438  -0.068 -0.2576 -0.1560  0.3545
 1986poe    c2310869  -0.302   5.454  -0.177  0.3788  0.0258 -0.1326
 1986poe    c2310870  -0.274   5.570  -0.275  0.0905  0.0366 -0.2021
 1986poe     o210871  -0.152   5.567  -0.347 -0.1054 -0.0524 -0.5333
 1986poe    c3110872  -0.167   5.643  -0.465 -0.4263  0.2603 -0.2927
 1987poe    c3110873   4.606   3.994   0.213 -0.7059 -0.0739  0.3479
 1987poe     o210874   4.581   3.885   0.297  0.0022 -0.3035  0.2681
 1987poe    c2310875   4.444   3.857   0.314 -0.1539  0.3981  0.1783
 1987poe    c2310876   4.429   3.704   0.322 -0.0695  0.3075 -1.0833
 1987poe     o210877   4.541   3.658   0.394 -0.8182  0.1149  0.0020
 1987poe    c2310878   4.558   3.520   0.370  0.2605  0.2372  0.0297
 1987poe    c2310879   4.678   3.466   0.451  0.1569  0.2186  0.1721
 1987poe     o210880   4.790   3.546   0.418  0.1338  0.1331 -0.1176
 1987poe    c2310881   4.906   3.467   0.430 -0.1441 -0.1966  0.4328
 1987poe    c2310882   5.011   3.520   0.331 -0.7742  0.6141  0.1881
 1987poe     o210883   4.963   3.494   0.201  0.2409 -0.8304  0.0760
 1987poe    c3110884   5.062   3.506   0.101  0.0109 -0.6299 -0.1269
 1988poe    c3110885   0.660   1.629   3.060 -0.5411  0.6428  0.1163
 1988poe     o210886   0.676   1.688   2.933 -0.0904  0.0237 -0.1188
 1988poe    c2310887   0.806   1.736   2.905 -0.1712  0.0660 -0.4192
 1988poe    c2310888   0.817   1.864   2.820 -0.1478  0.5128  0.2542
 1988poe     o210889   0.720   1.834   2.722  0.5170 -0.3267 -0.1534
 1988poe    c2310890   0.706   1.938   2.629 -0.1039 -0.4288 -0.1802
 1988poe    c2310891   0.596   1.882   2.537 -0.3746  0.4120 -0.3789
 1988poe     o210892   0.484   1.827   2.601  0.1710 -0.3459 -0.0619
 1988poe    c2310893   0.367   1.824   2.522 -0.0651 -0.2207  0.2797
 1988poe    c2310894   0.346   1.739   2.395  0.7177  0.2409 -0.1716
 1988poe     o210895   0.376   1.607   2.435  0.1549  0.0806 -0.2806
 1988poe    c3110896   0.373   1.517   2.327  0.0457 -0.5669  0.2486
 1989poe    c3110897   4.934   6.511   2.466 -0.6388  0.5694  0.3201
 1989poe     o210898   5.009   6.491   2.584 -1.0961  0.5474  0.6108
 1989poe    c2310899   5.109   6.590   2.593  0.1772 -0.6460 -0.0308
 1989poe    c2310900   5.166   6.587   2.736  0.0275 -0.0372  0.0439
 1989poe     o210901   5.191   6.454   2.776  0.1310  0.0421  0.2423
 1989poe    c2310902   5.204   6.442   2.916  0.2418  0.6191  0.2865
 1989poe    c2310903   5.238   6.292   2.931 -0.3746  0.4559  0.0664
 1989poe     o210904   5.140   6.224   2.856 -0.0230  0.0918 -0.0651
 1989poe    c2310905   5.141   6.089   2.898  0.0591  0.1804  0.2178
 1989poe    c2310906   5.046   6.001   2.816  0.0542  0.6009 -0.2327
 1989poe     o210907   5.087   5.979   2.683 -0.0590  0.4670 -0.2454
 1989poe    c3110908   5.087   5.840   2.658  0.1274  0.4356 -0.0678
 1990poe    c3110909   6.688   2.423   5.380  0.1350 -0.2936 -0.1937
 1990poe     o210910   6.704   2.288   5.341  0.1376 -0.2484 -0.3500
 1990poe    c2310911   6.582   2.220   5.358 -0.3328  0.6833  0.1157
 1990poe    c2310912   6.612   2.069   5.357  0.1848  0.7833 -0.5724
 1990poe     o210913   6.665   2.025   5.234  0.6268 -0.1243 -0.0629
 1990poe    c2310914   6.737   1.903   5.236 -0.2667 -0.6619  0.0960
 1990poe    c2310915   6.834   1.896   5.117  0.1361 -0.0313  0.3799
 1990poe     o210916   6.938   1.989   5.136  0.3143 -0.1688  0.0920
 1990poe    c2310917   7.004   2.021   5.015 -0.5292 -0.1759 -0.3795
 1990poe    c2310918   7.124   1.925   5.006 -0.4844 -0.1136 -0.4473
 1990poe     o210919   7.239   1.986   5.061 -0.6453 -0.2873  0.0941
 1990poe    c3110920   7.354   1.905   5.073 -0.3830  0.1077  0.2667
 1991poe    c3110921   0.397   3.163   1.523  0.3549  0.2908  0.0040
 1991poe     o210922   0.489   3.058   1.510  0.0014 -0.0280  0.0732
 1991poe    c2310923   0.472   2.951   1.601  0.1016  0.4300  0.6311
 1991poe    c2310924   0.600   2.867   1.589 -0.0573  0.3058 -0.2199
 1991poe     o210925   0.616   2.845   1.451 -0.2944 -0.0725 -0.1887
 1991poe    c2310926   0.738   2.784   1.417 -0.2223  0.0255 -0.1062
 1991poe    c2310927   0.753   2.757   1.266  0.8288  0.0118 -0.0067
 1991poe     o210928   0.737   2.889   1.219 -0.6212 -0.2062 -0.1592
 1991poe    c2310929   0.771   2.910   1.084  0.0009 -0.7095 -0.0878
 1991poe    c2310930   0.675   2.848   0.981 -0.2273  0.6021 -0.6833
 1991poe     o210931   0.548   2.903   1.009 -0.4016  0.0110 -0.3089
 1991poe    c3110932   0.462   2.882   0.899 -0.4089 -0.1933 -0.2639
 1992poe    c3110933   2.684   1.492   2.173 -0.2481 -0.1088  0.0897
 1992poe     o210934   2.763   1.375   2.169 -0.1567 -0.0485  0.1069
 1992poe    c2310935   2.803   1.362   2.303  0.3062  0.5829  0.0315
 1992poe    c2310936   2.939   1.289   2.299 -0.2356 -0.4533  0.1379
 1992poe     o210937   3.029   1.356   2.213  0.1825 -0.2220  0.7508
 1992poe    c2310938   3.132   1.274   2.161  0.2059  0.0213  0.4067
 1992poe    c2310939   3.241   1.349   2.084  0.1365  0.4858  0.7508
 1992poe     o210940   3.198   1.421   1.970  0.2102  0.2972  0.6022
 1992poe    c2310941   3.280   1.530   1.934 -0.0058  0.2256 -0.1127
 1992poe    c2310942   3.241   1.612   1.809  0.1616 -0.1461 -0.4111
 1992poe     o210943   3.264   1.549   1.685 -0.9192 -0.7496 -0.3273
 1992poe    c3110944   3.287   1.651   1.590  0.3690 -0.7032  0.0085
 1993poe    c3110945   6.741   6.545   6.387 -0.0454  0.2422 -0.0373
 1993poe     o210946   6.819   6.503   6.278  0.4436  0.2855  0.2956
 1993poe    c2310947   6.936   6.428   6.304  0.0886 -0.4083 -0.0929
 1993poe    c2310948   7.027   6.447   6.181 -0.2921 -0.0008 -0.3141
 1993poe     o210949   6.948   6.438   6.064 -0.1550  0.2398 -0.4273
 1993poe    c2310950   7.019   6.455   5.944  0.1418  0.7446 -0.1819
 1993poe    c2310951   6.933   6.416   5.822 -0.0148  0.4242  0.0301
 1993poe     o210952   6.816   6.493   5.836 -0.1672  0.1981  0.0147
 1993poe    c2310953   6.736   6.474   5.722  0.2376 -0.5119 -0.1556
 1993poe    c2310954   6.605   6.552   5.745  0.5350 -0.1685  0.3898
 1993poe     o210955   6.517   6.497   5.840  0.2224  0.2415  0.3434
 1993poe    c3110956   6.407   6.442   5.772  1.2072 -1.0564 -0.2619
 1994poe    c3110957   3.884   3.033   1.760  0.0487  0.5213 -0.7490
 1994poe     o210958   3.933   2.903   1.734 -0.0796  0.3656 -0.2197
 1994poe    c2310959   4.023   2.918   1.627  0.1380  0.3376 -0.0419
 1994poe    c2310960   4.094   2.783   1.605 -0.1791  0.1211  0.2589
 1994poe     o210961   4.018   2.690   1.532  0.4560  0.1461 -0.4437
 1994poe    c2310962   4.085   2.567   1.549  0.0315 -0.0396 -0.0801
 1994poe    c2310963   4.006   2.455   1.478  0.2587 -0.2985  0.0741
 1994poe     o210964   3.897   2.417   1.558  0.1352  0.1567  0.1258
 1994poe    c2310965   3.785   2.376   1.482  0.2632 -0.0786  0.0644
 1994poe    c2310966   3.668   2.358   1.581  0.0556 -0.0083 -0.1691
 1994poe     o210967   3.625   2.485   1.625 -0.3286 -0.2169  0.0577
 1994poe    c3110968   3.513   2.491   1.711 -0.5482  0.6380 -0.2795
 1995poe    c3110969   4.217   2.797   3.400  0.7508  0.2348  0.1130
 1995poe     o210970   4.302   2.740   3.497 -0.0245 -0.5039  0.3686
 1995poe    c2310971   4.431   2.729   3.442 -0.0160 -0.1708  0.3184
 1995poe    c2310972   4.536   2.648   3.522  0.6238  0.3986  0.0633
 1995poe     o210973   4.541   2.687   3.658  0.4463  0.4303  0.0614
 1995poe    c2310974   4.634   2.619   3.739  0.0791 -0.2417 -0.0723
 1995poe    c2310975   4.584   2.623   3.884  0.2613 -0.3074 -0.0075
 1995poe     o210976   4.553   2.757   3.918 -0.1604 -0.3557 -0.1971
 1995poe    c2310977   4.517   2.774   4.054 -0.1728  0.6288 -0.3211
 1995poe    c2310978   4.501   2.923   4.091  0.5461  0.6837 -0.2141
 1995poe     o210979   4.401   2.965   4.000  0.3265 -0.0714 -0.3307
 1995poe    c3110980   4.299   3.036   4.066  0.2899 -0.2371 -0.2074
 1996poe    c3110981   0.045   4.676   6.146 -0.4072 -0.6731 -0.3310
 1996poe     o210982   0.005   4.808   6.115  0.1256 -0.4782 -0.2043
 1996poe    c2310983   0.030   4.886   6.230  0.0756 -0.1009 -0.4485
 1996poe    c2310984  -0.010   5.031   6.196 -0.0638 -0.0795 -0.1901
 1996poe     o210985  -0.127   5.014   6.119 -0.1334 -0.1416 -0.0711
 1996poe    c2310986  -0.185   5.133   6.071 -0.3014 -0.1248  0.1692
 1996poe    c2310987  -0.326   5.116   6.011 -0.3329 -0.1663  0.2571
 1996poe     o210988  -0.296   5.029   5.904  0.3409 -0.3451  0.5833
 1996poe    c2310989  -0.411   5.006   5.826  0.6882  0.3369 -0.1363
 1996poe    c2310990  -0.370   4.992   5.678 -0.0274  0.0372 -0.3110
 1996poe     o210991  -0.285   4.886   5.640  0.2130  0.0447  0.1981
 1996poe    c3110992  -0.301   4.836   5.509 -0.0386  0.2979  0.1317
 1997poe    c3110993   6.296   0.616   3.767  0.5374  0.2893 -0.6857
 1997poe     o210994   6.346   0.494   3.717 -0.2236 -0.1875 -0.2932
 1997poe    c2310995   6.455   0.502   3.628  0.2541 -0.1695  0.2840
 1997poe    c2310996   6.486   0.356   3.588  0.5040  0.0537 -0.3350
 1997poe     o210997   6.364   0.297   3.551  0.4507  0.0440 -0.1434
 1997poe    c2310998   6.389   0.165   3.508  0.4330 -0.0964  0.2690
 1997poe    c2310999   6.254   0.094   3.485  0.3049  0.0612  0.5341
 1997poe     o211000   6.157   0.134   3.579 -0.5817 -0.1615 -0.2727
 1997poe    c2311001   6.034   0.069   3.559 -0.5379 -0.2756 -0.1712
 1997poe    c2311002   5.923   0.114   3.656  0.0804 -0.0484  0.4385
 1997poe     o211003   5.893   0.252   3.663  0.8161  0.1162  0.4148
 1997poe    c3111004   5.805   0.274   3.770  0.2865  0.3537 -0.0649
 1998poe    c3111005   3.024   0.236   3.630 -0.6503 -0.1625 -0.3135
 1998poe     o211006   3.036   0.097   3.651  0.2435 -0.0480 -0.0089
 1998poe    c2311007   3.087   0.043   3.531  0.0596 -0.0770 -0.0752
 1998poe    c2311008   3.158  -0.092   3.550  0.2508 -0.0055 -0.2778
 1998poe     o211009   3.083  -0.185   3.625  0.2641 -0.0793 -0.3568
 1998poe    c2311010   3.145  -0.308   3.655  0.3369  0.1144  0.2867
 1998poe    c2311011   3.060  -0.379   3.762 -0.1208 -0.0108 -0.1583
 1998poe     o211012   2.925  -0.363   3.725 -0.1841 -0.3050 -0.0585
 1998poe    c2311013   2.838  -0.438   3.807 -0.4582  0.2045  0.1235
 1998poe    c2311014   2.701  -0.450   3.737 -0.5573  0.2701  0.3047
 1998poe     o211015   2.686  -0.314   3.701 -0.1955  0.3518  0.4583
 1998poe    c3111016   2.552  -0.272   3.698 -0.3248 -0.1088 -0.4288
 1999poe    c3111017   6.116   0.700   6.936 -0.3544 -0.2716  0.4170
 1999poe     o211018   6.086   0.579   6.869 -0.3630 -0.2116  0.3126
 1999poe    c2311019   6.134   0.472   6.948  0.0808 -0.1393  0.1374
 1999poe    c2311020   6.129   0.348   6.857 -0.1270  0.1450 -0.2472
 1999poe     o211021   6.223   0.342   6.752 -0.2770 -0.4378 -0.3537
 1999poe    c2311022   6.213   0.215   6.693 -0.7171 -0.4312 -0.3019
 1999poe    c2311023   6.310   0.181   6.578  0.1932  0.0137  0.3198
 1999poe     o211024   6.271   0.235   6.454  0.2021 -0.5424  0.0691
 1999poe    c2311025   6.378   0.232   6.362  0.2719  0.6148  0.1013
 1999poe    c2311026   6.328   0.248   6.218  0.1672 -0.5226  0.0057
 1999poe     o211027   6.245   0.145   6.169 -0.5391 -0.0505  0.2050
 1999poe    c3111028   6.206   0.157   6.034 -0.4092 -0.2651  0.1493
 2000poe    c3111029   2.390   3.145   7.003  0.4385 -0.6718  0.4232
 2000poe     o211030   2.438   3.067   6.895  0.4698 -0.1567  0.0625
 2000poe    c2311031   2.358   2.958   6.858  0.1644  0.1345 -0.1458
 2000poe    c2311032   2.429   2.857   6.766  0.3386  0.4331 -0.3394
 2000poe     o211033   2.479   2.914   6.648 -0.2883  0.5678 -0.5461
 2000poe    c2311034   2.472   2.819   6.544 -0.2103  0.0437 -0.0753
 2000poe    c2311035   2.488   2.896   6.412  0.4863 -0.3772 -0.2390
 2000poe     o211036   2.389   2.993   6.389  0.4644 -0.3504 -0.0350
 2000poe    c2311037   2.432   3.088   6.294 -0.1732  0.1865  0.2048
 2000poe    c2311038   2.308   3.156   6.232 -0.5575 -0.3233  0.4018
 2000poe     o211039   2.250   3.269   6.293 -0.3783 -0.3025  0.5361
 2000poe    c3111040   2.121   3.296   6.242  0.0225 -0.3163 -0.5187
 2001poe    c3111041   4.352   3.679   6.354  0.3827 -0.7389 -0.0736
 2001poe     o211042   4.276   3.662   6.472 -0.0222  0.5596 -0.1316
 2001poe    c2311043   4.352   3.592   6.568 -0.1561  0.0464 -0.3993
 2001poe    c2311044   4.253   3.532   6.671  0.1764 -0.2910 -0.2724
 2001poe     o211045   4.173   3.637   6.721 -0.0008 -0.4403 -0.2439
 2001poe    c2311046   4.068   3.595   6.805 -0.1584  0.1022 -0.1691
 2001poe    c2311047   3.989   3.718   6.855 -0.1065  0.1338 -0.1654
 2001poe     o211048   4.013   3.828   6.770  0.1678 -0.1035 -0.3971
 2001poe    c2311049   4.005   3.954   6.833  0.3233 -0.4729  0.3755
 2001poe    c2311050   3.936   4.061   6.747  0.1381 -0.9904 -0.1283
 2001poe     o211051   4.014   4.097   6.635 -0.0642  0.7452  0.2663
 2001poe    c3111052   3.951   4.199   6.562 -0.4736  0.6107  0.4329
 2002poe    c3111053   6.850   1.218   4.268 -0.2522  0.0368 -0.3434
 2002poe     o211054   6.714   1.255   4.267 -0.3020 -0.1383 -0.0834
 2002poe    c2311055   6.647   1.252   4.391 -0.1461 -0.2491  0.0002
 2002poe    c2311056   6.497   1.246   4.356 -0.2003  0.6967  0.0479
 2002poe     o211057   6.455   1.363   4.289 -0.2255  0.4450 -0.3834
 2002poe    c2311058   6.325   1.362   4.233 -0.3919 -0.1759  0.0031
 2002poe    c2311059   6.274   1.506   4.213  0.0110 -0.0845 -0.3871
 2002poe     o211060   6.387   1.561   4.148  0.1323  0.2073  0.0693
 2002poe    c2311061   6.363   1.693   4.105  0.3115  0.4468  0.6927
 2002poe    c2311062   6.500   1.737   4.050  0.2984 -0.1230  0.1880
 2002poe     o211063   6.604   1.684   4.129  0.2514 -0.2001  0.1987
 2002poe    c3111064   6.733   1.728   4.090  0.2668 -0.3162  0.1202
 2003poe    c3111065   6.484   5.544   6.444 -0.2011 -0.0254  0.3283
 2003poe     o211066   6.358   5.553   6.382  0.1210 -0.1617 -0.3616
 2003poe    c2311067   6.369   5.622   6.260  0.5389 -0.3342 -0.4209
 2003poe    c2311068   6.230   5.645   6.198  0.1562 -0.0847  0.5145
 2003poe     o211069   6.181   5.517   6.165 -0.1561  0.1817 -0.0818
 2003poe    c2311070   6.075   5.536   6.074 -0.0193  0.1199 -0.2546
 2003poe    c2311071   5.997   5.412   6.026  0.1419 -0.2991  0.5385
 2003poe     o211072   5.915   5.354   6.124  0.1172  0.1278  0.7742
 2003poe    c2311073   5.865   5.238   6.062  0.2097  0.2529  0.4639
 2003poe    c2311074   5.806   5.126   6.151 -0.0300 -0.4094 -0.5014
 2003poe     o211075   5.898   5.087   6.251 -0.0984  0.4855 -0.0794
 2003poe    c3111076   5.847   4.982   6.330  0.4694  0.6710  0.5426
 2004poe    c3111077   3.871   5.363   3.569  1.0769 -0.2839  0.5666
 2004poe     o211078   3.754   5.283   3.573  0.6195  0.2994 -0.5260
 2004poe    c2311079   3.755   5.198   3.686 -0.2863 -0.1480 -0.8514
 2004poe    c2311080   3.630   5.110   3.671 -0.2908 -0.3556  0.2958
 2004poe     o211081   3.638   5.030   3.555  0.2494  0.4961 -0.2593
 2004poe    c2311082   3.698   4.903   3.565 -0.1467  0.3042 -0.3058
 2004poe    c2311083   3.605   4.781   3.580  0.2039  0.0729 -0.0068
 2004poe     o211084   3.530   4.758   3.463  0.1105 -0.2130  0.1092
 2004poe    c2311085   3.433   4.656   3.474 -0.1418 -0.0073 -0.2169
 2004poe    c2311086   3.326   4.634   3.365 -0.2812  0.1138 -0.1045
 2004poe     o211087   3.266   4.757   3.331  0.1461  0.3706  0.0606
 2004poe    c3111088   3.143   4.742   3.263  0.0428  0.3017  0.2613
 2005poe    c3111089   3.646   6.800   4.281  0.2189 -0.1265 -0.5325
 2005poe     o211090   3.658   6.891   4.389  0.3562 -0.1851 -0.4983
 2005poe    c2311091   3.740   6.999   4.350 -0.0642  0.3240  0.0256
 2005poe    c2311092   3.751   7.099   4.466 -0.0145  0.4909 -0.1224
 2005poe     o211093   3.620   7.131   4.508 -0.2211 -0.1061 -0.3127
 2005poe    c2311094   3.617   7.245   4.590 -0.0420 -0.6087  0.4100
 2005poe    c2311095   3.472   7.266   4.640 -0.2731  0.2075 -0.5541
 2005poe     o211096   3.431   7.161   4.726  0.0299  0.3590 -0.2194
 2005poe    c2311097   3.292   7.160   4.751 -0.0264 -0.1620 -0.5262
 2005poe    c2311098   3.264   7.070   4.873  0.1601  0.1666 -0.2342
 2005poe     o211099   3.301   6.940   4.831 -0.3345  0.0061 -0.1911
 2005poe    c3111100   3.275   6.840   4.926 -0.4417  0.1564 -0.0616
 2006poe    c3111101   6.113   6.742   0.320  0.0812  0.5169 -0.8148
 2006poe     o211102   5.989   6.763   0.255 -0.7117 -0.3948  0.3558
 2006poe    c2311103   6.005   6.708   0.127 -0.1427  0.3460  0.0981
 2006poe    c2311104   5.871   6.697   0.051 -0.1174  0.1757  0.0780
 2006poe     o211105   5.823   6.813  -0.011 -0.1873  0.1999  0.1769
 2006poe    c2311106   5.688   6.783  -0.039  0.0803 -0.1820 -0.7469
 2006poe    c2311107   5.597   6.876  -0.121 -0.2129  0.1121 -0.0972
 2006poe     o211108   5.581   6.999  -0.053  0.8850  0.1337  0.1427
 2006poe    c2311109   5.521   7.092  -0.139  0.4707 -0.0888  0.1901
 2006poe    c2311110   5.495   7.212  -0.046  0.3038  0.2414 -0.2754
 2006poe     o211111   5.610   7.230   0.034  0.3671  0.0951 -0.3329
 2006poe    c3111112   5.604   7.354   0.101 -0.1860 -0.0235 -0.1630
 2007poe    c3111113   6.894   1.984   1.866  0.0965 -0.0413 -0.1692
 2007poe     o211114   6.839   1.856   1.841  0.1914 -0.1837  0.3494
 2007poe    c2311115   6.719   1.833   1.911  0.3173 -0.2702  0.5376
 2007poe    c2311116   6.644   1.709   1.860 -0.2874  0.3274 -0.0408
 2007poe     o211117   6.626   1.721   1.721 -0.1186  0.2065 -0.0724
 2007poe    c2311118   6.591   1.601   1.655 -0.4008  0.7154 -0.8520
 2007poe    c2311119   6.662   1.568   1.522  0.3645  0.6619 -0.4337
 2007poe     o211120   6.793   1.523   1.547 -0.0092 -0.6567 -0.7978
 2007poe    c2311121   6.858   1.539   1.423  0.0851  0.5603 -0.6024
 2007poe    c2311122   7.007   1.572   1.443  0.1865 -0.2372 -0.0018
 2007poe     o211123   7.039   1.700   1.494 -0.1440 -0.0784 -0.1898
 2007poe    c3111124   7.174   1.711   1.533 -0.0560 -0.7831 -0.2776
 2008poe    c3111125   3.043   6.773   0.836 -0.6463 -0.0213  0.1512
 2008poe     o211126   2.963   6.889   0.829  0.0205  0.4503  0.2570
 2008poe    c2311127   2.825   6.863   0.842  0.0674  0.1653  0.1744
 2008poe    c2311128   2.742   6.992   0.836 -0.4317 -0.1631 -0.0522
 2008poe     o211129   2.755   7.085   0.941  0.5875  0.5614 -0.8054
 2008poe    c2311130   2.688   7.204   0.905 -0.3313  0.1104 -0.6266
 2008poe    c2311131   2.747   7.332   0.968 -0.0399 -0.0875 -0.4950
 2008poe     o211132   2.882   7.344   0.932  0.2749 -0.3875  0.5396
 2008poe    c2311133   2.913   7.478   0.961 -0.3774 -0.0781 -0.1727
 2008poe    c2311134   3.063   7.492   0.930 -0.2275  0.1573  0.6446
 2008poe     o211135   3.131   7.378   0.980 -0.0772 -0.2589 -0.4820
 2008poe    c3111136   3.269   7.405   0.981 -0.1718  0.2158  0.0332
 2009poe    c3111137   1.430   6.300   0.771 -0.0586  1.2669 -0.0865
 2009poe     o211138   1.419   6.371   0.893  0.1433  0.1328  0.6009
 2009poe    c2311139   1.415   6.510   0.872 -0.3740  0.0161 -0.1053
 2009poe    c2311140   1.446   6.583   1.004  0.1678 -0.1473 -0.1434
 2009poe     o211141   1.358   6.530   1.101 -0.1738 -0.0094 -0.3792
 2009poe    c2311142   1.368   6.579   1.232  0.1769 -0.8167 -0.0950
 2009poe    c2311143   1.258   6.512   1.317 -0.3539  0.1736  0.0265
 2009poe     o211144   1.272   6.373   1.296 -0.4792  0.2193 -0.3564
 2009poe    c2311145   1.187   6.285   1.366  0.5211 -0.0039  0.6044
 2009poe    c2311146   1.220   6.137   1.344  0.6232  0.0506  0.3900
 2009poe     o211147   1.180   6.097   1.214  0.0843 -0.0387  0.5807
 2009poe    c3111148   1.198   5.962   1.180  0.6811  0.2948 -0.4650
 2010poe    c3111149   6.921   0.575   6.048  0.0156  0.1719  0.3574
 2010poe     o211150   7.058   0.552   6.025 -0.1614 -0.2772 -0.2644
 2010poe    c2311151   7.107   0.443   6.099  0.0511  0.1392  0.2079
 2010poe    c2311152   7.083   0.309   6.028  0.4285  0.0877  0.1746
 2010poe     o211153   7.157   0.292   5.909  0.0030 -0.2836 -0.0415
 2010poe    c2311154   7.126   0.177   5.834  0.1311 -0.1306 -0.3291
 2010poe    c2311155   7.228   0.156   5.720  0.2446  0.3282 -0.3145
 2010poe     o211156   7.233   0.259   5.625 -0.1696  0.6612  0.0209
 2010poe    c2311157   7.330   0.233   5.525 -0.1734 -0.0900  0.2071
 2010poe    c2311158   7.380   0.368   5.470  0.6396 -0.3192  0.3816
 2010poe     o211159   7.281   0.466   5.489 -0.0351 -0.8934 -0.0867
 2010poe    c3111160   7.326   0.591   5.440 -0.2306 -0.8096 -0.0511
 2011poe    c3111161   2.818   5.478   4.277  0.4173 -0.6341 -0.4935
 2011poe     o211162   2.957   5.468   4.257  0.6697 -0.3828  1.0216
 2011poe    c2311163   2.988   5.454   4.120 -0.0022  0.3790  0.7821
 2011poe    c2311164   3.135   5.493   4.096  0.0963 -0.3948  0.0830
 2011poe     o211165   3.219   5.393   4.149  0.2975 -0.4306 -0.3014
 2011poe    c2311166   3.356   5.423   4.133  0.1439 -0.0830 -1.0065
 2011poe    c2311167   3.426   5.288   4.162 -0.1393 -0.1567 -0.6609
 2011poe     o211168   3.368   5.237   4.280  0.7616  0.4680  0.0662
 2011poe    c2311169   3.420   5.109   4.308 -0.1469  0.1394  0.2744
 2011poe    c2311170   3.334   5.046   4.419 -0.3812  0.1242  0.0863
 2011poe     o211171   3.197   5.068   4.397 -0.2960  0.0326 -0.5519
 2011poe    c3111172   3.126   5.024   4.511 -0.0433  0.0760 -0.3764
 2012poe    c3111173   3.427   5.120   1.287 -0.3902 -0.2534 -0.3907
 2012poe     o211174   3.434   5.261   1.299  0.1848 -0.3183  0.1203
 2012poe    c2311175   3.559   5.310   1.342  0.0035  0.4294 -0.1875
 2012poe    c2311176   3.569   5.462   1.322  0.3510  0.3740 -0.4294
 2012poe     o211177   3.498   5.482   1.202 -0.0914 -0.2002 -0.2693
 2012poe    c2311178   3.470   5.620   1.188  0.0416 -0.1833 -0.3796
 2012poe    c2311179   3.397   5.647   1.055 -0.0767 -0.0665 -0.2909
 2012poe     o211180   3.304   5.541   1.052 -0.0939 -0.0442 -0.5285
 2012poe    c2311181   3.188   5.603   0.999  0.1779  0.3873 -0.6214
 2012poe    c2311182   3.085   5.505   0.939  0.2861  0.3278 -0.7113
 2012poe     o211183   3.148   5.412   0.855 -0.3335 -0.7320 -0.0167
 2012poe    c3111184   3.053   5.366   0.760 -0.1071 -0.4793 -0.3676
 2013poe    c3111185   5.557   5.411   6.391 -0.0035 -0.2515 -0.3147
 2013poe     o211186   5.673   5.353   6.445  0.0264  0.0466 -0.0574
 2013poe    c2311187   5.620   5.261   6.538 -0.2204  0.0200 -0.2221
 2013poe    c2311188   5.728   5.199   6.628 -0.2168 -0.0608 -0.2822
 2013poe     o211189   5.777   5.283   6.730 -0.0417 -0.6364  0.1179
 2013poe    c2311190   5.899   5.233   6.781  0.3826  0.4187  0.1589
 2013poe    c2311191   5.961   5.324   6.890  0.3904 -0.3954  0.8421
 2013poe     o211192   6.031   5.434   6.836 -0.5225 -0.1001  0.2362
 2013poe    c2311193   6.061   5.530   6.935  0.4476  0.1616 -0.2987
 2013poe    c2311194   6.176   5.621   6.888  0.2153  0.7053  0.1687
 2013poe     o211195   6.152   5.648   6.752  0.3726  0.2778  0.0533
 2013poe    c3111196   6.216   5.764   6.703 -0.1475  0.4890 -0.1417
 2014poe    c3111197   1.156   4.790   2.505  0.0086 -0.2270 -0.7488
 2014poe     o211198   1.179   4.660   2.553 -0.5029 -0.1228 -0.2202
 2014poe    c2311199   1.218   4.574   2.449 -0.5016 -0.5303  0.1115
 2014poe    c2311200   1.170   4.430   2.474 -0.1432 -0.7916 -0.6600
 2014poe     o211201   1.219   4.384   2.598  0.4752 -0.1341 -0.6503
 2014poe    c2311202   1.147   4.265   2.625 -0.0608  0.3727  0.1896
 2014poe    c2311203   1.184   4.234   2.772  0.0218  0.1653  0.1257
 2014poe     o211204   1.159   4.331   2.871  0.5414  0.2486  0.1756
 2014poe    c2311205   1.207   4.296   2.999  0.2777  0.0260  0.2141
 2014poe    c2311206   1.191   4.414   3.097  0.4029  0.2156  0.0063
 2014poe     o211207   1.269   4.524   3.056 -0.0584  0.4810 -0.1579
 2014poe    c3111208   1.393   4.519   3.122  0.0480 -0.5073 -0.4219
 2015poe    c3111209   3.592   1.465   1.719  0.2304  0.0007 -0.2205
 2015poe     o211210   3.553   1.350   1.646  0.0953 -0.1298  0.0546
 2015poe    c2311211   3.638   1.341   1.534 -0.4811 -0.5521 -0.3552
 2015poe    c2311212   3.625   1.220   1.440  0.2498 -0.1284 -1.0183
 2015poe     o211213   3.490   1.182   1.454  0.2608  0.1262 -0.1300
 2015poe    c2311214   3.466   1.065   1.379 -0.1223  0.0124  0.1686
 2015poe    c2311215   3.325   1.012   1.412 -0.1822  0.0455 -0.0315
 2015poe     o211216   3.308   1.003   1.552 -0.2855 -0.1258 -0.0552
 2015poe    c2311217   3.236   0.884   1.577  0.3796 -0.5570 -0.1741
 2015poe    c2311218   3.192   0.875   1.724 -0.1057  0.2361 -0.2664
 2015poe     o211219   3.287   0.924   1.816  0.1752 -0.2894 -0.2776
 2015poe    c3111220   3.253   0.857   1.936 -0.4690  0.4564 -0.0366
 2016poe    c3111221   3.627   3.071   0.946  0.1773  0.4473  0.2827
 2016poe     o211222   3.515   3.035   0.869  0.7655  0.1561 -0.4466
 2016poe    c2311223   3.448   3.157   0.845 -0.3344 -0.5134 -0.8678
 2016poe    c2311224   3.307   3.125   0.794 -0.6506  0.2909 -0.5203
 2016poe     o211225   3.277   3.012   0.873  0.4343  0.5788  0.3257
 2016poe    c2311226   3.138   2.992   0.885  0.4086  0.6602  0.1738
 2016poe    c2311227   3.129   2.858   0.961  0.5481  0.3270 -0.3879
 2016poe     o211228   3.209   2.765   0.893  0.2813  0.0115 -0.2735
 2016poe    c2311229   3.161   2.633   0.879  0.5636 -0.1417  0.2139
 2016poe    c2311230   3.266   2.526   0.842 -0.5901 -1.0706 -0.4348
 2016poe     o211231   3.359   2.563   0.743 -0.1904 -0.2274  0.2409
 2016poe    c3111232   3.422   2.447   0.693 -0.1492 -0.1053  0.0066
 2017poe    c3111233   2.960   5.609   3.731  0.1628  0.2002  0.1706
 2017poe     o211234   2.980   5.678   3.610  0.5138  0.1069  0.1737
 2017poe    c2311235   3.095   5.632   3.543  0.3677 -0.0418  0.0241
 2017poe    c2311236   3.118   5.734   3.430  0.5861 -0.1457 -0.0258
 2017poe     o211237   3.180   5.852   3.476  0.0407  0.0013  0.3464
 2017poe    c2311238   3.316   5.863   3.441 -0.0792  0.2094 -0.0629
 2017poe    c2311239   3.356   6.002   3.492 -0.1096  0.0408  0.4256
 2017poe     o211240   3.249   6.091   3.472 -0.1591 -0.0347  0.3544
 2017poe    c2311241   3.279   6.227   3.453 -0.2502 -0.1594 -0.7452
 2017poe    c2311242   3.152   6.296   3.400 -0.2440  0.4013 -0.0492
 2017poe     o211243   3.046   6.250   3.481 -0.1132 -0.2519 -0.2504
 2017poe    c3111244   2.928   6.326   3.472 -0.0928 -0.2426 -0.4623
 2018poe    c3111245   2.289   5.562   0.499  0.1836 -0.0913  0.1274
 2018poe     o211246   2.199   5.610   0.597  0.2350  0.1387  0.0628
 2018poe    c2311247   2.247   5.713   0.679  0.1815 -0.1107  0.4089
 2018poe    c2311248   2.131   5.812   0.700  0.0663 -0.1193 -0.1825
 2018poe     o211249   2.015   5.750   0.751  0.2911 -0.0216  0.4510
 2018poe    c2311250   1.925   5.854   0.783  0.4850  0.2146  0.2385
 2018poe    c2311251   1.796   5.789   0.838  0.1326  0.6859 -0.0289
 2018poe     o211252   1.735   5.697   0.750 -0.1455  0.7288  0.1191
 2018poe    c2311253   1.616   5.640   0.801  0.2596 -0.4741 -0.2637
 2018poe    c2311254   1.571   5.519   0.718 -0.7478 -0.3456  0.0791
 2018poe     o211255   1.592   5.560   0.584  0.0017 -0.5191  0.1347
 2018poe    c3111256   1.520   5.468   0.506  0.0561 -0.2220 -0.2687
 2019poe    c3111257   5.528   2.759   3.443 -0.5727  0.1326 -0.4832
 2019poe     o211258   5.503   2.722   3.576 -0.2258  0.3952 -0.3427
 2019poe    c2311259   5.413   2.612   3.576 -0.0485  0.2483 -0.1124
 2019poe    c2311260   5.366   2.610   3.722  0.3652 -0.1188  0.0159
 2019poe     o211261   5.490   2.593   3.789  0.3964 -0.1924 -0.0605
 2019poe    c2311262   5.471   2.565   3.926  0.1506 -0.8962 -0.2323
 2019poe    c2311263   5.606   2.570   4.000 -0.0747  0.3607  0.1141
 2019poe     o211264   5.654   2.703   3.992  0.3979  0.1762 -0.1328
 2019poe    c2311265   5.761   2.723   4.080  0.3013 -0.0891  0.0459
 2019poe    c2311266   5.802   2.869   4.107  0.2365 -0.0098 -0.2863
 2019poe     o211267   5.717   2.961   4.172 -0.1793 -0.2301 -0.5123
 2019poe    c3111268   5.761   3.091   4.141 -0.1681 -0.1128 -0.0066
 2020poe    c3111269   2.303   3.742   6.924 -0.4175 -0.0620 -0.3780
 2020poe     o211270   2.162   3.753   6.926 -0.4286 -0.1940 -0.4178
 2020poe    c2311271   2.109   3.702   7.046  0.6463  0.6126  0.4253
 2020poe    c2311272   1.960   3.744   7.045  0.4576 -0.0489 -0.3334
 2020poe     o211273   1.883   3.691   6.940 -0.1198  0.4046 -0.1458
 2020poe    c2311274   1.757   3.654   6.992  0.4380 -0.3768  0.6910
 2020poe    c2311275   1.707   3.521   6.934 -0.8371  0.4392 -0.1262
 2020poe     o211276   1.731   3.522   6.795 -0.0074  0.0417  0.0075
 2020poe    c2311277   1.673   3.411   6.730 -0.4851  0.2952 -0.0031
 2020poe    c2311278   1.724   3.420   6.586 -0.1999 -0.0049  0.0786
 2020poe     o211279   1.676   3.544   6.537 -0.6576 -0.1363  0.1890
 2020poe    c3111280   1.650   3.557   6.400 -0.5627  0.0032  0.1836
 2021poe    c3111281   6.011   6.543   6.659  0.6744  0.3028  0.1822
 2021poe     o211282   6.121   6.493   6.586 -0.0180 -0.6332 -0.2222
 2021poe    c2311283   6.090   6.443   6.457 -0.6274 -0.6350 -0.0785
 2021poe    c2311284   6.071   6.556   6.354 -0.0676  0.3082  0.8365
 2021poe     o211285   6.186   6.618   6.302 -0.0471 -0.4590 -0.0418
 2021poe    c2311286   6.244   6.534   6.204  0.4366 -0.1205 -0.0493
 2021poe    c2311287   6.313   6.608   6.087 -0.4652  0.1637 -0.4121
 2021poe     o211288   6.380   6.717   6.146 -0.3486  0.0617 -0.3553
 2021poe    c2311289   6.445   6.790   6.044  0.0757 -0.5471 -0.5261
 2021poe    c2311290   6.532   6.915   6.064 -0.5305 -0.1562 -0.2884
 2021poe     o211291   6.666   6.904   6.106 -0.5205  0.0317 -0.2684
 2021poe    c3111292   6.701   7.028   6.161  0.4098 -0.1279 -0.4704
 2022poe    c3111293   0.132   1.004   6.380  0.2421 -0.7730 -1.1590
 2022poe     o211294   0.130   1.117   6.295 -0.5060 -0.1571 -0.3471
 2022poe    c2311295   0.020   1.204   6.304 -0.0315  0.3789  0.3889
 2022poe    c2311296   0.037   1.301   6.186 -0.2222 -0.4389 -0.3248
 2022poe     o211297   0.175   1.331   6.185 -0.2036 -0.5245 -0.3525
 2022poe    c2311298   0.199   1.433   6.092 -0.2464 -0.4051 -0.2334
 2022poe    c2311299   0.351   1.430   6.072 -0.1331  0.4619  0.4298
 2022poe     o211300   0.408   1.302   6.086 -0.0945  0.4477  0.1639
 2022poe    c2311301   0.546   1.319   6.063 -0.0817 -0.2131 -0.2989
 2022poe    c2311302   0.635   1.200   6.103  0.1447  0.1375  0.2600
 2022poe     o211303   0.629   1.184   6.243 -0.5929  0.4676  0.2723
 2022poe    c3111304   0.718   1.086   6.291 -0.4632  0.6073  0.3188
 2023poe    c3111305   3.979   3.269   2.553  0.0802  0.3577 -0.5023
 2023poe     o211306   4.028   3.155   2.485  0.3353 -0.0149  0.2928
 2023poe    c2311307   4.166   3.141   2.506  0.4625  0.4067 -0.2227
 2023poe    c2311308   4.223   3.014   2.439 -0.8655 -0.1369 -0.3569
 2023poe     o211309   4.177   2.909   2.521  0.1203 -0.8214 -0.6664
 2023poe    c2311310   4.135   2.796   2.448 -0.4428 -0.6864 -0.5529
 2023poe    c2311311   4.076   2.692   2.544 -0.1960 -0.5795 -0.2829
 2023poe     o211312   3.939   2.723   2.561  0.0593  0.4634 -0.0868
 2023poe    c2311313   3.883   2.637   2.657  0.4586 -0.1128 -0.3614
 2023poe    c2311314   3.730   2.643   2.639  0.4460  0.4449 -0.1096
 2023poe     o211315   3.671   2.602   2.518  0.3289  0.4450 -0.0522
 2023poe    c3111316   3.531   2.620   2.523  0.2881  0.0805  0.1516
 2024poe    c3111317   5.106   1.487   5.005 -0.5741  0.3484 -0.8244
 2024poe     o211318   5.217   1.471   4.919 -0.0819 -0.1020 -0.1144
 2024poe    c2311319   5.203   1.560   4.810 -0.4664  0.0776  0.0769
 2024poe    c2311320   5.329   1.559   4.721 -0.3353 -0.1667  0.2617
 2024poe     o211321   5.354   1.439   4.652 -0.0086  0.4962 -0.7997
 2024poe    c2311322   5.487   1.446   4.607  0.0954  0.5684 -0.4776
 2024poe    c2311323   5.543   1.308   4.568 -0.7371 -0.0010  0.3150
 2024poe     o211324   5.487   1.248   4.453  0.5409 -0.5029 -0.0520
 2024poe    c2311325   5.530   1.113   4.461 -0.1843 -0.7169  0.2805
 2024poe    c2311326   5.550   1.029   4.333 -0.1012 -0.7289  0.3009
 2024poe     o211327   5.427   0.983   4.281 -0.0620  0.3631 -0.7911
 2024poe    c3111328   5.434   0.973   4.140  0.2153 -0.0716 -0.7491
 2025poe    c3111329   6.112   1.916   0.316  0.3452  0.4826  0.2693
 2025poe     o211330   6.198   1.856   0.411  0.1404 -0.1408  0.0651
 2025poe    c2311331   6.172   1.719   0.431 -0.1889 -0.0395  0.3389
 2025poe    c2311332   6.289   1.661   0.512  0.1312  0.0590 -0.0522
 2025poe     o211333   6.331   1.755   0.608  0.3106  0.0166 -0.0873
 2025poe    c2311334   6.425   1.701   0.698  0.2347 -0.1424 -0.1022
 2025poe    c2311335   6.438   1.792   0.822  0.4053 -0.0689 -0.1730
 2025poe     o211336   6.443   1.921   0.766  0.4562  0.0571  0.1241
 2025poe    c2311337   6.467   2.032   0.850  0.3502  0.2560 -0.1068
 2025poe    c2311338   6.496   2.157   0.764 -0.4657  0.1865 -0.4938
 2025poe     o211339   6.375   2.205   0.712 -0.5595  0.4574 -0.0326
 2025poe    c3111340   6.382   2.331   0.649  0.1688  0.3796 -0.1096
 2026poe    c3111341   3.333   5.544   6.375 -0.0226 -0.4753 -0.3276
 2026poe     o211342   3.433   5.508   6.468 -0.3171 -0.0460  0.1572
 2026poe    c2311343   3.425   5.371   6.499 -0.0521 -0.1834 -0.3696
 2026poe    c2311344   3.506   5.336   6.626 -0.2985  0.1939 -0.1071
 2026poe     o211345   3.644   5.362   6.615 -0.4117  0.7656 -0.2032
 2026poe    c2311346   3.703   5.341   6.741 -0.0525  0.3603 -0.4383
 2026poe    c2311347   3.845   5.399   6.743  0.2256 -0.3231  0.0971
 2026poe     o211348   3.928   5.344   6.643  0.3009  0.0502 -0.0466
 2026poe    c2311349   4.057   5.400   6.661  0.3749 -0.0971 -0.1121
 2026poe    c2311350   4.142   5.346   6.545 -0.1170 -0.4704 -0.3018
 2026poe     o211351   4.059   5.346   6.431 -0.3596 -0.5353 -0.1259
 2026poe    c3111352   4.120   5.308   6.309  0.4765  0.1882  0.0626
 2027poe    c3111353   3.908   2.139   6.038  0.6657 -0.1823 -0.3482
 2027poe     o211354   3.841   2.184   5.923  0.4304 -0.1109 -0.1843
 2027poe    c2311355   3.704   2.159   5.945  0.2938  0.7170 -0.0640
 2027poe    c2311356   3.604   2.204   5.836  0.2692 -0.4021 -0.5205
 2027poe     o211357   3.623   2.336   5.789  0.5234 -0.0974  0.4009
 2027poe    c2311358   3.576   2.449   5.859  0.4162 -0.0798  0.3026
 2027poe    c2311359   3.588   2.572   5.768 -0.1730 -0.1764  0.0951
 2027poe     o211360   3.715   2.577   5.707  0.0081 -0.2742  0.4634
 2027poe    c2311361   3.767   2.706   5.685 -0.2874 -0.3169 -0.5268
 2027poe    c2311362   3.911   2.680   5.637 -0.0735  0.3803 -0.2713
 2027poe     o211363   3.921   2.569   5.550 -0.0842  0.0530  0.1406
 2027poe    c3111364   4.056   2.547   5.514 -0.0458 -0.6080  0.6602
 2028poe    c3111365   5.013   2.649   5.389 -0.0606 -0.3954  0.0258
 2028poe     o211366   5.078   2.593   5.277  0.1539  0.2635 -0.1830
 2028poe    c2311367   4.979   2.579   5.178 -0.1663 -0.4719  0.2332
 2028poe    c2311368   5.033   2.574   5.034 -0.5761  0.0033  0.0608
 2028poe     o211369   5.095   2.450   5.010  0.3928  0.4786  0.0623
 2028poe    c2311370   5.177   2.448   4.895  0.2506 -0.1910 -0.0316
 2028poe    c2311371   5.257   2.321   4.864  0.2853  0.0048 -0.7729
 2028poe     o211372   5.179   2.215   4.813 -0.2249 -0.0725  0.1424
 2028poe    c2311373   5.256   2.100   4.786  0.0514  0.1531 -0.0407
 2028poe    c2311374   5.172   1.997   4.707 -0.1096  0.3230 -0.0919
 2028poe     o211375   5.072   1.953   4.796  0.1835  0.2472  0.2029
 2028poe    c3111376   4.955   1.909   4.730  0.3985 -0.2922  0.1797
 2029poe    c3111377   2.333   2.816   3.088 -0.9257  0.4273 -0.1069
 2029poe     o211378   2.322   2.956   3.085 -0.3389  0.4715 -0.3462
 2029poe    c2311379   2.229   3.000   3.182 -0.3143 -0.2138 -0.0057
 2029poe    c2311380   2.218   3.153   3.194  0.2145 -0.1899  0.2299
 2029poe     o211381   2.325   3.237   3.234 -0.1969  0.4431  0.0204
 2029poe    c2311382   2.309   3.282   3.366 -0.1082  0.5479 -0.0043
 2029poe    c2311383   2.419   3.388   3.378  0.2513  0.1847 -0.0686
 2029poe     o211384   2.540   3.344   3.319 -0.1310 -0.0587 -0.6776
 2029poe    c2311385   2.628   3.453   3.306 -0.2308  0.0886 -0.1685
 2029poe    c2311386   2.727   3.416   3.194 -0.1104  0.2795 -0.1262
 2029poe     o211387   2.639   3.373   3.092  0.2747 -0.5048 -0.1340
 2029poe    c3111388   2.709   3.348   2.972  0.0257 -0.2170 -0.3371
 2030poe    c3111389   1.698   0.641   2.594 -0.0303 -0.4199  0.1029
 2030poe     o211390   1.701   0.511   2.540  0.2699 -0.2048 -0.4126
 2030poe    c2311391   1.598   0.501   2.444  0.2904  0.2547 -0.4826
 2030poe    c2311392   1.572   0.353   2.410  0.0145  0.3312 -0.6059
 2030poe     o211393   1.698   0.291   2.396 -0.2420 -0.3434  0.0057
 2030poe    c2311394   1.685   0.154   2.364 -0.0822 -0.3666  0.0412
 2030poe    c2311395   1.825   0.092   2.381  0.0624 -0.1694 -0.4093
 2030poe     o211396   1.892   0.148   2.491  0.2479 -0.2343 -0.4883
 2030poe    c2311397   1.980   0.052   2.544  0.5338  0.4526  0.3102
 2030poe    c2311398   2.048   0.097   2.675  0.7852 -0.6167  0.5560
 2030poe     o211399   1.952   0.101   2.778  0.1225 -0.1811 -0.0639
 2030poe    c3111400   2.016   0.097   2.904  0.7323  0.3836 -0.3539
 2031poe    c3111401   5.181   3.246   1.142  0.6865 -0.7357 -0.1646
 2031poe     o211402   5.298   3.324   1.131  0.2006  0.1205  0.5474
 2031poe    c2311403   5.319   3.389   1.008 -0.4080 -0.2996  0.2164
 2031poe    c2311404   5.451   3.463   0.980 -0.5538 -0.1288 -0.0270
 2031poe     o211405   5.453   3.597   1.026  0.0602 -0.0258 -0.3361
 2031poe    c2311406   5.577   3.663   1.022  0.1693 -0.1891  0.2711
 2031poe    c2311407   5.601   3.787   1.110  0.4689  0.2747 -0.4588
 2031poe     o211408   5.537   3.896   1.048 -0.0423  0.2468  0.0190
 2031poe    c2311409   5.507   3.998   1.141 -0.2263 -0.0019  0.2338
 2031poe    c2311410   5.439   4.119   1.075  0.2181 -0.0088 -0.2453
 2031poe     o211411   5.311   4.097   1.020  0.1805 -0.1769 -0.0949
 2031poe    c3111412   5.286   4.188   0.915  0.3083 -0.1008 -0.0589
 2032poe    c3111413   6.043   5.101   4.503 -0.0111  0.3190 -0.4596
 2032poe     o211414   6.169   5.152   4.469 -0.0267  0.4615 -0.3023
 2032poe    c2311415   6.165   5.286   4.426 -0.0233  0.6034  0.1267
 2032poe    c2311416   6.276   5.315   4.322 -0.0897  0.0046 -0.1143
 2032poe     o211417   6.408   5.278   4.356 -0.1441 -0.2810 -0.2124
 2032poe    c2311418   6.461   5.359   4.458 -0.0065  0.0795 -0.5667
 2032poe    c2311419   6.608   5.321   4.484 -0.0885  0.2171  0.1208
 2032poe     o211420   6.618   5.185   4.522  0.1765  0.2368  0.1215
 2032poe    c2311421   6.747   5.146   4.564 -0.0356 -0.1977  0.3736
 2032poe    c2311422   6.731   4.995   4.585 -0.5524 -0.2320 -0.2357
 2032poe     o211423   6.653   4.936   4.484 -0.2543 -0.0563 -0.5706
 2032poe    c3111424   6.626   4.798   4.500  0.5025 -0.1250  0.1739
 2033poe    c3111425   2.236   5.848   2.278  0.2691 -0.5673 -0.9360
 2033poe     o211426   2.152   5.938   2.208  0.0226  0.2037  0.3229
 2033poe    c2311427   2.078   6.026   2.289 -0.0715  0.6459 -0.2337
 2033poe    c2311428   1.998   6.124   2.201 -0.5548  0.2415 -0.2537
 2033poe     o211429   2.081   6.151   2.091  0.0759 -0.3702  0.0640
 2033poe    c2311430   2.012   6.240   2.006  0.4291  0.4137  0.5924
 2033poe    c2311431   2.119   6.285   1.905  0.0365  0.1739  0.0695
 2033poe     o211432   2.209   6.181   1.870  0.1101  0.1925  0.2057
 2033poe    c2311433   2.308   6.245   1.793  0.5313  0.4306  0.9316
 2033poe    c2311434   2.429   6.161   1.749  0.1815  0.5809 -0.3614
 2033poe     o211435   2.520   6.126   1.851 -0.7195 -0.6903  0.0316
 2033poe    c3111436   2.610   6.026   1.807  0.2531  0.3068 -0.2993
 2034poe    c3111437   5.725   6.075   6.059  0.5116  0.0487 -0.0391
 2034poe     o211438   5.653   6.192   6.029  0.6237  0.0784 -0.1908
 2034poe    c2311439   5.746   6.285   5.979  0.5979  0.2032 -0.0067
 2034poe    c2311440   5.683   6.423   5.955  0.5081  0.1858  0.1261
 2034poe     o211441   5.633   6.487   6.070  0.1605  0.2007 -0.0323
 2034poe    c2311442   5.592   6.619   6.040  0.0861  0.1302 -0.2449
 2034poe    c2311443   5.538   6.705   6.156  0.0951 -0.1250 -0.0511
 2034poe     o211444   5.492   6.608   6.248 -0.3688 -0.4262 -0.5908
 2034poe    c2311445   5.447   6.675   6.364  0.9453 -0.4602 -0.0436
 2034poe    c2311446   5.365   6.568   6.438 -0.1151 -0.0022 -0.5303
 2034poe     o211447   5.428   6.444   6.415 -0.0242 -0.0869  0.1708
 2034poe    c3111448   5.378   6.348   6.506  0.7753 -0.6804  0.0025
 2035poe    c3111449   1.920   2.630   4.576 -0.4696 -0.7204  0.7132
 2035poe     o211450   2.052   2.670   4.606 -0.5380  0.1141 -0.0460
 2035poe    c2311451   2.056   2.706   4.742  0.0209  0.0930 -0.0576
 2035poe    c2311452   2.197   2.690   4.803  0.1814  0.5852 -0.2976
 2035poe     o211453   2.281   2.744   4.703  0.3050  0.4065 -0.2912
 2035poe    c2311454   2.411   2.693   4.720 -0.1906 -0.7412  0.1038
 2035poe    c2311455   2.494   2.764   4.612 -0.4218 -0.1414  0.3212
 2035poe     o211456   2.425   2.755   4.489  0.2384 -0.2951 -0.0424
 2035poe    c2311457   2.515   2.759   4.381 -0.0185 -0.3432 -0.2591
 2035poe    c2311458   2.439   2.767   4.247 -0.2991  0.3507 -0.0653
 2035poe     o211459   2.326   2.684   4.238 -0.2611  0.2624  0.2411
 2035poe    c3111460   2.268   2.724   4.115  0.2289  0.4308  0.0618
 2036poe    c3111461   3.670   2.520   6.280 -0.3375  0.1526 -0.1438
 2036poe     o211462   3.619   2.652   6.281 -0.2402  0.1918 -0.3976
 2036poe    c2311463   3.609   2.702   6.412 -0.4133 -0.1052 -0.2953
 2036poe    c2311464   3.604   2.854   6.385  0.0271 -0.0419 -0.0332
 2036poe     o211465   3.505   2.872   6.286 -0.1904  0.2898  0.2467
 2036poe    c2311466   3.471   3.003   6.246  0.1811  0.3214  0.0306
 2036poe    c2311467   3.344   3.000   6.159  0.1679 -0.3498  0.0717
 2036poe     o211468   3.338   2.893   6.067 -0.2497 -0.4527  0.2153
 2036poe    c2311469   3.224   2.908   5.985  0.0208 -0.1369 -0.1055
 2036poe    c2311470   3.234   2.807   5.869 -0.2532 -0.4435  0.1388
 2036poe     o211471   3.179   2.693   5.932 -0.0718 -0.3274  0.5114
 2036poe    c3111472   3.136   2.590   5.845  0.5273 -0.0783 -0.0854
 2037poe    c3111473   6.507   2.262   3.185  0.1039 -0.3548  0.3752
 2037poe     o211474   6.586   2.145   3.194 -0.0792 -0.5233 -0.1682
 2037poe    c2311475   6.519   2.053   3.277 -0.7962  0.4885  0.3988
 2037poe    c2311476   6.576   1.915   3.239  0.1991  0.8088  0.6860
 2037poe     o211477   6.713   1.946   3.230  0.2793  0.2531 -0.1194
 2037poe    c2311478   6.783   1.827   3.200  0.0187 -0.0453  0.4424
 2037poe    c2311479   6.921   1.862   3.141 -0.3133  0.2336 -0.1680
 2037poe     o211480   6.926   1.931   3.018 -0.2247  0.5330  0.0042
 2037poe    c2311481   7.056   1.956   2.969 -0.2908 -0.3480 -0.6650
 2037poe    c2311482   7.065   2.028   2.834  0.3054  0.4842 -0.1941
 2037poe     o211483   6.999   2.151   2.857 -0.3733  0.0099  0.4019
 2037poe    c3111484   7.016   2.247   2.756 -0.4293 -0.2322  0.1630
 2038poe    c3111485   5.038   6.173   1.700 -0.7687  0.0356  0.0907
 2038poe     o211486   5.174   6.156   1.664 -0.5163  0.8387  0.6488
 2038poe    c2311487   5.223   6.270   1.598 -0.0148  0.1408 -0.1916
 2038poe    c2311488   5.377   6.268   1.601 -0.0260 -0.5193 -0.0761
 2038poe     o211489   5.427   6.152   1.537 -0.0600 -0.3693 -0.3764
 2038poe    c2311490   5.568   6.152   1.526 -0.0367 -0.1191 -0.0841
 2038poe    c2311491   5.620   6.008   1.518  0.0456 -0.0787 -0.2808
 2038poe     o211492   5.539   5.941   1.612 -0.1873 -0.3064 -0.6420
 2038poe    c2311493   5.584   5.819   1.667  0.3528  0.2284  0.1204
 2038poe    c2311494   5.682   5.844   1.783  0.5874 -0.0318 -0.0202
 2038poe     o211495   5.607   5.915   1.879  0.6566  0.7294 -0.5185
 2038poe    c3111496   5.673   5.934   2.002  0.5037  0.0898 -0.3351
 2039poe    c3111497   1.189   3.190   1.688 -0.1090 -0.1274  0.1037
 2039poe     o211498   1.186   3.146   1.554 -0.2441 -0.0823  0.0917
 2039poe    c2311499   1.294   3.060   1.526 -0.4375 -0.4165  0.3633
 2039poe    c2311500   1.328   3.074   1.377 -0.5732 -0.2186  0.3492
 2039poe     o211501   1.404   3.188   1.343  0.2767 -0.7523  0.4121
 2039poe    c2311502   1.462   3.165   1.216  0.0114 -0.0241  0.1500
 2039poe    c2311503   1.543   3.292   1.187 -0.2781  0.2308  0.4437
 2039poe     o211504   1.596   3.339   1.309  0.1407  0.2322  0.2637
 2039poe    c2311505   1.683   3.446   1.282  0.0004  0.3291  0.1948
 2039poe    c2311506   1.823   3.398   1.240 -0.1604 -0.1991  0.2528
 2039poe     o211507   1.902   3.335   1.339 -0.0751 -0.7830 -0.1829
 2039poe    c3111508   2.039   3.351   1.311 -0.1631 -0.2489 -0.3218
 2040poe    c3111509   5.387   5.024   0.952  0.1421 -0.1060  0.2483
 2040poe     o211510   5.527   5.018   0.965  0.2139  0.2225 -0.3571
 2040poe    c2311511   5.576   4.908   0.893 -0.5101 -0.1844 -0.2394
 2040poe    c2311512   5.725   4.881   0.922 -0.3300  0.6761 -0.3455
 2040poe     o211513   5.769   4.847   1.052 -0.0572  0.4249 -0.5017
 2040poe    c2311514   5.902   4.799   1.057 -0.1180  0.3188  0.1600
 2040poe    c2311515   5.931   4.730   1.191 -0.6027  0.5032  0.3646
 2040poe     o211516   5.921   4.814   1.304 -0.8699  0.1713  0.5894
 2040poe    c2311517   6.022   4.785   1.399  0.0009 -0.3288 -0.4613
 2040poe    c2311518   6.015   4.902   1.499 -0.4208  0.0064 -0.8749
 2040poe     o211519   5.880   4.928   1.527 -0.2348  0.2365 -0.1792
 2040poe    c3111520   5.860   5.057   1.580 -0.2530  0.4101 -0.6044
 2041poe    c3111521   1.601   3.563   3.240 -0.2113  0.1864 -0.0819
 2041poe     o211522   1.537   3.438   3.258  0.3438 -0.0397  0.3330
 2041poe    c2311523   1.412   3.457   3.319  0.3359 -0.0634  0.3240
 2041poe    c2311524   1.336   3.324   3.335  0.3621 -0.0304  0.7226
 2041poe     o211525   1.428   3.233   3.393  0.6998 -0.1254  0.0430
 2041poe    c2311526   1.373   3.103   3.394  0.2047  0.0759 -0.2125
 2041poe    c2311527   1.468   3.005   3.466  0.2395  0.1492 -0.1581
 2041poe     o211528   1.588   2.994   3.394  0.3288 -0.1153  0.0263
 2041poe    c2311529   1.682   2.903   3.446  0.2923 -0.3189 -0.2627
 2041poe    c2311530   1.791   2.856   3.348  0.1265 -0.4916 -0.3657
 2041poe     o211531   1.827   2.981   3.293 -0.8938  0.0188  0.1067
 2041poe    c3111532   1.885   2.947   3.169  0.2399  0.3713  0.5330
 2042poe    c3111533   2.631   5.181   2.631 -0.4287 -0.0029 -0.5543
 2042poe     o211534   2.523   5.118   2.565 -0.2987 -0.6823 -0.1261
 2042poe    c2311535   2.463   5.013   2.638  0.3042 -0.9347  0.0144
 2042poe    c2311536   2.310   5.015   2.624  0.3247  0.1116 -0.1846
 2042poe     o211537   2.250   4.981   2.501  0.0886 -0.2443  0.0240
 2042poe    c2311538   2.110   4.972   2.511  0.0923 -0.1030  0.2079
 2042poe    c2311539   2.052   4.927   2.376  0.0128 -0.0913  0.2382
 2042poe     o211540   2.093   5.029   2.287 -0.8762  0.0194 -0.0626
 2042poe    c2311541   2.079   4.989   2.153 -0.0192 -0.1133 -0.1169
 2042poe    c2311542   2.164   5.073   2.057  0.0412 -0.4253 -0.3390
 2042poe     o211543   2.295   5.068   2.109 -0.1756 -0.3689  0.2085
 2042poe    c3111544   2.386   5.135   2.026 -0.3407 -0.6529 -0.2028
 2043poe    c3111545   6.266   4.077   1.661  0.0343  0.0830 -0.4574
 2043poe     o211546   6.375   4.001   1.616  0.2169 -0.2080  0.4427
 2043poe    c2311547   6.328   3.891   1.540 -0.4751  0.6524 -0.4032
 2043poe    c2311548   6.438   3.825   1.456  0.0981  0.3507  0.5736
 2043poe     o211549   6.558   3.846   1.528  0.3905 -0.0209  0.1991
 2043poe    c2311550   6.669   3.796   1.457  0.2830  0.1179 -0.0694
 2043poe    c2311551   6.796   3.853   1.523  0.6646 -0.2859 -0.4422
 2043poe     o211552   6.788   3.993   1.539  0.6773 -0.3023 -0.2826
 2043poe    c2311553   6.912   4.052   1.570  0.2997  0.1306  0.4134
 2043poe    c2311554   6.894   4.204   1.590 -0.4192  0.1019  0.0025
 2043poe     o211555   6.834   4.249   1.709 -0.0896 -0.3447  0.3407
 2043poe    c3111556   6.805   4.387   1.703  0.2242 -0.2970 -0.1138
 2044poe    c3111557   5.032   3.144   3.171  0.0912  0.0177  0.1107
 2044poe     o211558   5.043   3.104   3.306 -0.0285  0.3931  0.2353
 2044poe    c2311559   4.914   3.115   3.361 -0.1389  0.1898  0.0180
 2044poe    c2311560   4.901   3.068   3.507  0.2589 -0.3582 -0.1192
 2044poe     o211561   4.923   2.929   3.513 -0.8186 -0.5365 -0.1398
 2044poe    c2311562   4.861   2.883   3.631 -0.1897  0.4846  0.6130
 2044poe    c2311563   4.938   2.758   3.678  0.4460  0.4483 -0.4998
 2044poe     o211564   4.915   2.652   3.587 -0.0585  0.1719 -0.0561
 2044poe    c2311565   4.956   2.528   3.641 -0.5751 -0.1772 -0.4535
 2044poe    c2311566   4.932   2.428   3.527 -0.0419 -0.4567 -0.3261
 2044poe     o211567   4.795   2.410   3.497  0.0019 -0.2559 -0.6553
 2044poe    c3111568   4.770   2.308   3.403 -0.4399 -0.0423 -0.7742
 2045poe    c3111569   6.061   1.500   3.912 -0.4094  0.4403 -0.0330
 2045poe     o211570   6.066   1.633   3.959 -0.2456  0.3983  0.0713
 2045poe    c2311571   5.943   1.701   3.949 -0.2359  0.3603 -0.3237
 2045poe    c2311572   5.948   1.852   3.976  0.1095  0.3238 -0.1862
 2045poe     o211573   6.048   1.917   3.900  0.1650  0.3804 -0.0671
 2045poe    c2311574   6.011   2.053   3.906 -0.2914  0.2535  0.0554
 2045poe    c2311575   6.113   2.134   3.824 -0.1302 -0.1146 -0.1111
 2045poe     o211576   6.128   2.082   3.694  0.0832 -0.6313  0.1211
 2045poe    c2311577   6.198   2.165   3.604 -0.4481  0.1103  0.3827
 2045poe    c2311578   6.179   2.112   3.460  0.5370 -0.0021  0.2884
 2045poe     o211579   6.219   1.977   3.456 -0.3029 -0.2493  0.1147
 2045poe    c3111580   6.186   1.901   3.341 -0.7622  0.3363 -0.1432
 2046poe    c3111581   0.485   2.250   1.746 -0.0160 -0.1097  0.4501
 2046poe     o211582   0.569   2.142   1.713  0.0058  0.0240  0.0637
 2046poe    c2311583   0.702   2.179   1.744  0.0073  0.0906 -0.0212
 2046poe    c2311584   0.768   2.042   1.716 -0.0506  0.0100  0.2300
 2046poe     o211585   0.734   2.022   1.580  0.2984  0.0887  0.1310
 2046poe    c2311586   0.802   1.920   1.510  0.2600  0.0271  0.1832
 2046poe    c2311587   0.737   1.914   1.370 -0.2162 -0.2314  0.4141
 2046poe     o211588   0.599   1.921   1.401 -0.2330  0.9395  0.1070
 2046poe    c2311589   0.539   1.894   1.277  0.0680  0.9555 -0.0444
 2046poe    c2311590   0.386   1.910   1.289 -0.0644 -0.1313 -0.1333
 2046poe     o211591   0.333   2.036   1.325 -0.4060 -0.4127  0.3664
 2046poe    c3111592   0.193   2.028   1.315 -0.3681 -0.0711 -0.5641
 2047poe    c3111593   1.976   5.796   6.194  0.2722 -0.5991  0.2064
 2047poe     o211594   1.983   5.807   6.335 -0.5866  0.1136  0.2024
 2047poe    c2311595   2.012   5.679   6.388  0.2777  0.1538 -0.1702
 2047poe    c2311596   2.076   5.706   6.525 -0.0011  0.0759 -0.0250
 2047poe     o211597   1.992   5.778   6.613 -0.1528 -0.5564  0.3611
 2047poe    c2311598   1.930   5.694   6.706 -0.2630 -0.4269  0.4050
 2047poe    c2311599   1.801   5.765   6.752 -0.1318  0.4566 -0.5683
 2047poe     o211600   1.840   5.897   6.779 -0.3965  0.4394 -0.1013
 2047poe    c2311601   1.734   5.982   6.818 -0.3926  0.1167  0.6336
 2047poe    c2311602   1.795   6.123   6.830  0.7955 -0.3601  0.3519
 2047poe     o211603   1.861   6.156   6.710  0.1687 -0.1688  0.0561
 2047poe    c3111604   1.871   6.296   6.711 -0.3870 -0.1256 -0.1701
 2048poe    c3111605   1.466   6.609   1.820 -0.4924  0.1913 -0.3988
 2048poe     o211606   1.495   6.490   1.750 -0.2760  0.3397 -0.5615
 2048poe    c2311607   1.442   6.485   1.620 -0.3986  0.1554 -0.5039
 2048poe    c2311608   1.531   6.412   1.517  0.3925  0.0112  0.2724
 2048poe     o211609   1.551   6.278   1.553 -0.1327 -0.1623 -0.0791
 2048poe    c2311610   1.608   6.191   1.458 -0.5757 -0.3862 -0.1467
 2048poe    c2311611   1.737   6.118   1.498 -0.1999  0.2769 -0.1329
 2048poe     o211612   1.731   6.070   1.631  0.1832  0.4364 -0.0544
 2048poe    c2311613   1.856   6.033   1.684  0.0435 -0.2183 -0.1723
 2048poe    c2311614   1.831   5.979   1.826 -0.7770 -0.7572 -0.5117
 2048poe     o211615   1.742   6.054   1.905  0.1462  0.0539 -0.2191
 2048poe    c3111616   1.728   5.989   2.030 -0.1469  0.2777 -0.1348
 2049poe    c3111617   6.774   2.867   6.090  0.2142  0.1769  0.8941
 2049poe     o211618   6.849   2.986   6.081  0.1491  0.1713  0.2878
 2049poe    c2311619   6.980   2.949   6.046  0.0076  0.0331 -0.1039
 2049poe    c2311620   7.074   3.069   6.068 -0.5335  0.3135  0.6706
 2049poe     o211621   7.029   3.172   5.983 -0.1572 -0.1735 -0.1239
 2049poe    c2311622   7.125   3.276   5.978 -0.5245  0.1869  0.2316
 2049poe    c2311623   7.170   3.308   5.834  0.0315 -0.1476  0.3275
 2049poe     o211624   7.061   3.362   5.763 -0.0478 -0.5374  0.1557
 2049poe    c2311625   7.077   3.370   5.623 -0.3842 -0.7356  0.1062
 2049poe    c2311626   6.946   3.438   5.576  0.0121  0.3115  0.4855
 2049poe     o211627   6.836   3.351   5.590  0.0560  0.0933 -0.4521
 2049poe    c3111628   6.717   3.421   5.561 -0.3439 -0.1638  0.5405
 2050poe    c3111629   3.156   2.728   1.638 -0.5595  0.5646 -0.4657
 2050poe     o211630   3.036   2.654   1.638 -0.1659 -0.0823 -0.0432
 2050poe    c2311631   2.943   2.718   1.554  0.0033  0.4625  0.1800
 2050poe    c2311632   2.808   2.646   1.573  0.3850 -0.3048  0.0444
 2050poe     o211633   2.745   2.678   1.695  0.0182  0.1999 -0.2697
 2050poe    c2311634   2.609   2.640   1.698  0.2260 -0.5389  0.0093
 2050poe    c2311635   2.547   2.667   1.836  0.1271 -0.4762 -0.0479
 2050poe     o211636   2.573   2.578   1.942  0.2000 -0.1167  0.2408
 2050poe    c2311637   2.476   2.589   2.044  0.2658 -0.1919  0.3116
 2050poe    c2311638   2.514   2.505   2.167 -0.2189 -0.3348  0.3686
 2050poe     o211639   2.628   2.530   2.247 -0.0586 -0.6982  0.2564
 2050poe    c3111640   2.750   2.504   2.183 -0.0065 -0.0622  0.0892
 2051poe    c3111641   2.681   0.875   0.924 -0.3279  0.0222 -0.3945
 2051poe     o211642   2.611   0.951   0.829 -0.4360  0.5689  0.1140
 2051poe    c2311643   2.494   0.879   0.799 -0.1484 -0.0149  0.3856
 2051poe    c2311644   2.386   0.952   0.717 -0.2516 -0.4961  0.0894
 2051poe     o211645   2.426   0.986   0.586 -0.1672  0.4129  0.3452
 2051poe    c2311646   2.339   1.075   0.521 -1.0180 -0.5426  0.1461
 2051poe    c2311647   2.380   1.105   0.375  0.2608  0.5156  0.7095
 2051poe     o211648   2.521   1.118   0.375  0.3471 -0.3231  0.4898
 2051poe    c2311649   2.563   1.155   0.246 -0.4830  0.4535  0.4260
 2051poe    c2311650   2.703   1.097   0.216 -0.5261  0.4693  0.1933
 2051poe     o211651   2.778   1.113   0.334 -0.1063 -0.4865  0.0696
 2051poe    c3111652   2.911   1.068   0.322 -0.0062 -0.2052  0.1200
 2052poe    c3111653   5.652   2.454   0.643 -1.1409  0.1843 -0.4880
 2052poe     o211654   5.763   2.416   0.564 -0.4594 -0.2545  0.6655
 2052poe    c2311655   5.880   2.487   0.598 -0.1177 -0.5512  0.1186
 2052poe    c2311656   5.999   2.429   0.519  0.0209  0.2607 -0.2739
 2052poe     o211657   5.957   2.395   0.388 -0.3343 -0.1117 -0.0668
 2052poe    c2311658   6.067   2.385   0.301 -0.1474  0.1002  0.1453
 2052poe    c2311659   6.020   2.407   0.156  0.0586 -0.1390  0.0421
 2052poe     o211660   5.941   2.520   0.130  0.7892  0.2991 -0.2827
 2052poe    c2311661   5.914   2.526  -0.009  0.3137  0.5621 -0.1834
 2052poe    c2311662   5.781   2.593  -0.045  0.1901  0.4816  0.1241
 2052poe     o211663   5.674   2.513   0.003  0.0898  0.4469 -0.1529
 2052poe    c3111664   5.557   2.543  -0.070  0.1585  0.5204 -0.2329
 2053poe    c3111665   4.592   5.869   5.786  0.3417 -0.0775  0.3233
 2053poe     o211666   4.637   5.755   5.857  0.2102 -0.3938 -0.1015
 2053poe    c2311667   4.546   5.650   5.832 -0.0129 -0.2357  0.0472
 2053poe    c2311668   4.642   5.532   5.859  0.0242 -0.2607 -0.1973
 2053poe     o211669   4.706   5.568   5.979  0.3579  0.0717 -0.4719
 2053poe    c2311670   4.810   5.478   6.010  0.0494 -0.1131  0.0496
 2053poe    c2311671   4.924   5.561   6.072 -0.1281  0.1203  0.0655
 2053poe     o211672   4.888   5.673   6.150  0.1207  0.2144  0.0465
 2053poe    c2311673   4.906   5.631   6.283  0.4986  0.3492  0.0391
 2053poe    c2311674   4.876   5.740   6.388  0.2328 -0.2341  0.5782
 2053poe     o211675   4.747   5.796   6.386  0.2989 -0.0890 -0.1322
 2053poe    c3111676   4.726   5.882   6.497 -0.1398 -0.0367 -0.2530
 2054poe    c3111677   6.953   2.365   3.983 -0.0191  0.4814 -0.7509
 2054poe     o211678   7.068   2.401   4.056  0.0233 -0.1003 -0.5232
 2054poe    c2311679   7.131   2.513   3.997  0.1834  0.2634  0.3227
 2054poe    c2311680   7.256   2.562   4.072  0.3364  0.1204  0.1633
 2054poe     o211681   7.322   2.446   4.116  0.0047 -0.2405 -0.2812
 2054poe    c2311682   7.447   2.482   4.171 -0.1138 -0.3283  0.0496
 2054poe    c2311683   7.525   2.353   4.203  0.1990 -0.1983 -0.1886
 2054poe     o211684   7.456   2.269   4.293 -0.0129 -0.1112 -0.2689
 2054poe    c2311685   7.524   2.149   4.326  0.4990  0.2080 -0.1514
 2054poe    c2311686   7.434   2.064   4.418  0.4385  0.2132 -0.2060
 2054poe     o211687   7.316   2.012   4.359  0.2823  0.2644  0.0624
 2054poe    c3111688   7.227   1.952   4.450  0.2437 -0.2863 -0.3340
 2055poe    c3111689   4.886   0.091   0.206  0.0532  0.3815  0.4303
 2055poe     o211690   4.854   0.224   0.172  0.2078  0.3236  0.0611
 2055poe    c2311691   4.911   0.312   0.266 -0.0048  0.2289  0.2805
 2055poe    c2311692   4.909   0.447   0.191 -0.6130  0.2113  0.2672
 2055poe     o211693   4.800   0.463   0.102 -0.5152  0.3803  0.1776
 2055poe    c2311694   4.794   0.589   0.040 -0.0899  0.1458 -0.3489
 2055poe    c2311695   4.653   0.604  -0.022 -0.1848 -0.5274 -0.3010
 2055poe     o211696   4.608   0.494  -0.098 -0.4371 -0.4333 -0.2885
 2055poe    c2311697   4.619   0.523  -0.235 -0.1531  0.0604 -0.1635
 2055poe    c2311698   4.587   0.403  -0.326  0.0726  0.1139 -0.3164
 2055poe     o211699   4.682   0.299  -0.331  0.1751  0.1780  0.2551
 2055poe    c3111700   4.677   0.205  -0.435  0.1256  0.2993  0.1474
 2056poe    c3111701   5.198   6.848   4.270  0.6566  0.4849  0.2524
 2056poe     o211702   5.297   6.900   4.184  0.5686 -0.3498 -0.3594
 2056poe    c2311703   5.420   6.832   4.191  0.7796  0.0985  0.4081
 2056poe    c2311704   5.528   6.903   4.108  0.0071  0.2349 -0.4999
 2056poe     o211705   5.496   6.900   3.970 -0.1651 -0.9226 -0.4425
 2056poe    c2311706   5.615   6.917   3.897  0.0179  0.0995  0.0772
 2056poe    c2311707   5.577   6.925   3.747 -0.4492  0.0094  0.1885
 2056poe     o211708   5.480   6.830   3.709 -0.8390  0.4332  0.1091
 2056poe    c2311709   5.434   6.867   3.581 -0.0601  0.0379 -0.2967
 2056poe    c2311710   5.308   6.780   3.565  0.1872 -0.2484 -0.6921
 2056poe     o211711   5.229   6.774   3.682  0.6810  0.0372 -0.3405
 2056poe    c3111712   5.094   6.749   3.653  0.5881  0.0423  0.0898
 2057poe    c3111713   2.409   0.438   1.800 -0.4684 -0.1369  0.6881
 2057poe     o211714   2.352   0.566   1.780  0.8363  0.3728  0.0517
 2057poe    c2311715   2.268   0.605   1.887  0.5449 -0.0485 -0.0186
 2057poe    c2311716   2.230   0.748   1.844 -0.1200 -0.2150  0.0170
 2057poe     o211717   2.201   0.743   1.706 -0.1051  0.0412  0.0051
 2057poe    c2311718   2.173   0.869   1.648  0.1204  0.0645 -0.0529
 2057poe    c2311719   2.097   0.861   1.515  0.1714 -0.0334 -0.0771
 2057poe     o211720   2.176   0.808   1.412 -0.1724  0.3257 -0.5295
 2057poe    c2311721   2.118   0.750   1.297  0.1440 -0.3623 -0.3469
 2057poe    c2311722   2.235   0.728   1.199  0.1222  0.5733 -0.5946
 2057poe     o211723   2.332   0.642   1.255 -0.4299  0.0520 -0.4263
 2057poe    c3111724   2.389   0.563   1.153 -0.3232 -0.3350 -0.0685
 2058poe    c3111725   4.795   0.599   3.513 -0.4344  0.3428  0.6456
 2058poe     o211726   4.841   0.714   3.445  0.1559 -0.0173  0.4227
 2058poe    c2311727   4.791   0.721   3.314  0.5631 -0.3639  0.2440
 2058poe    c2311728   4.786   0.851   3.231 -0.0449 -0.1647  0.5854
 2058poe     o211729   4.693   0.950   3.270 -0.1688  0.2052 -0.6115
 2058poe    c2311730   4.686   1.064   3.187  0.1471  0.4324 -0.3320
 2058poe    c2311731   4.569   1.159   3.220 -0.1866 -0.0015 -0.2561
 2058poe     o211732   4.561   1.175   3.359  0.3826  0.2220 -0.2454
 2058poe    c2311733   4.486   1.283   3.411  0.1648  0.1006 -0.3084
 2058poe    c2311734   4.420   1.226   3.538  0.0627 -0.0817 -0.4416
 2058poe     o211735   4.494   1.119   3.593  0.2695  0.5122  0.4605
 2058poe    c3111736   4.448   1.085   3.722  0.3894 -0.1045  0.3398
 2059poe    c3111737   3.067   3.907   0.845 -0.1321  0.2011  0.2094
 2059poe     o211738   3.114   3.879   0.715 -0.0616  0.1497  0.2459
 2059poe    c2311739   3.253   3.896   0.713 -0.0358 -0.1069 -0.3609
 2059poe    c2311740   3.298   4.027   0.646 -0.1297  0.1422  0.0546
 2059poe     o211741   3.218   4.025   0.530 -0.3614 -0.0268  0.2165
 2059poe    c2311742   3.204   4.154   0.475 -0.1776 -0.2560 -0.3816
 2059poe    c2311743   3.071   4.151   0.397 -0.3727 -0.1271 -0.0583
 2059poe     o211744   2.982   4.078   0.479  0.0931  0.1048  0.6619
 2059poe    c2311745   2.872   4.041   0.399  0.4459 -0.2505  0.3399
 2059poe    c2311746   2.787   3.949   0.489 -0.1562  0.0266  0.0571
 2059poe     o211747   2.882   3.868   0.555  0.0415 -0.0280 -0.2876
 2059poe    c3111748   2.826   3.744   0.592 -0.4780  0.4308  0.5049
 2060poe    c3111749   5.657   1.750   1.690 -0.1975 -0.0305  0.0328
 2060poe     o211750   5.685   1.631   1.759  0.4381 -0.0701 -0.2860
 2060poe    c2311751   5.612   1.528   1.696 -0.3914  0.0464  0.4573
 2060poe    c2311752   5.613   1.396   1.775 -0.1157 -0.2264 -0.0002
 2060poe     o211753   5.735   1.326   1.756 -0.0908 -0.0422 -0.5328
 2060poe    c2311754   5.739   1.225   1.854  0.3122  0.7267  0.2550
 2060poe    c2311755   5.823   1.109   1.796 -0.1223  0.5886 -0.1052
 2060poe     o211756   5.954   1.151   1.769 -0.0028  0.4766  0.2901
 2060poe    c2311757   6.051   1.087   1.849  0.0769  0.5895  0.2834
 2060poe    c2311758   6.078   1.149   1.987  0.7814 -0.0164  0.4224
 2060poe     o211759   6.094   1.289   1.990 -0.4551  0.1382  0.1333
 2060poe    c3111760   6.146   1.322   2.116 -0.3989 -0.1322  0.1808
 2061poe    c3111761   3.649   2.186   0.751  0.0554  0.0802 -0.1969
 2061poe     o211762   3.630   2.060   0.690 -0.3783 -0.4453  0.9948
 2061poe    c2311763   3.515   1.994   0.739 -0.7925 -0.3066  0.2191
 2061poe    c2311764   3.443   1.933   0.617 -0.2095  0.8145 -0.7086
 2061poe     o211765   3.511   1.833   0.544 -0.1498  0.2726  0.0796
 2061poe    c2311766   3.424   1.783   0.445  0.0695 -0.0636  0.0598
 2061poe    c2311767   3.502   1.674   0.367  0.3295 -0.1797  0.4754
 2061poe     o211768   3.620   1.741   0.330 -0.3082  0.5527 -0.3057
 2061poe    c2311769   3.701   1.653   0.255  0.2091  0.2472  0.5908
 2061poe    c2311770   3.836   1.721   0.227  0.1841  0.1117  0.1253
 2061poe     o211771   3.896   1.770   0.345 -0.6673  0.4444  0.4236
 2061poe    c3111772   3.975   1.885   0.326 -0.2110  0.0384 -0.1468
 2062poe    c3111773   2.712   2.406   3.004 -0.3442 -0.0817  0.2791
 2062poe     o211774   2.617   2.346   2.919 -0.1220  0.4087 -0.3208
 2062poe    c2311775   2.535   2.437   2.849 -0.1884  0.0627 -0.6940
 2062poe    c2311776   2.451   2.365   2.742 -0.7158 -0.4027  0.0252
 2062poe     o211777   2.534   2.330   2.634 -0.1967  0.6686  0.0608
 2062poe    c2311778   2.468   2.240   2.547  0.1653 -0.0574  0.5299
 2062poe    c2311779   2.569   2.189   2.442 -0.1611 -0.4785  0.4177
 2062poe     o211780   2.686   2.121   2.482  0.1728 -0.2239 -0.1143
 2062poe    c2311781   2.736   2.025   2.392 -0.3297 -0.4997 -0.1034
 2062poe    c2311782   2.777   2.075   2.252 -0.1310 -0.0135  0.1253
 2062poe     o211783   2.891   2.158   2.258 -0.2787  0.1665  0.4500
 2062poe    c3111784   2.933   2.202   2.131 -0.2274 -0.6031  0.1923
 2063poe    c3111785   4.988   0.539   6.648  0.1532 -0.3898 -0.2869
 2063poe     o211786   5.100   0.613   6.691 -0.1924 -0.0563  0.0484
 2063poe    c2311787   5.049   0.742   6.718 -0.4517 -0.0394 -0.5198
 2063poe    c2311788   5.164   0.843   6.696 -0.1814 -0.1107  0.5269
 2063poe     o211789   5.270   0.785   6.769  0.6487 -0.0760 -0.6299
 2063poe    c2311790   5.377   0.877   6.776  0.2231  0.4206 -0.5979
 2063poe    c2311791   5.494   0.795   6.835 -0.1790  0.1515 -0.1652
 2063poe     o211792   5.512   0.674   6.765  0.2915  0.0259  0.1686
 2063poe    c2311793   5.643   0.624   6.770  0.1483 -0.3929 -0.2142
 2063poe    c2311794   5.673   0.538   6.646  0.2845 -0.1653 -0.3379
 2063poe     o211795   5.595   0.421   6.644  0.1981 -0.1051 -0.4647
 2063poe    c3111796   5.640   0.323   6.554  0.0356 -0.5421 -0.0700
 2064poe    c3111797   5.900   2.515   2.583  0.0436  0.1974  0.3238
 2064poe     o211798   5.857   2.648   2.561  0.0590  0.0752 -0.4778
 2064poe    c2311799   5.949   2.706   2.471 -0.1067  0.1546 -0.5955
 2064poe    c2311800   5.891   2.846   2.443  0.2025  0.3485 -0.2719
 2064poe     o211801   5.882   2.899   2.574  0.0182  0.5784 -0.3766
 2064poe    c2311802   5.868   3.039   2.570 -0.0735  0.5718 -0.2827
 2064poe    c2311803   5.862   3.078   2.719  0.3781 -0.8551  0.1252
 2064poe     o211804   5.786   2.995   2.804 -0.2122 -0.0946  0.3469
 2064poe    c2311805   5.764   3.043   2.934 -0.5058  0.4423  0.1039
 2064poe    c2311806   5.669   2.952   3.014 -0.0685 -0.0372  0.0804
 2064poe     o211807   5.714   2.819   3.023  0.2053  0.0158 -0.4756
 2064poe    c3111808   5.609   2.732   3.059 -0.4431  1.0363  0.1234
 2065poe    c3111809   6.283   2.538   3.477 -0.3537  0.4704  0.0063
 2065poe     o211810   6.272   2.495   3.343  0.0376  0.1981  0.0588
 2065poe    c2311811   6.144   2.459   3.297 -0.1381  0.2212  0.5278
 2065poe    c2311812   6.051   2.581   3.283  0.2269  0.4944  0.4648
 2065poe     o211813   6.108   2.675   3.196  0.1436 -0.1208 -0.2609
 2065poe    c2311814   6.033   2.794   3.198  0.1492 -0.1247  0.1164
 2065poe    c2311815   6.136   2.905   3.220  0.2877 -0.2613  0.1606
 2065poe     o211816   6.218   2.914   3.105  0.2436 -0.0036  0.1477
 2065poe    c2311817   6.349   2.959   3.132  0.2388 -0.0082  0.1801
 2065poe    c2311818   6.450   2.922   3.021  0.3683 -0.1988  0.3595
 2065poe     o211819   6.477   2.784   3.024  0.0056 -0.2917 -0.3732
 2065poe    c3111820   6.577   2.751   2.931  0.6504 -0.4014  0.3491
 2066poe    c3111821   1.260   1.723   1.920 -0.4086  0.1350 -0.3880
 2066poe     o211822   1.221   1.621   1.830 -0.0305 -0.3386 -0.0156
 2066poe    c2311823   1.255   1.498   1.890  0.5721 -0.2774 -0.2179
 2066poe    c2311824   1.197   1.376   1.816 -0.1343 -0.0210 -0.1012
 2066poe     o211825   1.219   1.410   1.681 -0.9438  0.1713 -0.1908
 2066poe    c2311826   1.150   1.317   1.600 -0.5197 -0.2017 -0.1264
 2066poe    c2311827   1.140   1.382   1.461 -0.1884  0.0431 -0.0379
 2066poe     o211828   1.122   1.521   1.461  0.2528  0.1016 -0.2155
 2066poe    c2311829   1.138   1.567   1.329  0.8956 -0.7902 -0.4558
 2066poe    c2311830   1.093   1.711   1.298  0.1007 -0.8077  0.6004
 2066poe     o211831   1.174   1.800   1.372 -0.3622 -0.2054  0.3984
 2066poe    c3111832   1.138   1.931   1.335 -0.2205 -0.0805  0.6967
 2067poe    c3111833   1.400   0.181   0.419 -0.5792 -0.1194  0.0035
 2067poe     o211834   1.507   0.141   0.502 -0.4937  0.0787 -0.0112
 2067poe    c2311835   1.533   0.236   0.602 -0.0465  0.2211 -0.2608
 2067poe    c2311836   1.651   0.190   0.690  0.1389  0.5170 -0.3500
 2067poe     o211837   1.637   0.050   0.708 -0.0413  0.6297  0.4191
 2067poe    c2311838   1.726   0.005   0.807  0.2219 -0.0512 -0.1247
 2067poe    c2311839   1.709  -0.147   0.830 -0.3095 -0.0020 -0.1957
 2067poe     o211840   1.786  -0.217   0.736  0.1771 -0.1871  0.3382
 2067poe    c2311841   1.755  -0.354   0.718  0.0860 -0.0881 -0.2981
 2067poe    c2311842   1.857  -0.396   0.611  0.4015 -0.3141  0.0865
 2067poe     o211843   1.808  -0.363   0.483  0.4311 -0.3307  0.0707
 2067poe    c3111844   1.887  -0.417   0.380  0.2133 -0.3049 -0.1112
 2068poe    c3111845   1.713   1.048   3.909 -0.6417  0.1059 -0.4107
 2068poe     o211846   1.795   0.933   3.911 -0.5047  0.2009 -0.5082
 2068poe    c2311847   1.924   0.964   3.865 -0.0654 -0.0139  0.5460
 2068poe    c2311848   2.031   0.854   3.879  0.2670  0.1225 -0.7665
 2068poe     o211849   1.997   0.728   3.827 -0.1624 -0.0628 -0.0513
 2068poe    c2311850   2.116   0.652   3.831  0.1724  0.4040 -0.9348
 2068poe    c2311851   2.088   0.519   3.760  0.4507 -0.3043  0.2518
 2068poe     o211852   1.950   0.493   3.771  0.3639  0.1186  0.1726
 2068poe    c2311853   1.926   0.369   3.709  0.7108  0.1618 -0.0486
 2068poe    c2311854   1.797   0.381   3.626  0.1191 -0.6820  0.7274
 2068poe     o211855   1.735   0.503   3.659  0.2424 -0.2945 -0.4094
 2068poe    c3111856   1.610   0.518   3.595 -0.0932  0.0491  0.3117
 2069poe    c3111857   3.442   5.207   5.365 -0.3844  0.0154  0.3962
 2069poe     o211858   3.524   5.304   5.424 -0.0998 -0.0405  0.0952
 2069poe    c2311859   3.466   5.430   5.450 -0.0407 -0.0144  0.1006
 2069poe    c2311860   3.548   5.514   5.549  0.0991  0.0746 -0.0879
 2069poe     o211861   3.670   5.560   5.495  0.3413 -0.3777  0.0714
 2069poe    c2311862   3.766   5.575   5.598  0.1775  0.2191  0.1404
 2069poe    c2311863   3.899   5.606   5.527  0.1876 -0.0446  0.0411
 2069poe     o211864   3.944   5.497   5.451 -0.3703 -0.2338 -0.0215
 2069poe    c2311865   4.071   5.487   5.390 -0.2029 -0.3686  0.3524
 2069poe    c2311866   4.196   5.465   5.478  0.1895 -0.2009 -0.1610
 2069poe     o211867   4.195   5.341   5.545  0.0708  0.0862  0.3716
 2069poe    c3111868   4.314   5.319   5.617 -0.0869  0.4733  0.7538
 2070poe    c3111869   5.302   3.133   0.150  0.1876  0.5710  0.1042
 2070poe     o211870   5.396   3.054   0.080 -0.2674  0.3961 -0.3168
 2070poe    c2311871   5.482   3.123  -0.008 -0.6574  0.1095 -0.9299
 2070poe    c2311872   5.598   3.035  -0.059  0.1767  0.4503  0.3222
 2070poe     o211873   5.702   3.017   0.034  0.1621 -0.2455  0.2089
 2070poe    c2311874   5.813   2.975  -0.042  0.1852  0.2949 -0.0657
 2070poe    c2311875   5.941   2.961   0.043 -0.1172 -0.5013  0.2714
 2070poe     o211876   5.987   3.088   0.084 -0.2812 -0.1136 -0.7068
 2070poe    c2311877   6.094   3.080   0.176 -0.6470  0.0540 -0.2619
 2070poe    c2311878   6.063   3.190   0.278 -0.2290 -0.1530  0.0920
 2070poe     o211879   6.067   3.318   0.219  0.5046 -0.3924 -0.3982
 2070poe    c3111880   6.019   3.418   0.307  0.2208 -0.6021 -0.3139
 2071poe    c3111881   4.671   4.665   5.059  0.2104  0.4380  0.0036
 2071poe     o211882   4.741   4.653   4.938 -0.0618  0.3985 -0.1510
 2071poe    c2311883   4.881   4.659   4.957 -0.0912 -0.5475  0.4359
 2071poe    c2311884   4.972   4.597   4.850  0.2756 -0.0993  0.4859
 2071poe     o211885   4.942   4.459   4.840  0.6187 -0.1511  0.1384
 2071poe    c2311886   5.050   4.374   4.807  0.4556 -0.2265 -0.2017
 2071poe    c2311887   5.016   4.292   4.681 -0.1294  0.1452 -0.2911
 2071poe     o211888   4.887   4.242   4.712 -0.1592  0.3318 -0.1129
 2071poe    c2311889   4.846   4.174   4.596  0.6041 -0.5082  0.1017
 2071poe    c2311890   4.723   4.097   4.648  0.3028 -0.3817 -0.4146
 2071poe     o211891   4.627   4.192   4.685 -0.4784 -1.1993 -0.3106
 2071poe    c3111892   4.515   4.126   4.739 -0.4205 -0.5876  0.5913
 2072poe    c3111893   4.319   1.801   3.335 -0.2622  0.3847  0.0146
 2072poe     o211894   4.182   1.787   3.366 -0.2426  0.9616  0.3806
 2072poe    c2311895   4.153   1.762   3.502 -0.4739  0.6036  0.2674
 2072poe    c2311896   4.003   1.771   3.536 -0.4922  0.4080  0.2401
 2072poe     o211897   3.919   1.683   3.465 -0.4643  0.3124  0.3260
 2072poe    c2311898   3.786   1.694   3.512 -0.5537  1.1240 -0.1110
 2072poe    c2311899   3.692   1.576   3.485  0.3326  0.3999 -0.0727
 2072poe     o211900   3.685   1.546   3.347  0.0864  0.0744  0.0087
 2072poe    c2311901   3.610   1.431   3.317 -0.2465  0.2395  0.2095
 2072poe    c2311902   3.616   1.396   3.167  0.0461 -0.1365  0.3077
 2072poe     o211903   3.532   1.484   3.097  0.2246 -0.3545 -0.1858
 2072poe    c3111904   3.564   1.473   2.961 -0.7455 -0.4495 -0.4167
 2073poe    c3111905   1.814   0.057   1.212 -0.6745 -0.1902 -0.0211
 2073poe     o211906   1.917   0.103   1.298 -0.6183 -0.3038 -0.0270
 2073poe    c2311907   1.976   0.009   1.384 -0.0806  0.0296 -0.0258
 2073poe    c2311908   2.046   0.073   1.505 -0.3493  0.1010  0.0922
 2073poe     o211909   1.959   0.145   1.591 -0.8229 -0.4528  0.0799
 2073poe    c2311910   2.025   0.189   1.707 -0.8117 -0.7792  0.1983
 2073poe    c2311911   1.953   0.306   1.777 -0.1920 -0.0979 -0.2933
 2073poe     o211912   1.938   0.417   1.691  0.3442  0.5844  0.4777
 2073poe    c2311913   1.831   0.504   1.720  0.1941  0.3959  0.4894
 2073poe    c2311914   1.817   0.606   1.606  0.0120 -0.1126  0.0509
 2073poe     o211915   1.749   0.554   1.493  0.0558  0.2789 -0.1590
 2073poe    c3111916   1.780   0.625   1.376 -0.3410  0.1471 -0.3461
 2074poe    c3111917   0.775   3.399   3.247 -0.1386 -0.0393  0.1559
 2074poe     o211918   0.695   3.505   3.294 -0.2601 -0.0022 -0.1322
 2074poe    c2311919   0.760   3.630   3.291 -0.2261 -0.0151  0.0513
 2074poe    c2311920   0.684   3.750   3.350 -0.2493 -0.1848  0.3692
 2074poe     o211921   0.576   3.778   3.264  0.5240  0.1973 -0.5014
 2074poe    c2311922   0.506   3.897   3.296 -0.2429 -0.3398 -0.1260
 2074poe    c2311923   0.406   3.947   3.190  0.3764  0.0378 -0.5388
 2074poe     o211924   0.329   3.839   3.143  0.4748 -0.1049 -0.3703
 2074poe    c2311925   0.211   3.898   3.094  0.4246 -0.4723 -0.7036
 2074poe    c2311926   0.093   3.801   3.109 -0.1013  0.2540  0.0011
 2074poe     o211927   0.084   3.738   2.983 -0.2823  0.4120 -0.0650
 2074poe    c3111928  -0.025   3.648   2.984 -0.1338  0.2331 -0.0226
 2075poe    c3111929   2.278   3.285   2.186  0.2028  0.0818 -0.0579
 2075poe     o211930   2.315   3.336   2.059  0.3053 -0.1197 -0.1092
 2075poe    c2311931   2.203   3.347   1.975 -0.1582  0.1865  0.5349
 2075poe    c2311932   2.222   3.420   1.841 -0.5037 -0.1235  0.3139
 2075poe     o211933   2.293   3.350   1.741  0.3093  0.1571  0.6895
 2075poe    c2311934   2.292   3.423   1.620  0.1220 -0.0138  0.5870
 2075poe    c2311935   2.394   3.367   1.520 -0.0545 -0.0825  0.4452
 2075poe     o211936   2.507   3.307   1.579 -0.1003  0.0125  0.6321
 2075poe    c2311937   2.607   3.273   1.484 -0.1350  0.4083  0.4538
 2075poe    c2311938   2.727   3.248   1.577  0.0202 -0.4227  0.0411
 2075poe     o211939   2.690   3.160   1.681 -0.2547  0.0687  0.3691
 2075poe    c3111940   2.769   3.043   1.681  0.0819  0.2954  0.1571
 2076poe    c3111941   4.173   5.381   2.832  0.3515  0.3985 -0.0765
 2076poe     o211942   4.225   5.294   2.733 -0.2247  0.0792 -0.0992
 2076poe    c2311943   4.155   5.318   2.613 -0.3684  0.4179  0.0474
 2076poe    c2311944   4.170   5.184   2.538  0.1563  0.5257 -0.0449
 2076poe     o211945   4.303   5.138   2.552  0.0372  0.2542  0.2083
 2076poe    c2311946   4.335   5.028   2.471  0.1959  0.3597  0.1276
 2076poe    c2311947   4.485   4.994   2.465  0.1959  0.3970 -0.0915
 2076poe     o211948   4.532   4.970   2.596  0.1776  0.1694 -0.1253
 2076poe    c2311949   4.673   4.965   2.592  0.1677 -0.0761 -0.1806
 2076poe    c2311950   4.734   5.029   2.718  0.9035 -0.1416 -0.4959
 2076poe     o211951   4.706   5.163   2.751  0.1567 -0.3404 -0.2971
 2076poe    c3111952   4.807   5.215   2.834 -0.2057  0.3617 -0.2915
 2077poe    c3111953   4.109   3.978   2.296 -0.2669  0.4132 -0.4789
 2077poe     o211954   4.166   4.102   2.263  0.0231  0.4585  0.1826
 2077poe    c2311955   4.090   4.156   2.158  0.2283 -0.2011 -0.3120
 2077poe    c2311956   4.152   4.284   2.099  0.1333  0.0597  0.1527
 2077poe     o211957   4.268   4.242   2.032 -0.0614 -0.3669  0.0830
 2077poe    c2311958   4.320   4.348   1.956 -0.0633 -0.3882  0.0521
 2077poe    c2311959   4.450   4.293   1.893  0.1430 -0.0575  0.1845
 2077poe     o211960   4.540   4.244   1.990  0.6139  0.2162 -0.1150
 2077poe    c2311961   4.605   4.346   2.063 -0.1950  0.4036  0.3576
 2077poe    c2311962   4.721   4.294   2.150  0.2920 -0.1239 -0.5903
 2077poe     o211963   4.686   4.180   2.225 -0.2577  0.3856 -0.0571
 2077poe    c3111964   4.807   4.134   2.281 -0.4192  0.0770  0.0409
 2078poe    c3111965   6.218   1.005   5.707  0.4536 -0.0459  0.1392
 2078poe     o211966   6.223   0.968   5.571 -0.4962 -0.1429  0.1198
 2078poe    c2311967   6.128   1.045   5.501 -0.2911 -0.1959 -0.2189
 2078poe    c2311968   6.141   1.033   5.348  0.4479 -0.2525 -0.1578
 2078poe     o211969   6.131   0.899   5.305  0.6651 -0.3982  0.2478
 2078poe    c2311970   6.002   0.844   5.292  0.1339  0.9925 -0.5086
 2078poe    c2311971   6.004   0.724   5.196  0.5554  0.4991  0.1045
 2078poe     o211972   6.072   0.614   5.250 -0.2270  0.2482  0.5968
 2078poe    c2311973   6.065   0.505   5.161 -0.1561  0.4671  0.3212
 2078poe    c2311974   5.988   0.387   5.224  0.2037  0.2022  0.2664
 2078poe     o211975   6.047   0.323   5.335  0.3699 -0.2261 -0.0642
 2078poe    c3111976   5.980   0.202   5.362  0.1053 -0.1323 -0.3020
 2079poe    c3111977   6.273   1.790   5.054 -0.0790 -0.4656 -0.3104
 2079poe     o211978   6.168   1.883   5.042  0.1868 -0.1566 -0.2942
 2079poe    c2311979   6.070   1.838   5.133  0.1654 -0.4565 -0.4641
 2079poe    c2311980   5.943   1.924   5.120  0.1633 -0.3865  0.0229
 2079poe     o211981   5.960   2.062   5.140 -0.1176 -0.3007 -0.3130
 2079poe    c2311982   5.839   2.134   5.135  0.0052 -0.0205  0.5427
 2079poe    c2311983   5.859   2.276   5.190 -0.3128  0.2084  0.0726
 2079poe     o211984   5.962   2.352   5.130 -0.3386  0.1316 -0.0678
 2079poe    c2311985   5.983   2.465   5.211  0.2565 -0.0328  0.0088
 2079poe    c2311986   6.117   2.533   5.177  0.1926  0.0001 -0.1739
 2079poe     o211987   6.222   2.438   5.168  0.1914 -0.1112  0.8724
 2079poe    c3111988   6.348   2.499   5.185  0.1653  0.1923  0.0510
 2080poe    c3111989   4.463   1.954   5.176 -0.6050  0.1438  0.4005
 2080poe     o211990   4.572   1.941   5.087 -0.7164  0.1970  0.2565
 2080poe    c2311991   4.539   1.890   4.960  0.1184  0.3366 -0.0229
 2080poe    c2311992   4.624   1.958   4.850 -0.0115  0.1090 -0.2668
 2080poe     o211993   4.602   2.097   4.853  0.0434  0.1068  0.5265
 2080poe    c2311994   4.478   2.141   4.802  0.2492 -0.2533 -0.2950
 2080poe    c2311995   4.484   2.295   4.789 -0.1826 -0.2046  0.0482
 2080poe     o211996   4.577   2.334   4.690 -0.0003 -0.1240  0.2502
 2080poe    c2311997   4.566   2.473   4.667  0.5641 -0.2047 -0.5408
 2080poe    c2311998   4.656   2.510   4.548 -0.0873  0.4147 -0.8488
 2080poe     o211999   4.778   2.447   4.582 -0.3263  0.2132 -0.3595
 2080poe    c3112000   4.892   2.511   4.530 -0.0370  0.4210  0.5099
 2081poe    c3112001   3.742   5.726   0.897 -0.4609 -0.5016 -0.2622
 2081poe     o212002   3.830   5.676   0.996  0.0887  0.4205 -0.2720
 2081poe    c2312003   3.857   5.761   1.106  0.2739  0.5254 -0.3976
 2081poe    c2312004   3.942   5.695   1.216 -0.3532 -0.2762 -0.3792
 2081poe     o212005   4.071   5.651   1.180 -0.2203  0.0180 -0.2677
 2081poe    c2312006   4.157   5.759   1.149  0.1316 -0.2638 -0.2743
 2081poe    c2312007   4.287   5.733   1.070  0.0536 -0.1378 -0.4426
 2081poe     o212008   4.255   5.687   0.941 -0.1869 -0.1883 -0.3664
 2081poe    c2312009   4.374   5.683   0.866  0.3260 -0.0091  0.4308
 2081poe    c2312010   4.359   5.611   0.731 -0.5447  0.2025  0.4098
 2081poe     o212011   4.337   5.472   0.742  0.3271  0.0782  0.6470
 2081poe    c3112012   4.448   5.392   0.777  0.1562 -0.4084  0.0850
 2082poe    c3112013   0.596   0.549   5.799 -0.3922  0.2129  0.1710
 2082poe     o212014   0.633   0.576   5.932  0.0616  0.1621  0.0549
 2082poe    c2312015   0.584   0.702   5.974 -0.1134  0.1611 -0.1457
 2082poe    c2312016   0.677   0.762   6.081 -0.4347 -0.0433  0.2526
 2082poe     o212017   0.684   0.686   6.200  0.0380 -0.0066  0.2521
 2082poe    c2312018   0.801   0.707   6.276  0.3910 -0.3538 -0.1870
 2082poe    c2312019   0.805   0.631   6.410  0.1496 -0.2042 -0.0936
 2082poe     o212020   0.739   0.508   6.387  0.3758 -0.3412 -0.0066
 2082poe    c2312021   0.715   0.420   6.495 -0.3233  0.0112  0.1275
 2082poe    c2312022   0.630   0.302   6.445 -0.0916  0.0459 -0.3554
 2082poe     o212023   0.526   0.362   6.370 -0.7254  0.0375  0.5055
 2082poe    c3112024   0.432   0.273   6.317 -0.2238  0.1181 -0.5347
 2083poe    c3112025   4.824   1.509   5.335 -0.0914  0.2600  0.9988
 2083poe     o212026   4.941   1.586   5.350  0.0481  0.0998  0.7522
 2083poe    c2312027   5.032   1.516   5.431  0.5780 -0.0103  0.0673
 2083poe    c2312028   5.149   1.602   5.481  0.4110  0.2430  0.0229
 2083poe     o212029   5.105   1.706   5.565 -0.2924 -0.3544  0.3963
 2083poe    c2312030   5.217   1.761   5.631 -0.1176 -0.2279 -0.0055
 2083poe    c2312031   5.174   1.877   5.722  0.3689 -0.0168 -0.0412
 2083poe     o212032   5.148   2.000   5.660 -0.4327 -0.1426  0.0280
 2083poe    c2312033   5.139   2.095   5.764  0.1967 -0.1681  0.1123
 2083poe    c2312034   5.095   2.236   5.722 -0.1438 -0.3167 -0.0394
 2083poe     o212035   4.957   2.248   5.699 -0.1738 -0.2667  0.1628
 2083poe    c3112036   4.924   2.384   5.683 -0.5530 -0.3445  0.2684
 2084poe    c3112037   4.085   2.190   2.604  0.3122 -0.3546 -0.8078
 2084poe     o212038   4.225   2.202   2.616  0.2448 -0.4627  0.2420
 2084poe    c2312039   4.272   2.333   2.590  0.1176 -0.4294  0.1763
 2084poe    c2312040   4.424   2.341   2.565  0.0755 -0.2526 -0.0289
 2084poe     o212041   4.501   2.289   2.671  0.2112  0.4257  0.2095
 2084poe    c2312042   4.629   2.347   2.663  0.1061  0.6073 -0.1661
 2084poe    c2312043   4.703   2.334   2.797 -0.8444  0.2041  0.3277
 2084poe     o212044   4.683   2.198   2.827  0.1535 -0.0079  0.0875
 2084poe    c2312045   4.751   2.150   2.941 -0.0076 -0.2242  0.0943
 2084poe    c2312046   4.670   2.030   2.993  0.0083 -0.3795 -0.2318
 2084poe     o212047   4.588   1.980   2.891 -0.5939  0.3503 -0.1204
 2084poe    c3112048   4.517   1.877   2.956 -0.3614  0.1393 -0.1974
 2085poe    c3112049   0.193   3.004   3.322 -0.1253  0.0430  0.0427
 2085poe     o212050   0.244   3.057   3.443  0.2895 -0.4734  0.0961
 2085poe    c2312051   0.325   2.969   3.517  0.3820 -0.4254  0.0515
 2085poe    c2312052   0.378   3.048   3.639 -0.2056 -0.2395  0.1887
 2085poe     o212053   0.282   3.121   3.712  0.0461  0.2471  0.0383
 2085poe    c2312054   0.335   3.147   3.840  0.0078 -0.0305  0.1110
 2085poe    c2312055   0.253   3.260   3.904  0.4353 -0.1803  0.9374
 2085poe     o212056   0.115   3.236   3.887  0.5000 -0.1751  0.3789
 2085poe    c2312057   0.038   3.346   3.929 -0.4045 -0.7765  0.3200
 2085poe    c2312058  -0.104   3.326   3.872 -0.2309 -0.5130 -0.2109
 2085poe     o212059  -0.086   3.278   3.741 -0.1767  0.4426 -0.5597
 2085poe    c3112060  -0.198   3.277   3.655 -0.2185 -0.2307 -0.4947
 2086poe    c3112061   4.192   2.878   4.759 -0.4230  0.1072  0.1096
 2086poe     o212062   4.263   2.884   4.881 -0.3133 -0.3878  0.0717
 2086poe    c2312063   4.352   2.776   4.898 -0.0555 -0.1905 -0.0194
 2086poe    c2312064   4.434   2.802   5.026 -0.0174  0.4591 -0.1719
 2086poe     o212065   4.489   2.927   5.059 -0.1968  0.4158  0.2851
 2086poe    c2312066   4.564   2.925   5.179 -0.2178  0.2200  0.2950
 2086poe    c2312067   4.573   3.069   5.233  0.1857  0.4059 -0.2707
 2086poe     o212068   4.444   3.124   5.244 -0.0426 -0.0917 -0.4282
 2086poe    c2312069   4.436   3.239   5.325  0.2387 -0.5502  0.2553
 2086poe    c2312070   4.418   3.200   5.473  0.6103  0.0765  0.4714
 2086poe     o212071   4.287   3.153   5.497  0.1632  1.0537 -0.0371
 2086poe    c3112072   4.281   3.140   5.637 -0.1164 -0.1167 -0.1478
 2087poe    c3112073   6.306   0.562   2.157  0.3785 -0.4093 -0.0185
 2087poe     o212074   6.304   0.549   2.297  0.5188 -0.5214 -0.0273
 2087poe    c2312075   6.221   0.647   2.354  0.0957 -0.6515 -0.4105
 2087poe    c2312076   6.179   0.607   2.497 -0.1499 -0.1337 -0.3351
 2087poe     o212077   6.290   0.599   2.584  0.0330  0.5516 -0.5007
 2087poe    c2312078   6.257   0.528   2.701  0.5494  0.7693 -0.2197
 2087poe    c2312079   6.360   0.430   2.760  0.0136  0.2006 -0.2246
 2087poe     o212080   6.376   0.321   2.672  0.0535  0.4944 -0.5844
 2087poe    c2312081   6.428   0.209   2.741  0.4360  0.7128 -0.5145
 2087poe    c2312082   6.417   0.082   2.655  0.0016  0.1293  0.3878
 2087poe     o212083   6.286   0.050   2.613  0.1609 -0.3566  0.2535
 2087poe    c3112084   6.285  -0.084   2.571  0.0288 -0.3144  0.1215
 2088poe    c3112085   6.321   0.923   0.164  0.0163  0.3475  1.0075
 2088poe     o212086   6.390   0.818   0.101 -0.5751  0.4628  0.1457
 2088poe    c2312087   6.493   0.843   0.008  0.0908 -0.4191  0.6226
 2088poe    c2312088   6.535   0.735  -0.093 -0.2049 -0.0786  0.1302
 2088poe     o212089   6.613   0.632  -0.036 -0.5809  0.0270  0.8383
 2088poe    c2312090   6.622   0.524  -0.126  0.6042  0.4670  0.4034
 2088poe    c2312091   6.708   0.420  -0.052 -0.3455 -0.8910 -0.3478
 2088poe     o212092   6.635   0.388   0.064 -0.1720  0.5849  0.1864
 2088poe    c2312093   6.686   0.272   0.127  0.1014  0.5943 -0.0154
 2088poe    c2312094   6.589   0.259   0.246 -0.0753 -0.1339 -0.2351
 2088poe     o212095   6.579   0.384   0.310  0.4636 -0.4739  0.5379
 2088poe    c3112096   6.502   0.382   0.428  0.2137  0.4162  0.4003
 2089poe    c3112097   2.655   6.163   0.117 -0.6312 -0.6052 -0.0755
 2089poe     o212098   2.711   6.080   0.018 -0.3543  0.0615 -0.4831
 2089poe    c2312099   2.660   6.110  -0.110 -0.0486  0.4227 -0.5207
 2089poe    c2312100   2.724   6.002  -0.199  0.5272  0.4125 -0.1022
 2089poe     o212101   2.864   6.004  -0.183  0.5550  0.1951 -0.3037
 2089poe    c2312102   2.938   5.890  -0.221 -0.1699 -0.5572  0.4886
 2089poe    c2312103   3.079   5.936  -0.181 -0.2276 -0.3129  0.4138
 2089poe     o212104   3.087   5.971  -0.045 -0.0187 -0.3980  0.4240
 2089poe    c2312105   3.218   6.017  -0.019  0.0420 -0.0718 -0.4210
 2089poe    c2312106   3.243   6.046   0.131 -0.5000 -0.4028 -0.2599
 2089poe     o212107   3.191   6.175   0.154  0.2070 -0.2287  0.4266
 2089poe    c3112108   3.248   6.233   0.269 -0.0096  0.4104  0.2158
 2090poe    c3112109   5.435   6.154   2.635 -0.3375  0.3580  0.2397
 2090poe     o212110   5.506   6.085   2.735 -0.7007  0.0638  0.2994
 2090poe    c2312111   5.449   5.959   2.764  0.1150 -0.3353  0.2065
 2090poe    c2312112   5.527   5.889   2.877  0.2640 -0.2409  0.1636
 2090poe     o212113   5.554   5.960   2.996  0.3183 -0.2435  0.1528
 2090poe    c2312114   5.626   5.890   3.095  0.1828 -0.1864  0.2927
 2090poe    c2312115   5.770   5.944   3.105  0.2360 -0.3086  0.1795
 2090poe     o212116   5.788   6.071   3.164  0.3669 -0.2329 -0.0216
 2090poe    c2312117   5.927   6.078   3.190  0.2897 -0.4343  0.4518
 2090poe    c2312118   5.978   6.191   3.281 -0.1720  0.0750  0.0859
 2090poe     o212119   5.975   6.326   3.241 -0.2503  0.0258 -0.0775
 2090poe    c3112120   6.009   6.413   3.346  0.1559 -0.6514  0.3622
 2091poe    c3112121   6.422   2.927   0.739  0.0965 -0.5319 -0.5363
 2091poe     o212122   6.439   2.891   0.874 -0.7992  0.1363 -0.2405
 2091poe    c2312123   6.568   2.837   0.887 -0.8575  0.0714  0.0743
 2091poe    c2312124   6.619   2.822   1.032  0.1204  0.2615 -0.2376
 2091poe     o212125   6.541   2.732   1.108  0.6421 -0.3358 -0.4018
 2091poe    c2312126   6.584   2.726   1.243  0.4697 -0.4733 -0.3531
 2091poe    c2312127   6.488   2.632   1.317  0.0138  0.0144 -0.3231
 2091poe     o212128   6.354   2.665   1.289  0.0204  0.2418 -0.0912
 2091poe    c2312129   6.260   2.589   1.362 -0.2556 -0.1061 -0.8025
 2091poe    c2312130   6.115   2.625   1.324 -0.4559  0.1657  0.1988
 2091poe     o212131   6.112   2.625   1.183 -0.3640 -0.4296  0.1928
 2091poe    c3112132   5.978   2.616   1.141 -0.4415  0.2026  0.2992
 2092poe    c3112133   2.737   4.300   6.677 -0.4440 -0.0733 -0.4048
 2092poe     o212134   2.848   4.387   6.685 -0.1809 -0.3954 -0.5058
 2092poe    c2312135   2.872   4.461   6.567 -0.0383  0.2591 -0.0703
 2092poe    c2312136   2.998   4.549   6.584 -0.0652  0.1923  0.4981
 2092poe     o212137   2.990   4.611   6.710 -0.1005  0.8153  0.1908
 2092poe    c2312138   3.110   4.638   6.779  0.1163  0.2305  0.0451
 2092poe    c2312139   3.061   4.709   6.907 -0.0844  0.2689 -0.0528
 2092poe     o212140   2.963   4.629   6.968  0.0325  0.1557 -0.0122
 2092poe    c2312141   2.955   4.671   7.102  0.6999 -0.4364  0.2178
 2092poe    c2312142   2.876   4.570   7.188 -0.1509  0.1250  0.1052
 2092poe     o212143   2.736   4.583   7.184 -0.1888 -0.1814  0.4086
 2092poe    c3112144   2.674   4.486   7.265  0.0433 -0.4482  0.2685
 2093poe    c3112145   1.784   4.221   3.445  0.2094 -0.2648 -0.1840
 2093poe     o212146   1.917   4.184   3.473  0.2297 -0.0055  0.0710
 2093poe    c2312147   2.007   4.290   3.448  0.0772  0.0005 -0.4696
 2093poe    c2312148   2.137   4.248   3.519 -0.1305  0.1062 -0.0186
 2093poe     o212149   2.155   4.109   3.515  0.4891  0.1778  0.1344
 2093poe    c2312150   2.265   4.074   3.596  0.5868  0.6666  0.2134
 2093poe    c2312151   2.275   3.923   3.567 -0.4363  0.5685  0.3164
 2093poe     o212152   2.158   3.855   3.608  0.2192 -0.3497  0.7011
 2093poe    c2312153   2.155   3.721   3.566  0.1386 -0.2617  0.4243
 2093poe    c2312154   2.095   3.635   3.678 -0.1578  0.0472  0.5032
 2093poe     o212155   1.959   3.663   3.657  0.0656  0.4338 -0.4663
 2093poe    c3112156   1.880   3.611   3.762 -0.2922  0.1712 -0.8606
 2094poe    c3112157   3.121   6.658   0.322 -0.1641  0.1731  0.1779
 2094poe     o212158   3.014   6.592   0.385 -0.0704  0.4540  0.6387
 2094poe    c2312159   2.894   6.663   0.364 -0.4318 -0.1958  0.4643
 2094poe    c2312160   2.807   6.593   0.258 -0.0225  0.3662 -0.2534
 2094poe     o212161   2.853   6.630   0.130  0.2421  0.4826 -0.1254
 2094poe    c2312162   2.776   6.553   0.041  0.2833  0.2839  0.0098
 2094poe    c2312163   2.837   6.547  -0.100  0.2177 -0.0104 -0.0060
 2094poe     o212164   2.947   6.460  -0.116  0.1787 -0.1120  0.2705
 2094poe    c2312165   2.998   6.472  -0.247  0.3965 -0.3342  0.3345
 2094poe    c2312166   3.147   6.436  -0.246  0.4364 -0.1824 -0.0857
 2094poe     o212167   3.243   6.514  -0.178  0.0825  0.2420 -0.0734
 2094poe    c3112168   3.231   6.523  -0.038  0.7620  0.1524 -0.0095
 2095poe    c3112169   6.021   1.958   1.398  0.2703  0.4029 -1.0551
 2095poe     o212170   6.100   1.856   1.341  0.4156 -0.4450  0.6269
 2095poe    c2312171   6.233   1.868   1.387  0.6707  0.2294 -0.2778
 2095poe    c2312172   6.320   1.752   1.334 -0.0562 -0.1036 -0.7509
 2095poe     o212173   6.284   1.620   1.369  0.2289  0.2058  0.8141
 2095poe    c2312174   6.359   1.536   1.284 -0.4811  0.2144  0.1577
 2095poe    c2312175   6.306   1.397   1.324 -0.2198  0.2615  0.6787
 2095poe     o212176   6.168   1.387   1.301 -0.1457  0.3129  0.2020
 2095poe    c2312177   6.147   1.261   1.242  0.1275 -0.0870  0.9432
 2095poe    c2312178   5.995   1.237   1.251  0.0087  0.0730 -0.3305
 2095poe     o212179   5.966   1.220   1.388  0.1456 -0.3933 -0.3582
 2095poe    c3112180   5.835   1.181   1.421  0.0989  0.1692  0.1337
 2096poe    c3112181   1.521   1.814   2.275  0.0150 -0.4291  0.6956
 2096poe     o212182   1.569   1.704   2.201 -0.1032 -0.2323  0.3192
 2096poe    c2312183   1.646   1.742   2.089  0.0446 -0.6487  0.2778
 2096poe    c2312184   1.703   1.609   2.037 -0.0856 -0.3234 -0.7113
 2096poe     o212185   1.658   1.502   2.117  0.7387  0.2386  0.5330
 2096poe    c2312186   1.688   1.378   2.058 -0.2343  0.0259  0.4666
 2096poe    c2312187   1.625   1.277   2.156 -0.5335 -0.1834  0.0668
 2096poe     o212188   1.487   1.289   2.135 -0.4738  0.3184 -0.0531
 2096poe    c2312189   1.410   1.194   2.205  0.1446  0.2174  0.4967
 2096poe    c2312190   1.257   1.215   2.199  0.2203  0.6682  0.0813
 2096poe     o212191   1.221   1.330   2.272  0.2500  0.4139  0.4997
 2096poe    c3112192   1.080   1.329   2.260  0.3424  0.6018 -0.7529
 2097poe    c3112193   3.902   4.068   1.375 -0.4526  0.1837 -0.4517
 2097poe     o212194   3.935   3.974   1.276 -0.2670 -0.0739 -0.1485
 2097poe    c2312195   4.014   3.868   1.324 -0.0571  0.2477  0.2167
 2097poe    c2312196   4.057   3.772   1.212 -0.1492  0.1641  0.2518
 2097poe     o212197   3.950   3.682   1.195 -0.0346  0.0972 -0.1357
 2097poe    c2312198   3.965   3.604   1.079  0.8684 -0.0969  0.0987
 2097poe    c2312199   3.854   3.508   1.032  0.4871  0.5447 -0.3151
 2097poe     o212200   3.736   3.576   0.994  0.0041 -0.2851 -0.3056
 2097poe    c2312201   3.663   3.508   0.894 -0.2830 -0.2198 -0.1416
 2097poe    c2312202   3.717   3.526   0.751 -0.2395 -0.3856 -0.1469
 2097poe     o212203   3.708   3.660   0.707 -0.1349 -0.4722 -0.4359
 2097poe    c3112204   3.771   3.676   0.582 -0.0701 -0.3393 -0.3869
 2098poe    c3112205   4.342   0.374   6.006  0.2380  0.0159  0.1524
 2098poe     o212206   4.362   0.468   5.902 -0.0060 -0.5049 -0.3736
 2098poe    c2312207   4.352   0.429   5.767 -0.7905  0.3808 -0.5729
 2098poe    c2312208   4.436   0.532   5.689 -0.2508 -0.1499 -0.6931
 2098poe     o212209   4.364   0.653   5.682  0.0498  0.0776  0.1023
 2098poe    c2312210   4.433   0.759   5.620 -0.2859  0.1700 -0.1177
 2098poe    c2312211   4.348   0.886   5.634  0.3162  0.5753 -0.1059
 2098poe     o212212   4.334   0.915   5.772 -0.0166  0.2228 -0.0672
 2098poe    c2312213   4.328   1.053   5.800  0.6016  0.1439  0.4495
 2098poe    c2312214   4.327   1.058   5.954  0.2981  0.2261  0.4452
 2098poe     o212215   4.249   0.951   6.001 -0.2899  0.4656  0.0264
 2098poe    c3112216   4.220   0.955   6.139  0.2369 -0.5405  0.1776
 2099poe    c3112217   1.432   5.696   2.019 -0.0173 -0.5875 -0.5316
 2099poe     o212218   1.423   5.608   2.129  0.4137  0.0486  0.0249
 2099poe    c2312219   1.421   5.669   2.256 -0.1099  0.3182 -0.1069
 2099poe    c2312220   1.415   5.571   2.375  0.2749  0.3735 -0.0382
 2099poe     o212221   1.294   5.502   2.399  0.5270 -0.2813 -0.6037
 2099poe    c2312222   1.321   5.405   2.497 -0.2819 -0.0041 -0.0911
 2099poe    c2312223   1.190   5.327   2.516 -0.3363  0.0384 -0.2954
 2099poe     o212224   1.155   5.291   2.384  0.0302 -0.4030 -0.2761
 2099poe    c2312225   1.048   5.199   2.399 -0.3681  0.1364  0.2355
 2099poe    c2312226   0.999   5.165   2.257 -0.6406  0.5898  0.2192
 2099poe     o212227   0.922   5.269   2.200 -0.2496  0.5062 -0.4741
 2099poe    c3112228   0.872   5.237   2.072 -0.2053 -0.0453 -0.3572
 2100poe    c3112229   6.423   4.248   4.131 -0.3575  0.1457  0.5140
 2100poe     o212230   6.397   4.110   4.145  0.1617  0.0126  0.1642
 2100poe    c2312231   6.266   4.073   4.106  0.2458 -0.1477  0.0332
 2100poe    c2312232   6.254   3.919   4.109 -0.2612 -0.1058  0.2491
 2100poe     o212233   6.308   3.878   4.232  0.1499 -0.2019  0.0383
 2100poe    c2312234   6.357   3.747   4.248  0.5047 -0.0506  0.2030
 2100poe    c2312235   6.377   3.712   4.396 -0.1258  0.3069  0.3715
 2100poe     o212236   6.492   3.774   4.448  0.3971 -0.4454  0.1244
 2100poe    c2312237   6.497   3.757   4.588 -0.4771 -0.4404  0.1623
 2100poe    c2312238   6.616   3.836   4.648 -0.6465 -0.2367  0.2310
 2100poe     o212239   6.604   3.975   4.627  0.5128 -0.2002 -0.2234
 2100poe    c3112240   6.656   4.032   4.745 -0.0591  0.0259 -0.0789
 2101poe    c3112241   0.799   3.482   0.606 -0.2858  0.2241  0.2502
 2101poe     o212242   0.701   3.421   0.687 -0.0756 -0.1646  0.2105
 2101poe    c2312243   0.764   3.334   0.780 -0.0638  0.0664  0.4184
 2101poe    c2312244   0.664   3.250   0.861 -0.6042 -0.0362 -0.3431
 2101poe     o212245   0.572   3.336   0.926  0.2067  0.4523  0.1728
 2101poe    c2312246   0.610   3.360   1.059  0.2069 -0.8674  0.4284
 2101poe    c2312247   0.483   3.407   1.132  0.2735 -0.4603  0.2847
 2101poe     o212248   0.407   3.481   1.039  0.2862 -0.0333  0.6086
 2101poe    c2312249   0.278   3.499   1.093 -0.1860 -0.8255 -0.2209
 2101poe    c2312250   0.191   3.571   0.988  0.2795 -0.0564 -0.0890
 2101poe     o212251   0.200   3.516   0.858  0.0863  0.2181 -0.2205
 2101poe    c3112252   0.135   3.601   0.766 -0.1146  0.1628 -0.1314
 2102poe    c3112253   6.936   4.347   3.771  0.3851 -0.2316  0.2048
 2102poe     o212254   7.007   4.247   3.841  0.1497 -0.2428  0.4257
 2102poe    c2312255   6.913   4.147   3.874 -0.0484 -0.2227 -0.0653
 2102poe    c2312256   6.998   4.033   3.933  0.0609  0.3169  0.8357
 2102poe     o212257   7.100   4.084   4.016  0.9850 -0.0843 -0.0430
 2102poe    c2312258   7.199   3.987   4.039  0.7825 -0.5321 -1.0108
 2102poe    c2312259   7.293   4.048   4.145 -0.8558  0.4228 -0.0639
 2102poe     o212260   7.355   4.167   4.101  0.0220  0.1020  0.2797
 2102poe    c2312261   7.472   4.193   4.176  0.2168 -0.1607  0.0722
 2102poe    c2312262   7.523   4.338   4.163  0.2376 -0.1431  0.3453
 2102poe     o212263   7.416   4.428   4.173  0.3995  0.1114 -0.1490
 2102poe    c3112264   7.462   4.561   4.186  0.2020  0.0798  1.0531
 2103poe    c3112265   4.879   5.138   4.818 -0.0798  0.2827 -0.4112
 2103poe     o212266   4.968   5.043   4.873 -0.2298  0.1590 -0.3810
 2103poe    c2312267   5.020   4.973   4.762  0.2770  0.2759 -0.2230
 2103poe    c2312268   5.150   4.898   4.793  0.1737  0.1664 -0.0561
 2103poe     o212269   5.147   4.836   4.920 -0.7382  0.0725 -0.1200
 2103poe    c2312270   5.275   4.823   4.976 -0.5622  0.0673 -0.5259
 2103poe    c2312271   5.350   4.945   5.034 -0.6003 -0.0406 -0.2516
 2103poe     o212272   5.294   5.013   5.145 -0.4578 -0.1119 -0.1355
 2103poe    c2312273   5.330   5.149   5.138  0.1452 -0.2571  0.1228
 2103poe    c2312274   5.256   5.212   5.257  0.4525 -0.3267  0.3513
 2103poe     o212275   5.121   5.177   5.241  0.3000  0.6310 -0.5834
 2103poe    c3112276   5.042   5.258   5.325  0.6845 -0.0270  0.4336
 2104poe    c3112277   0.519   0.154   0.878  0.1523  0.1273  0.0560
 2104poe     o212278   0.553   0.076   0.989  0.2925 -0.0794 -0.1315
 2104poe    c2312279   0.626   0.150   1.084 -0.8000  0.2720  0.4564
 2104poe    c2312280   0.675   0.042   1.183 -0.1480  0.2559  0.1216
 2104poe     o212281   0.564  -0.030   1.231 -0.0141 -0.0506 -0.0259
 2104poe    c2312282   0.589  -0.144   1.311 -0.1528 -0.2066 -0.2052
 2104poe    c2312283   0.451  -0.184   1.365  0.0569 -0.0264  0.4754
 2104poe     o212284   0.405  -0.263   1.257  0.1460  0.7963 -0.1738
 2104poe    c2312285   0.283  -0.329   1.284  0.4921 -0.0528 -0.6596
 2104poe    c2312286   0.197  -0.332   1.156 -0.4229 -0.1497 -0.0455
 2104poe     o212287   0.221  -0.432   1.061 -0.1760  0.3375 -0.4990
 2104poe    c3112288   0.169  -0.407   0.932 -0.0824 -0.5040 -0.7097
 2105poe    c3112289   0.711   1.094   2.907  0.7180 -0.0036  0.4336
 2105poe     o212290   0.748   1.188   2.809 -0.5560  0.1798  0.1177
 2105poe    c2312291   0.674   1.167   2.691  0.1069 -0.4677 -0.1912
 2105poe    c2312292   0.664   1.309   2.633  0.1617 -0.5575 -0.4240
 2105poe     o212293   0.791   1.369   2.619  0.0719 -0.3677 -0.4347
 2105poe    c2312294   0.786   1.476   2.528 -0.0427  0.4063  0.4726
 2105poe    c2312295   0.922   1.548   2.539 -0.0252  0.3997  0.3025
 2105poe     o212296   0.965   1.575   2.671 -0.1632  0.1308  0.4032
 2105poe    c2312297   1.100   1.614   2.676 -0.2184  0.3751 -0.0153
 2105poe    c2312298   1.144   1.673   2.811  0.1589 -0.0627  0.0569
 2105poe     o212299   1.162   1.558   2.890 -0.2078 -0.3158 -0.2246
 2105poe    c3112300   1.258   1.586   2.989 -0.1466 -0.1395 -0.3343
 2106poe    c3112301   5.835   2.771   5.746  0.0593 -0.6675 -0.5741
 2106poe     o212302   5.784   2.894   5.793 -0.5504 -0.8552 -0.7251
 2106poe    c2312303   5.659   2.871   5.852 -0.0681 -0.1757  0.6093
 2106poe    c2312304   5.637   2.964   5.973 -0.1597  0.2857  0.2409
 2106poe     o212305   5.619   3.104   5.965 -0.1316  0.2656 -0.1640
 2106poe    c2312306   5.617   3.179   6.084 -0.3665 -0.4595  0.2954
 2106poe    c2312307   5.752   3.211   6.149 -0.4108 -0.1642  0.2415
 2106poe     o212308   5.815   3.322   6.088 -0.0469 -0.4065  0.1700
 2106poe    c2312309   5.950   3.351   6.116 -0.0029  0.5136 -0.9252
 2106poe    c2312310   6.054   3.247   6.071 -0.1466  0.0281 -0.1571
 2106poe     o212311   6.088   3.244   5.935  0.2802 -0.2448 -0.0472
 2106poe    c3112312   6.182   3.143   5.903  0.2356 -0.2123 -0.2870
 2107poe    c3112313   1.731   6.695   2.743  0.1374 -0.4047  0.4457
 2107poe     o212314   1.767   6.807   2.821  0.2931 -0.0370 -0.1483
 2107poe    c2312315   1.730   6.787   2.955 -0.4392  0.8952 -0.2026
 2107poe    c2312316   1.755   6.906   3.050  0.5286  0.2576  0.3611
 2107poe     o212317   1.656   7.005   3.031 -0.1758 -0.4361  0.3441
 2107poe    c2312318   1.672   7.111   3.123 -0.2213 -0.3330  0.2333
 2107poe    c2312319   1.617   7.242   3.064 -0.0145 -0.3906 -0.0924
 2107poe     o212320   1.504   7.214   2.985  0.1040 -0.4242 -0.2511
 2107poe    c2312321   1.419   7.324   2.960  0.6716 -0.0741 -0.6548
 2107poe    c2312322   1.327   7.258   2.856  0.3942  0.0174 -0.4669
 2107poe     o212323   1.389   7.162   2.773  0.8820  0.2571 -0.3822
 2107poe    c3112324   1.301   7.128   2.669  0.2993  0.4407  0.0437
 2108poe    c3112325   0.764   4.180   6.883 -0.2278  0.3787  0.1219
 2108poe     o212326   0.797   4.268   6.778 -0.5412 -0.0070 -0.3033
 2108poe    c2312327   0.769   4.397   6.825 -0.5220 -0.0817 -0.0844
 2108poe    c2312328   0.628   4.445   6.782 -0.4866  0.1542  0.0602
 2108poe     o212329   0.529   4.382   6.860  0.2479 -0.3814  0.5808
 2108poe    c2312330   0.396   4.421   6.831  0.2759 -0.2312  0.6487
 2108poe    c2312331   0.280   4.378   6.923 -0.6806  0.0941 -0.3888
 2108poe     o212332   0.279   4.445   7.047 -0.3458  0.2597 -0.4741
 2108poe    c2312333   0.206   4.565   7.055 -0.0430  0.3849  0.4870
 2108poe    c2312334   0.061   4.565   7.002  0.1382  0.1465 -0.0151
 2108poe     o212335  -0.041   4.507   7.081  0.1543  0.1503  0.0081
 2108poe    c3112336  -0.161   4.534   7.012  0.1678 -0.5926 -0.3171
 2109poe    c3112337   1.086   2.644   2.617  0.3940  0.6182 -0.1448
 2109poe     o212338   1.144   2.661   2.745 -0.0347 -0.0199  0.1364
 2109poe    c2312339   1.144   2.538   2.815 -0.9158 -0.3210 -0.3640
 2109poe    c2312340   1.208   2.550   2.955 -0.6363  0.2280 -0.5339
 2109poe     o212341   1.325   2.627   2.942 -0.4596  0.1025  0.2714
 2109poe    c2312342   1.407   2.618   3.057  0.0566  0.1789 -0.0862
 2109poe    c2312343   1.547   2.674   3.024  0.2245 -0.1871  0.0076
 2109poe     o212344   1.605   2.611   2.912  0.1394 -0.2280 -0.0139
 2109poe    c2312345   1.720   2.683   2.873 -0.0460  0.1258  0.0871
 2109poe    c2312346   1.774   2.651   2.732 -0.6827 -0.1993 -0.0864
 2109poe     o212347   1.703   2.695   2.619 -0.6264  0.6130  0.1908
 2109poe    c3112348   1.743   2.645   2.493 -0.2032  0.0090  0.5633
 2110poe    c3112349   5.317   3.984   6.512  0.0850  0.6559  0.1227
 2110poe     o212350   5.202   3.902   6.519  0.2411  0.4168 -0.0784
 2110poe    c2312351   5.082   3.965   6.481 -0.1385 -0.0390  0.3569
 2110poe    c2312352   4.964   3.896   6.552 -0.5546 -0.0740 -0.3541
 2110poe     o212353   4.955   3.757   6.535  0.0703 -0.1535 -0.0503
 2110poe    c2312354   4.887   3.719   6.418  0.2412  0.2047 -0.2651
 2110poe    c2312355   4.891   3.565   6.425 -0.1542  0.2074  0.0302
 2110poe     o212356   5.024   3.524   6.444 -0.2085  0.0898  0.1543
 2110poe    c2312357   5.053   3.387   6.425 -0.4021  0.0251  0.3298
 2110poe    c2312358   5.183   3.343   6.495 -0.2014  0.3273  0.1494
 2110poe     o212359   5.186   3.369   6.634  0.2791 -0.0797  0.2194
 2110poe    c3112360   5.299   3.309   6.692  0.2036 -0.5267 -0.0926
 2111poe    c3112361   2.380   2.903   2.342 -0.2217  0.2299 -0.2084
 2111poe     o212362   2.464   2.963   2.439 -0.0069  0.0617 -0.2881
 2111poe    c2312363   2.542   3.062   2.376  0.0515  0.2472  0.0776
 2111poe    c2312364   2.585   3.172   2.474  0.1421 -0.1200  0.4547
 2111poe     o212365   2.675   3.123   2.571  0.4488  0.0180  0.2406
 2111poe    c2312366   2.767   3.223   2.610  0.1544  0.2528  0.3369
 2111poe    c2312367   2.886   3.165   2.689  0.1569 -0.7962 -0.4090
 2111poe     o212368   2.813   3.092   2.784  0.0686  0.0359  0.1694
 2111poe    c2312369   2.904   3.037   2.876 -0.2065  0.0341  0.4424
 2111poe    c2312370   2.813   2.961   2.975  0.2829 -0.8323  0.2383
 2111poe     o212371   2.724   2.888   2.893 -0.0307  0.1743 -0.3398
 2111poe    c3112372   2.691   2.766   2.955  0.2730  0.5153  0.5128
 2112poe    c3112373   4.067   0.623   1.489  0.1318 -0.2444  0.0756
 2112poe     o212374   4.043   0.508   1.411  0.2104 -0.1569 -0.0788
 2112poe    c2312375   4.083   0.527   1.277  0.9742 -0.1463  0.1480
 2112poe    c2312376   4.024   0.404   1.204 -0.8050  0.6900  0.1265
 2112poe     o212377   3.884   0.409   1.219 -0.8397  0.0767  0.0187
 2112poe    c2312378   3.827   0.285   1.187  0.0406 -0.4064  0.2778
 2112poe    c2312379   3.673   0.290   1.186  0.0490 -0.1667  0.1553
 2112poe     o212380   3.646   0.345   1.313 -0.0760 -0.0230  0.0675
 2112poe    c2312381   3.509   0.377   1.316  0.0339  0.4967 -0.3600
 2112poe    c2312382   3.451   0.425   1.450  0.3774 -0.1700  0.0319
 2112poe     o212383   3.523   0.538   1.495 -0.4889  0.2663  0.3431
 2112poe    c3112384   3.454   0.586   1.609 -0.3186  0.3633  0.4052
 2113poe    c3112385   0.326   5.511   2.142 -0.0022 -0.5453  0.0000
 2113poe     o212386   0.367   5.525   2.277 -0.3327  0.0788  0.0400
 2113poe    c2312387   0.418   5.403   2.325 -0.3708  0.0433 -0.0073
 2113poe    c2312388   0.401   5.391   2.478 -0.0427 -0.1918  0.0115
 2113poe     o212389   0.492   5.481   2.538  0.6270 -0.8137 -0.0559
 2113poe    c2312390   0.456   5.498   2.673  0.0566 -0.1265 -0.2894
 2113poe    c2312391   0.545   5.589   2.760 -0.6661 -0.1452  0.4881
 2113poe     o212392   0.528   5.724   2.721 -0.2636 -0.1499  0.2903
 2113poe    c2312393   0.614   5.806   2.797 -0.4824 -0.0048  0.3814
 2113poe    c2312394   0.592   5.956   2.770 -0.1178 -0.1257 -0.6438
 2113poe     o212395   0.471   6.004   2.825 -0.0092 -0.1682 -0.3627
 2113poe    c3112396   0.479   6.145   2.821 -0.5734 -0.1028  0.5866
 2114poe    c3112397   0.493   5.544   4.490 -0.0302 -0.1229  0.4503
 2114poe     o212398   0.621   5.573   4.439 -0.1321 -1.0488 -0.3651
 2114poe    c2312399   0.644   5.550   4.302  0.7575 -0.7655 -0.2656
 2114poe    c2312400   0.776   5.625   4.274  0.1656  0.3050 -0.2327
 2114poe     o212401   0.864   5.599   4.381 -0.1225 -0.2444 -0.1264
 2114poe    c2312402   0.981   5.677   4.373 -0.3305  0.0497 -0.3297
 2114poe    c2312403   1.071   5.652   4.495 -0.5729 -1.0165 -0.3610
 2114poe     o212404   0.996   5.684   4.610  0.5367 -0.3572  0.1990
 2114poe    c2312405   1.082   5.728   4.712  0.5605  0.2836 -0.0912
 2114poe    c2312406   1.020   5.843   4.794  0.2040 -0.0158  0.0601
 2114poe     o212407   0.887   5.818   4.833  0.1697  0.1962  0.0804
 2114poe    c3112408   0.846   5.936   4.899  0.7588  0.5835 -0.2458
 2115poe    c3112409   6.290   3.017   1.272  0.2002  0.2663 -0.6605
 2115poe     o212410   6.371   3.133   1.270  0.1300  0.3184 -0.4508
 2115poe    c2312411   6.487   3.113   1.347 -0.2614  0.4192  0.1770
 2115poe    c2312412   6.582   3.234   1.348  0.3928 -0.0817 -0.2650
 2115poe     o212413   6.582   3.283   1.216  0.3904  0.0239 -0.2263
 2115poe    c2312414   6.658   3.401   1.206  0.2511  0.1757  0.4441
 2115poe    c2312415   6.646   3.467   1.067  0.1172  0.2304  0.4815
 2115poe     o212416   6.515   3.476   1.016  0.2203  0.4783  0.2559
 2115poe    c2312417   6.513   3.523   0.883  0.0111  0.2529  0.1769
 2115poe    c2312418   6.373   3.488   0.831  0.1740  0.0421 -0.1231
 2115poe     o212419   6.342   3.353   0.803 -0.0489  0.0285  0.1863
 2115poe    c3112420   6.223   3.351   0.728  0.0107  0.0537  0.0909
 2116poe    c3112421   4.074   1.529   2.048 -0.0816 -0.2941  0.6652
 2116poe     o212422   4.146   1.618   2.131 -0.0433  0.2692  0.0309
 2116poe    c2312423   4.272   1.660   2.085  0.1725 -0.3174  0.0785
 2116poe    c2312424   4.337   1.768   2.174  1.0924 -0.1182 -0.8096
 2116poe     o212425   4.380   1.729   2.302 -0.4519  0.0308 -0.2235
 2116poe    c2312426   4.499   1.655   2.293 -0.3649  0.0865  0.3767
 2116poe    c2312427   4.562   1.609   2.425  0.2822 -0.2621 -0.0443
 2116poe     o212428   4.609   1.719   2.500 -0.4531 -0.0941  0.1763
 2116poe    c2312429   4.616   1.692   2.638  0.2129  0.3103  0.2254
 2116poe    c2312430   4.758   1.692   2.697  0.1727  0.1434  0.3240
 2116poe     o212431   4.814   1.820   2.680  0.0669  0.1010 -0.3910
 2116poe    c3112432   4.952   1.813   2.710 -0.0246 -0.4604 -0.1050
 2117poe    c3112433   1.079   4.304   0.050 -0.1142  0.0658 -0.3694
 2117poe     o212434   1.060   4.440   0.080  0.0361 -0.0115  0.0867
 2117poe    c2312435   1.134   4.528  -0.002 -0.3407  0.0198 -0.2231
 2117poe    c2312436   1.092   4.676   0.014 -0.1024  0.0968 -0.3018
 2117poe     o212437   1.074   4.715   0.148  0.5767 -0.2723 -0.0966
 2117poe    c2312438   1.089   4.854   0.162  0.3590 -0.2560 -0.0185
 2117poe    c2312439   1.046   4.880   0.308  0.4165  0.2486 -0.0878
 2117poe     o212440   1.156   4.873   0.396  0.1193 -0.2532  0.2498
 2117poe    c2312441   1.112   4.908   0.525 -0.2204  0.2142  0.0102
 2117poe    c2312442   1.221   4.971   0.614 -0.1061 -0.0408  0.0515
 2117poe     o212443   1.247   5.106   0.581 -0.2176  0.0980  0.5297
 2117poe    c3112444   1.323   5.174   0.678 -0.1856  0.2702  0.3842
 2118poe    c3112445   4.066   4.661   3.844  0.0547  0.0114  0.0519
 2118poe     o212446   4.113   4.778   3.782 -0.0555 -0.0732 -0.1934
 2118poe    c2312447   4.051   4.820   3.662 -0.0486  0.2586 -0.0830
 2118poe    c2312448   4.135   4.938   3.613 -0.2230  0.3546 -0.1492
 2118poe     o212449   4.163   5.037   3.710 -0.3732  0.1671  0.0839
 2118poe    c2312450   4.238   5.142   3.655 -0.4737  0.2554  0.1166
 2118poe    c2312451   4.355   5.176   3.750 -0.3540  0.3406 -0.0603
 2118poe     o212452   4.292   5.176   3.877  0.1312  0.5446  0.1806
 2118poe    c2312453   4.389   5.203   3.976  0.5036  0.0108 -0.0322
 2118poe    c2312454   4.312   5.249   4.101  0.3012 -0.2806 -0.0485
 2118poe     o212455   4.221   5.147   4.133 -0.5166  0.2547 -0.6131
 2118poe    c3112456   4.140   5.183   4.243 -0.0245  0.2436 -0.2389
 2119poe    c3112457   6.283   6.294   4.989  0.2122  0.6047 -0.4728
 2119poe     o212458   6.196   6.298   4.878  0.1751  0.1260 -0.4647
 2119poe    c2312459   6.168   6.167   4.836  0.5741  0.1379 -0.7732
 2119poe    c2312460   6.050   6.149   4.739 -0.1143  0.5925 -0.0297
 2119poe     o212461   6.057   6.233   4.627  0.2563  0.0035 -0.4579
 2119poe    c2312462   5.933   6.249   4.562  0.0059  0.5591  0.1399
 2119poe    c2312463   5.949   6.341   4.439 -1.2078  0.8516  0.1842
 2119poe     o212464   6.018   6.457   4.479  0.4647  0.0000 -0.1516
 2119poe    c2312465   6.055   6.537   4.369 -0.3370 -0.0137 -0.4387
 2119poe    c2312466   6.119   6.663   4.433 -0.8047 -0.1460  0.3026
 2119poe     o212467   6.227   6.608   4.504  0.3137  1.1034 -0.3839
 2119poe    c3112468   6.314   6.699   4.567  0.0430  0.4779  0.9473
 2120poe    c3112469   6.359   3.436   2.209  0.3623 -0.3701 -0.2047
 2120poe     o212470   6.452   3.334   2.240  0.4841 -0.2785 -0.2658
 2120poe    c2312471   6.587   3.372   2.229  0.3602  0.4231  0.5757
 2120poe    c2312472   6.689   3.265   2.187 -0.3014  0.0736 -0.1678
 2120poe     o212473   6.712   3.177   2.295  0.0992  0.4485  0.0539
 2120poe    c2312474   6.776   3.064   2.241  0.3152  0.4883  0.2240
 2120poe    c2312475   6.760   2.939   2.330  0.2684  0.1673 -0.2316
 2120poe     o212476   6.627   2.920   2.372  0.3814 -0.1005  0.0077
 2120poe    c2312477   6.631   2.877   2.506 -0.2671  0.1453  0.1092
 2120poe    c2312478   6.494   2.915   2.565 -0.2277 -0.3613  0.5389
 2120poe     o212479   6.388   2.877   2.481  0.0348  0.7924 -0.3393
 2120poe    c3112480   6.253   2.889   2.521  0.1057  0.0295  0.1490
 2121poe    c3112481   5.210   5.575   5.612 -0.3730  0.9552  0.2933
 2121poe     o212482   5.270   5.697   5.574  0.3877  0.4706 -0.0859
 2121poe    c2312483   5.208   5.818   5.610  0.2005  0.2684  0.2757
 2121poe    c2312484   5.230   5.907   5.487  0.0796  0.1693  0.1821
 2121poe     o212485   5.368   5.900   5.459 -0.1390 -0.2390 -0.8607
 2121poe    c2312486   5.412   5.961   5.340 -0.5857 -0.2297 -1.0217
 2121poe    c2312487   5.562   5.937   5.317 -0.1732  0.5755  0.6523
 2121poe     o212488   5.594   5.800   5.335 -0.3577  0.4098 -0.2068
 2121poe    c2312489   5.686   5.771   5.232 -0.1175 -0.2008  0.1729
 2121poe    c2312490   5.732   5.625   5.245 -0.2308 -0.2387  0.1551
 2121poe     o212491   5.642   5.518   5.226  0.0983 -0.4264 -0.3689
 2121poe    c3112492   5.620   5.478   5.093  0.0931  0.1829 -0.5549
 2122poe    c3112493   6.269   3.886   5.393  0.2689 -0.4837  0.5413
 2122poe     o212494   6.323   3.816   5.283  0.1014  0.4839 -0.1635
 2122poe    c2312495   6.321   3.677   5.305  0.3198  0.4524 -0.3392
 2122poe    c2312496   6.303   3.614   5.166  0.0058 -0.3191  0.0466
 2122poe     o212497   6.210   3.685   5.088 -0.1038  0.0929  0.5449
 2122poe    c2312498   6.183   3.603   4.976  0.3446  0.5952  0.0646
 2122poe    c2312499   6.077   3.684   4.898 -0.3371 -0.1062  0.2471
 2122poe     o212500   6.106   3.822   4.894  0.2567 -0.2405 -0.3503
 2122poe    c2312501   6.014   3.895   4.815 -0.2070  0.2910  0.6502
 2122poe    c2312502   6.067   4.035   4.779 -0.0167  0.0468 -0.0506
 2122poe     o212503   6.107   4.106   4.895 -0.1048  0.0796 -0.0406
 2122poe    c3112504   6.171   4.223   4.849  0.1647 -0.2082 -0.4089
 2123poe    c3112505   3.456   2.808   2.858 -0.6850  0.0825 -0.0882
 2123poe     o212506   3.476   2.941   2.817 -0.2040  0.0918  0.1671
 2123poe    c2312507   3.472   3.022   2.932 -0.0772 -0.1698  0.3536
 2123poe    c2312508   3.513   3.159   2.876 -0.0411 -0.3548 -0.0734
 2123poe     o212509   3.444   3.176   2.755  0.0240 -0.3514 -0.1102
 2123poe    c2312510   3.480   3.297   2.692  0.1120 -0.6419 -0.6290
 2123poe    c2312511   3.371   3.298   2.584 -0.2758  0.1688 -0.2408
 2123poe     o212512   3.367   3.191   2.493  0.6141  0.0491 -0.1501
 2123poe    c2312513   3.287   3.240   2.387  0.2133  0.0366  0.1441
 2123poe    c2312514   3.193   3.136   2.324 -0.2926  0.6468 -0.1155
 2123poe     o212515   3.127   3.062   2.424  0.5270 -0.0281 -0.0641
 2123poe    c3112516   3.027   2.983   2.364  0.3162 -0.2799  0.6076
 2124poe    c3112517   5.819   4.109   0.885  0.2654 -0.1702 -0.4738
 2124poe     o212518   5.758   4.034   0.782  0.2498 -0.5436 -0.1926
 2124poe    c2312519   5.806   3.904   0.808  0.5106 -0.2992  0.5871
 2124poe    c2312520   5.799   3.819   0.679 -0.1794  0.1198  0.3467
 2124poe     o212521   5.670   3.834   0.623 -0.0482  0.3142  0.0970
 2124poe    c2312522   5.658   3.770   0.497  0.2267  0.1385  0.1573
 2124poe    c2312523   5.511   3.793   0.457  0.4353 -0.1007 -0.7710
 2124poe     o212524   5.473   3.926   0.484 -0.1880 -0.3564 -0.3576
 2124poe    c2312525   5.351   3.956   0.418 -0.1749  0.0657 -0.1944
 2124poe    c2312526   5.290   4.088   0.468 -0.0013 -0.0083  0.2186
 2124poe     o212527   5.374   4.197   0.440 -0.2091  0.1926  0.3712
 2124poe    c3112528   5.298   4.315   0.455 -0.2162  0.2653 -0.2336
 2125poe    c3112529   4.663   3.799   1.983 -0.1721 -0.2654 -0.1271
 2125poe     o212530   4.551   3.817   1.901  0.1691 -0.1999 -0.5796
 2125poe    c2312531   4.539   3.943   1.838 -0.1012  0.1497  0.1622
 2125poe    c2312532   4.407   3.945   1.757  0.0037  0.2932 -0.0050
 2125poe     o212533   4.319   3.888   1.851  0.1401  0.6263  0.3307
 2125poe    c2312534   4.189   3.880   1.797  0.3108 -0.1366  0.0243
 2125poe    c2312535   4.098   3.814   1.903  0.2390 -0.2979 -0.1368
 2125poe     o212536   4.169   3.702   1.952  0.3070 -0.0491  0.3418
 2125poe    c2312537   4.087   3.631   2.042 -0.5958  0.0059 -0.4214
 2125poe    c2312538   4.092   3.479   2.015 -0.2326 -0.0627  0.0345
 2125poe     o212539   4.026   3.456   1.893 -0.0440 -0.2819 -0.0273
 2125poe    c3112540   4.108   3.456   1.779  0.5403 -0.0445  0.3866
 2126poe    c3112541   0.535   4.413   6.390  0.1379 -0.0149  0.5283
 2126poe     o212542   0.486   4.308   6.471 -0.3706  0.0861  0.3550
 2126poe    c2312543   0.381   4.232   6.414 -0.0232  0.0449 -0.2422
 2126poe    c2312544   0.320   4.130   6.512 -0.1592  0.6288  0.2898
 2126poe     o212545   0.393   4.013   6.541  0.0294  0.6646 -0.0324
 2126poe    c2312546   0.352   3.950   6.661  0.5459  0.0956 -0.1490
 2126poe    c2312547   0.437   3.826   6.695  0.6696  0.0701 -0.5378
 2126poe     o212548   0.571   3.865   6.717  0.6016 -0.1308  0.2921
 2126poe    c2312549   0.654   3.760   6.761  0.7254  0.1103  0.6369
 2126poe    c2312550   0.801   3.791   6.795  0.6831  0.4712  0.4904
 2126poe     o212551   0.871   3.792   6.672 -0.0907  0.0613  0.0365
 2126poe    c3112552   0.940   3.672   6.647  0.4067  0.3668 -0.0731
 2127poe    c3112553   5.521   0.942   3.111 -0.2325  0.4787  0.4727
 2127poe     o212554   5.588   0.875   3.215 -0.2122 -0.5110 -0.1695
 2127poe    c2312555   5.724   0.850   3.185 -0.1138 -0.1441 -0.0304
 2127poe    c2312556   5.788   0.759   3.291  0.5478 -0.0302 -0.3280
 2127poe     o212557   5.756   0.624   3.264 -0.2303  0.0751  0.0350
 2127poe    c2312558   5.828   0.542   3.353  0.8678  0.1971 -0.7166
 2127poe    c2312559   5.795   0.392   3.352 -0.1424  0.4042  0.0706
 2127poe     o212560   5.663   0.373   3.399 -0.2129 -0.1758 -0.3491
 2127poe    c2312561   5.632   0.236   3.412 -0.0085 -0.2342 -0.4689
 2127poe    c2312562   5.482   0.206   3.392 -0.0359 -0.3869 -0.0456
 2127poe     o212563   5.447   0.203   3.256  0.1832 -0.4907 -0.1006
 2127poe    c3112564   5.322   0.138   3.242 -0.0068 -0.0987 -0.2319
 2128poe    c3112565   2.192   3.552   6.631  0.1385 -0.4231  0.1777
 2128poe     o212566   2.269   3.617   6.533  0.0491  0.0633  0.4247
 2128poe    c2312567   2.292   3.754   6.553  0.2287  0.1173 -0.1271
 2128poe    c2312568   2.387   3.824   6.453 -0.2797  0.0264 -0.6793
 2128poe     o212569   2.511   3.755   6.448 -0.4037 -0.2513 -0.0924
 2128poe    c2312570   2.551   3.792   6.318 -0.5963  0.6398  0.0938
 2128poe    c2312571   2.701   3.773   6.292 -0.6594  0.1299  0.0980
 2128poe     o212572   2.742   3.638   6.302  0.4365  0.4808  0.5675
 2128poe    c2312573   2.874   3.646   6.253  0.1741 -0.3656 -0.3243
 2128poe    c2312574   2.965   3.522   6.248  0.1125 -0.4345  0.1997
 2128poe     o212575   2.927   3.442   6.139  0.4805  0.3019 -0.4815
 2128poe    c3112576   2.976   3.310   6.151  0.1080  0.2010 -0.0669
 2129poe    c3112577   4.350   3.964   3.769  0.0448 -0.3903  0.2593
 2129poe     o212578   4.249   3.885   3.710  0.2623 -0.1168 -0.5019
 2129poe    c2312579   4.181   3.814   3.811  0.4232  0.2769 -0.1110
 2129poe    c2312580   4.247   3.685   3.867  0.5298  0.4133  0.0807
 2129poe     o212581   4.219   3.573   3.786 -0.3668 -0.0866  1.0535
 2129poe    c2312582   4.290   3.457   3.826 -0.1367 -0.2305  0.2446
 2129poe    c2312583   4.298   3.350   3.715 -0.1929  0.2369 -0.2174
 2129poe     o212584   4.177   3.278   3.707  0.0039 -0.1347  0.0944
 2129poe    c2312585   4.193   3.184   3.603 -0.0359 -0.1118  0.0675
 2129poe    c2312586   4.069   3.095   3.580 -0.0071 -0.1525  0.0699
 2129poe     o212587   4.044   2.999   3.680 -0.2549 -0.1397  0.0216
 2129poe    c3112588   3.965   3.055   3.782 -0.2372  0.6553 -0.3991
 2130poe    c3112589   3.836   3.569   5.843 -0.6075 -0.3604  0.2506
 2130poe     o212590   3.923   3.511   5.937  0.2325 -0.0429 -0.3230
 2130poe    c2312591   3.887   3.565   6.062  0.4365  0.1048 -0.3281
 2130poe    c2312592   3.925   3.470   6.177 -0.0198  0.3311  0.0133
 2130poe     o212593   4.054   3.414   6.168 -0.1029  0.1740 -0.2188
 2130poe    c2312594   4.111   3.371   6.290 -0.6713 -0.4010 -0.1493
 2130poe    c2312595   4.228   3.272   6.275 -0.2665  0.1880 -0.9521
 2130poe     o212596   4.343   3.333   6.221  0.0128  0.3894 -0.1456
 2130poe    c2312597   4.450   3.245   6.243 -0.4731 -0.1873 -0.0563
 2130poe    c2312598   4.577   3.311   6.186 -0.7712  0.1944 -0.2846
 2130poe     o212599   4.657   3.237   6.097 -0.1947  0.4197  0.0388
 2130poe    c3112600   4.590   3.218   5.974  0.0344  0.7101 -0.1325
 2131poe    c3112601   0.274   3.838   2.729 -0.7047  0.6537 -0.6032
 2131poe     o212602   0.194   3.745   2.659 -0.2211 -0.2266 -0.0084
 2131poe    c2312603   0.129   3.825   2.563  1.2347  0.6609 -0.2898
 2131poe    c2312604   0.066   3.739   2.452  0.1055  0.7178  0.2903
 2131poe     o212605  -0.019   3.633   2.490  0.2621  0.3423 -0.3933
 2131poe    c2312606  -0.147   3.678   2.528  0.1525  0.1263 -0.5026
 2131poe    c2312607  -0.234   3.551   2.530  0.5880 -0.1660  0.4372
 2131poe     o212608  -0.159   3.444   2.583  0.2320 -0.4577  0.3587
 2131poe    c2312609  -0.217   3.325   2.535 -0.0314 -0.1427 -0.1035
 2131poe    c2312610  -0.115   3.217   2.574  0.3175  0.3551  0.3698
 2131poe     o212611   0.015   3.259   2.537  0.4268  0.0014  0.3510
 2131poe    c3112612   0.098   3.146   2.529  0.3798 -0.0234  0.2076
 2132poe    c3112613   3.973   6.266   5.962  0.9070 -0.1948  0.1201
 2132poe     o212614   4.022   6.265   5.830 -0.3372 -0.5964 -0.3535
 2132poe    c2312615   4.146   6.198   5.820  0.1161  0.1130  0.4268
 2132poe    c2312616   4.198   6.202   5.675 -0.0732 -0.0500  0.3537
 2132poe     o212617   4.196   6.335   5.628  0.1277 -0.0495  0.3468
 2132poe    c2312618   4.239   6.335   5.494  0.1242  0.2389  0.3461
 2132poe    c2312619   4.207   6.471   5.430 -0.4583 -0.0375  0.0419
 2132poe     o212620   4.067   6.489   5.416 -0.4330  0.2743  0.1798
 2132poe    c2312621   4.034   6.619   5.372  0.3823  0.3868 -0.1158
 2132poe    c2312622   3.891   6.621   5.317  0.0833  0.0488  0.6296
 2132poe     o212623   3.813   6.551   5.411  0.0558 -0.6212  0.1158
 2132poe    c3112624   3.683   6.605   5.412  0.2903 -0.0465 -0.2278
 2133poe    c3112625   6.725   0.768   0.680 -0.0822  0.0703  0.6842
 2133poe     o212626   6.590   0.749   0.641  0.0097 -0.0191  0.4084
 2133poe    c2312627   6.548   0.869   0.580  0.4792 -0.1320 -0.1426
 2133poe    c2312628   6.405   0.855   0.526  0.4504  0.2449 -0.1674
 2133poe     o212629   6.320   0.832   0.636  0.2953 -0.5471 -0.4412
 2133poe    c2312630   6.186   0.844   0.592  0.1908 -0.2514 -0.0466
 2133poe    c2312631   6.096   0.910   0.698  0.1067 -0.1265 -0.1961
 2133poe     o212632   6.038   0.818   0.788 -0.5134  0.1217 -0.3353
 2133poe    c2312633   5.992   0.891   0.899  0.0514 -0.4131  0.2626
 2133poe    c2312634   5.924   0.822   1.019 -0.0941 -0.0696  0.3809
 2133poe     o212635   5.998   0.732   1.098  0.2418  0.0764  0.2318
 2133poe    c3112636   6.007   0.778   1.231  0.0227 -0.0002  0.2737
 2134poe    c3112637   2.305   3.914   2.370  0.2672 -0.3669 -1.0285
 2134poe     o212638   2.197   3.830   2.337 -0.1063 -0.2307 -0.1843
 2134poe    c2312639   2.249   3.700   2.316 -0.1674 -0.3019  0.1009
 2134poe    c2312640   2.126   3.608   2.299 -0.1939 -0.2458 -0.0159
 2134poe     o212641   2.049   3.662   2.194 -0.0710 -0.1768 -0.0714
 2134poe    c2312642   1.947   3.570   2.162 -0.3810  0.0647  0.2084
 2134poe    c2312643   1.827   3.630   2.087 -0.3573  0.0842  0.1864
 2134poe     o212644   1.751   3.726   2.158 -0.4898 -0.1884  0.4176
 2134poe    c2312645   1.650   3.776   2.073 -0.4246 -0.2865  0.2817
 2134poe    c2312646   1.568   3.884   2.145  0.1856  0.1323  0.3558
 2134poe     o212647   1.647   3.997   2.178  0.4740  0.0142  0.0802
 2134poe    c3112648   1.565   4.111   2.168 -0.2195 -0.4776  0.0677
 2135poe    c3112649   5.991   2.025   4.752 -0.0486 -0.1323  0.1450
 2135poe     o212650   5.862   2.011   4.697  0.0658  0.2209 -0.2183
 2135poe    c2312651   5.804   1.894   4.752  0.1595  0.2724 -0.0083
 2135poe    c2312652   5.663   1.863   4.699  0.2434  0.4587 -0.3444
 2135poe     o212653   5.665   1.832   4.561 -0.4515  0.7983 -0.4349
 2135poe    c2312654   5.535   1.798   4.518 -0.5338  0.3389  0.1695
 2135poe    c2312655   5.542   1.777   4.366  0.3833  0.0497  0.2442
 2135poe     o212656   5.607   1.884   4.303  0.0871  0.3606  0.4640
 2135poe    c2312657   5.530   1.943   4.200  0.5919  0.0953 -0.0728
 2135poe    c2312658   5.617   2.044   4.123  0.2541  0.4112 -0.0376
 2135poe     o212659   5.688   2.116   4.222 -0.2084 -0.2677  0.8051
 2135poe    c3112660   5.774   2.217   4.173 -0.2415 -0.2977  0.6842
 2136poe    c3112661   5.070   3.775   2.933  0.2861 -0.0883  0.1288
 2136poe     o212662   5.046   3.662   3.014  0.1407 -0.2461 -0.1335
 2136poe    c2312663   4.980   3.707   3.130  0.6006  0.1204 -0.0132
 2136poe    c2312664   4.960   3.588   3.225  0.2116 -0.2546 -0.5632
 2136poe     o212665   5.083   3.563   3.289  0.1110 -0.4196 -0.4303
 2136poe    c2312666   5.068   3.481   3.402 -0.0100  0.3111  0.0932
 2136poe    c2312667   5.211   3.440   3.442  0.0023  0.0032 -0.2588
 2136poe     o212668   5.299   3.551   3.437 -0.0980  0.1413  0.8293
 2136poe    c2312669   5.428   3.500   3.461 -0.2536 -0.2049  0.9489
 2136poe    c2312670   5.518   3.626   3.459 -0.5793  0.0244 -0.1429
 2136poe     o212671   5.487   3.701   3.344 -0.0633  0.1467 -0.2058
 2136poe    c3112672   5.573   3.812   3.336  0.1522 -0.0338 -0.4286
 2137poe    c3112673   6.356   2.575   4.360  0.2541 -0.2754 -0.1561
 2137poe     o212674   6.462   2.486   4.335  0.1318 -0.3968 -0.2459
 2137poe    c2312675   6.546   2.532   4.230 -0.3261 -0.2950 -0.5724
 2137poe    c2312676   6.609   2.406   4.167  0.4526 -0.1493 -0.0951
 2137poe     o212677   6.622   2.319   4.277 -0.4033  0.2391  0.3284
 2137poe    c2312678   6.655   2.188   4.237 -0.2538  0.2943  0.2688
 2137poe    c2312679   6.779   2.143   4.316 -0.0042 -0.0528 -0.3149
 2137poe     o212680   6.758   2.156   4.455  0.4034 -0.3381 -0.2230
 2137poe    c2312681   6.879   2.144   4.526  0.2607  0.8827  0.2396
 2137poe    c2312682   6.862   2.175   4.676  0.1903 -0.0040  0.4193
 2137poe     o212683   6.803   2.301   4.698 -0.0485 -0.0805  0.2154
 2137poe    c3112684   6.825   2.329   4.835  0.2400 -0.1483  0.1846
 2138poe    c3112685   5.020   1.992   1.367  0.0086 -0.1683 -0.3053
 2138poe     o212686   4.984   1.858   1.394  0.4953 -0.1828  0.3146
 2138poe    c2312687   4.910   1.811   1.283 -0.3398  0.4752  0.5780
 2138poe    c2312688   4.837   1.680   1.320 -0.2563  0.3221  0.2022
 2138poe     o212689   4.747   1.694   1.428 -0.1685  0.3667  0.2703
 2138poe    c2312690   4.677   1.571   1.432  0.3436  0.0548 -0.1641
 2138poe    c2312691   4.585   1.560   1.555  0.3477  0.1992 -0.1484
 2138poe     o212692   4.659   1.532   1.672 -0.3697  0.0716  0.2799
 2138poe    c2312693   4.576   1.549   1.785 -0.0824  0.0037  0.5022
 2138poe    c2312694   4.652   1.579   1.915  0.4805  0.0885  0.1595
 2138poe     o212695   4.737   1.474   1.957  0.3529 -0.1419 -0.1510
 2138poe    c3112696   4.809   1.527   2.067  0.3430 -0.8530  0.2023
 2139poe    c3112697   6.752   5.361   3.529  0.0839 -0.1714  0.4974
 2139poe     o212698   6.892   5.351   3.540  0.1600  0.1538 -0.1310
 2139poe    c2312699   6.946   5.413   3.425  0.0861  0.4359 -0.0149
 2139poe    c2312700   7.090   5.467   3.435  0.4707 -0.5041 -0.2810
 2139poe     o212701   7.085   5.590   3.505 -0.0679 -0.4218 -0.4539
 2139poe    c2312702   7.209   5.657   3.494 -0.2889  0.1435  0.4065
 2139poe    c2312703   7.222   5.794   3.563 -0.3739  0.2976  0.1198
 2139poe     o212704   7.196   5.796   3.702 -0.3793 -0.0706  0.1247
 2139poe    c2312705   7.196   5.925   3.759  0.4003 -0.0383  0.0619
 2139poe    c2312706   7.174   5.895   3.908  0.1859  0.3459  0.1083
 2139poe     o212707   7.082   5.787   3.905  0.3862  0.1923 -0.4760
 2139poe    c3112708   7.035   5.760   4.034  0.6829 -0.2163 -0.4518
 2140poe    c3112709   2.011   4.764   3.500 -0.2346  0.6825  0.4353
 2140poe     o212710   2.138   4.792   3.555  0.0995  0.0661 -0.0074
 2140poe    c2312711   2.219   4.862   3.464  0.3971 -0.7645 -0.3854
 2140poe    c2312712   2.344   4.921   3.532 -0.3380 -0.6371  0.8839
 2140poe     o212713   2.294   5.014   3.625 -0.1552  0.2956  0.0617
 2140poe    c2312714   2.404   5.060   3.701  0.0015 -0.5632  0.3627
 2140poe    c2312715   2.368   5.137   3.829 -0.0241  0.1011 -0.0415
 2140poe     o212716   2.262   5.061   3.882 -0.5785  0.5294 -0.5172
 2140poe    c2312717   2.224   5.123   4.003  0.1675 -0.7025  0.3780
 2140poe    c2312718   2.093   5.066   4.060  0.0065 -0.5339  0.1810
 2140poe     o212719   1.980   5.072   3.975  0.1919 -0.3103 -0.0496
 2140poe    c3112720   1.862   5.084   4.052  0.2404  0.4621 -0.0813
 2141poe    c3112721   0.793   3.053   1.927 -0.0344 -0.1287  0.0089
 2141poe     o212722   0.745   3.175   1.874 -0.0606  0.0728  0.4959
 2141poe    c2312723   0.605   3.188   1.872 -0.0408  0.2136 -0.0987
 2141poe    c2312724   0.586   3.326   1.805  0.2377  0.2096 -0.1853
 2141poe     o212725   0.661   3.418   1.880  0.4246 -0.0482 -0.0558
 2141poe    c2312726   0.654   3.549   1.829  0.0702  0.0032  0.1232
 2141poe    c2312727   0.676   3.647   1.946 -0.0251 -0.1767  0.2913
 2141poe     o212728   0.802   3.635   2.009  0.2718  0.0787 -0.2495
 2141poe    c2312729   0.794   3.696   2.136  0.4346  0.2608 -0.3264
 2141poe    c2312730   0.907   3.649   2.229  0.2232  0.2203 -0.0905
 2141poe     o212731   0.895   3.512   2.259 -0.2737  0.1304 -0.6745
 2141poe    c3112732   1.006   3.485   2.342 -0.5393  0.0150 -0.3538
 2142poe    c3112733   5.046   1.390   1.824  0.0108 -0.3699 -0.2242
 2142poe     o212734   5.080   1.527   1.817 -0.3440 -0.2443  0.5138
 2142poe    c2312735   5.161   1.576   1.922 -0.1497  0.6101 -0.0276
 2142poe    c2312736   5.241   1.697   1.870  0.0341  0.4325 -0.1595
 2142poe     o212737   5.139   1.785   1.832 -0.1742  0.0684 -0.4539
 2142poe    c2312738   5.193   1.914   1.812 -0.0417  0.0023 -0.5197
 2142poe    c2312739   5.083   2.021   1.825 -0.3352 -0.3571 -0.0053
 2142poe     o212740   4.970   2.007   1.742 -0.0733  0.2037 -0.4638
 2142poe    c2312741   4.872   2.091   1.798  0.1107  0.3924 -0.4211
 2142poe    c2312742   4.737   2.089   1.723  0.2405 -0.2512 -0.6445
 2142poe     o212743   4.683   1.959   1.720  0.2097 -0.2573 -0.0692
 2142poe    c3112744   4.553   1.961   1.664 -0.0394  0.3014  0.5076
 2143poe    c3112745   0.536   3.877   4.970 -0.1782 -0.0116 -0.3240
 2143poe     o212746   0.493   3.792   5.074 -0.1839 -0.0047 -0.3199
 2143poe    c2312747   0.594   3.720   5.141 -0.4931 -0.6076 -0.4931
 2143poe    c2312748   0.531   3.634   5.252 -0.1557  0.0352  0.2042
 2143poe     o212749   0.472   3.735   5.330 -0.1907  0.0896  0.1079
 2143poe    c2312750   0.440   3.681   5.457 -0.4480 -0.2560 -0.1034
 2143poe    c2312751   0.384   3.793   5.546  0.2546 -0.3552  0.4689
 2143poe     o212752   0.304   3.885   5.475  0.4496 -0.3929  0.2013
 2143poe    c2312753   0.290   3.995   5.562  0.3205 -0.0916 -0.2026
 2143poe    c2312754   0.236   4.123   5.494 -0.4395 -0.0830  0.4031
 2143poe     o212755   0.333   4.166   5.402 -0.5874 -0.1989  0.1906
 2143poe    c3112756   0.296   4.289   5.343  0.2930  0.0099  0.0630
 2144poe    c3112757   4.401   5.817   1.828  1.0078 -0.2285 -0.1165
 2144poe     o212758   4.365   5.702   1.754 -0.1084  0.0556 -0.0228
 2144poe    c2312759   4.267   5.632   1.828 -0.1995 -0.1650 -0.3557
 2144poe    c2312760   4.278   5.484   1.788 -0.4594 -0.2793 -0.0064
 2144poe     o212761   4.368   5.478   1.680 -0.3745 -0.1209  0.0545
 2144poe    c2312762   4.370   5.345   1.633 -0.0992 -0.2060  0.3007
 2144poe    c2312763   4.512   5.295   1.602  0.0037 -0.0318  0.4985
 2144poe     o212764   4.575   5.382   1.511  0.0072 -0.4042  0.1451
 2144poe    c2312765   4.708   5.339   1.486  0.1723  0.1338  0.0807
 2144poe    c2312766   4.786   5.421   1.381  0.6078 -0.3742  0.0061
 2144poe     o212767   4.774   5.557   1.416  0.2616 -0.4040  0.0071
 2144poe    c3112768   4.710   5.627   1.312  0.2520 -0.4040  0.0131
 2145poe    c3112769   0.115   6.313   1.899  0.5594 -0.0776  0.2103
 2145poe     o212770   0.195   6.424   1.866  0.4570 -0.0586  0.0210
 2145poe    c2312771   0.267   6.405   1.746  0.0125 -0.1483 -0.2339
 2145poe    c2312772   0.369   6.520   1.750 -0.5834  0.3835 -0.0624
 2145poe     o212773   0.402   6.550   1.884  0.0943 -0.1457 -0.1046
 2145poe    c2312774   0.510   6.640   1.896 -0.3107  0.3214  0.0626
 2145poe    c2312775   0.526   6.676   2.045  0.1520  0.3181  0.0148
 2145poe     o212776   0.398   6.722   2.081  0.1391  0.0333  0.3402
 2145poe    c2312777   0.412   6.786   2.205  0.2775 -0.0489  0.3674
 2145poe    c2312778   0.274   6.811   2.270  0.1892  0.0018  0.1609
 2145poe     o212779   0.208   6.690   2.302  0.3197 -0.1762 -0.2379
 2145poe    c3112780   0.082   6.711   2.360  0.5480 -0.2326  0.2852
 2146poe    c3112781   3.344   6.604   4.380  0.4398 -0.5255  0.4337
 2146poe     o212782   3.256   6.557   4.480 -0.0298 -0.2300  0.1625
 2146poe    c2312783   3.202   6.662   4.556  0.1004 -0.2993  0.3506
 2146poe    c2312784   3.079   6.612   4.633  0.3791 -0.7748  0.4870
 2146poe     o212785   3.008   6.526   4.546  0.4574 -0.0159 -0.3389
 2146poe    c2312786   2.882   6.500   4.604  0.5293 -0.2029 -0.2646
 2146poe    c2312787   2.798   6.410   4.513  0.7338  0.0371 -0.6917
 2146poe     o212788   2.857   6.284   4.487  0.1845 -0.2290 -0.6693
 2146poe    c2312789   2.764   6.187   4.445  0.1038 -0.0887 -0.8123
 2146poe    c2312790   2.817   6.043   4.457  0.2983  0.0682  0.3514
 2146poe     o212791   2.835   6.020   4.594  0.3841  0.1076  0.3466
 2146poe    c3112792   2.833   5.880   4.615  0.0537  0.1677  0.7300
 2147poe    c3112793   1.352   3.675   5.412  0.1647 -0.1343 -0.1029
 2147poe     o212794   1.298   3.582   5.322 -0.7207  0.4961 -0.2306
 2147poe    c2312795   1.321   3.618   5.187  0.5390  0.3015 -0.0762
 2147poe    c2312796   1.312   3.505   5.083 -0.4318 -0.0587  0.3900
 2147poe     o212797   1.194   3.427   5.088 -0.2417 -0.3954 -0.2871
 2147poe    c2312798   1.193   3.318   5.000  0.3338 -0.3070 -0.4112
 2147poe    c2312799   1.062   3.237   5.004  0.4546 -0.4775  0.1338
 2147poe     o212800   0.960   3.325   4.963  0.4488 -0.3540  0.4137
 2147poe    c2312801   0.844   3.258   4.921  0.5591  0.0100 -0.4993
 2147poe    c2312802   0.733   3.356   4.877  0.3426 -0.1655 -0.3488
 2147poe     o212803   0.759   3.399   4.746  0.1170  0.4324 -0.1973
 2147poe    c3112804   0.678   3.511   4.716 -0.0480  0.2044 -0.6091
 2148poe    c3112805   3.983   1.600   0.785 -0.1812  0.5873 -0.0763
 2148poe     o212806   3.992   1.657   0.656 -0.0158  0.2516 -0.2148
 2148poe    c2312807   4.090   1.594   0.577  0.2270  0.3107  0.0415
 2148poe    c2312808   4.050   1.459   0.516 -0.5127  0.4878  0.1331
 2148poe     o212809   4.025   1.363   0.617  0.0179  0.3704  0.1562
 2148poe    c2312810   3.937   1.265   0.565 -0.0875  0.5101  0.0692
 2148poe    c2312811   3.899   1.146   0.655  0.5913  0.2068 -0.0372
 2148poe     o212812   4.007   1.058   0.677  0.1035 -0.3459  0.1657
 2148poe    c2312813   3.979   0.948   0.761 -0.2796 -0.2653  0.1475
 2148poe    c2312814   4.091   0.888   0.848  0.3289  0.1115 -0.3701
 2148poe     o212815   4.141   0.978   0.944 -0.3007  0.0537  0.0139
 2148poe    c3112816   4.236   0.921   1.031 -0.3562  0.0646  0.0818
 2149poe    c3112817   1.534   0.530   5.989  0.4051  0.2539  0.4934
 2149poe     o212818   1.612   0.446   5.907 -0.0271  0.3693 -0.0359
 2149poe    c2312819   1.555   0.450   5.778  0.0255 -0.2020 -0.0763
 2149poe    c2312820   1.615   0.376   5.656 -0.1669 -0.2701 -0.1291
 2149poe     o212821   1.740   0.419   5.607  0.0397 -0.3106  0.3566
 2149poe    c2312822   1.796   0.313   5.533  0.0482 -0.1317  0.1090
 2149poe    c2312823   1.940   0.347   5.489  0.1504 -0.0777  0.4801
 2149poe     o212824   2.020   0.344   5.605  0.0092 -0.3890  0.5701
 2149poe    c2312825   2.143   0.407   5.580 -0.1687 -0.2415  0.0518
 2149poe    c2312826   2.260   0.380   5.676  0.2077  0.4042 -0.2163
 2149poe     o212827   2.239   0.423   5.809  0.3596  0.2555 -0.1450
 2149poe    c3112828   2.369   0.426   5.864  0.3113  0.1797 -0.0261
 2150poe    c3112829   2.541   0.726   2.215  0.2113 -0.4561 -0.0039
 2150poe     o212830   2.470   0.762   2.332  0.1339  0.1233 -0.2265
 2150poe    c2312831   2.341   0.809   2.299  0.2770  0.4510 -0.3149
 2150poe    c2312832   2.238   0.795   2.412  0.3464  0.0974 -0.2962
 2150poe     o212833   2.273   0.870   2.526 -0.1053 -0.1566  0.0127
 2150poe    c2312834   2.154   0.900   2.597 -0.0382  0.2007 -0.0242
 2150poe    c2312835   2.198   0.961   2.732 -0.2132 -0.4692  0.3350
 2150poe     o212836   2.289   0.870   2.790  0.2709 -0.1836  0.0214
 2150poe    c2312837   2.320   0.914   2.920 -0.2353  0.2610 -0.0025
 2150poe    c2312838   2.430   0.820   2.974  0.3900  0.7860 -0.3539
 2150poe     o212839   2.524   0.785   2.874  0.4000  0.3866 -0.2044
 2150poe    c3112840   2.601   0.677   2.923 -0.1761 -0.2518 -0.6888
 2151poe    c3112841   0.145   4.160   0.819  0.4397  0.3781  0.2682
 2151poe     o212842   0.191   4.027   0.819  0.1370  0.2708  0.2278
 2151poe    c2312843   0.099   3.954   0.897  0.2037 -0.0748 -0.0163
 2151poe    c2312844   0.140   3.927   1.043  0.1084 -0.1053  0.0044
 2151poe     o212845   0.266   3.867   1.058  0.0737 -0.1389  0.1618
 2151poe    c2312846   0.321   3.885   1.187  0.1870  0.3067  0.0513
 2151poe    c2312847   0.466   3.834   1.201 -0.0944 -0.4887  0.0939
 2151poe     o212848   0.551   3.885   1.101 -0.1693 -0.6680 -0.0631
 2151poe    c2312849   0.663   3.800   1.099  0.2293 -0.1683  0.3995
 2151poe    c2312850   0.774   3.848   1.004 -0.0210  0.2848  0.3344
 2151poe     o212851   0.709   3.903   0.892  0.1595  0.6868  0.4261
 2151poe    c3112852   0.805   3.925   0.790 -0.0433 -0.7073 -0.0964
 2152poe    c3112853   4.030   4.425   6.227 -0.2749 -0.5177 -0.6158
 2152poe     o212854   3.995   4.536   6.146  0.6256  0.3395  0.1386
 2152poe    c2312855   3.860   4.525   6.106  0.6823 -0.1314  0.0633
 2152poe    c2312856   3.849   4.601   5.972  0.3422 -0.2368  0.0309
 2152poe     o212857   3.895   4.733   5.995  0.1894 -0.1782  0.0029
 2152poe    c2312858   3.874   4.821   5.887  0.0041  0.2288  0.3656
 2152poe    c2312859   3.941   4.959   5.894 -0.2131  0.3401  0.2517
 2152poe     o212860   4.079   4.947   5.917 -0.1975  0.2056  0.0867
 2152poe    c2312861   4.136   5.075   5.934  0.1537  0.0333  0.2156
 2152poe    c2312862   4.289   5.063   5.951  0.1697 -0.3331 -0.1555
 2152poe     o212863   4.353   5.013   5.836  0.2624 -0.5714 -0.0024
 2152poe    c3112864   4.490   5.046   5.837  0.2302 -0.4394  0.1042
 2153poe    c3112865   1.949   2.206   6.065 -0.1710  0.4080  0.2973
 2153poe     o212866   1.847   2.189   6.161 -0.4885  0.0433 -0.0990
 2153poe    c2312867   1.803   2.310   6.218 -0.1377  0.1603 -0.0773
 2153poe    c2312868   1.671   2.282   6.292  0.1073  0.2722  0.4060
 2153poe     o212869   1.696   2.177   6.383 -0.4703 -0.0791  0.1646
 2153poe    c2312870   1.588   2.111   6.444 -0.1183 -0.1028  0.7739
 2153poe    c2312871   1.571   1.966   6.394 -0.0699  0.1094  0.1360
 2153poe     o212872   1.516   1.951   6.265  0.4269 -0.7667  0.0193
 2153poe    c2312873   1.432   1.837   6.269  0.0443 -0.4894 -0.0649
 2153poe    c2312874   1.359   1.787   6.143  0.0841 -0.6810 -0.0117
 2153poe     o212875   1.446   1.749   6.038  0.6234 -0.0118  0.1893
 2153poe    c3112876   1.366   1.763   5.923  0.0610 -0.8969  0.4697
 2154poe    c3112877   1.431   5.323   1.709 -0.4391  0.1901 -0.3747
 2154poe     o212878   1.559   5.264   1.713 -0.1077  0.9339  0.3838
 2154poe    c2312879   1.594   5.178   1.818  0.3103 -0.0870 -0.5763
 2154poe    c2312880   1.741   5.136   1.798  0.4795  0.2584 -0.0663
 2154poe     o212881   1.769   5.075   1.674  0.1639  0.1705 -0.0934
 2154poe    c2312882   1.895   5.014   1.666  0.2590  0.3179  0.2650
 2154poe    c2312883   1.899   4.936   1.534 -0.6060  0.1882  0.3079
 2154poe     o212884   1.844   5.008   1.426 -0.4289 -0.1245  0.0038
 2154poe    c2312885   1.840   4.937   1.305 -0.3996 -0.0111 -0.0641
 2154poe    c2312886   1.807   5.035   1.191 -0.4788 -0.4888 -0.4569
 2154poe     o212887   1.693   5.095   1.248 -0.2106 -0.2491 -0.1704
 2154poe    c3112888   1.667   5.213   1.176  0.2864 -0.2670 -0.3847
 2155poe    c3112889   4.604   0.097   2.883  0.3051 -0.2666 -0.0149
 2155poe     o212890   4.616   0.086   2.743 -0.2409  0.2848 -0.1118
 2155poe    c2312891   4.540  -0.022   2.694 -0.1015 -0.1401  0.5849
 2155poe    c2312892   4.550  -0.023   2.540  0.2980 -0.1491  0.6097
 2155poe     o212893   4.676  -0.058   2.487  0.2932  0.0849  0.4404
 2155poe    c2312894   4.668  -0.045   2.347  0.1075  0.1618  0.4568
 2155poe    c2312895   4.750  -0.142   2.259 -0.1779  0.2433  0.0999
 2155poe     o212896   4.890  -0.141   2.275 -0.2092 -0.3667  0.4184
 2155poe    c2312897   4.934  -0.250   2.196 -0.0943  0.2341 -0.3581
 2155poe    c2312898   5.086  -0.267   2.177 -0.0173  0.5287 -0.0289
 2155poe     o212899   5.162  -0.301   2.291  0.3668  0.2708 -0.3593
 2155poe    c3112900   5.288  -0.357   2.261  0.2800 -0.0977 -0.0408
 2156poe    c3112901   6.594   3.922   5.667  0.2201  0.1725  0.4780
 2156poe     o212902   6.623   4.004   5.777  0.3315  0.1608  0.4582
 2156poe    c2312903   6.743   4.075   5.760  0.0684  0.4754 -0.1002
 2156poe    c2312904   6.755   4.209   5.835 -0.1352  0.2293  0.3738
 2156poe     o212905   6.750   4.180   5.973 -1.4765  0.1052  0.3135
 2156poe    c2312906   6.759   4.302   6.042 -0.0552  0.0251  0.2944
 2156poe    c2312907   6.801   4.266   6.185  0.1787  0.2136  0.2754
 2156poe     o212908   6.698   4.181   6.232 -0.0002 -0.4117 -1.1867
 2156poe    c2312909   6.744   4.116   6.349 -0.9480  0.0459 -0.5477
 2156poe    c2312910   6.618   4.053   6.411 -0.3473 -0.3106  0.3276
 2156poe     o212911   6.552   3.997   6.299  0.4347 -0.3854 -0.1051
 2156poe    c3112912   6.474   3.884   6.332 -0.3779  0.1422 -0.1771
 2157poe    c3112913   5.796   0.708   4.792 -0.4884  0.4528  0.1245
 2157poe     o212914   5.718   0.602   4.841  0.0969 -0.0058  0.0717
 2157poe    c2312915   5.792   0.482   4.845  0.5610  0.2617 -0.3883
 2157poe    c2312916   5.693   0.365   4.854  0.7069  0.1960  0.4867
 2157poe     o212917   5.613   0.368   4.970  0.1720 -0.0093  0.1320
 2157poe    c2312918   5.517   0.265   4.979  0.4515 -0.2640  0.2276
 2157poe    c2312919   5.441   0.279   5.112 -0.0322  0.0114 -0.0726
 2157poe     o212920   5.366   0.397   5.125 -0.0242  0.0283 -0.1827
 2157poe    c2312921   5.332   0.414   5.261  0.1417 -0.0269 -0.1338
 2157poe    c2312922   5.254   0.542   5.297 -0.2395 -0.2929 -0.0104
 2157poe     o212923   5.294   0.641   5.205 -0.0867 -0.2180  0.1362
 2157poe    c3112924   5.263   0.770   5.254 -0.0179 -0.0708 -0.2085
 2158poe    c3112925   0.913   5.089   3.868 -0.4169 -0.5296 -0.1053
 2158poe     o212926   0.996   5.187   3.810 -0.6192 -0.6586 -0.6171
 2158poe    c2312927   0.942   5.314   3.835  0.4998 -0.2475 -0.2511
 2158poe    c2312928   1.014   5.397   3.727  0.0108  0.6569  0.1064
 2158poe     o212929   1.149   5.366   3.749 -0.2226 -0.0047  0.6543
 2158poe    c2312930   1.225   5.461   3.676 -0.2783  0.2140  0.8794
 2158poe    c2312931   1.375   5.442   3.706 -0.0559 -0.1283 -0.4119
 2158poe     o212932   1.420   5.316   3.661 -0.2901 -0.4255  0.1782
 2158poe    c2312933   1.561   5.314   3.669 -0.2584  0.2142 -0.1706
 2158poe    c2312934   1.616   5.173   3.642 -0.4531  0.0863  0.1008
 2158poe     o212935   1.548   5.067   3.706 -0.5714  0.1809  0.1321
 2158poe    c3112936   1.583   4.940   3.655  0.6571  0.4268  0.3336
 2159poe    c3112937   2.594   0.194   1.350  0.4282  0.3569 -0.7457
 2159poe     o212938   2.623   0.061   1.315  0.1031  0.0554  0.0975
 2159poe    c2312939   2.762   0.043   1.330 -0.0436 -0.6362  0.6778
 2159poe    c2312940   2.801  -0.090   1.263 -0.0076 -0.1781 -0.2245
 2159poe     o212941   2.705  -0.186   1.301 -0.1362  0.0366 -0.0058
 2159poe    c2312942   2.719  -0.306   1.228 -0.0622  0.0119  0.0496
 2159poe    c2312943   2.584  -0.377   1.246 -0.0035 -0.2088 -0.3899
 2159poe     o212944   2.492  -0.278   1.206 -0.2718 -0.3252 -0.0695
 2159poe    c2312945   2.371  -0.344   1.179 -0.4240  0.0957 -0.4439
 2159poe    c2312946   2.287  -0.296   1.060 -0.6986 -0.0174 -0.2972
 2159poe     o212947   2.249  -0.163   1.086  0.1503  0.2353 -0.3354
 2159poe    c3112948   2.147  -0.114   1.002 -0.0954  0.3570  0.0302
 2160poe    c3112949   1.617   0.761   4.544 -0.6025 -0.0674 -0.3974
 2160poe     o212950   1.673   0.686   4.439  0.4552 -0.0769  0.1506
 2160poe    c2312951   1.798   0.739   4.401  0.0847  0.1981 -0.7216
 2160poe    c2312952   1.831   0.695   4.257  0.5120 -0.0774 -0.5414
 2160poe     o212953   1.842   0.555   4.241  0.4357 -0.1482  0.0232
 2160poe    c2312954   1.852   0.526   4.104 -0.0703 -0.3068  0.0163
 2160poe    c2312955   1.804   0.386   4.061  0.0377 -0.3539  0.0480
 2160poe     o212956   1.905   0.293   4.095  0.1820  0.0305  0.6854
 2160poe    c2312957   1.886   0.167   4.035 -0.3453  0.0559  0.7852
 2160poe    c2312958   1.986   0.054   4.069 -0.0073  0.0629 -0.1517
 2160poe     o212959   1.983   0.027   4.207 -0.6458  1.2090  0.0771
 2160poe    c3112960   1.875  -0.046   4.263  0.1418 -0.1281 -0.1049
 2161lim     li12961   6.649   5.895   2.032 -0.0455  0.0836  0.7373
 2162lim     li12962   6.177   0.369   5.455 -0.3704 -0.3252  0.4693
 2163lim     li12963   5.880   0.740   2.794  0.1276  0.2748 -0.2607
 2164lim     li12964   0.118   3.923   4.752  0.2828  0.7416 -0.6289
 2165lim     li12965   3.328   3.932   1.642  0.3056 -0.1184  0.1756
 2166lim     li12966   5.243   1.239   3.541  0.3159  0.7073  0.3919
 2167lim     li12967   3.097   6.285   0.649 -0.6831 -0.0251 -0.2007
 2168lim     li12968   0.245   6.538   2.006  0.3173  0.7135  0.4260
 2169lim     li12969   2.791   5.543   2.635 -0.3487  0.5240 -0.7073
 2170lim     li12970   6.513   0.952   2.558  0.2014 -0.4383  0.5476
 2171lim     li12971   6.474   2.915   2.310  0.4826  0.9743  0.5213
 2172lim     li12972   4.476   2.879   3.820  0.5919 -0.7956  0.2742
 2173lim     li12973   4.207   6.761   0.458  0.5555  0.4277 -0.2740
 2174lim     li12974   3.179   5.229   4.304  0.2063 -0.2584 -0.1357
 2175lim     li12975   3.928   1.398   6.205 -0.8698 -0.4796  0.1880
 2176lim     li12976   3.980   2.362   3.878  1.4558 -0.1551 -1.2362
 2177lim     li12977   3.823   0.443   1.391 -0.3113 -0.8041  0.1195
 2178lim     li12978   2.170   4.919   3.727  0.5787  0.1817  0.4065
 2179lim     li12979   1.572   0.092   6.539  0.9474 -0.4330  0.2425
 2180lim     li12980   6.618   2.745   3.308  0.9417  0.3781 -0.5369
 2181lim     li12981   0.319   2.483   2.493  0.3713  0.8523 -0.3375
 2182lim     li12982   3.923   1.262   1.116 -0.0983  0.2710 -0.0690
 2183lim     li12983   4.496   6.920   1.640 -0.3287 -0.3909 -0.5736
 2184lim     li12984   1.362   3.671   2.653  0.3839  0.9204 -0.1204
 2185lim     li12985   0.238   5.285   5.490 -0.6855 -0.1478  0.5531
 2186lim     li12986   0.836   1.138   5.251 -0.3147 -0.5593  0.4139
 2187lim     li12987   1.439   5.757   3.059 -0.0243 -1.3365  0.8185
 2188lim     li12988   0.552   3.973   0.939  1.1123 -0.0813 -0.2274
 2189lim     li12989   6.518   5.411   2.943 -0.5935  0.7704 -0.4352
 2190lim     li12990   1.201   2.765   6.894  0.5597  0.5274  0.3893
 2191lim     li12991   3.182   1.795   2.480 -0.6441  0.2871  0.4528
 2192lim     li12992   0.497   1.769   3.446  0.1200 -0.7202  0.0849
 2193lim     li12993   0.343   5.695   2.326  0.1048 -0.3030  0.5876
 2194lim     li12994   3.386   3.186   6.950  0.5695 -0.3389 -0.0606
 2195lim     li12995   1.683   0.335   4.498  0.4503  1.2171  0.3169
 2196lim     li12996   5.510   5.202   2.173 -0.3172 -0.1320  0.4218
 2197lim     li12997   0.333   0.742   4.455  0.7746 -0.5605  0.8927
 2198lim     li12998   6.001   0.119   2.405 -0.4910 -0.1433 -0.4445
 2199lim     li12999   2.870   4.766   5.269  0.5449 -0.5213  0.5837
 2200lim     li13000   6.504   4.642   3.645  0.3334 -0.0866 -0.2662
 2201lim     li13001   5.919   1.938   5.742 -0.1519  0.2813 -0.8836
 2202lim     li13002   2.706   2.759   6.089 -0.3435  0.0933  0.4707
 2203lim     li13003   2.523   3.209   1.720  0.7123 -1.0101 -1.0916
 2204lim     li13004   5.418   5.065   5.870  0.3742  0.4497  0.0631
 2205lim     li13005   1.524   0.055   2.874 -0.4989 -0.5458  0.3798
 2206lim     li13006   5.428   0.703   3.513 -0.4445  0.4017 -0.1249
 2207lim     li13007   2.803   0.403   4.388 -0.2569 -0.3067  0.4774
 2208lim     li13008   2.314   5.017   2.339  0.2851 -0.2953 -0.4286
 2209lim     li13009   0.605   5.285   3.036 -0.0026 -0.8179 -0.4270
 2210lim     li13010   0.756   4.066   6.414 -0.4543  0.2293  1.1239
 2211lim     li13011   6.155   4.764   0.390 -0.0084  0.5988 -1.1306
 2212lim     li13012   1.336   2.307   2.128  0.0648  0.1596  0.1253
 2213lim     li13013   3.578   4.251   4.928  0.0777  0.7811  0.0416
 2214lim     li13014   2.752   5.021   5.924 -0.5375 -0.3481  0.9472
 2215lim     li13015   1.362   2.494   5.076 -0.1124  0.0535 -0.0902
 2216lim     li13016   4.131   3.767   6.597  0.2442 -0.1814 -0.6956
 2217lim     li13017   1.553   6.969   0.576 -1.0111 -0.5449  0.5220
 2218lim     li13018   4.747   0.301   0.060 -0.3391 -0.5096 -0.0155
 2219lim     li13019   2.374   2.124   1.895  0.0609 -0.2383 -0.1244
 2220lim     li13020   2.523   5.005   1.520  0.1689 -0.7207  0.0944
 2221lim     li13021   4.781   4.346   4.803  0.1109 -0.6468 -0.9358
 2222lim     li13022   5.039   0.866   1.205 -0.4773 -0.3755  0.3338
 2223lim     li13023   5.778   4.136   7.005  0.4246 -1.2207  0.2760
 2224lim     li13024   3.113   1.064   4.392  0.9998 -0.1810  0.0896
 2225lim     li13025   4.090   3.258   2.946  0.4164 -1.5728  0.9255
 2226lim     li13026   4.723   6.840   5.807  0.4465  0.5730  0.9380
 2227lim     li13027   1.359   4.160   1.461  0.0415 -0.5800  0.4187
 2228lim     li13028   5.402   3.374   4.744  0.8038 -1.2972  0.0399
 2229lim     li13029   2.255   0.151   4.422 -0.3497 -0.1296 -1.2364
 2230lim     li13030   5.625   4.004   0.666  0.8197  0.4729 -0.6247
 2231lim     li13031   2.573   6.303   6.391  0.8082 -0.1654  0.2440
 2232lim     li13032   0.758   5.615   4.544  1.0107 -0.1133  0.8312
 2233lim     li13033   2.502   3.395   6.484 -0.5376  0.1510 -0.9884
 2234lim     li13034   5.878   6.176   5.548 -0.0257  0.9905  0.0612
 2235lim     li13035   4.508   3.074   1.382  0.7931  0.5286  0.2986
 2236lim     li13036   0.978   5.567   5.209  0.1514  0.3819  0.4448
 2237lim     li13037   1.231   2.731   4.003 -0.5682  0.5462 -0.5552
 2238lim     li13038   6.549   4.113   6.169  0.4646  0.1569  0.1932
 2239lim     li13039   3.553   1.863   5.018 -0.3885  0.1063  0.4769
 2240lim     li13040   6.288   2.675   1.117  0.0150  0.1638 -0.4517
 2241lim     li13041   1.733   3.663   6.675  0.4610 -0.2102 -0.1851
 2242lim     li13042   4.048   1.781   3.238 -0.6817 -0.1824  0.1116
 2243lim     li13043   6.833   5.468   1.355  0.0742  0.6720  0.3137
 2244lim     li13044   3.426   0.579   0.097  0.9091  0.6800 -1.1097
 2245lim     li13045   6.054   5.527   6.684  0.8835 -0.7172 -0.0604
 2246lim     li13046   2.092   4.127   5.670  0.4415  0.5512 -0.6225
 2247lim     li13047   3.368   6.412   2.620 -0.9238  0.0365 -0.0786
 2248lim     li13048   0.684   2.540   3.072 -0.1882 -0.4850 -0.2406
 2249lim     li13049   0.768   6.587   4.638 -0.3312  1.4200 -0.6765
 2250lim     li13050   3.427   1.397   6.515  0.5451  0.2174 -0.5647
 2251lim     li13051   4.434   4.389   4.219 -0.0252 -0.7280 -1.4448
 2252lim     li13052   1.010   6.095   0.015  0.3967  0.0540  0.7989
 2253lim     li13053   6.491   0.618   0.968 -0.2880 -0.0001  0.5007
 2254lim     li13054   4.536   4.634   5.601  0.8852 -0.3525  0.4922
 2255lim     li13055   0.863   4.790   1.356 -0.4829 -0.0737 -0.5747
 2256lim     li13056   1.655   4.412   5.747 -0.0898 -0.5030 -0.2704
 2257lim     li13057   3.984   3.593   4.483  0.2289  0.3810 -0.0569
 2258lim     li13058   2.461   2.368   6.590  0.6579  0.5165  0.2216
 2259lim     li13059   1.698   5.095   1.453  0.5024 -0.7291 -0.4773
 2260lim     li13060   3.942   4.947   4.822  0.0971 -0.2625  0.1960
 2261lim     li13061   0.753   4.358   5.633  0.1565 -0.1790 -0.5240
 2262lim     li13062   6.672   6.273   0.015 -1.1386  0.3235  0.0452
 2263lim     li13063   4.873   5.996   5.019 -0.5595  0.6622 -0.3528
 2264lim     li13064   5.946   5.471   0.940  0.1845 -1.1017  0.9322
 2265lim     li13065   5.013   6.550   4.943 -0.3537  0.3477  0.1754
 2266lim     li13066   1.901   0.799   5.726 -0.9090 -0.1228  0.2147
 2267lim     li13067   5.347   5.998   3.403 -0.1153 -0.8936 -0.9216
 2268lim     li13068   0.457   3.692   3.159 -0.2513 -0.1231  0.3295
 2269lim     li13069   1.039   3.369   4.391  1.2032  0.7131  0.2264
 2270lim     li13070   4.974   2.950   6.141  0.2590  0.0895 -0.1373
 2271lim     li13071   5.157   5.954   4.206 -1.3261 -0.1555  1.1637
 2272lim     li13072   2.069   4.758   6.411  0.6850  0.0643 -0.0563
 2273lim     li13073   2.040   1.531   0.162  0.0120 -0.5640 -0.1222
 2274lim     li13074   6.592   0.528   0.154 -0.2518 -0.1543  0.1692
 2275lim     li13075   5.030   1.692   1.739 -0.5702  0.1527 -0.5877
 2276lim     li13076   5.710   1.681   1.158  0.8112  0.5405  1.1057
 2277lim     li13077   1.700   3.480   5.534 -0.7314 -0.3982  0.4263
 2278lim     li13078   3.019   2.493   1.723  0.5390  0.9036  0.0889
 2279lim     li13079   6.306   6.765   6.290  0.0388 -0.7460  0.6787
 2280lim     li13080   5.120   0.971   6.216  0.4183  0.1488 -0.2275
 2281lim     li13081   0.964   1.492   6.908  0.8208 -0.0847  0.0565
 2282lim     li13082   5.302   5.763   1.076 -0.5977  0.3145  0.4163
 2283lim     li13083   6.182   3.859   5.055 -0.3751  0.6590  0.3648
 2284lim     li13084   1.595   3.445   0.353  0.6952 -1.0015  0.5057
 2285lim     li13085   3.991   5.629   4.941 -0.4831 -0.8865  0.6035
 2286lim     li13086   3.981   5.890   3.080 -1.1462  0.7962 -0.3469
 2287lim     li13087   2.591   1.200   2.675 -0.6714 -1.1481 -0.4966
 2288lim     li13088   6.860   2.663   0.382  0.7157  0.1345  0.4866
 2289lim     li13089   1.969   0.248   5.933  0.3116 -0.8008  0.2843
 2290lim     li13090   0.326   0.834   1.897 -0.6036 -0.1777  0.4450
 2291lim     li13091   5.055   3.618   6.603  0.2759 -0.6654 -0.1799
 2292lim     li13092   3.020   3.846   5.799  0.4626  0.0644 -0.8662
 2293lim     li13093   2.225   2.707   4.514 -1.1670  0.2315 -0.2923
 2294lim     li13094   1.180   1.480   4.285  0.1197 -0.9587  0.4944
 2295lim     li13095   5.559   6.437   6.257 -1.1746  0.1508  0.5171
 2296lim     li13096   6.923   0.306   4.704  0.4802 -0.8784  0.0751
 2297lim     li13097   3.526   6.979   4.472  0.3468  0.7677  0.3007
 2298lim     li13098   0.956   5.347   0.454 -0.2093  0.1966  0.3702
 2299lim     li13099   4.367   6.107   6.890  0.2544 -0.3829 -0.5763
 2300lim     li13100   4.309   2.026   1.208  0.5121  0.2257  0.6545
 2301lim     li13101   0.118   2.951   4.707  1.1497 -0.0581  0.4821
 2302lim     li13102   0.199   2.318   4.162 -0.2631 -1.3813  0.1066
 2303lim     li13103   6.961   4.711   2.537  0.8997 -0.6744 -0.3968
 2304lim     li13104   2.002   4.025   3.483 -0.8035 -0.3279 -0.4760
 2305lim     li13105   3.587   3.937   1.028  0.1276  0.2689  0.0686
 2306lim     li13106   0.590   1.728   2.778 -0.4427 -0.7183  0.9095
 2307lim     li13107   4.128   2.925   5.230 -0.1735 -0.3458 -0.1518
 2308lim     li13108   1.898   5.224   4.639  0.0029  0.3847 -0.8439
 2309lim     li13109   2.795   3.846   4.596 -0.0055  0.0861  0.0021
 2310lim     li13110   2.512   5.992   0.837 -0.6182 -0.0810 -0.1421
 2311lim     li13111   2.233   2.299   0.700 -0.1538  0.0113 -1.4098
 2312lim     li13112   6.239   0.322   3.671  0.5842  0.0578  0.8979
 2313lim     li13113   0.604   0.204   0.428 -0.5734  0.8479 -0.1003
 2314lim     li13114   5.324   0.557   5.051 -0.3476 -1.0551  0.1968
 2315lim     li13115   4.284   0.813   5.903 -0.0330  0.4557  0.9336
 2316lim     li13116   3.614   6.744   6.325 -0.6175  0.6726  0.9914
 2317lim     li13117   4.513   1.774   5.692  0.1257 -0.0921 -0.9702
 2318lim     li13118   4.640   3.297   2.544  0.6663 -0.2144  0.0383
 2319lim     li13119   4.241   2.558   6.660 -1.3901  0.3313  0.5234
 2320lim     li13120   4.597   2.420   0.632 -1.0246  0.4956  0.1368
 2321lim     li13121   6.030   0.422   1.586 -0.5958 -1.4905 -0.0965
 2322lim     li13122   6.396   6.126   2.895 -0.6209  0.6268 -0.1857
 2323lim     li13123   4.145   6.855   3.760 -0.0785  0.5405 -1.4377
 2324lim     li13124   2.338   6.913   0.281 -0.5804 -0.6622  0.2716
 2325lim     li13125   4.719   4.730   3.072 -0.5438  0.8493 -0.3376
 2326lim     li13126   2.635   6.132   5.874 -1.2803  1.1165  0.4878
 2327lim     li13127   0.287   1.194   6.215 -0.1012 -0.7243 -0.3937
 2328lim     li13128   5.576   1.280   0.145 -0.6532  0.3092 -0.0769
 2329lim     li13129   5.347   6.795   3.837  0.3012  1.0153 -0.1088
 2330lim     li13130   2.890   4.496   6.839  0.1068  0.8956 -0.4375
 2331lim     li13131   0.067   6.380   4.143  0.4109 -0.2855  0.8496
 2332lim     li13132   4.049   3.382   5.897 -0.3106  0.2638  0.0387
 2333lim     li13133   2.276   3.465   4.969  0.0488  0.9454  0.6763
 2334lim     li13134   2.388   6.737   2.371 -0.0552 -0.4227  0.5479
 2335lim     li13135   0.872   3.528   5.276  1.1811  0.2536  0.7584
 2336lim     li13136   4.817   0.989   0.725 -0.3032 -0.2470  0.8092
 2337lim     li13137   1.351   0.883   0.567  0.3209 -1.4511 -0.9300
 2338lim     li13138   1.249   2.996   6.180  0.1598  0.5306  0.9077
 2339lim     li13139   5.004   4.817   1.941 -0.7443 -0.9162 -0.1376
 2340lim     li13140   6.897   4.870   6.006 -0.1739  0.5065 -0.5279
 2341lim     li13141   3.962   4.586   0.272  0.1018  0.2218 -0.1359
 2342lim     li13142   4.904   4.692   6.703  0.6218 -0.1715 -0.4520
 2343lim     li13143   0.976   6.883   2.147 -0.0812 -0.9425 -0.1748
 2344lim     li13144   0.152   4.232   3.946  0.5255 -0.0680 -0.0882
 2345lim     li13145   4.694   0.246   4.086  0.9422 -0.3411  0.1209
 2346lim     li13146   3.913   6.430   5.492 -0.5039  0.2426  0.7962
 2347lim     li13147   1.125   0.586   3.990  0.8300  0.6220 -1.4927
 2348lim     li13148   1.951   3.044   5.580 -0.3046 -0.7879 -0.0394
 2349lim     li13149   6.559   4.020   1.578  0.0808  0.3370 -0.2500
 2350lim     li13150   2.660   2.984   2.730  0.3466  1.0346  0.5399
 2351lim     li13151   0.190   1.561   0.024 -0.4236 -0.8308 -0.1907
 2352lim     li13152   4.428   5.627   1.612 -0.0780  0.8278  0.1673
 2353lim     li13153   6.793   6.517   6.094 -0.4173  0.3670  0.4731
 2354lim     li13154   6.817   6.019   5.754 -1.1024  0.9405 -0.3777
 2355lim     li13155   5.579   2.899   0.351  0.0456  0.7338  0.3269
 2356lim     li13156   5.364   3.727   2.282 -0.3957 -0.3091  1.2128
 2357lim     li13157   5.103   6.429   0.864  0.7553  0.6742 -0.2742
 2358lim     li13158   2.067   6.353   3.478 -0.1441  0.5230 -0.1641
 2359lim     li13159   0.839   6.409   6.386  0.0535 -0.4535  0.3870
 2360lim     li13160   6.365   6.016   4.252 -0.1700 -0.6095  0.2265
 2361lim     li13161   0.901   6.193   3.891  0.2437 -0.0199 -0.5158
 2362lim     li13162   1.261   4.373   3.822 -1.0493 -0.1375 -1.0228
 2363lim     li13163   4.364   5.193   2.704  0.0791 -0.2264 -0.3217
 2364lim     li13164   3.993   5.866   6.426 -0.0174 -1.0023 -0.2127
 2365lim     li13165   0.042   5.138   6.604  0.2064 -0.4151  0.4835
 2366lim     li13166   0.140   3.710   0.301 -0.0898 -0.1797 -0.2722
 2367lim     li13167   3.577   2.625   4.564 -0.2759  0.6839  0.2342
 2368lim     li13168   5.777   4.861   1.406  0.6239  1.1363  0.7715
 2369lim     li13169   4.817   1.792   0.419 -0.0648  0.1553 -0.4050
 2370lim     li13170   1.675   4.496   4.791  0.8819  0.6814  0.0928
 2371lim     li13171   0.605   4.736   3.751  0.3176 -0.4040  0.3121
 2372lim     li13172   4.744   4.251   6.154  0.8952  0.9995  0.2368
 2373lim     li13173   0.108   2.253   5.306 -0.0403  0.3042 -0.5533
 2374lim     li13174   5.670   0.424   0.883 -0.1578  0.4526 -0.0748
 2375lim     li13175   1.170   1.601   1.644 -0.1095 -0.1772 -0.2268
 2376lim     li13176   6.190   3.300   4.017  0.6777  0.0693  0.8885
 2377lim     li13177   3.557   0.556   5.780  1.6065  0.4133 -0.4907
 2378lim     li13178   1.705   3.126   3.325 -0.8116  0.5523 -0.7852
 2379lim     li13179   5.126   1.132   4.453 -0.8618  1.2399  0.0276
 2380lim     li13180   3.809   2.432   5.631 -1.9367  0.7282 -0.8760
 2381lim     li13181   3.038   6.233   4.944 -0.3229  0.9983 -0.0958
 2382lim     li13182   6.415   3.283   1.157  0.0099 -0.2150  0.6290
 2383lim     li13183   6.028   4.822   5.220 -1.5381 -0.3295  0.4210
 2384lim     li13184   2.409   0.763   2.731 -1.0601  0.0937  0.5334
 2385lim     li13185   3.414   1.259   5.045  0.5709 -0.2270 -0.8423
 2386lim     li13186   4.853   0.750   2.437  0.8333  1.1578  0.0944
 2387lim     li13187   5.834   1.711   3.163  0.0236  0.5540 -1.3447
 2388lim     li13188   2.998   1.597   5.729  0.8924  0.6106 -0.1809
 2389lim     li13189   6.658   5.163   1.949 -0.0168  0.4929  0.2246
 2390lim     li13190   5.306   3.660   3.279 -0.8007 -1.2188 -0.8269
 2391lim     li13191   0.385   3.878   5.279 -0.8896 -0.4873  0.8200
 2392lim     li13192   0.189   0.161   3.128 -0.2230 -1.2003 -0.4913
 2393lim     li13193   5.436   5.733   5.467 -0.2330 -0.2477  0.4242
 2394lim     li13194   4.604   0.326   5.247  1.0134  1.5521 -0.0186
 2395lim     li13195   6.984   4.434   0.233  0.4744 -0.2893  0.0573
 2396lim     li13196   0.585   6.311   0.802  0.5842 -0.8635  0.3611
 2397lim     li13197   3.673   2.655   1.571 -0.4292  0.3198  0.2736
 2398lim     li13198   0.865   3.398   0.112  0.5169  0.0276 -0.2253
 2399lim     li13199   1.581   5.743   4.059  0.3253  0.8522  0.8087
 2400lim     li13200   2.350   4.519   6.872  0.2679 -0.1819 -0.0115
 2401lim     li13201   1.104   3.648   3.781 -0.0783 -0.6480 -0.5617
 2402lim     li13202   1.845   2.232   6.934  1.1052  0.1025 -0.0676
 2403lim     li13203   1.704   3.854   0.945  0.5820  0.0610  0.7502
 2404lim     li13204   6.030   1.125   4.356  0.5596  0.1340 -0.6746
 2405lim     li13205   5.370   2.853   4.314  1.0266  2.0027  0.5258
 2406lim     li13206   3.262   5.974   1.626 -0.6464 -0.6551 -0.4147
 2407lim     li13207   6.065   6.767   5.112 -0.9368 -0.7514 -0.5622
 2408lim     li13208   5.767   6.403   2.047 -0.7358  0.0151 -0.0935
 2409lim     li13209   2.740   2.042   0.912  0.0575  0.0340  1.2442
 2410lim     li13210   1.759   5.644   0.590 -0.2076  0.2827  0.6003
 2411lim     li13211   5.114   3.780   4.119  0.5822  0.7394  0.4021
 2412lim     li13212   1.170   6.756   4.913 -0.1887 -0.0841  0.5891
 2413lim     li13213   3.470   2.772   6.133 -0.5238  0.6045 -0.9039
 2414lim     li13214   0.197   4.809   1.107  0.3235  0.0291 -0.5965
 2415lim     li13215   4.943   5.349   3.481  1.0899 -0.7744  0.3514
 2416lim     li13216   5.807   2.774   2.679 -0.0385 -0.4073  0.0367
 2417lim     li13217   6.958   1.219   1.773 -0.9603  0.5802  1.2178
 2418lim     li13218   6.343   1.623   6.838 -0.4570 -0.4052  0.0472
 2419lim     li13219   6.579   6.581   2.721  0.8872  1.1784  0.5494
 2420lim     li13220   6.530   5.549   0.806  0.7065 -0.7367  0.4950
 2421lim     li13221   5.368   6.007   1.641 -1.0278 -0.2992  0.8217
 2422lim     li13222   3.210   6.886   5.780 -0.4797 -0.4920  0.0970
 2423lim     li13223   5.394   4.554   3.727 -0.1105  0.0047  0.6735
 2424lim     li13224   2.100   3.546   4.163  0.6000 -0.5799 -0.5452
 2425lim     li13225   6.454   4.008   4.277 -0.1095 -0.9158  0.5558
 2426lim     li13226   1.544   0.276   1.562  0.4093  0.5355  0.3706
 2427lim     li13227   2.344   0.242   6.351  0.0107  0.0104 -0.1558
 2428lim     li13228   2.079   3.855   2.220 -1.3516 -0.6791  0.7664
 2429lim     li13229   6.870   3.266   5.919  1.0175 -0.1590  0.3287
 2430lim     li13230   0.545   4.450   2.761  0.7109  0.8484  0.3763
 2431lim     li13231   5.506   4.534   4.321  0.0553  0.5436  0.5288
 2432lim     li13232   6.521   5.072   4.429  0.5729  0.2749 -1.1097
 2433lim     li13233   2.214   1.282   6.250  0.5938  0.2184  0.4261
 2434lim     li13234   6.939   2.774   1.674  0.5417 -0.2130  0.7005
 2435lim     li13235   0.578   0.514   6.275 -0.1405  1.5619 -0.2389
 2436lim     li13236   5.524   4.698   0.364  0.2465 -1.1126 -1.0675
 2437lim     li13237   5.182   2.993   3.328  0.2103 -0.0599  0.0577
 2438lim     li13238   3.970   5.449   0.751 -0.0253  0.1419 -0.9285
 2439lim     li13239   6.596   3.145   6.670  0.0666 -0.1763  0.1517
 2440lim     li13240   0.401   3.410   0.870  0.4218 -1.0496 -0.3013
 2441lim     li13241   5.271   0.600   6.755  0.7170 -0.2151 -0.3597
 2442lim     li13242   1.720   1.284   4.532  0.5698  0.3859  0.9453
 2443lim     li13243   1.484   4.658   0.465 -0.9490  0.9069 -0.6616
 2444lim     li13244   6.528   0.871   5.379  0.2666  0.1974 -0.0013
 2445lim     li13245   3.269   1.683   0.006 -0.1822  0.5273  0.4558
 2446lim     li13246   3.214   0.469   5.055  0.0984 -1.4350  0.2863
 2447lim     li13247   3.623   3.340   1.900  1.0024  0.0688 -0.6466
 2448lim     li13248   3.842   5.859   2.177  1.8405  0.2426  0.6685
 2449lim     li13249   4.889   6.475   6.406 -0.1330  0.2830 -0.1377
 2450lim     li13250   1.979   1.900   5.317 -0.2373 -0.9350  0.0307
 2451lim     li13251   2.100   5.687   1.298 -0.6436 -1.3014  0.4706
 2452lim     li13252   3.352   5.385   1.157 -0.8767 -0.0421 -0.8553
 2453lim     li13253   1.804   0.339   2.529 -0.5277  0.3555  0.5272
 2454lim     li13254   4.583   1.708   6.558 -0.5466  0.3837 -0.8118
 2455lim     li13255   5.687   4.955   3.100 -0.6521  0.5447 -0.0588
 2456lim     li13256   4.157   1.943   4.537 -0.0028 -0.1425  1.0356
 2457lim     li13257   4.681   3.299   4.964 -0.2125 -0.8069  0.4983
 2458lim     li13258   3.339   4.626   2.320 -0.1341 -0.2438 -0.5085
 2459lim     li13259   2.047   0.678   0.431 -1.4518  0.7749 -0.0303
 2460lim     li13260   6.260   4.256   3.123 -1.5096  0.1616  0.1334
 2461lim     li13261   5.782   2.421   6.407  0.4637 -0.8274 -0.0575
 2462lim     li13262   4.586   1.021   3.468 -0.5798 -1.6912 -0.8672
 2463lim     li13263   3.270   4.300   5.620 -0.4645 -0.5984  0.1860
 2464lim     li13264   3.500   4.575   2.942 -0.7856 -1.0307  0.2334
 2465lim     li13265   0.092   0.986   2.954  0.5286 -0.0947 -0.1150
 2466lim     li13266   5.727   6.305   2.934  0.6101 -0.6781  0.5562
 2467lim     li13267   0.813   3.331   1.932  0.0407 -0.1884 -0.0758
 2468lim     li13268   4.146   6.350   2.940 -0.7668 -0.1136  0.4989
 2469lim     li13269   0.670   1.710   4.563  0.1150 -0.1505  1.2590
 2470lim     li13270   4.873   5.564   6.885 -0.8636 -0.0501  0.0008
 2471lim     li13271   6.128   2.017   2.380 -0.6494  0.3170 -0.0890
 2472lim     li13272   0.480   5.840   6.145  0.7685  0.1303 -0.6494
 2473lim     li13273   4.758   2.883   0.016  0.4291  0.4281 -0.5322
 2474lim     li13274   0.039   3.627   6.237 -0.4961 -0.4219  0.2628
 2475lim     li13275   6.512   0.092   1.815  0.5827  0.9465  0.0037
 2476lim     li13276   0.882   1.307   2.753  0.6299 -0.0751  0.6831
 2477lim     li13277   2.793   2.165   2.623  0.0699  0.4152  0.0774
 2478lim     li13278   3.073   6.034   3.484  0.3190 -0.7045 -0.1108
 2479lim     li13279   4.248   3.853   3.526 -0.6134 -0.2743  1.2280
 2480lim     li13280   0.514   2.536   6.611 -0.7205 -0.2527 -0.3575
 2481lim     li13281   0.640   1.550   5.560  0.6689  0.0601 -2.0109
 2482lim     li13282   2.871   6.667   1.886  0.1883  0.2754 -0.5111
 2483lim     li13283   6.564   2.387   4.428 -0.0668 -0.0071 -1.3015
 2484lim     li13284   4.215   4.943   1.310  0.1273 -0.3577 -0.2962
 2485lim     li13285   4.545   6.130   2.243 -0.1444 -0.2277 -0.3181
 2486lim     li13286   4.025   0.788   4.201 -0.9026 -0.0955  0.1786
 2487lim     li13287   2.513   6.899   1.304  0.4999  0.4301 -0.2788
 2488lim     li13288   0.579   2.990   1.339 -1.8788 -0.1404 -0.8595
 2489lim     li13289   2.094   1.533   3.499  0.2106 -0.0253  0.7382
 2490lim     li13290   0.065   3.181   3.722 -0.3237  0.1265  0.5331
 2491lim     li13291   2.692   1.087   0.489  0.0251 -0.6020  0.5522
 2492lim     li13292   2.447   0.501   3.293  0.0451  0.2976  0.2757
 2493lim     li13293   0.043   1.385   0.589 -0.3855 -0.4420  0.3317
 2494lim     li13294   1.371   2.562   1.401 -0.0916 -0.2969  0.5427
 2495lim     li13295   1.139   1.365   0.950 -0.7397 -0.6219 -0.2424
 2496lim     li13296   4.359   4.431   0.745 -0.2829  0.5961 -1.0618
 2497lim     li13297   1.964   6.329   4.340  0.4093  0.1188  0.5296
 2498lim     li13298   3.941   2.372   2.023  0.1573  0.1824 -0.0279
 2499lim     li13299   4.544   4.138   2.314 -0.1074 -1.0509 -0.0261
 2500lim     li13300   5.903   5.233   3.884 -0.2231  0.0370  0.0038
 2501lim     li13301   2.074   4.635   4.308 -0.0804  0.3831 -0.5113
 2502lim     li13302   1.795   1.769   6.079 -0.7518 -0.9401  0.1160
 2503lim     li13303   1.367   2.828   2.703  0.6070 -0.0337 -0.5461
 2504lim     li13304   1.840   1.939   3.009  0.3143  0.4147 -0.3904
 2505lim     li13305   2.509   5.625   3.690  0.1253  0.0459 -0.2005
 2506lim     li13306   6.753   2.099   3.148 -0.2984  0.0561 -0.5534
 2507lim     li13307   1.139   0.791   3.451 -0.1760 -0.5069  0.0950
 2508lim     li13308   4.848   0.662   4.546  0.4077  0.1112  0.1695
 2509lim     li13309   5.750   6.499   0.463  1.6135 -0.7373  0.7274
 2510lim     li13310   6.151   5.543   5.091 -0.3158 -0.1277  0.1123
 2511lim     li13311   2.527   4.544   2.956 -0.1509  1.1629  0.0932
 2512lim     li13312   6.149   1.899   3.749  1.1131 -0.1980  0.7654
 2513lim     li13313   3.404   2.895   0.900  0.7003  0.2183 -0.0387
 2514lim     li13314   1.003   0.231   5.873 -0.0513 -0.4476 -0.8048
 2515lim     li13315   2.834   6.767   3.633 -0.8140 -1.6300 -1.5846
 2516lim     li13316   4.147   1.700   2.504  0.4856 -0.5655 -0.3845
 2517lim     li13317   6.615   2.422   6.474 -0.9825  0.0802  0.7161
 2518lim     li13318   1.678   4.606   2.030  0.7183 -0.9247 -0.3922
 2519lim     li13319   6.236   1.211   6.110  0.8563 -0.5238  0.1809
 2520lim     li13320   6.059   0.073   4.267  0.9721  0.5492  0.5576
 2521lim     li13321   0.296   0.884   0.940 -0.0999 -0.4140  0.5603
 2522lim     li13322   2.312   5.196   0.118  1.0038 -0.3165 -1.2025
 2523lim     li13323   0.364   5.462   0.167  0.2398  0.9548  0.0793
 2524lim     li13324   4.321   0.512   3.112  0.6675 -1.2370  0.2167
 2525lim     li13325   4.820   5.157   0.258 -0.7001 -0.1565  1.4908
 2526lim     li13326   6.316   1.914   0.531 -0.1266 -1.2170  0.4304
 2527lim     li13327   0.147   0.418   5.594  0.3272 -0.8615 -0.4498
 2528lim     li13328   3.330   2.955   5.325  0.8615  0.7690  0.4053
 2529lim     li13329   1.330   4.352   6.631  0.0201  0.1205 -0.5075
 2530lim     li13330   4.567   2.098   2.749  0.6794  0.1481  0.5792
 2531lim     li13331   0.062   5.687   3.770 -0.3630  0.0935  0.5681
 2532lim     li13332   0.557   2.044   1.544  0.0671 -0.1379  0.4877
 2533lim     li13333   4.783   4.286   1.488 -0.9735 -1.0992  0.7891
 2534lim     li13334   1.138   1.072   6.192 -0.1605 -0.3515  0.4468
 2535lim     li13335   3.000   3.814   3.129  0.2587  0.6283  0.5960
 2536lim     li13336   5.956   3.622   6.441  0.1069 -0.4179 -0.4321
 2537lim     li13337   1.523   2.513   0.567  1.0256  0.2487 -0.4629
 2538lim     li13338   1.935   2.831   1.459  0.2852  0.5438  0.6172
 2539lim     li13339   3.387   5.817   5.916  0.6874  0.3684  0.2927
 2540lim     li13340   3.164   0.321   3.049 -0.4059  1.6027 -0.2286
 2541lim     li13341   4.738   2.271   4.666  0.3972 -0.3936 -0.3806
 2542lim     li13342   6.138   3.841   2.503 -0.2283  0.8749 -1.0570
 2543lim     li13343   6.268   3.569   3.373  0.1873  0.0477  0.7960
 2544lim     li13344   3.707   1.832   0.478  0.4191 -0.1373  0.2851
 2545lim     li13345   3.718   0.481   3.564  0.2539  0.5218  0.2917
 2546lim     li13346   3.873   5.123   5.487 -0.0083 -1.2324 -0.5505
 2547lim     li13347   0.762   5.769   1.567  0.0242  0.9149  0.1496
 2548lim     li13348   0.332   6.518   6.956 -0.0728  0.2454  0.2338
 2549lim     li13349   4.910   2.024   3.708  0.5584  0.7648 -0.8193
 2550lim     li13350   1.768   2.388   5.703  0.0318  0.1564 -0.1038
 2551lim     li13351   3.971   4.049   2.924  0.4520  0.1225 -0.6468
 2552lim     li13352   5.234   2.216   5.304 -0.1814 -0.1620  0.1821
 2553lim     li13353   6.717   2.000   1.518  1.8613  0.7046 -0.8672
 2554lim     li13354   3.484   3.916   6.798 -0.2469  0.5464  1.0825
 2555lim     li13355   3.682   5.995   3.845  0.8750 -0.1892 -0.5924
 2556lim     li13356   1.103   0.365   4.817  0.3944 -0.1815  0.6990
 2557lim     li13357   4.199   5.833   4.461 -0.3689  0.2333  0.2405
 2558lim     li13358   2.376   6.906   5.296  0.7871 -0.7905 -1.3141
 2559lim     li13359   5.694   2.875   5.256  0.0993 -0.1421  1.0028
 2560lim     li13360   3.016   2.955   4.040 -0.2050  0.4278  0.3413
 2561lim     li13361   3.683   6.713   1.114 -0.3307  1.2337 -0.5634
 2562lim     li13362   4.907   1.760   5.343  0.2386 -0.8271  0.9411
 2563lim     li13363   1.627   5.642   5.847 -0.1690 -0.0057  1.1779
 2564lim     li13364   3.316   4.444   4.196 -0.5630  0.2949 -0.8199
 2565lim     li13365   0.880   2.739   5.010  0.9542  0.0572  0.3521
 2566lim     li13366   5.739   2.008   4.365  0.8427  0.2677 -0.6934
 2567lim     li13367   0.014   6.759   5.389  0.2902 -0.9074  1.0718
 2568lim     li13368   0.017   3.441   2.531 -1.1713  0.7292  0.1488
 2569lim     li13369   0.735   6.251   2.459  0.0623 -0.0773 -0.1916
 2570lim     li13370   5.298   3.577   1.391 -0.0195  0.3100  0.4422
 2571lim     li13371   5.873   3.265   1.761  0.2467  0.3424  0.6993
 2572lim     li13372   2.597   4.102   1.908 -0.3422  0.7517  1.2858
 2573lim     li13373   1.255   4.678   2.953  0.5081 -0.3297  0.0596
 2574lim     li13374   2.933   4.236   3.854 -0.4783 -1.0030 -0.3695
 2575lim     li13375   3.113   6.453   4.420 -0.2532 -0.4895  0.3150
 2576lim     li13376   2.475   4.826   0.854 -1.4004 -0.9737 -0.6823
 2577lim     li13377   5.114   5.009   5.175  0.9000  1.4303  0.7326
 2578lim     li13378   2.169   5.891   4.857  0.0527 -0.6208 -0.1509
 2579lim     li13379   3.143   6.995   0.089  0.1934 -0.5953 -0.8770
 2580lim     li13380   2.543   3.443   0.964  0.3969  0.0820 -0.6830
 2581lim     li13381   1.495   3.298   1.443  0.0413 -0.1895  0.3207
 2582lim     li13382   5.411   4.306   5.137  0.4311 -0.3785  0.3555
 2583lim     li13383   2.795   3.125   6.993 -0.4027  0.7562 -0.4677
 2584lim     li13384   3.251   4.652   6.253 -0.1181 -0.5038  0.4086
 2585lim     li13385   5.064   6.347   2.690  0.3999  0.3900 -0.2724
 2586lim     li13386   6.534   1.518   4.221  0.5602  0.2132  0.0117
 2587lim     li13387   1.456   6.681   3.668 -1.2411  0.0990 -0.8057
 2588lim     li13388   0.854   4.602   4.671 -1.5136 -0.3279  0.1129
 2589lim     li13389   6.753   6.543   0.815  0.6919 -0.4844  0.0542
 2590lim     li13390   5.273   2.620   1.599  0.9441 -0.5066  0.5181
 2591lim     li13391   6.328   5.107   6.231 -0.8234 -0.5823  0.1169
 2592lim     li13392   4.335   0.733   1.854 -0.8697  0.3172  0.4049
 2593lim     li13393   3.011   1.906   4.213 -0.0871  0.0699  0.3349
 2594lim     li13394   0.067   0.227   6.897 -0.0917 -0.3623 -0.2359
 2595lim     li13395   5.191   5.218   4.377  0.0999  1.0342 -0.2071
 2596lim     li13396   2.242   2.157   4.457  0.1935 -0.6480 -0.6884
 2597lim     li13397   0.744   2.593   5.842  0.2173  0.2041 -0.0159
 2598lim     li13398   6.055   0.556   6.470 -0.1877  0.7556  0.0984
 2599lim     li13399   1.734   2.048   3.829 -0.7211  0.1251 -0.2908
 2600lim     li13400   4.264   1.122   5.000 -0.3636 -0.8728 -0.3038
 2601lim     li13401   1.165   5.188   3.757  0.2955 -0.1372 -0.3537
 2602lim     li13402   3.052   0.508   6.487 -0.5218  0.6460 -0.8337
 2603lim     li13403   1.476   4.001   4.822 -0.1451 -0.2054  0.2367
 2604lim     li13404   5.496   1.755   2.408  0.2599 -0.0243 -0.2549
 2605lim     li13405   5.604   0.132   2.881 -0.2443  0.3732 -0.3933
 2606lim     li13406   5.758   5.818   0.093  0.2833 -1.1680  0.5187
 2607lim     li13407   6.247   4.410   1.304  0.4016  0.2390  0.2325
 2608lim     li13408   1.845   0.631   3.737  1.1802  0.5286 -1.2557
 2609lim     li13409   3.266   3.627   3.751  0.3373 -0.5341  0.3904
 2610lim     li13410   1.552   6.430   5.441 -0.0569 -0.5398  0.3393
 2611lim     li13411   5.546   1.679   0.611  0.0044 -1.0303  0.3780
 2612lim     li13412   4.768   3.506   1.062 -0.7465 -1.1077 -1.1958
 2613lim     li13413   2.274   0.589   1.628  0.2661 -1.0503 -0.2835
 2614lim     li13414   6.832   4.421   4.823  0.4920 -0.5193  1.0345
 2615lim     li13415   5.782   2.373   0.400  0.5607  0.3915 -0.1789
 2616lim     li13416   4.164   5.059   3.893  0.1841 -0.1046 -0.2049
 2617lim     li13417   0.274   6.016   3.169 -0.4904  0.7390  0.1505
 2618lim     li13418   0.394   2.221   0.689  0.8793 -0.3798  0.0204
 2619lim     li13419   5.623   2.707   3.704  0.3747 -0.4856 -0.3492
 2620lim     li13420   2.351   2.415   3.551  0.8685  1.8861  0.3707
 2621lim     li13421   3.510   2.502   3.388  0.1759  0.2689 -0.2733
 2622lim     li13422   6.863   1.906   5.928  0.2681 -0.3227  0.0847
 2623lim     li13423   1.907   1.431   1.334 -1.0071 -0.0060 -0.0710
 2624lim     li13424   1.588   4.186   2.641  0.5055  0.0876 -0.8142
 2625lim     li13425   6.829   1.856   2.562 -0.5774  0.4965 -0.6258
 2626lim     li13426   2.442   4.971   4.848 -0.2551  0.1901  0.0842
 2627lim     li13427   2.200   6.052   2.007 -0.4117  0.0664 -0.0531
 2628lim     li13428   2.397   5.647   5.488  0.4480  0.4626 -0.1476
 2629lim     li13429   5.720   0.075   0.042  1.3032 -0.5420  0.0353
 2630lim     li13430   1.633   6.131   1.791 -0.4370  0.9392 -0.1417
 2631lim     li13431   3.550   4.867   1.962 -0.1925 -0.7127  0.6988
 2632lim     li13432   2.571   1.165   5.452 -0.0090  1.0184  0.1755
 2633lim     li13433   6.413   6.364   1.471 -0.0834  0.2996  0.4779
 2634lim     li13434   6.302   4.490   2.191  0.6087 -1.4226  0.6984
 2635lim     li13435   0.685   6.922   3.588 -0.6355  0.3843 -0.4099
 2636lim     li13436   3.427   1.218   1.622 -0.4587  0.3000 -0.5933
 2637lim     li13437   4.924   1.024   1.892 -0.9908 -0.9179  0.7329
 2638lim     li13438   1.848   5.336   3.159  0.1767 -0.7045  0.4700
 2639lim     li13439   3.926   6.062   0.573 -0.3022  0.8975 -0.8326
 2640lim     li13440   0.463   6.959   1.054  0.4606  0.3353 -0.4894
 2641lim     li13441   3.110   5.371   6.994  0.1130  0.4216 -0.3398
 2642lim     li13442   0.982   0.583   6.868 -0.2239  0.3615  1.4629
 2643lim     li13443   2.917   6.044   0.005  0.0168 -1.1177  1.0040
 2644lim     li13444   3.191   4.776   1.061  0.5034 -0.0293 -0.7952
 2645lim     li13445   0.064   5.472   4.812 -0.6844  0.8989 -0.6540
 2646lim     li13446   0.739   4.568   0.683  0.3024 -0.4312 -0.4071
 2647lim     li13447   5.028   0.029   2.503 -0.3583  0.6182  1.1984
 2648lim     li13448   3.106   1.946   6.530 -0.4603  0.1649 -0.4723
 2649lim     li13449   1.628   6.289   0.207 -0.2227  1.0278  0.2447
 2650lim     li13450   3.431   3.027   2.660  0.5244 -0.0962  0.3684
 2651lim     li13451   4.718   5.754   6.006 -0.2835  0.4249 -0.8765
 2652lim     li13452   1.346   6.344   1.082 -0.6332  0.2026  0.0656
 2653lim     li13453   1.093   0.466   2.036 -0.5419  0.0055  0.0237
 2654lim     li13454   0.401   4.298   1.896  0.4433  0.0239 -0.7691
 2655lim     li13455   4.028   4.717   6.107  0.1237  1.1892 -0.2745
 2656lim     li13456   6.873   1.238   3.571  0.1065  0.4901  0.3779
 2657lim     li13457   5.276   3.583   5.503 -0.3302 -0.7238  0.1245
 2658lim     li13458   5.817   3.274   5.659  1.0415  0.2474 -0.2920
 2659lim     li13459   2.639   2.224   5.227  0.5370  0.1566 -0.2823
 2660lim     li13460   2.880   1.368   0.987 -0.1568 -0.6333 -0.0273
 2661lim     li13461   3.940   6.787   1.789  0.5638 -0.3004  0.2766
 2662lim     li13462   1.176   2.177   3.174 -1.2175 -0.5252  0.5665
 2663lim     li13463   3.132   1.597   3.393  0.7910  1.3012 -0.1005
 2664lim     li13464   1.080   5.415   6.286  0.3846  0.2746  0.7753
 2665lim     li13465   4.093   3.940   5.402  0.6536  0.7238 -0.3731
 2666lim     li13466   3.679   2.590   0.363 -1.3277 -1.5992 -0.0602
 2667lim     li13467   4.927   0.179   1.178 -0.8336 -0.6439  0.8357
 2668lim     li13468   5.975   4.093   5.993  0.7472  0.1535 -0.6075
 2669lim     li13469   1.295   4.889   6.065 -0.7470 -1.0983  0.0407
 2670lim     li13470   3.974   6.939   4.932  0.0141 -0.8018 -0.5459
 2671lim     li13471   3.867   5.303   6.479 -0.4909 -0.3040 -1.4123
 2672lim     li13472   3.415   5.147   3.317  0.0608 -0.5261 -0.2417
 2673lim     li13473   3.825   1.077   2.197  0.8687 -0.4058 -1.1367
 2674lim     li13474   6.780   3.117   5.121  0.6722 -0.4721  0.4879
 2675lim     li13475   5.484   0.254   5.850 -0.2745  0.6101  0.0617
 2676lim     li13476   2.723   1.062   3.973 -0.2852 -1.1926 -0.7717
 2677lim     li13477   6.154   6.425   4.582  0.1711  0.1706 -2.1466
 2678lim     li13478   4.798   2.609   2.142  0.5149 -0.2607  0.3366
 2679lim     li13479   6.079   3.395   6.898 -0.5104  0.3530 -0.3703
 2680lim     li13480   1.543   1.530   2.254  0.4650 -0.9366  0.9895
 2681lim     li13481   1.963   5.957   6.655  0.9671 -0.0053 -0.2612
 2682lim     li13482   5.425   4.359   2.602 -0.9681  0.9812  0.4786
 2683lim     li13483   2.442   6.178   2.904 -0.4336 -0.2366  0.8816
 2684lim     li13484   1.484   6.375   6.091  0.5070 -0.0655 -0.3506
 2685lim     li13485   4.170   0.058   6.401  0.6662  1.0694 -0.0199
 2686lim     li13486   3.046   3.929   0.556 -0.5150  0.1931  0.3879
 2687lim     li13487   3.905   0.339   2.541  0.0258  0.6154  0.2151
 2688lim     li13488   2.487   3.280   3.152  0.5448 -0.5875 -0.3089
 2689lim     li13489   3.011   0.226   0.974 -0.7441  0.4994 -0.3119
 2690lim     li13490   5.194   2.045   6.649  1.1825  0.6943  0.6662
 2691lim     li13491   5.409   1.253   5.362 -0.4185  0.3700 -0.3295
 2692lim     li13492   6.128   2.305   5.075 -0.1434 -0.4978 -0.2389
 2693lim     li13493   6.767   0.017   4.284  0.1684  0.4313 -0.0076
 2694lim     li13494   4.348   3.732   1.957  0.3237  0.6861 -0.2174
 2695lim     li13495   6.065   1.492   1.709  0.3251 -0.2128 -0.9322
 2696lim     li13496   4.701   3.713   0.350  0.1469 -0.1600  0.2786
 2697lim     li13497   4.166   0.952   0.376  0.4312 -0.5302 -0.0138
 2698lim     li13498   1.162   5.437   2.302  0.3210 -0.8714 -0.1130
 2699lim     li13499   0.038   6.810   3.441 -0.5577 -0.0530 -0.6105
 2700lim     li13500   2.808   1.277   2.011  0.0544  0.6014 -0.2217
 2701ntf    cn113501   2.142   1.439   4.041 -0.1452  0.1681 -0.2267
 2701ntf    sn213502   1.968   1.415   4.086 -0.0977  0.1261 -0.0648
 2701ntf    nn313503   1.903   1.539   4.013 -0.0989 -0.2494 -0.7032
 2701ntf    sn213504   1.751   1.561   3.981 -0.2103  0.0667  0.0302
 2701ntf    cn113505   1.725   1.697   4.099  0.6623  0.0471  0.2510
 2701ntf    fn413506   2.171   1.568   4.040 -0.0315  0.1494  0.2743
 2701ntf    fn413507   2.229   1.385   4.125  0.0695 -0.5230 -0.8834
 2701ntf    fn413508   2.169   1.397   3.919  0.2086 -0.6937  0.1377
 2701ntf    on513509   1.944   1.290   4.020  0.3535  0.0999 -0.1817
 2701ntf    on513510   1.963   1.422   4.230  0.3262 -0.3874 -0.0237
 2701ntf    on513511   1.660   1.460   4.028 -0.1016 -0.0428  0.0075
 2701ntf    on513512   1.726   1.613   3.849  0.1401 -0.0877 -0.1001
 2701ntf    fn413513   1.696   1.661   4.223  0.2797  0.2166  0.2109
 2701ntf    fn413514   1.835   1.770   4.104  0.5828  0.1469  0.5322
 2701ntf    fn413515   1.633   1.778   4.050  0.7363 -0.1366 -0.2005
 2702ntf    cn113516   5.652   2.311   1.103 -0.0387  0.2187 -0.1451
 2702ntf    sn213517   5.742   2.218   0.975 -0.1056  0.0291 -0.0548
 2702ntf    nn313518   5.881   2.291   0.972  0.0985 -0.3609 -0.2202
 2702ntf    sn213519   6.012   2.252   0.894  0.2811 -0.1120 -0.0393
 2702ntf    cn113520   6.109   2.169   1.023  0.3174  0.0185  0.0183
 2702ntf    fn413521   5.588   2.420   1.065 -0.4444  0.0496  0.0495
 2702ntf    fn413522   5.559   2.232   1.155 -0.1822  0.1490 -0.5028
 2702ntf    fn413523   5.732   2.360   1.197 -0.1003 -0.3831  0.2283
 2702ntf    on513524   5.744   2.087   1.035 -0.1716 -0.1290 -0.3979
 2702ntf    on513525   5.663   2.242   0.857 -0.2465 -0.7107 -0.1128
 2702ntf    on513526   6.091   2.367   0.859  0.2694 -0.1071 -0.0506
 2702ntf    on513527   5.994   2.156   0.788 -0.0286  0.1033 -0.1831
 2702ntf    fn413528   6.087   2.216   1.144 -0.6181 -0.1598 -0.0750
 2702ntf    fn413529   6.082   2.039   1.033  0.3636  0.0108  0.0475
 2702ntf    fn413530   6.237   2.176   0.991  0.2639 -0.3182 -0.2859
 2703ntf    cn113531   5.114   3.925   4.675 -0.0382 -0.5411 -0.3814
 2703ntf    sn213532   5.273   3.846   4.636  0.2523 -0.2719  0.2306
 2703ntf    nn313533   5.352   3.973   4.588 -0.0695 -0.2326 -0.2006
 2703ntf    sn213534   5.462   4.052   4.667 -0.2983 -0.0150 -0.0996
 2703ntf    cn113535   5.605   3.944   4.639 -0.1458  0.2069 -0.1801
 2703ntf    fn413536   5.017   3.839   4.698 -0.0472 -0.4477 -0.0647
 2703ntf    fn413537   5.126   4.001   4.783 -0.0424 -0.1887 -0.6261
 2703ntf    fn413538   5.078   4.000   4.572  0.1896 -0.0591 -0.1156
 2703ntf    on513539   5.319   3.778   4.754 -0.7079 -0.4781  0.4922
 2703ntf    on513540   5.247   3.770   4.516 -0.4613  0.2496  0.0468
 2703ntf    on513541   5.444   4.058   4.810  0.2419 -0.4233 -0.0125
 2703ntf    on513542   5.499   4.181   4.616 -0.2214 -0.0042 -0.0166
 2703ntf    fn413543   5.584   3.825   4.695  0.1001  0.2823  0.0750
 2703ntf    fn413544   5.633   3.921   4.512 -0.4181 -0.3902 -0.1388
 2703ntf    fn413545   5.714   3.994   4.694  0.0586 -0.2428 -0.1664
 2704ntf    cn113546   0.173   1.653   4.149  0.2830  0.1104  0.2039
 2704ntf    sn213547   0.166   1.492   4.066  0.1919  0.2840 -0.1239
 2704ntf    nn313548   0.297   1.425   4.119  0.0032 -0.2711 -0.3535
 2704ntf    sn213549   0.439   1.423   4.052  0.2765  0.0712  0.2110
 2704ntf    cn113550   0.422   1.292   3.928  0.1371  0.0248  0.2794
 2704ntf    fn413551   0.163   1.645   4.281 -0.7302 -0.3348  0.1116
 2704ntf    fn413552   0.291   1.711   4.135  0.2946 -0.1290 -0.6940
 2704ntf    fn413553   0.073   1.736   4.122  0.0809 -0.1613  0.1227
 2704ntf    on513554   0.045   1.442   4.125  0.3846  0.0432  0.0663
 2704ntf    on513555   0.174   1.532   3.927  0.2521  0.2054 -0.1433
 2704ntf    on513556   0.542   1.370   4.138  0.3992 -0.1356 -0.0643
 2704ntf    on513557   0.480   1.542   3.980  0.4950 -0.0249  0.1744
 2704ntf    fn413558   0.323   1.321   3.845 -0.0501 -0.0751  0.4676
 2704ntf    fn413559   0.526   1.271   3.848  0.0305  0.8723 -0.0881
 2704ntf    fn413560   0.389   1.179   3.989  0.0628 -0.3500 -0.4451
 2705ntf    cn113561   1.662   1.380   6.266  0.3479  0.0151  0.1524
 2705ntf    sn213562   1.665   1.267   6.124 -0.3527 -0.0542  0.1890
 2705ntf    nn313563   1.659   1.367   6.003  0.0927 -0.2498  0.0011
 2705ntf    sn213564   1.704   1.342   5.855 -0.0902  0.0009 -0.0976
 2705ntf    cn113565   1.540   1.365   5.778 -0.3730 -0.0620  0.4816
 2705ntf    fn413566   1.541   1.431   6.284  0.0197 -0.6043 -0.2700
 2705ntf    fn413567   1.686   1.315   6.378  0.0862  0.1598  0.2942
 2705ntf    fn413568   1.745   1.483   6.264 -0.0810  0.3623  0.0145
 2705ntf    on513569   1.796   1.208   6.141 -0.2564  0.2031  0.3341
 2705ntf    on513570   1.544   1.190   6.142 -0.2577 -0.3268 -0.3102
 2705ntf    on513571   1.743   1.209   5.814 -0.1926  0.0803 -0.4600
 2705ntf    on513572   1.780   1.446   5.790  0.1292 -0.0105  0.1414
 2705ntf    fn413573   1.559   1.403   5.653  0.2350 -0.2777  0.5025
 2705ntf    fn413574   1.467   1.256   5.772  0.1695 -0.3695 -0.7834
 2705ntf    fn413575   1.469   1.464   5.829 -0.1277  0.2451  0.2332
 2706ntf    cn113576   0.533   3.984   5.912 -0.0018  0.0983  0.1941
 2706ntf    sn213577   0.624   3.827   5.919 -0.1031  0.0271 -0.0530
 2706ntf    nn313578   0.500   3.731   5.903 -0.0656 -0.0438  0.0750
 2706ntf    sn213579   0.467   3.601   5.984 -0.1174 -0.0480  0.0470
 2706ntf    cn113580   0.511   3.484   5.853 -0.1512  0.0759 -0.0758
 2706ntf    fn413581   0.612   4.089   5.931  0.1850  0.0428 -0.2532
 2706ntf    fn413582   0.479   3.998   5.792 -0.2273 -0.4078  0.2366
 2706ntf    fn413583   0.436   3.986   6.002  0.0887  0.3287  0.2871
 2706ntf    on513584   0.708   3.832   5.802  0.3327 -0.6384  0.2279
 2706ntf    on513585   0.700   3.837   6.041  0.4444  0.5174 -0.4296
 2706ntf    on513586   0.326   3.575   6.003 -0.1033 -0.1857 -0.0402
 2706ntf    on513587   0.545   3.559   6.098 -0.0133 -0.1244 -0.0536
 2706ntf    fn413588   0.461   3.363   5.876  0.4778 -0.1780 -0.0210
 2706ntf    fn413589   0.466   3.530   5.738  0.5344  0.1182 -0.3299
 2706ntf    fn413590   0.642   3.471   5.839 -0.0534  0.3567  0.5449
 2707ntf    cn113591   0.188   2.436   4.657  0.7149  0.1452 -0.2245
 2707ntf    sn213592   0.233   2.311   4.781  0.4391  0.1709 -0.0982
 2707ntf    nn313593   0.386   2.344   4.793  0.5117 -0.1829 -0.0299
 2707ntf    sn213594   0.481   2.374   4.915  0.1565  0.1698  0.1658
 2707ntf    cn113595   0.599   2.237   4.892  0.0751  0.1111  0.0964
 2707ntf    fn413596   0.254   2.432   4.542  0.1521 -0.4038 -0.5378
 2707ntf    fn413597   0.065   2.416   4.611  0.7160 -0.3894 -0.0009
 2707ntf    fn413598   0.194   2.561   4.698 -0.5446 -0.0948  0.7642
 2707ntf    on513599   0.148   2.348   4.892 -0.1412 -0.0447 -0.4653
 2707ntf    on513600   0.210   2.181   4.723  0.4806  0.4243 -0.6854
 2707ntf    on513601   0.433   2.343   5.047 -0.0253 -0.4560 -0.0410
 2707ntf    on513602   0.563   2.491   4.897  0.3748  0.0169  0.1555
 2707ntf    fn413603   0.686   2.253   4.793  0.0025 -0.0096  0.0129
 2707ntf    fn413604   0.671   2.230   5.002 -0.4973  0.2859  0.4868
 2707ntf    fn413605   0.540   2.119   4.876  0.3131  0.0076 -0.0216
 2708ntf    cn113606   2.318   0.715   6.532 -0.4781 -0.3455  0.4154
 2708ntf    sn213607   2.238   0.691   6.370 -0.2444  0.5211  0.1675
 2708ntf    nn313608   2.112   0.611   6.418 -0.0269 -0.0496 -0.2068
 2708ntf    sn213609   1.991   0.559   6.332 -0.0906 -0.2671  0.0152
 2708ntf    cn113610   1.852   0.661   6.390  0.1409  0.2688 -0.3720
 2708ntf    fn413611   2.346   0.600   6.591 -0.1792 -0.4640  0.0466
 2708ntf    fn413612   2.436   0.771   6.510 -0.8383  0.3771  0.3272
 2708ntf    fn413613   2.251   0.794   6.614 -0.0416  0.2626  0.1931
 2708ntf    on513614   2.206   0.825   6.326  0.1653  0.4454 -0.3722
 2708ntf    on513615   2.337   0.622   6.291 -0.4521  0.7090 -0.2607
 2708ntf    on513616   1.947   0.425   6.364 -0.0713 -0.2256  0.2179
 2708ntf    on513617   1.998   0.589   6.191 -0.5605  0.2732  0.1008
 2708ntf    fn413618   1.843   0.660   6.522  0.0216  0.0186 -0.3828
 2708ntf    fn413619   1.847   0.787   6.348 -0.6074  0.3118 -0.1642
 2708ntf    fn413620   1.740   0.603   6.351 -0.0635  0.4028  0.0108
 2709ntf    cn113621   0.395   6.628   5.877 -0.3921 -0.0875  0.0278
 2709ntf    sn213622   0.401   6.787   5.790  0.2644 -0.0961  0.0564
 2709ntf    nn313623   0.536   6.767   5.712  0.2148 -0.2981  0.0223
 2709ntf    sn213624   0.630   6.879   5.654 -0.4043  0.0436 -0.3355
 2709ntf    cn113625   0.728   6.783   5.534  0.1847  0.2262 -0.0046
 2709ntf    fn413626   0.487   6.609   5.970 -0.1143  0.5679 -0.1139
 2709ntf    fn413627   0.280   6.607   5.940 -0.4278 -0.4625 -0.1593
 2709ntf    fn413628   0.411   6.525   5.796  0.2681 -0.0897  0.1606
 2709ntf    on513629   0.291   6.778   5.697  0.3940  0.1553 -0.1220
 2709ntf    on513630   0.393   6.884   5.897  0.5812  0.1594 -0.1488
 2709ntf    on513631   0.725   6.930   5.749  0.1283  0.0600 -0.8689
 2709ntf    on513632   0.564   6.981   5.577 -0.1847  0.2466 -0.2546
 2709ntf    fn413633   0.823   6.861   5.486  0.3357  0.1924  0.2358
 2709ntf    fn413634   0.775   6.676   5.596 -0.0696 -0.1119 -0.3894
 2709ntf    fn413635   0.654   6.745   5.431 -0.3683 -0.1212  0.5085
 2710ntf    cn113636   5.194   5.249   6.458 -0.1119  0.1073 -0.2961
 2710ntf    sn213637   5.156   5.317   6.623 -0.3024 -0.0578 -0.2700
 2710ntf    nn313638   5.048   5.219   6.680 -0.0563 -0.0024  0.3010
 2710ntf    sn213639   4.930   5.249   6.779  0.0595  0.1130  0.4031
 2710ntf    cn113640   4.784   5.221   6.675  0.3943 -0.0818 -0.0160
 2710ntf    fn413641   5.085   5.219   6.390 -0.5584  0.0661  0.4200
 2710ntf    fn413642   5.251   5.345   6.388 -0.2219  0.1998 -0.2592
 2710ntf    fn413643   5.282   5.151   6.453 -0.0781  0.1482 -0.5150
 2710ntf    on513644   5.281   5.308   6.695 -0.4262  0.3614  0.0001
 2710ntf    on513645   5.105   5.449   6.593  0.1244  0.2266  0.2400
 2710ntf    on513646   4.924   5.389   6.813 -0.2866  0.2574 -0.2358
 2710ntf    on513647   4.907   5.161   6.891  0.0336 -0.0928  0.2356
 2710ntf    fn413648   4.796   5.295   6.566 -0.3779 -0.2920 -0.2508
 2710ntf    fn413649   4.763   5.096   6.637 -0.4294  0.1741 -0.4394
 2710ntf    fn413650   4.674   5.257   6.738  0.4747 -0.3955  0.3040
 2711ntf    cn113651   5.415   6.833   1.473 -0.0307 -0.1150 -0.1952
 2711ntf    sn213652   5.258   6.836   1.383 -0.1102 -0.2122 -0.0602
 2711ntf    nn313653   5.173   6.886   1.506  0.0396 -0.0374 -0.0288
 2711ntf    sn213654   5.069   6.805   1.590  0.0730 -0.0677 -0.0173
 2711ntf    cn113655   5.101   6.876   1.755  0.1799  0.0998 -0.1101
 2711ntf    fn413656   5.521   6.853   1.395 -0.0509 -0.3910 -0.2938
 2711ntf    fn413657   5.423   6.930   1.563  0.2514  0.0157 -0.3586
 2711ntf    fn413658   5.435   6.725   1.548 -0.5044  0.0270  0.1432
 2711ntf    on513659   5.280   6.938   1.284 -0.1994 -0.1668 -0.0335
 2711ntf    on513660   5.245   6.702   1.331  0.2235 -0.1750 -0.2380
 2711ntf    on513661   5.093   6.664   1.607 -0.1906 -0.0593  0.4664
 2711ntf    on513662   4.935   6.851   1.565  0.2986  0.4908 -0.2162
 2711ntf    fn413663   5.068   7.004   1.758  0.7630  0.2553 -0.1553
 2711ntf    fn413664   5.027   6.822   1.850 -0.2202  0.2282 -0.3485
 2711ntf    fn413665   5.225   6.856   1.797 -0.0075  0.0081  0.3994
 2712ntf    cn113666   3.519   3.284   5.866 -0.0480 -0.0902 -0.0638
 2712ntf    sn213667   3.603   3.137   5.800  0.0306 -0.1522  0.1753
 2712ntf    nn313668   3.730   3.204   5.738 -0.2629 -0.2540 -0.5438
 2712ntf    sn213669   3.799   3.176   5.600  0.3684 -0.2278 -0.2392
 2712ntf    cn113670   3.726   3.305   5.495  0.0487 -0.0590  0.1878
 2712ntf    fn413671   3.506   3.369   5.764  0.4047 -0.4529 -0.4275
 2712ntf    fn413672   3.400   3.265   5.920 -0.0557  0.2272  0.0373
 2712ntf    fn413673   3.577   3.345   5.968 -0.6138 -0.0785  0.2541
 2712ntf    on513674   3.633   3.057   5.916  0.0313  0.2956  0.4860
 2712ntf    on513675   3.510   3.083   5.704 -0.5891  0.6565  0.3083
 2712ntf    on513676   3.769   3.052   5.532 -0.4345 -0.3591  0.3373
 2712ntf    on513677   3.937   3.217   5.601  0.2238  0.2596 -0.1466
 2712ntf    fn413678   3.798   3.317   5.384 -0.3759  0.4571 -0.0396
 2712ntf    fn413679   3.602   3.278   5.460  0.3182 -0.2245 -0.6788
 2712ntf    fn413680   3.727   3.425   5.551 -0.0088 -0.0014  0.0656
 2713ntf    cn113681   6.061   6.732   3.860  0.1924 -0.0952 -0.1907
 2713ntf    sn213682   5.951   6.632   3.964  0.1593  0.1591  0.0218
 2713ntf    nn313683   6.037   6.500   3.970 -0.2086 -0.0582  0.6008
 2713ntf    sn213684   5.986   6.352   3.983 -0.3716 -0.0573 -0.0103
 2713ntf    cn113685   5.960   6.318   3.806 -0.1727  0.1251 -0.0753
 2713ntf    fn413686   6.013   6.852   3.831  0.5208  0.1338  0.1880
 2713ntf    fn413687   6.181   6.745   3.916  0.0571  0.4660 -0.0181
 2713ntf    fn413688   6.079   6.676   3.742  0.2990 -0.2089 -0.1210
 2713ntf    on513689   5.951   6.702   4.090  0.1481  0.0988  0.0553
 2713ntf    on513690   5.819   6.617   3.907  0.2882 -0.0835 -0.2197
 2713ntf    on513691   5.858   6.332   4.045 -0.3120 -0.7713 -0.1140
 2713ntf    on513692   6.085   6.258   4.030  0.0596  0.3285 -0.1359
 2713ntf    fn413693   6.064   6.358   3.734 -0.4596  0.1074 -0.5030
 2713ntf    fn413694   5.951   6.190   3.773 -0.2714  0.1250 -0.0498
 2713ntf    fn413695   5.858   6.383   3.753  0.1605  0.3749 -0.4125
 2714ntf    cn113696   2.245   0.499   4.149 -0.3858 -0.2429 -0.0163
 2714ntf    sn213697   2.419   0.540   4.118 -0.2592 -0.1449  0.8058
 2714ntf    nn313698   2.458   0.603   4.257 -0.1343  0.3466  0.5500
 2714ntf    sn213699   2.547   0.726   4.297  0.0313  0.4142 -0.0128
 2714ntf    cn113700   2.433   0.867   4.288 -0.1734  0.2417 -0.1526
 2714ntf    fn413701   2.237   0.403   4.240 -0.1055 -0.1071  0.1518
 2714ntf    fn413702   2.178   0.607   4.185 -0.1371 -0.0540 -0.1126
 2714ntf    fn413703   2.184   0.452   4.041 -0.0453 -0.1263 -0.2630
 2714ntf    on513704   2.475   0.408   4.099 -0.2585 -0.0057 -0.2458
 2714ntf    on513705   2.407   0.633   4.009 -0.0706  0.1964  1.0759
 2714ntf    on513706   2.659   0.749   4.209  0.1753 -0.0566  0.0410
 2714ntf    on513707   2.583   0.715   4.436  0.4156 -0.3756 -0.1680
 2714ntf    fn413708   2.497   0.982   4.272  0.3560 -0.0566 -0.2338
 2714ntf    fn413709   2.347   0.850   4.188 -0.2382  0.1820 -0.0868
 2714ntf    fn413710   2.362   0.884   4.398  0.0203 -0.1141  0.0301
 2715ntf    cn113711   4.573   2.086   2.099 -0.5509 -0.2077 -0.0341
 2715ntf    sn213712   4.649   2.128   2.258 -0.1137  0.4064 -0.3982
 2715ntf    nn313713   4.783   2.047   2.249  0.0891  0.6442  0.3969
 2715ntf    sn213714   4.929   2.096   2.220  0.1502  0.1831 -0.0982
 2715ntf    cn113715   4.976   2.109   2.395  0.2038  0.0133 -0.1005
 2715ntf    fn413716   4.587   1.960   2.062  0.1836 -0.2519  0.3894
 2715ntf    fn413717   4.444   2.115   2.100 -0.5037  0.0136 -0.1795
 2715ntf    fn413718   4.622   2.167   2.007 -0.4944 -0.3972 -0.1714
 2715ntf    on513719   4.659   2.272   2.266  0.2920  0.3412  0.4233
 2715ntf    on513720   4.562   2.062   2.352 -0.1418  0.2218 -0.5538
 2715ntf    on513721   4.936   2.232   2.172  0.3316  0.3927  0.5141
 2715ntf    on513722   5.024   1.996   2.179 -0.0081 -0.1277  0.2928
 2715ntf    fn413723   4.915   2.198   2.472  0.0895 -0.3811  0.2708
 2715ntf    fn413724   4.960   1.994   2.460  0.4314 -0.2847 -0.5652
 2715ntf    fn413725   5.104   2.140   2.411  0.1310  0.4124 -0.2933
 2716ntf    cn113726   3.665   4.933   4.086  0.0363 -0.2081  0.0973
 2716ntf    sn213727   3.773   4.883   4.223  0.3400 -0.0486 -0.0834
 2716ntf    nn313728   3.734   4.733   4.247 -0.1748  0.0402 -0.3589
 2716ntf    sn213729   3.765   4.643   4.372  0.0582  0.3643 -0.1808
 2716ntf    cn113730   3.901   4.545   4.302 -0.3606 -0.3884  0.0484
 2716ntf    fn413731   3.541   4.893   4.108 -0.0397  0.1133  0.2645
 2716ntf    fn413732   3.664   5.065   4.085  0.0224 -0.2077 -0.4391
 2716ntf    fn413733   3.707   4.886   3.969  0.2611 -0.4037  0.2564
 2716ntf    on513734   3.907   4.907   4.175  0.1248 -0.0844 -0.7119
 2716ntf    on513735   3.725   4.968   4.330 -0.0298 -0.4322  0.0586
 2716ntf    on513736   3.652   4.554   4.386  0.3640  0.0957  0.6450
 2716ntf    on513737   3.817   4.706   4.491 -0.0923 -0.3754  0.2876
 2716ntf    fn413738   3.874   4.484   4.188  0.4639  0.1652 -0.4533
 2716ntf    fn413739   4.007   4.618   4.273 -0.7304  0.1897  0.1214
 2716ntf    fn413740   3.945   4.453   4.386  0.3359 -0.0575  0.0537
 2717ntf    cn113741   2.694   3.769   5.441 -0.0313 -0.1027  0.4873
 2717ntf    sn213742   2.588   3.916   5.448  0.0051 -0.0671  0.3000
 2717ntf    nn313743   2.493   3.874   5.331  0.1799 -0.5493  0.3304
 2717ntf    sn213744   2.338   3.897   5.323  0.2695  0.0662  0.3132
 2717ntf    cn113745   2.339   4.050   5.225  0.0375  0.0440  0.2744
 2717ntf    fn413746   2.756   3.755   5.325  0.0726 -0.0803  0.5395
 2717ntf    fn413747   2.788   3.765   5.534  0.0475  0.0138  0.4141
 2717ntf    fn413748   2.622   3.659   5.452  0.1369 -0.2209  0.4205
 2717ntf    on513749   2.529   3.905   5.579 -0.0261  0.1699  0.3074
 2717ntf    on513750   2.678   4.026   5.426 -0.2289  0.1245  0.2884
 2717ntf    on513751   2.265   3.931   5.443  0.2607  0.1470  0.2850
 2717ntf    on513752   2.277   3.794   5.242  0.3300  0.0346  0.3076
 2717ntf    fn413753   2.382   4.023   5.103 -0.2914 -0.0294  0.1743
 2717ntf    fn413754   2.222   4.110   5.217  0.0383  0.0476  0.2937
 2717ntf    fn413755   2.420   4.143   5.274  0.2209 -0.1837  0.4049
 2718ntf    cn113756   1.671   1.400   0.614 -0.1269  0.2651  0.4236
 2718ntf    sn213757   1.656   1.222   0.645 -0.3549  0.1260 -0.4639
 2718ntf    nn313758   1.797   1.176   0.696 -0.4439 -0.4880 -0.7568
 2718ntf    sn213759   1.934   1.166   0.620 -0.1002  0.0537 -0.2209
 2718ntf    cn113760   2.046   1.257   0.731  0.5415 -0.2518 -0.6139
 2718ntf    fn413761   1.744   1.411   0.505 -0.2037 -0.1814  0.3259
 2718ntf    fn413762   1.555   1.459   0.587  0.1357  0.7299  0.3050
 2718ntf    fn413763   1.730   1.460   0.716  0.0139  0.0991  0.4399
 2718ntf    on513764   1.556   1.218   0.749  0.3066  0.4032  0.1877
 2718ntf    on513765   1.623   1.172   0.514  0.1458 -0.3862 -0.3987
 2718ntf    on513766   1.939   1.247   0.501  0.1148 -0.0131 -0.2575
 2718ntf    on513767   1.999   1.037   0.618 -0.3881 -0.0884 -0.6296
 2718ntf    fn413768   2.176   1.247   0.705  0.6696 -0.1126 -0.0346
 2718ntf    fn413769   2.015   1.385   0.734 -0.0661 -0.4097  0.0103
 2718ntf    fn413770   2.034   1.219   0.857 -0.1692  0.1201 -0.5667
 2719ntf    cn113771   2.036   5.581   4.305 -0.1569 -0.2636 -0.0839
 2719ntf    sn213772   2.022   5.454   4.175  0.1493 -0.4102  0.0245
 2719ntf    nn313773   1.938   5.534   4.070 -0.4589 -0.0808  0.7553
 2719ntf    sn213774   1.984   5.610   3.941 -0.0340 -0.3663  0.7396
 2719ntf    cn113775   1.979   5.470   3.825  0.2187 -0.2553  0.5921
 2719ntf    fn413776   1.925   5.646   4.335  0.0868 -0.0383  0.3477
 2719ntf    fn413777   2.090   5.526   4.413  0.3205 -0.3487 -0.3611
 2719ntf    fn413778   2.126   5.666   4.259 -0.4601  0.0953 -0.0195
 2719ntf    on513779   2.158   5.421   4.140  0.4034 -0.2046  0.8043
 2719ntf    on513780   1.946   5.357   4.250 -0.2239  0.3695  0.6683
 2719ntf    on513781   2.124   5.647   3.942 -0.3814  1.0061  0.6626
 2719ntf    on513782   1.888   5.704   3.888  0.5552 -0.1476  0.0336
 2719ntf    fn413783   2.026   5.359   3.878  0.1092 -0.2918  0.6122
 2719ntf    fn413784   1.851   5.439   3.813  0.0898  0.6003 -0.3818
 2719ntf    fn413785   2.029   5.493   3.705  0.1519 -0.6536  0.4894
 2720ntf    cn113786   1.002   2.130   0.945  0.0222 -0.2480  0.4875
 2720ntf    sn213787   0.821   2.123   0.933  0.0262  0.3732  0.0438
 2720ntf    nn313788   0.779   2.186   1.071  0.0446  0.0126  0.2143
 2720ntf    sn213789   0.643   2.260   1.099 -0.1840 -0.1907 -0.3406
 2720ntf    cn113790   0.661   2.413   1.002  0.4464 -0.1347 -0.1399
 2720ntf    fn413791   1.040   2.257   0.955 -0.6351 -0.0385  0.3497
 2720ntf    fn413792   1.041   2.060   1.051  0.0150 -0.1455  0.5585
 2720ntf    fn413793   1.062   2.073   0.842 -0.5595 -0.2802  0.1656
 2720ntf    on513794   0.794   2.218   0.828  0.0826  0.2453 -0.0874
 2720ntf    on513795   0.794   1.982   0.917  0.1232  0.4251 -0.5966
 2720ntf    on513796   0.640   2.303   1.236 -0.2978  0.1208 -0.4400
 2720ntf    on513797   0.526   2.204   1.035  0.2270 -0.1382 -1.1624
 2720ntf    fn413798   0.775   2.475   1.027  0.3185  0.1046 -0.1536
 2720ntf    fn413799   0.651   2.393   0.872  0.5937  0.0940 -0.1862
 2720ntf    fn413800   0.573   2.504   1.040  0.3417 -0.2658 -0.0674
 2721ntf    cn113801   2.005   6.269   0.995 -0.1140  0.0366  0.1192
 2721ntf    sn213802   1.889   6.215   1.123 -0.3099 -0.0988 -0.1153
 2721ntf    nn313803   1.892   6.349   1.205 -0.4534 -0.1051 -0.0999
 2721ntf    sn213804   1.812   6.481   1.176 -0.6144 -0.1376  0.1893
 2721ntf    cn113805   1.953   6.595   1.190 -0.6077 -0.1043 -0.1413
 2721ntf    fn413806   1.959   6.368   0.920 -0.2422  0.0330  0.1938
 2721ntf    fn413807   2.116   6.323   1.043  0.0994 -0.0905 -0.2271
 2721ntf    fn413808   2.028   6.169   0.911  0.2414 -0.1325  0.4166
 2721ntf    on513809   1.762   6.186   1.061 -0.5736 -0.3013  0.5098
 2721ntf    on513810   1.960   6.104   1.181  0.3482  0.3243 -0.1076
 2721ntf    on513811   1.729   6.530   1.283 -0.3698  0.0450  0.2965
 2721ntf    on513812   1.766   6.505   1.041  0.0382 -0.1371 -0.0400
 2721ntf    fn413813   2.019   6.614   1.077  0.2608 -0.0265  0.3683
 2721ntf    fn413814   1.928   6.717   1.235  0.1482 -0.1366  0.4017
 2721ntf    fn413815   2.041   6.544   1.274  0.0315  0.3336 -0.5375
 2722ntf    cn113816   4.829   0.878   5.216 -0.0607  0.1191  0.3986
 2722ntf    sn213817   4.785   0.719   5.291 -0.0631 -0.0372  0.0648
 2722ntf    nn313818   4.824   0.748   5.440 -0.5220 -0.1294  0.2041
 2722ntf    sn213819   4.907   0.659   5.539 -0.1497 -0.0114  0.0003
 2722ntf    cn113820   4.845   0.716   5.700 -0.1025 -0.0127  0.0193
 2722ntf    fn413821   4.777   0.982   5.279  0.3716  0.2079  0.6141
 2722ntf    fn413822   4.960   0.894   5.211 -0.0932  0.1550 -0.3205
 2722ntf    fn413823   4.780   0.880   5.094  0.6181  0.0037  0.1210
 2722ntf    on513824   4.642   0.709   5.270 -0.0416 -0.4414  0.0951
 2722ntf    on513825   4.871   0.620   5.231 -0.2908  0.0127 -0.3451
 2722ntf    on513826   5.047   0.693   5.545 -0.2550  0.4876 -0.3403
 2722ntf    on513827   4.877   0.518   5.541  0.2744 -0.0964  0.7322
 2722ntf    fn413828   4.892   0.643   5.800 -0.1910  0.1378  0.1719
 2722ntf    fn413829   4.878   0.843   5.716  0.2502 -0.1225  0.1735
 2722ntf    fn413830   4.714   0.710   5.717 -0.0551 -0.3396  0.2715
 2723ntf    cn113831   6.431   2.067   4.694 -0.4327  0.1714 -0.0657
 2723ntf    sn213832   6.348   2.203   4.606 -0.3349  0.2992  0.0398
 2723ntf    nn313833   6.233   2.121   4.539  0.2162 -0.2257 -0.2744
 2723ntf    sn213834   6.235   2.049   4.400  0.0852 -0.3589 -0.2082
 2723ntf    cn113835   6.157   2.179   4.300  0.1557 -0.3466 -0.2456
 2723ntf    fn413836   6.447   1.962   4.615 -0.0053 -0.0210  0.2715
 2723ntf    fn413837   6.544   2.114   4.744 -0.3759 -0.2010  0.1596
 2723ntf    fn413838   6.364   2.019   4.798  0.0841  0.0319  0.2086
 2723ntf    on513839   6.294   2.287   4.710  0.3144  0.6175  0.1305
 2723ntf    on513840   6.449   2.262   4.521  0.0868  0.3555  0.5661
 2723ntf    on513841   6.137   1.943   4.404 -0.5254  0.2146  0.2897
 2723ntf    on513842   6.360   2.019   4.335  0.1410 -0.2528 -0.1483
 2723ntf    fn413843   6.197   2.303   4.326 -0.5482 -0.1688  0.0074
 2723ntf    fn413844   6.169   2.172   4.168  0.3915  0.0189 -0.2456
 2723ntf    fn413845   6.026   2.173   4.317  0.1751  0.1050  0.0821
 2724ntf    cn113846   3.039   2.405   0.294  0.2519 -0.1598 -0.0109
 2724ntf    sn213847   3.109   2.451   0.455 -0.1016  0.4263 -0.0203
 2724ntf    nn313848   3.069   2.319   0.532  0.3672 -0.0278 -0.5508
 2724ntf    sn213849   3.149   2.186   0.553  0.1300 -0.0822  0.0067
 2724ntf    cn113850   3.022   2.067   0.500  0.3108 -0.2794  0.0129
 2724ntf    fn413851   3.103   2.296   0.256  0.1798 -0.2493  0.1256
 2724ntf    fn413852   2.912   2.368   0.296  0.1284  0.2688  0.1280
 2724ntf    fn413853   3.050   2.497   0.199  0.4381 -0.0999  0.0688
 2724ntf    on513854   3.250   2.466   0.428 -0.0208  0.2194  0.2717
 2724ntf    on513855   3.036   2.568   0.496 -0.3659  0.1343  0.3577
 2724ntf    on513856   3.169   2.158   0.693 -0.6997  0.0428  0.1559
 2724ntf    on513857   3.264   2.166   0.468  0.1706 -0.2288  0.0955
 2724ntf    fn413858   3.078   1.949   0.480  0.5803 -0.1211 -0.1721
 2724ntf    fn413859   2.940   2.044   0.601  0.1604  0.4132  0.0569
 2724ntf    fn413860   2.943   2.101   0.400  0.3103 -0.1948  0.0416
 2725ntf    cn113861   4.101   5.151   0.135  0.0623 -0.2085  0.0977
 2725ntf    sn213862   4.116   5.318   0.204  0.2923 -0.0952 -0.2207
 2725ntf    nn313863   3.983   5.378   0.145  0.2870  0.2209  0.1026
 2725ntf    sn213864   3.858   5.437   0.218  0.1778 -0.2855  0.3285
 2725ntf    cn113865   3.744   5.296   0.207 -0.0207 -0.1117  0.1416
 2725ntf    fn413866   4.092   5.161   0.003 -0.1785  0.1509  0.1404
 2725ntf    fn413867   4.209   5.079   0.159  0.1432 -0.1750 -0.1579
 2725ntf    fn413868   3.996   5.082   0.178 -0.2192 -0.0484 -0.3195
 2725ntf    on513869   4.127   5.288   0.345  0.0339  0.2031 -0.1339
 2725ntf    on513870   4.236   5.368   0.142  0.2026  0.2271 -0.1352
 2725ntf    on513871   3.793   5.540   0.140 -0.2953 -0.3319  0.6561
 2725ntf    on513872   3.870   5.462   0.359 -0.3373  0.1205  0.3017
 2725ntf    fn413873   3.718   5.262   0.082 -0.0871  0.4075  0.0125
 2725ntf    fn413874   3.803   5.192   0.265  0.5296 -0.0496 -0.2982
 2725ntf    fn413875   3.624   5.320   0.257  0.0885 -0.4368  0.5600
 2726ntf    cn113876   1.802   4.948   6.960  0.1945 -0.2368 -0.3555
 2726ntf    sn213877   1.890   4.988   6.806  0.5025  0.0110 -0.1148
 2726ntf    nn313878   1.809   5.100   6.733 -0.4101 -0.1388  0.6456
 2726ntf    sn213879   1.708   5.087   6.613  0.3401  0.4899 -0.0665
 2726ntf    cn113880   1.645   5.257   6.616 -0.1085  0.3253 -0.0531
 2726ntf    fn413881   1.796   5.047   7.047 -0.0403 -0.3844 -0.2019
 2726ntf    fn413882   1.675   4.921   6.932 -0.0643  0.3115  0.2478
 2726ntf    fn413883   1.851   4.850   7.034  0.1135  0.2435  0.3516
 2726ntf    on513884   2.018   5.037   6.854  0.5142 -0.4724  0.3614
 2726ntf    on513885   1.898   4.868   6.726 -0.0361 -0.2627  0.2404
 2726ntf    on513886   1.591   5.004   6.625  0.9048 -0.4152 -0.6857
 2726ntf    on513887   1.774   5.089   6.484  0.2658  0.6857 -0.1018
 2726ntf    fn413888   1.746   5.342   6.599  0.0262  0.2748  0.4579
 2726ntf    fn413889   1.554   5.292   6.527  0.3262  0.4220 -0.4666
 2726ntf    fn413890   1.586   5.290   6.730 -0.2113 -0.2744  0.0669
 2727ntf    cn113891   3.595   6.536   0.240  0.1587 -0.1732  0.2225
 2727ntf    sn213892   3.645   6.492   0.071  0.0391  0.2257  0.0827
 2727ntf    nn313893   3.561   6.364   0.037  0.1093  0.3525 -0.5854
 2727ntf    sn213894   3.604   6.229  -0.031 -0.3591 -0.2327  0.2550
 2727ntf    cn113895   3.492   6.250  -0.172  0.2371  0.2457 -0.1530
 2727ntf    fn413896   3.465   6.559   0.235  0.2035  0.0959  0.2757
 2727ntf    fn413897   3.607   6.432   0.322 -0.0899 -0.3161  0.0759
 2727ntf    fn413898   3.648   6.645   0.293  0.1738 -0.3206  0.5162
 2727ntf    on513899   3.607   6.598  -0.019  0.3417 -0.1280 -0.4640
 2727ntf    on513900   3.785   6.462   0.087  0.1360  0.5458 -0.1528
 2727ntf    on513901   3.558   6.109   0.034  0.1090 -0.6405 -0.1595
 2727ntf    on513902   3.734   6.226  -0.093 -0.2157  0.2073  0.5290
 2727ntf    fn413903   3.507   6.153  -0.261  0.2067  0.1275 -0.0290
 2727ntf    fn413904   3.366   6.243  -0.132  0.1474  0.2482 -0.4281
 2727ntf    fn413905   3.503   6.366  -0.236 -0.0943  0.5540  0.3443
 2728ntf    cn113906   4.389   0.458   0.248 -0.4559 -0.0612  0.0182
 2728ntf    sn213907   4.337   0.419   0.418  0.0015 -0.0235  0.1679
 2728ntf    nn313908   4.467   0.355   0.479  0.4360  0.6538 -0.0281
 2728ntf    sn213909   4.527   0.210   0.476  0.3261  0.6076 -0.0235
 2728ntf    cn113910   4.475   0.150   0.639 -0.3481  0.2612 -0.3612
 2728ntf    fn413911   4.418   0.344   0.187  0.4167  0.1579  0.0049
 2728ntf    fn413912   4.297   0.515   0.172  0.1990 -0.0240 -0.7610
 2728ntf    fn413913   4.501   0.529   0.249 -0.2236 -0.4263  0.5781
 2728ntf    on513914   4.311   0.546   0.483 -0.3329  0.1481 -0.2972
 2728ntf    on513915   4.222   0.334   0.403  0.0138  0.0065 -0.1084
 2728ntf    on513916   4.671   0.214   0.484  0.3449 -0.7813  0.4939
 2728ntf    on513917   4.462   0.118   0.386  0.2411 -0.0978  0.7483
 2728ntf    fn413918   4.346   0.142   0.668 -0.2501  0.4775  0.1542
 2728ntf    fn413919   4.523   0.028   0.657 -0.1466  0.4055  0.1067
 2728ntf    fn413920   4.526   0.232   0.730 -0.0438 -0.0510 -0.2445
 2729ntf    cn113921   5.926   0.587   0.309  0.2991 -0.3486  0.2939
 2729ntf    sn213922   6.067   0.485   0.361  0.4909 -0.2297  0.0073
 2729ntf    nn313923   6.034   0.341   0.307 -0.1020 -0.1670  0.1934
 2729ntf    sn213924   6.127   0.228   0.250 -0.3423 -0.1384 -0.2627
 2729ntf    cn113925   6.180   0.137   0.398 -0.1702  0.1129 -0.1689
 2729ntf    fn413926   5.942   0.712   0.350 -0.1811 -0.1976  0.0281
 2729ntf    fn413927   5.909   0.592   0.178  0.0472 -0.0520  0.3376
 2729ntf    fn413928   5.812   0.538   0.355 -0.3882  0.6783 -0.2714
 2729ntf    on513929   6.175   0.550   0.293  0.0526  0.0446 -0.4331
 2729ntf    on513930   6.058   0.495   0.504  0.2630 -0.2145 -0.0075
 2729ntf    on513931   6.247   0.277   0.186 -0.7064  0.2476 -0.6564
 2729ntf    on513932   6.050   0.135   0.172  0.1567 -0.6367 -0.1652
 2729ntf    fn413933   6.080   0.067   0.447 -0.4599  0.5997 -0.0623
 2729ntf    fn413934   6.281   0.058   0.362  0.0144  0.0306  0.5177
 2729ntf    fn413935   6.218   0.219   0.494  0.1655 -0.0516 -0.1604
 2730ntf    cn113936   5.164   2.862   1.194  0.1208 -0.2142  0.6251
 2730ntf    sn213937   5.063   2.917   1.335 -0.1770  0.3538  0.1924
 2730ntf    nn313938   5.181   2.990   1.408  0.3057 -0.3843  0.1660
 2730ntf    sn213939   5.248   2.964   1.548  0.5549  0.0784  0.1379
 2730ntf    cn113940   5.115   3.018   1.659  0.2254 -0.2752 -0.0815
 2730ntf    fn413941   5.093   2.789   1.109  0.0749  0.1550  0.3449
 2730ntf    fn413942   5.203   2.960   1.114 -0.1681 -0.4048  0.2455
 2730ntf    fn413943   5.274   2.799   1.232  0.4630 -0.2773 -0.4186
 2730ntf    on513944   4.969   3.004   1.268 -0.3455  0.6527  0.8097
 2730ntf    on513945   5.013   2.798   1.398 -0.4807  0.0696 -0.5751
 2730ntf    on513946   5.358   3.052   1.576  1.2657 -0.7156 -0.1286
 2730ntf    on513947   5.262   2.823   1.577  0.4468 -0.0218 -0.2846
 2730ntf    fn413948   5.067   3.136   1.623  0.4299  0.1040  0.8748
 2730ntf    fn413949   5.011   2.936   1.669 -0.0050 -0.0229 -0.3812
 2730ntf    fn413950   5.148   3.030   1.786 -0.2297 -0.1335  0.0270
 2731ntf    cn113951   1.875   5.524   1.984 -0.4959  0.4579  0.0184
 2731ntf    sn213952   1.952   5.546   1.821  0.0779 -0.1327  0.2025
 2731ntf    nn313953   2.069   5.442   1.837  0.2002  0.0622  0.5817
 2731ntf    sn213954   2.224   5.457   1.814  0.1473 -0.2028  0.0347
 2731ntf    cn113955   2.272   5.485   1.987 -0.3675 -0.0044  0.1490
 2731ntf    fn413956   1.962   5.551   2.080 -0.2816  0.0017 -0.0422
 2731ntf    fn413957   1.756   5.579   1.998 -0.5397  0.3608  0.0349
 2731ntf    fn413958   1.847   5.394   1.990  0.3608  0.2851  0.4521
 2731ntf    on513959   1.859   5.497   1.722  0.1590  0.1576 -0.0217
 2731ntf    on513960   1.983   5.687   1.819  0.0410 -0.1214  0.4451
 2731ntf    on513961   2.275   5.565   1.733  0.4333 -0.2391  0.1655
 2731ntf    on513962   2.283   5.327   1.794  0.2786 -0.2356  0.6260
 2731ntf    fn413963   2.404   5.489   2.002 -0.2661 -0.4725 -0.5778
 2731ntf    fn413964   2.224   5.599   2.032 -0.1636 -0.1210  0.6670
 2731ntf    fn413965   2.224   5.396   2.073  0.4815  0.0042  0.6444
 2732ntf    cn113966   3.934   1.167   6.737 -0.2612  0.2443 -0.1188
 2732ntf    sn213967   3.898   1.286   6.603  0.0540  0.4127 -0.0566
 2732ntf    nn313968   3.930   1.421   6.676 -0.3590 -0.1112  1.1214
 2732ntf    sn213969   3.867   1.564   6.670  0.3335  0.1450 -0.1900
 2732ntf    cn113970   3.952   1.659   6.800  0.3197 -0.1623  0.0431
 2732ntf    fn413971   3.875   1.197   6.851 -0.8509  0.6165 -0.5130
 2732ntf    fn413972   3.882   1.051   6.703 -0.9616  0.4319  0.2907
 2732ntf    fn413973   4.061   1.137   6.757 -0.2959  0.2112  0.0530
 2732ntf    on513974   3.996   1.251   6.504 -0.1163 -0.0550 -0.0631
 2732ntf    on513975   3.758   1.259   6.579 -0.0174  0.2730  0.4868
 2732ntf    on513976   3.728   1.561   6.708  0.4705 -0.5705  0.2672
 2732ntf    on513977   3.906   1.635   6.550 -0.0770  0.0948 -0.3567
 2732ntf    fn413978   3.925   1.788   6.803 -0.1194 -0.2496 -0.1343
 2732ntf    fn413979   3.932   1.614   6.922 -0.2657  0.5859  0.2241
 2732ntf    fn413980   4.084   1.651   6.790  0.3615  0.1667  0.3167
 2733ntf    cn113981   0.791   5.759   3.541  0.2946  0.1294  0.3057
 2733ntf    sn213982   0.912   5.876   3.471  0.1587  0.0157 -0.1227
 2733ntf    nn313983   0.820   6.000   3.442  0.3392  0.2127  0.1416
 2733ntf    sn213984   0.803   6.084   3.311 -0.2686 -0.0863  0.0273
 2733ntf    cn113985   0.809   6.248   3.387 -0.0056  0.0816 -0.3495
 2733ntf    fn413986   0.711   5.814   3.630 -0.1182 -0.2305  0.1631
 2733ntf    fn413987   0.722   5.707   3.441  0.6797  0.0459  0.0782
 2733ntf    fn413988   0.848   5.657   3.602 -0.0232 -0.1343  0.1596
 2733ntf    on513989   1.002   5.901   3.581  0.4251 -0.0053 -0.3356
 2733ntf    on513990   0.965   5.813   3.353  0.3140  0.8103 -0.4829
 2733ntf    on513991   0.672   6.063   3.254 -0.2229 -0.5854  0.0955
 2733ntf    on513992   0.917   6.073   3.223 -0.2200 -0.4121  0.1286
 2733ntf    fn413993   0.698   6.274   3.455  0.2604  0.5187 -0.0762
 2733ntf    fn413994   0.913   6.271   3.466  0.1610 -0.1160 -0.5129
 2733ntf    fn413995   0.811   6.341   3.293  0.3545  0.3693 -0.0587
 2734ntf    cn113996   0.398   3.025   2.908  0.0884  0.0208  0.0378
 2734ntf    sn213997   0.311   2.870   2.869 -0.0063  0.1102 -0.1088
 2734ntf    nn313998   0.159   2.903   2.887  0.0120 -0.0158  0.2771
 2734ntf    sn213999   0.035   2.807   2.880  0.0391 -0.0289  0.0016
 2734ntf    cn114000  -0.070   2.873   2.747 -0.4583 -0.3588  0.2269
 2734ntf    fn414001   0.363   3.068   3.028 -0.1243  0.1215 -0.0599
 2734ntf    fn414002   0.530   3.015   2.904  0.0925 -0.0461  0.3114
 2734ntf    fn414003   0.361   3.119   2.823 -0.2103 -0.1290  0.0000
 2734ntf    on514004   0.345   2.850   2.730  0.2189  0.1254 -0.0581
 2734ntf    on514005   0.358   2.772   2.964  0.0652 -0.2171 -0.4759
 2734ntf    on514006  -0.053   2.814   2.994  0.0047 -0.0999 -0.0201
 2734ntf    on514007   0.061   2.673   2.832  0.2212 -0.0104  0.0481
 2734ntf    fn414008  -0.178   2.801   2.722 -0.4317 -0.2127 -0.3210
 2734ntf    fn414009  -0.104   2.999   2.768  0.3125 -0.1126  0.0493
 2734ntf    fn414010  -0.004   2.870   2.632  0.5059  0.4988  0.7388
 2735ntf    cn114011   4.366   6.203   1.341 -0.1858 -0.1614 -0.0992
 2735ntf    sn214012   4.470   6.055   1.350 -0.1002 -0.0739  0.3418
 2735ntf    nn314013   4.586   6.120   1.435  0.2549 -0.4245  0.1310
 2735ntf    sn214014   4.684   6.042   1.529  0.2347 -0.2338  0.3107
 2735ntf    cn114015   4.822   5.983   1.425  0.1915  0.5246 -0.1826
 2735ntf    fn414016   4.245   6.173   1.295 -0.3691  0.3171  0.0574
 2735ntf    fn414017   4.347   6.257   1.460 -0.4910  0.3885 -0.3881
 2735ntf    fn414018   4.408   6.303   1.266 -0.3278  0.3302  0.4717
 2735ntf    on514019   4.386   5.966   1.427 -0.4132 -0.4331 -0.4114
 2735ntf    on514020   4.502   6.029   1.212  1.0445 -0.0048  0.5817
 2735ntf    on514021   4.635   5.918   1.583 -0.0679  0.0117  0.6040
 2735ntf    on514022   4.755   6.133   1.616 -0.2668 -0.0552  0.5340
 2735ntf    fn414023   4.783   5.939   1.307  0.3238 -0.7349  0.2311
 2735ntf    fn414024   4.911   6.080   1.408  0.1566  0.6087  0.0998
 2735ntf    fn414025   4.885   5.883   1.483 -0.1499  0.4030 -0.0220
 2736ntf    cn114026   2.593   5.422   0.980 -0.3202  0.4975  0.1414
 2736ntf    sn214027   2.605   5.573   1.081  0.1160  0.4923  0.1008
 2736ntf    nn314028   2.748   5.553   1.142  0.2733  0.1573 -0.3685
 2736ntf    sn214029   2.800   5.491   1.276 -0.0574 -0.2528 -0.4279
 2736ntf    cn114030   2.795   5.634   1.389  0.1435 -0.4046 -0.2263
 2736ntf    fn414031   2.714   5.373   0.962 -0.0518  1.1245  0.2107
 2736ntf    fn414032   2.520   5.326   1.034  0.2306 -0.0655 -0.1062
 2736ntf    fn414033   2.534   5.442   0.863 -0.7265  0.0010  0.2568
 2736ntf    on514034   2.598   5.684   0.989 -0.6094  0.2085 -0.1985
 2736ntf    on514035   2.494   5.557   1.171 -0.5522 -0.3148 -0.8324
 2736ntf    on514036   2.943   5.470   1.275  0.1247  0.9306 -0.2984
 2736ntf    on514037   2.721   5.389   1.342 -0.2948 -0.0318 -0.3695
 2736ntf    fn414038   2.674   5.687   1.392  0.0493 -0.6356  0.1242
 2736ntf    fn414039   2.835   5.603   1.512 -0.3601  0.2581  0.1094
 2736ntf    fn414040   2.868   5.731   1.338 -0.0572 -0.1677 -0.0619
 2737ntf    cn114041   3.458   6.884   5.264  0.4705 -0.1742  0.4629
 2737ntf    sn214042   3.515   7.017   5.375  0.4231  0.0300  0.2451
 2737ntf    nn314043   3.524   7.137   5.275 -0.1642 -0.4363 -0.3738
 2737ntf    sn214044   3.642   7.177   5.180  0.0005  0.2031  0.0896
 2737ntf    cn114045   3.765   7.262   5.283  0.4912 -0.2616 -0.1051
 2737ntf    fn414046   3.416   6.780   5.334 -0.2067  0.2121  0.6444
 2737ntf    fn414047   3.351   6.935   5.206  0.8081  0.0205  0.0032
 2737ntf    fn414048   3.543   6.850   5.168  0.2158  0.3545  0.0440
 2737ntf    on514049   3.414   7.032   5.476 -0.3015  0.8154 -0.5889
 2737ntf    on514050   3.644   6.967   5.418  0.4606 -0.5419 -0.5111
 2737ntf    on514051   3.607   7.278   5.083  0.3599  0.7299  0.5085
 2737ntf    on514052   3.716   7.063   5.132  0.2148  0.2486  0.3128
 2737ntf    fn414053   3.715   7.342   5.376  0.1313 -0.4960 -0.0935
 2737ntf    fn414054   3.849   7.176   5.338  0.0532 -0.4088  0.3475
 2737ntf    fn414055   3.836   7.336   5.200  0.2618 -0.0162 -0.0834
 2738ntf    cn114056   4.798   6.424   3.817 -0.0710 -0.0263 -0.1625
 2738ntf    sn214057   4.768   6.370   3.988  0.2775 -0.2740 -0.1791
 2738ntf    nn314058   4.870   6.465   4.060  0.0803 -0.1012 -0.1298
 2738ntf    sn214059   5.020   6.442   4.100  0.0556  0.0900  0.0758
 2738ntf    cn114060   5.014   6.510   4.269  0.0178 -0.0321  0.1246
 2738ntf    fn414061   4.920   6.411   3.768 -0.2856 -0.4435 -0.6031
 2738ntf    fn414062   4.729   6.356   3.726  0.1162 -0.0949 -0.2546
 2738ntf    fn414063   4.764   6.550   3.795  0.0370  0.1321  0.5736
 2738ntf    on514064   4.633   6.408   4.017  0.2386 -0.1622 -0.4965
 2738ntf    on514065   4.790   6.228   3.998  0.0166 -0.2988  0.0445
 2738ntf    on514066   5.109   6.525   4.023  0.3063 -0.0761  0.1864
 2738ntf    on514067   5.064   6.308   4.130 -0.1088  0.0673  0.2268
 2738ntf    fn414068   4.975   6.637   4.269 -0.6351 -0.2326  0.3805
 2738ntf    fn414069   4.929   6.449   4.349 -0.3519  0.2661 -0.0354
 2738ntf    fn414070   5.129   6.505   4.334 -0.2827  0.3491  0.6920
 2739ntf    cn114071   5.911   6.761   5.744 -0.0967 -0.1641 -0.2981
 2739ntf    sn214072   6.038   6.731   5.618  0.0738  0.0835 -0.1863
 2739ntf    nn314073   6.168   6.767   5.698 -0.1267  0.5108 -0.0515
 2739ntf    sn214074   6.244   6.904   5.684  0.0941  0.3924 -0.0251
 2739ntf    cn114075   6.351   6.857   5.545 -0.0483 -0.0833  0.0252
 2739ntf    fn414076   5.927   6.874   5.811 -0.0181 -0.3331 -0.0300
 2739ntf    fn414077   5.790   6.763   5.690  0.0300  0.0835 -0.5786
 2739ntf    fn414078   5.911   6.666   5.836 -0.1554  0.0719 -0.0509
 2739ntf    on514079   6.029   6.589   5.595  0.5687  0.0458 -0.1664
 2739ntf    on514080   6.007   6.810   5.501 -0.0375  0.7038  0.2553
 2739ntf    on514081   6.337   6.928   5.792  0.2977  0.1032 -0.1383
 2739ntf    on514082   6.164   7.016   5.642 -0.2368  0.1997  0.0857
 2739ntf    fn414083   6.388   6.731   5.557  0.0586 -0.0386  0.1714
 2739ntf    fn414084   6.294   6.872   5.427 -0.6929 -0.5060  0.2758
 2739ntf    fn414085   6.458   6.935   5.545 -0.3284  0.3103  0.3583
 2740ntf    cn114086   1.840   2.614   4.191 -0.1348  0.5295  0.0101
 2740ntf    sn214087   1.900   2.444   4.175 -0.0000  0.5910 -0.1357
 2740ntf    nn314088   1.997   2.465   4.053  0.1289  0.1974 -0.1026
 2740ntf    sn214089   2.002   2.409   3.906 -0.0982 -0.0172 -0.0309
 2740ntf    cn114090   2.022   2.564   3.813 -0.0715  0.1827  0.3055
 2740ntf    fn414091   1.770   2.651   4.085 -0.1296 -0.0375 -0.1916
 2740ntf    fn414092   1.761   2.622   4.298 -0.3580 -0.9638 -0.0268
 2740ntf    fn414093   1.943   2.697   4.201  0.2937  0.0318 -0.2755
 2740ntf    on514094   1.980   2.437   4.295 -0.1376  0.2567 -0.0621
 2740ntf    on514095   1.786   2.357   4.162  0.3898 -0.0286  0.4994
 2740ntf    on514096   1.880   2.357   3.850 -0.3237  0.0686  0.3794
 2740ntf    on514097   2.129   2.344   3.885 -0.0886 -0.0892  0.2541
 2740ntf    fn414098   1.923   2.648   3.837  0.1079  0.4925 -0.0193
 2740ntf    fn414099   2.133   2.626   3.848 -0.0846  0.2664  0.1998
 2740ntf    fn414100   2.025   2.549   3.681 -0.0723 -0.7191  0.4035
 2741ntf    cn114101   3.690   0.965   3.978  0.2462  0.1957 -0.4579
 2741ntf    sn214102   3.841   0.897   3.904  0.1879 -0.3186 -0.1073
 2741ntf    nn314103   3.878   1.014   3.806 -0.1310  0.3538  0.5666
 2741ntf    sn214104   3.982   1.131   3.822  0.1318  0.2418 -0.2678
 2741ntf    cn114105   3.904   1.243   3.702 -0.3625  0.1740 -0.0136
 2741ntf    fn414106   3.668   0.906   4.094 -0.5669  0.3738 -0.5096
 2741ntf    fn414107   3.706   1.095   3.995 -0.2678  0.2499 -0.3778
 2741ntf    fn414108   3.581   0.949   3.904  0.1185  0.1021 -0.2503
 2741ntf    on514109   3.931   0.864   4.011  0.1771 -0.4366 -0.1337
 2741ntf    on514110   3.793   0.785   3.826  0.1358 -0.1886 -0.2618
 2741ntf    on514111   4.114   1.107   3.770  0.6490  0.2973  0.9949
 2741ntf    on514112   3.961   1.193   3.950 -0.4115  0.4529 -0.4560
 2741ntf    fn414113   3.885   1.186   3.584  0.1948 -0.2316  0.0899
 2741ntf    fn414114   3.782   1.278   3.740 -0.2500 -0.4895  0.9828
 2741ntf    fn414115   3.977   1.351   3.681 -0.0704 -0.0981 -0.4005
 2742ntf    cn114116   3.173   5.606   0.519  0.0646 -0.0623  0.0022
 2742ntf    sn214117   3.199   5.735   0.393  0.4601 -0.0366  0.1086
 2742ntf    nn314118   3.240   5.849   0.493  0.0108  0.2577 -0.0404
 2742ntf    sn214119   3.382   5.906   0.528  0.0711  0.1888 -0.1714
 2742ntf    cn114120   3.458   5.776   0.631  0.1940  0.2478 -0.1876
 2742ntf    fn414121   3.286   5.549   0.560  0.1312 -0.2311 -0.4153
 2742ntf    fn414122   3.101   5.649   0.621 -0.2614 -0.0160 -0.2467
 2742ntf    fn414123   3.115   5.499   0.469  0.0300  0.0523 -0.2027
 2742ntf    on514124   3.309   5.684   0.314  0.0414 -0.2311 -0.3528
 2742ntf    on514125   3.071   5.749   0.329  0.6946 -0.5157 -0.4703
 2742ntf    on514126   3.370   6.026   0.607 -0.3117  0.6515 -0.9246
 2742ntf    on514127   3.472   5.902   0.415  0.0013  0.1785 -0.2262
 2742ntf    fn414128   3.375   5.738   0.727  0.6424  0.6313  0.3625
 2742ntf    fn414129   3.499   5.670   0.565  0.0883  0.0708  0.0281
 2742ntf    fn414130   3.562   5.833   0.691 -0.2584  0.5462  0.3304
 2743ntf    cn114131   1.937   5.106   5.182 -0.3688 -0.0566 -0.2792
 2743ntf    sn214132   1.837   5.257   5.201 -0.2643 -0.0744  0.4089
 2743ntf    nn314133   1.706   5.218   5.124  0.0274  0.1822 -0.2205
 2743ntf    sn214134   1.568   5.176   5.187  0.1930  0.2035  0.1543
 2743ntf    cn114135   1.570   4.998   5.149  0.0384  0.2482 -0.0664
 2743ntf    fn414136   1.948   5.066   5.056  0.2725  0.0176 -0.2476
 2743ntf    fn414137   2.059   5.118   5.231 -0.4650 -0.0423 -0.0434
 2743ntf    fn414138   1.880   5.007   5.248  0.1654  0.3994  0.8941
 2743ntf    on514139   1.831   5.269   5.345 -0.5077  0.3840  0.3626
 2743ntf    on514140   1.912   5.355   5.126  0.0261 -0.7967 -0.2549
 2743ntf    on514141   1.468   5.237   5.104  0.6130  0.3940 -0.2189
 2743ntf    on514142   1.550   5.193   5.329  0.2677 -0.3772  0.2361
 2743ntf    fn414143   1.650   4.933   5.232  0.1657  0.3716 -0.0934
 2743ntf    fn414144   1.449   4.949   5.170  0.1136  0.2501  0.3932
 2743ntf    fn414145   1.611   4.966   5.027 -0.4553 -0.0340 -0.1587
 2744ntf    cn114146   2.227   6.217   0.110 -0.0242  0.1829  0.0375
 2744ntf    sn214147   2.156   6.372   0.044 -0.2389 -0.0425 -0.2654
 2744ntf    nn314148   2.268   6.406  -0.060 -0.2327  0.4119 -0.1102
 2744ntf    sn214149   2.295   6.353  -0.205  0.0485  0.1203  0.0493
 2744ntf    cn114150   2.209   6.476  -0.307 -0.0965 -0.3105 -0.3509
 2744ntf    fn414151   2.141   6.162   0.193  0.2152 -0.1512  0.0627
 2744ntf    fn414152   2.268   6.124   0.025 -0.0370  0.2850 -0.0827
 2744ntf    fn414153   2.329   6.243   0.189 -0.0302  0.2065  0.0375
 2744ntf    on514154   2.027   6.323  -0.000 -0.3627 -0.1301  0.1851
 2744ntf    on514155   2.167   6.462   0.156 -0.7863 -0.1494 -0.1236
 2744ntf    on514156   2.228   6.230  -0.239 -0.2753  0.2967  0.0498
 2744ntf    on514157   2.435   6.371  -0.236  0.1362  0.1066  0.4407
 2744ntf    fn414158   2.217   6.443  -0.435  0.4301 -0.7101 -0.2178
 2744ntf    fn414159   2.077   6.480  -0.292 -0.0633  0.3857 -0.2229
 2744ntf    fn414160   2.259   6.597  -0.295 -0.7703 -0.0509 -0.1442
 2745ntf    cn114161   5.053   4.894   2.594 -0.0154  0.3349 -0.3190
 2745ntf    sn214162   5.212   4.841   2.521  0.0737  0.2541 -0.0651
 2745ntf    nn314163   5.314   4.890   2.629  0.2974 -0.1759 -0.0783
 2745ntf    sn214164   5.397   4.807   2.733  0.0541 -0.3806 -0.0474
 2745ntf    cn114165   5.551   4.806   2.636  0.0750  0.0717 -0.0179
 2745ntf    fn414166   5.055   5.021   2.630 -0.2019  0.1675  0.2863
 2745ntf    fn414167   4.949   4.879   2.514 -0.4308 -0.2325  0.3165
 2745ntf    fn414168   5.030   4.827   2.706  0.4707 -0.4248 -0.6585
 2745ntf    on514169   5.205   4.698   2.501 -0.1729  0.2777 -0.1601
 2745ntf    on514170   5.221   4.920   2.402 -0.3818  0.2954 -0.0747
 2745ntf    on514171   5.351   4.671   2.752 -0.8606 -0.0908 -0.1745
 2745ntf    on514172   5.423   4.886   2.851  0.3164 -0.2377 -0.2002
 2745ntf    fn414173   5.638   4.721   2.687  0.8078  0.5381 -0.4719
 2745ntf    fn414174   5.532   4.776   2.509 -0.5417  0.1287  0.0593
 2745ntf    fn414175   5.608   4.925   2.644 -0.2332  0.1984  0.3153
 2746ntf    cn114176   5.782   3.475   2.898 -0.1277  0.1414  0.2220
 2746ntf    sn214177   5.761   3.622   2.794  0.3367 -0.0643 -0.1643
 2746ntf    nn314178   5.637   3.688   2.863 -0.0988 -0.8129 -0.2246
 2746ntf    sn214179   5.501   3.740   2.804  0.1459  0.1068 -0.0007
 2746ntf    cn114180   5.453   3.886   2.901 -0.0507 -0.0301  0.1097
 2746ntf    fn414181   5.673   3.402   2.912 -0.1670  0.1187 -0.1959
 2746ntf    fn414182   5.882   3.399   2.856 -0.0929  0.1068  0.3669
 2746ntf    fn414183   5.818   3.514   3.019  0.1136  0.0223  0.1902
 2746ntf    on514184   5.880   3.699   2.822  0.4420 -0.2385 -0.1325
 2746ntf    on514185   5.742   3.566   2.662  0.1970 -0.3749 -0.0121
 2746ntf    on514186   5.406   3.637   2.839  0.0937  0.3462  0.5602
 2746ntf    on514187   5.494   3.790   2.669  0.2387 -0.3806 -0.1865
 2746ntf    fn414188   5.453   3.868   3.032 -0.3847  0.0240  0.1181
 2746ntf    fn414189   5.540   3.981   2.870 -0.0808 -0.1010 -0.2002
 2746ntf    fn414190   5.331   3.921   2.864 -0.1292 -0.4679 -0.0560
 2747ntf    cn114191   6.090   5.759   4.487 -0.0502 -0.2056  0.0581
 2747ntf    sn214192   5.971   5.843   4.378 -0.1015  0.1450  0.3824
 2747ntf    nn314193   5.927   5.713   4.301 -0.0170  0.4776 -0.2347
 2747ntf    sn214194   5.989   5.673   4.163 -0.0835  0.0141 -0.1311
 2747ntf    cn114195   5.909   5.798   4.058 -0.0387 -0.0867 -0.2843
 2747ntf    fn414196   6.027   5.671   4.564  0.1630  0.1667  0.6647
 2747ntf    fn414197   6.181   5.692   4.419 -0.2713  0.0035 -0.4517
 2747ntf    fn414198   6.145   5.849   4.566  0.1361 -0.2651 -0.0022
 2747ntf    on514199   5.867   5.894   4.463 -0.2838  0.1265  0.1699
 2747ntf    on514200   6.058   5.940   4.316 -0.3706  0.0619 -0.1319
 2747ntf    on514201   5.931   5.546   4.128  0.2810 -0.1293 -0.2185
 2747ntf    on514202   6.133   5.683   4.166 -0.1031  0.1916  0.3785
 2747ntf    fn414203   5.790   5.832   4.103 -0.0873 -0.5764 -0.0372
 2747ntf    fn414204   5.984   5.907   4.051  0.1931 -0.2311 -0.0265
 2747ntf    fn414205   5.889   5.754   3.935 -0.1218  0.3176 -0.4177
 2748ntf    cn114206   0.490   0.637   5.083 -0.5910 -0.1498  0.5135
 2748ntf    sn214207   0.360   0.654   4.957  0.2113  0.0669 -0.2991
 2748ntf    nn314208   0.237   0.634   5.053  0.1675 -0.1154 -0.3915
 2748ntf    sn214209   0.093   0.693   5.032  0.1592  0.1314  0.3153
 2748ntf    cn114210   0.104   0.845   5.131  0.1142  0.0248  0.4844
 2748ntf    fn414211   0.602   0.693   5.041 -0.7791  0.0641  0.2897
 2748ntf    fn414212   0.456   0.695   5.196 -0.2212  0.1036  0.4949
 2748ntf    fn414213   0.514   0.513   5.123  0.3289 -0.1541 -0.0319
 2748ntf    on514214   0.379   0.786   4.902 -0.2236  0.1289 -0.3072
 2748ntf    on514215   0.381   0.545   4.865  0.3238  0.0782 -0.2856
 2748ntf    on514216  -0.011   0.618   5.098 -0.1846  0.5031  0.2053
 2748ntf    on514217   0.063   0.741   4.899 -0.0997 -0.5423  0.1278
 2748ntf    fn414218   0.142   0.818   5.255  0.0971  0.1543  0.5177
 2748ntf    fn414219   0.198   0.927   5.087  0.0494  0.0968  0.4792
 2748ntf    fn414220  -0.006   0.919   5.135  0.1497  0.1089  0.0044
 2749ntf    cn114221   6.449   6.055   6.391 -0.6060  0.1154  0.1046
 2749ntf    sn214222   6.420   6.217   6.313 -0.1337  0.1022 -0.1035
 2749ntf    nn314223   6.271   6.208   6.265 -0.0432 -1.0631 -0.1919
 2749ntf    sn214224   6.207   6.179   6.125 -0.4034 -0.2472 -0.1992
 2749ntf    cn114225   6.099   6.039   6.169  0.1720 -0.6925 -0.1930
 2749ntf    fn414226   6.356   6.011   6.473 -0.0329 -0.1888  0.5995
 2749ntf    fn414227   6.464   5.965   6.296  0.2228  0.2752  0.0738
 2749ntf    fn414228   6.557   6.053   6.468 -0.7155  1.0503  0.2907
 2749ntf    on514229   6.437   6.314   6.418  1.0214  0.2844 -0.4451
 2749ntf    on514230   6.524   6.221   6.213 -0.1643  0.6621 -0.1184
 2749ntf    on514231   6.296   6.124   6.026  0.1881  0.1411  0.1109
 2749ntf    on514232   6.109   6.272   6.074 -0.1621  0.0309 -0.1563
 2749ntf    fn414233   6.165   5.931   6.208  0.1014 -0.4076  0.7511
 2749ntf    fn414234   6.010   6.071   6.262  0.3503  0.0477 -0.2705
 2749ntf    fn414235   6.016   6.007   6.071  0.3809 -0.0111 -0.6044
 2750ntf    cn114236   2.189   0.232   2.084  0.0144  0.1647  0.1546
 2750ntf    sn214237   2.133   0.358   2.202 -0.2456 -0.0211  0.2298
 2750ntf    nn314238   1.995   0.394   2.135  0.3089  0.3018 -0.7561
 2750ntf    sn214239   1.898   0.515   2.160  0.0490 -0.1242  0.3268
 2750ntf    cn114240   1.955   0.648   2.050  0.0357 -0.5451 -0.1931
 2750ntf    fn414241   2.181   0.285   1.963 -0.2649 -0.0997  0.0546
 2750ntf    fn414242   2.310   0.184   2.108  0.0174  0.4568  0.7281
 2750ntf    fn414243   2.108   0.128   2.073  0.2062  0.1018 -0.7403
 2750ntf    on514244   2.115   0.295   2.331 -0.4482  0.0759  0.2497
 2750ntf    on514245   2.222   0.470   2.184  0.1945 -0.3863  0.1423
 2750ntf    on514246   1.910   0.574   2.291 -0.7801 -0.1365  0.4152
 2750ntf    on514247   1.764   0.484   2.114  0.3671  0.1306 -0.7971
 2750ntf    fn414248   1.862   0.731   2.004  0.1829 -0.3351 -0.1118
 2750ntf    fn414249   2.050   0.720   2.106 -0.0152 -0.6423  0.0202
 2750ntf    fn414250   2.004   0.584   1.945  0.3822 -0.4478 -0.0916
 2751ntf    cn114251   6.061   4.948   1.934  0.2228 -0.1824 -0.0846
 2751ntf    sn214252   5.964   4.794   1.936 -0.0654  0.0008 -0.0030
 2751ntf    nn314253   6.036   4.708   1.827  0.4385 -0.0235  0.3487
 2751ntf    sn214254   6.145   4.597   1.853  0.3127 -0.1900  0.1711
 2751ntf    cn114255   6.057   4.455   1.925  0.0614 -0.1504 -0.0562
 2751ntf    fn414256   6.189   4.929   1.962  0.2166 -0.0556  0.0286
 2751ntf    fn414257   6.047   5.023   1.825 -0.1145 -0.1846 -0.0430
 2751ntf    fn414258   6.011   5.029   2.025  0.0775  0.0265 -0.3488
 2751ntf    on514259   5.980   4.744   2.070  0.1291 -0.0595 -0.0483
 2751ntf    on514260   5.827   4.823   1.900 -0.1435  0.0631  0.3435
 2751ntf    on514261   6.244   4.626   1.954  0.3840 -0.5118  0.1955
 2751ntf    on514262   6.198   4.537   1.733  0.1778  0.4159 -0.1962
 2751ntf    fn414263   5.933   4.455   1.879  0.1146 -0.2030 -0.2030
 2751ntf    fn414264   6.109   4.336   1.899  0.5885  0.0370  0.1163
 2751ntf    fn414265   6.036   4.463   2.055  0.2274 -0.3244 -0.0187
 2752ntf    cn114266   3.029   6.798   5.234 -0.0382  0.3950  0.6155
 2752ntf    sn214267   2.890   6.915   5.233 -0.4998 -0.1423 -0.3732
 2752ntf    nn314268   2.909   6.985   5.094  0.7543  0.0531 -0.1178
 2752ntf    sn214269   2.849   6.941   4.956 -0.0850  0.0494  0.2427
 2752ntf    cn114270   2.677   6.999   4.965 -0.0983  0.0760 -0.1779
 2752ntf    fn414271   3.048   6.742   5.352  0.2038 -0.4570  0.1824
 2752ntf    fn414272   3.009   6.694   5.154  0.3505  0.3080  0.6320
 2752ntf    fn414273   3.142   6.858   5.204 -0.3761  0.5303 -0.4211
 2752ntf    on514274   2.768   6.843   5.262 -0.7014  0.3486  0.0303
 2752ntf    on514275   2.929   7.007   5.337  0.2415 -0.3881 -0.4319
 2752ntf    on514276   2.847   6.799   4.929  0.1458  0.1292 -0.2016
 2752ntf    on514277   2.901   7.020   4.847 -0.2827  0.1411  0.2132
 2752ntf    fn414278   2.606   6.927   5.050 -0.0999 -0.1367 -0.3575
 2752ntf    fn414279   2.667   7.125   5.003 -0.3425 -0.0286  0.1106
 2752ntf    fn414280   2.610   6.997   4.850 -0.2421  0.0944 -0.0942
 2753ntf    cn114281   6.287   1.176   3.803 -0.2279  0.0472 -0.0781
 2753ntf    sn214282   6.439   1.248   3.734 -0.2219  0.1737  0.0665
 2753ntf    nn314283   6.367   1.370   3.667 -0.1968  0.2878  0.2467
 2753ntf    sn214284   6.418   1.515   3.636 -0.0025  0.1705  0.0129
 2753ntf    cn114285   6.340   1.544   3.474 -0.3277  0.4999  0.2267
 2753ntf    fn414286   6.213   1.107   3.719 -0.3239  0.2550 -0.1653
 2753ntf    fn414287   6.325   1.086   3.893 -0.1059 -0.0567 -0.2346
 2753ntf    fn414288   6.214   1.259   3.876 -0.2717 -0.2555  0.2262
 2753ntf    on514289   6.516   1.282   3.851  0.1963  0.3562 -0.2590
 2753ntf    on514290   6.503   1.149   3.650 -0.7128 -0.3121  0.2594
 2753ntf    on514291   6.558   1.527   3.604 -0.2911  0.8925 -1.0445
 2753ntf    on514292   6.361   1.623   3.713  0.3119  0.5279 -0.2515
 2753ntf    fn414293   6.394   1.470   3.379 -0.2581  0.4883  0.2753
 2753ntf    fn414294   6.211   1.514   3.469 -0.0840 -0.6093  0.4428
 2753ntf    fn414295   6.347   1.670   3.436 -0.4312  0.3056 -0.4511
 2754ntf    cn114296   0.837   1.105   3.948  0.1259 -0.1314 -0.1784
 2754ntf    sn214297   0.832   0.960   3.838 -0.4818 -0.1654 -0.1142
 2754ntf    nn314298   0.715   0.993   3.739 -0.0493  0.2263 -0.5037
 2754ntf    sn214299   0.730   1.057   3.597  0.0348  0.4295 -0.4032
 2754ntf    cn114300   0.561   1.038   3.534 -0.1128 -0.3596  0.2266
 2754ntf    fn414301   0.790   1.081   4.070 -0.0250  0.3197 -0.1475
 2754ntf    fn414302   0.962   1.140   3.973 -0.0669  0.4424 -0.0136
 2754ntf    fn414303   0.762   1.205   3.905  0.2032 -0.0716 -0.1733
 2754ntf    on514304   0.963   0.971   3.777 -0.3053  0.5054  0.3678
 2754ntf    on514305   0.803   0.855   3.931 -0.2280  0.0946  0.2623
 2754ntf    on514306   0.814   0.981   3.507  0.1604  0.0879  0.0047
 2754ntf    on514307   0.754   1.200   3.592 -0.3262  0.5087  0.1142
 2754ntf    fn414308   0.517   0.913   3.539 -0.2290 -0.3145  0.3166
 2754ntf    fn414309   0.470   1.115   3.591 -0.0166 -0.0749  0.0001
 2754ntf    fn414310   0.567   1.069   3.405  0.6787 -0.3859  0.2520
 2755ntf    cn114311   0.267   6.968   4.028  0.2193 -0.1881 -0.0036
 2755ntf    sn214312   0.197   6.805   3.986 -0.1625 -0.0739  0.1886
 2755ntf    nn314313   0.295   6.722   4.075  0.4292  0.0563 -0.3291
 2755ntf    sn214314   0.427   6.656   4.021  0.3075  0.0022 -0.5589
 2755ntf    cn114315   0.551   6.724   4.136  0.1422 -0.2331 -0.2400
 2755ntf    fn414316   0.362   7.012   3.947  0.2918 -0.0304  0.1671
 2755ntf    fn414317   0.178   7.066   4.034  0.0920 -0.3000 -0.0609
 2755ntf    fn414318   0.327   6.961   4.145  0.3023  0.0263 -0.0319
 2755ntf    on514319   0.067   6.819   4.047 -0.2070 -0.2812  0.1390
 2755ntf    on514320   0.205   6.802   3.842  0.0115  0.6251  0.1794
 2755ntf    on514321   0.481   6.704   3.896  1.3843 -0.1929 -0.1756
 2755ntf    on514322   0.412   6.514   4.039  0.0842  0.0895 -0.0193
 2755ntf    fn414323   0.565   6.855   4.139  0.6528 -0.3016  0.5707
 2755ntf    fn414324   0.525   6.680   4.258 -0.0138  0.1368 -0.1374
 2755ntf    fn414325   0.670   6.681   4.097  0.5323  0.2392  0.4148
 2756ntf    cn114326   0.305   4.843   0.267 -0.3675  0.2462  0.0274
 2756ntf    sn214327   0.477   4.894   0.239 -0.1467 -0.3329  0.3254
 2756ntf    nn314328   0.500   4.823   0.101  0.3582  0.0128  0.2297
 2756ntf    sn214329   0.448   4.874  -0.038  0.1076  0.2011  0.3919
 2756ntf    cn114330   0.605   4.944  -0.098  0.1023  0.0635  0.2181
 2756ntf    fn414331   0.247   4.875   0.382  0.3545 -0.2196  0.5251
 2756ntf    fn414332   0.225   4.879   0.168 -0.6923 -0.3113  0.0800
 2756ntf    fn414333   0.295   4.711   0.265 -0.1573  0.2296  0.1146
 2756ntf    on514334   0.477   5.038   0.245  0.1595 -0.3363  0.4532
 2756ntf    on514335   0.550   4.827   0.344 -0.4772 -0.6839  0.3335
 2756ntf    on514336   0.355   4.984  -0.034 -0.1259  0.0173  0.0371
 2756ntf    on514337   0.420   4.765  -0.128  0.0720  0.0457  0.5905
 2756ntf    fn414338   0.596   4.980  -0.225 -0.0003  0.2961  0.2907
 2756ntf    fn414339   0.634   5.055  -0.032  0.0413 -0.1198  0.5516
 2756ntf    fn414340   0.705   4.858  -0.093 -0.1954 -0.3108 -0.1669
 2757ntf    cn114341   5.753   1.085   2.244  0.2509  0.4965  0.2762
 2757ntf    sn214342   5.894   0.973   2.266 -0.0888 -0.0157 -0.1378
 2757ntf    nn314343   5.891   0.895   2.129 -0.3196 -0.3254  0.0428
 2757ntf    sn214344   5.921   0.745   2.093 -0.0405 -0.2741  0.0645
 2757ntf    cn114345   5.774   0.710   1.992  0.2422  0.0210 -0.4537
 2757ntf    fn414346   5.765   1.153   2.131 -0.0784  0.0441 -0.0340
 2757ntf    fn414347   5.638   1.019   2.244  0.4936  0.0703 -0.1158
 2757ntf    fn414348   5.744   1.171   2.344 -0.4263  0.0258  0.6259
 2757ntf    on514349   6.010   1.058   2.278  0.3046 -0.6460  0.5696
 2757ntf    on514350   5.852   0.897   2.381  0.0081  0.3176  0.1176
 2757ntf    on514351   5.916   0.654   2.205 -0.0288 -0.1419  0.1728
 2757ntf    on514352   6.027   0.724   1.997  0.3555  0.0825  0.4163
 2757ntf    fn414353   5.718   0.818   1.941  0.4749  0.3297 -0.0604
 2757ntf    fn414354   5.805   0.631   1.891 -0.4916 -0.4010 -0.3549
 2757ntf    fn414355   5.682   0.651   2.067  0.1515  0.2954 -0.3476
 2758ntf    cn114356   2.954   5.302   1.891 -0.2690 -0.0582  0.0548
 2758ntf    sn214357   3.125   5.357   1.860 -0.3430  0.1100 -0.0568
 2758ntf    nn314358   3.173   5.229   1.783 -0.2039  0.0653  0.1048
 2758ntf    sn214359   3.201   5.214   1.629 -0.0697  0.0306  0.1323
 2758ntf    cn114360   3.038   5.156   1.576  0.1090 -0.2239 -0.1421
 2758ntf    fn414361   2.911   5.318   2.015 -0.2755 -0.2291  0.0747
 2758ntf    fn414362   2.870   5.365   1.810  0.2838  0.5535 -0.0537
 2758ntf    fn414363   2.938   5.173   1.868  0.2133 -0.1191  0.0404
 2758ntf    on514364   3.114   5.480   1.786  0.1362  0.1119 -0.1283
 2758ntf    on514365   3.176   5.360   1.995 -0.3030 -0.7575 -0.0458
 2758ntf    on514366   3.285   5.099   1.607 -0.1064 -0.1102  0.7258
 2758ntf    on514367   3.229   5.334   1.553  0.1202 -0.2257 -0.2063
 2758ntf    fn414368   3.016   5.034   1.622  0.1184 -0.3630 -0.5043
 2758ntf    fn414369   2.941   5.231   1.626  0.3517 -0.1846  0.2736
 2758ntf    fn414370   3.018   5.159   1.445  0.0824  0.1729 -0.1321
 2759ntf    cn114371   2.770   1.094   4.975  0.4070  0.0149  0.0412
 2759ntf    sn214372   2.737   0.915   4.971 -0.2702  0.1380  0.0549
 2759ntf    nn314373   2.747   0.882   5.124  0.0754 -0.2297 -0.0448
 2759ntf    sn214374   2.857   0.809   5.209 -0.0144 -0.0428  0.2355
 2759ntf    cn114375   2.792   0.639   5.219  0.3640 -0.1982  0.0918
 2759ntf    fn414376   2.864   1.112   5.066 -0.1007  0.3115  0.5162
 2759ntf    fn414377   2.808   1.137   4.856  0.3342  0.3995  0.1569
 2759ntf    fn414378   2.662   1.161   5.011  0.0611 -0.2274 -0.5373
 2759ntf    on514379   2.601   0.906   4.922 -0.0963 -0.7403 -0.2742
 2759ntf    on514380   2.844   0.861   4.891 -0.0588 -0.4667  0.7373
 2759ntf    on514381   2.854   0.853   5.346 -0.1052 -0.0561  0.2379
 2759ntf    on514382   2.990   0.811   5.154 -0.3032  0.1046 -0.4806
 2759ntf    fn414383   2.683   0.626   5.294 -0.1781 -0.1519 -0.6765
 2759ntf    fn414384   2.761   0.577   5.107 -0.6550  0.5314 -0.0506
 2759ntf    fn414385   2.879   0.561   5.281  0.3780 -0.3219 -0.0835
 2760ntf    cn114386   6.886   4.182   1.220 -0.0162  0.0973 -0.4070
 2760ntf    sn214387   6.775   4.225   1.083 -0.2315 -0.0687 -0.2849
 2760ntf    nn314388   6.797   4.102   0.988 -0.1052 -0.2473 -0.0250
 2760ntf    sn214389   6.694   4.033   0.892 -0.0926 -0.2054 -0.0692
 2760ntf    cn114390   6.630   3.895   0.991 -0.0137  0.1010  0.4121
 2760ntf    fn414391   6.859   4.059   1.260 -0.0397  0.0379 -0.6049
 2760ntf    fn414392   7.012   4.190   1.181  0.0499  0.0479 -0.2039
 2760ntf    fn414393   6.869   4.266   1.321 -0.0704 -0.0820 -0.2666
 2760ntf    on514394   6.647   4.242   1.148 -0.2928  0.1880 -0.4694
 2760ntf    on514395   6.831   4.345   1.026  0.2537 -0.2032 -0.0990
 2760ntf    on514396   6.761   3.969   0.781 -0.1094 -0.0365 -0.1777
 2760ntf    on514397   6.582   4.118   0.860  0.0463 -0.0823 -0.2282
 2760ntf    fn414398   6.723   3.815   1.041  0.1469  0.0377  0.0131
 2760ntf    fn414399   6.560   3.948   1.090 -0.2937 -0.2626  0.4095
 2760ntf    fn414400   6.546   3.815   0.927  0.2837  0.2802 -0.2057
 2761ntf    cn114401   4.314   6.696   4.506  0.4260 -0.5220 -0.2353
 2761ntf    sn214402   4.403   6.822   4.409  0.1302 -0.1624 -0.0421
 2761ntf    nn314403   4.290   6.930   4.408 -0.0019 -0.2973  0.2913
 2761ntf    sn214404   4.181   6.973   4.303  0.1392 -0.0509  0.2458
 2761ntf    cn114405   4.236   7.144   4.272 -0.4483  0.1362  0.2313
 2761ntf    fn414406   4.319   6.736   4.632  0.2441  0.3782 -0.5067
 2761ntf    fn414407   4.189   6.677   4.469  0.3279 -0.2185 -0.0590
 2761ntf    fn414408   4.364   6.573   4.504  0.1629 -0.6230 -0.9721
 2761ntf    on514409   4.517   6.864   4.487  0.1205 -0.3600  0.0795
 2761ntf    on514410   4.431   6.752   4.286  0.1415  0.2985 -0.3039
 2761ntf    on514411   4.052   6.988   4.364  0.0455  0.2372 -0.0206
 2761ntf    on514412   4.189   6.901   4.179  0.6026 -0.5101  0.5350
 2761ntf    fn414413   4.364   7.153   4.239 -0.3596 -0.1175  0.5039
 2761ntf    fn414414   4.185   7.206   4.166 -0.3018  0.2834  0.2475
 2761ntf    fn414415   4.226   7.224   4.376  0.4047  0.5557  0.0040
 2762ntf    cn114416   5.299   0.527   0.375 -0.1395  0.2275 -0.1705
 2762ntf    sn214417   5.206   0.677   0.419  0.1090  0.3166  0.0531
 2762ntf    nn314418   5.257   0.785   0.317  0.0294  0.2340 -0.0752
 2762ntf    sn214419   5.211   0.808   0.169  0.0806 -0.2243 -0.1663
 2762ntf    cn114420   5.069   0.919   0.196  0.1444 -0.1782 -0.0218
 2762ntf    fn414421   5.282   0.485   0.250 -0.2776 -0.3939  0.0549
 2762ntf    fn414422   5.427   0.551   0.397 -0.2818  0.1387  0.7987
 2762ntf    fn414423   5.264   0.425   0.451 -0.0341  0.3423  0.0312
 2762ntf    on514424   5.068   0.636   0.408  0.4337 -0.7550 -0.1935
 2762ntf    on514425   5.245   0.699   0.556  0.5402 -0.3996  0.0499
 2762ntf    on514426   5.153   0.696   0.099 -0.6469  0.0933 -0.0865
 2762ntf    on514427   5.307   0.893   0.103 -0.1936  0.2480  0.0369
 2762ntf    fn414428   4.977   0.932   0.102  0.1071  0.1410  0.0585
 2762ntf    fn414429   5.001   0.894   0.307 -0.2322  0.0693 -0.1933
 2762ntf    fn414430   5.117   1.041   0.209  0.1428 -0.1727 -0.0659
 2763ntf    cn114431   4.768   4.844   1.405 -0.3231  0.1713 -0.4881
 2763ntf    sn214432   4.669   4.873   1.555  0.2865 -0.1600 -0.0144
 2763ntf    nn314433   4.604   4.730   1.561 -0.3976  0.1239 -0.5566
 2763ntf    sn214434   4.593   4.626   1.677 -0.1146  0.2707 -0.3977
 2763ntf    cn114435   4.456   4.703   1.768 -0.0085 -0.0569  0.0437
 2763ntf    fn414436   4.835   4.950   1.362  0.2005  0.0433 -0.0170
 2763ntf    fn414437   4.847   4.739   1.415 -0.5499  0.0777  0.4226
 2763ntf    fn414438   4.687   4.826   1.303  0.0182  0.5154 -0.8254
 2763ntf    on514439   4.771   4.908   1.650 -0.0856  0.1569  0.2708
 2763ntf    on514440   4.574   4.974   1.516  0.1972 -0.2793 -0.1079
 2763ntf    on514441   4.700   4.618   1.774 -0.5004 -0.0207  0.0107
 2763ntf    on514442   4.541   4.500   1.629  0.3362 -0.2235  0.3860
 2763ntf    fn414443   4.454   4.671   1.897 -0.0641 -0.1154  0.0283
 2763ntf    fn414444   4.455   4.835   1.759 -0.5758 -0.0579  0.0708
 2763ntf    fn414445   4.342   4.660   1.717  0.2573 -0.5292 -0.1582
 2764ntf    cn114446   6.918   5.094   3.097 -0.0788  0.0220 -0.2344
 2764ntf    sn214447   6.819   4.944   3.130  0.1958 -0.0947  0.0671
 2764ntf    nn314448   6.894   4.846   3.034 -0.6564 -0.2980 -0.3991
 2764ntf    sn214449   6.918   4.691   3.041  0.0409 -0.1840 -0.1839
 2764ntf    cn114450   7.083   4.692   3.117 -0.0800  0.0104  0.0770
 2764ntf    fn414451   7.049   5.083   3.112 -0.1029 -0.2578 -0.2210
 2764ntf    fn414452   6.903   5.139   2.973  0.0819  0.3503 -0.1354
 2764ntf    fn414453   6.882   5.198   3.170 -0.3454  0.2837 -0.7343
 2764ntf    on514454   6.843   4.920   3.270 -0.1330  0.3391  0.2019
 2764ntf    on514455   6.684   4.973   3.087  0.2236 -0.1666 -0.0688
 2764ntf    on514456   6.929   4.627   2.912 -0.0280  0.1086 -0.3344
 2764ntf    on514457   6.834   4.629   3.142 -0.3980  0.1193 -0.3601
 2764ntf    fn414458   7.161   4.588   3.093  0.0031  0.1730 -0.3571
 2764ntf    fn414459   7.152   4.799   3.081 -0.1620  0.0196 -0.0531
 2764ntf    fn414460   7.086   4.709   3.249  0.1450 -0.1971  0.0986
 2765ntf    cn114461   4.968   4.653   4.062 -0.0341 -0.1628  0.1320
 2765ntf    sn214462   5.046   4.736   4.204  0.3590 -0.0607 -0.1417
 2765ntf    nn314463   4.936   4.734   4.315  0.6687  0.0909  0.1704
 2765ntf    sn214464   4.936   4.692   4.467 -0.3362 -0.3237  0.0647
 2765ntf    cn114465   4.810   4.806   4.534 -0.2222 -0.2118  0.0881
 2765ntf    fn414466   4.890   4.739   3.999  0.4698  0.2274  0.0305
 2765ntf    fn414467   5.058   4.611   3.974 -0.0841 -0.2870  0.1390
 2765ntf    fn414468   4.901   4.546   4.100  0.2732 -0.3494  0.1532
 2765ntf    on514469   5.174   4.673   4.227  0.3782  0.1205  0.2552
 2765ntf    on514470   5.061   4.869   4.153  0.2811  0.0253  0.0586
 2765ntf    on514471   5.046   4.740   4.547 -0.1106  0.3070 -0.6096
 2765ntf    on514472   4.886   4.558   4.482 -0.8125 -0.1147  0.4061
 2765ntf    fn414473   4.777   4.777   4.659  0.4942  0.6118  0.4810
 2765ntf    fn414474   4.853   4.931   4.542 -0.2343 -0.2144  0.1995
 2765ntf    fn414475   4.694   4.811   4.471 -0.0877  0.1520 -0.1333
 2766ntf    cn114476   6.761   3.726   3.531 -0.4839 -0.2709 -0.0819
 2766ntf    sn214477   6.768   3.716   3.712 -0.0956 -0.0172 -0.0796
 2766ntf    nn314478   6.711   3.859   3.742 -0.2906 -0.1035 -0.0357
 2766ntf    sn214479   6.560   3.897   3.767 -0.2602 -0.0557  0.0806
 2766ntf    cn114480   6.568   4.061   3.690 -0.3870 -0.0221  0.1398
 2766ntf    fn414481   6.637   3.706   3.491 -0.4280 -0.3890 -0.1973
 2766ntf    fn414482   6.801   3.844   3.486 -0.0348 -0.3238  0.1642
 2766ntf    fn414483   6.833   3.630   3.475 -0.2202  0.0179 -0.2444
 2766ntf    on514484   6.687   3.603   3.752 -0.1078  0.2824  0.7731
 2766ntf    on514485   6.907   3.698   3.747 -0.0593  0.2680 -0.0775
 2766ntf    on514486   6.534   3.927   3.905 -0.1017 -0.4988  0.2093
 2766ntf    on514487   6.462   3.826   3.689 -0.1169  0.4354 -0.5532
 2766ntf    fn414488   6.445   4.110   3.679 -0.4128 -0.1575 -0.1893
 2766ntf    fn414489   6.634   4.148   3.764  0.2257 -0.0972 -0.3146
 2766ntf    fn414490   6.613   4.061   3.566 -0.3351 -0.4299  0.1581
 2767ntf    cn114491   6.375   1.422   2.612 -0.1080 -0.1015 -0.1547
 2767ntf    sn214492   6.529   1.443   2.707 -0.3023  0.1201  0.1146
 2767ntf    nn314493   6.473   1.500   2.842 -0.3308 -0.3169  0.2902
 2767ntf    sn214494   6.446   1.648   2.886 -0.3422 -0.1820 -0.1661
 2767ntf    cn114495   6.439   1.625   3.066 -0.2196 -0.0114 -0.1394
 2767ntf    fn414496   6.325   1.537   2.572 -0.2414 -0.0837  0.0603
 2767ntf    fn414497   6.389   1.358   2.497  0.2469  0.1340 -0.2438
 2767ntf    fn414498   6.283   1.362   2.686  0.4682 -0.3718  0.3558
 2767ntf    on514499   6.577   1.307   2.717  0.3981  0.3417 -0.2046
 2767ntf    on514500   6.599   1.538   2.625 -0.2808  0.1642  0.1842
 2767ntf    on514501   6.317   1.702   2.848 -0.2003 -0.1615 -0.6278
 2767ntf    on514502   6.563   1.732   2.875 -0.0423 -0.5159  0.4545
 2767ntf    fn414503   6.344   1.541   3.103 -0.1732  0.0286  0.0728
 2767ntf    fn414504   6.556   1.580   3.106 -0.5151 -0.0510  0.7160
 2767ntf    fn414505   6.412   1.734   3.137  0.1445 -0.2934  0.4377
 2768ntf    cn114506   1.676   5.584   5.325 -0.1428 -0.1170  0.0897
 2768ntf    sn214507   1.683   5.752   5.394  0.1153 -0.0870 -0.0073
 2768ntf    nn314508   1.760   5.818   5.274  0.1668 -0.0663  0.0363
 2768ntf    sn214509   1.746   5.965   5.221 -0.1567 -0.0829  0.0719
 2768ntf    cn114510   1.608   5.945   5.104 -0.2138 -0.2505  0.1661
 2768ntf    fn414511   1.654   5.491   5.416 -0.3140  0.1465  0.3165
 2768ntf    fn414512   1.584   5.583   5.229 -0.1945  0.0285  0.1372
 2768ntf    fn414513   1.796   5.564   5.272 -0.0604  0.5490  0.0182
 2768ntf    on514514   1.544   5.780   5.417  0.1827 -0.1303  0.4607
 2768ntf    on514515   1.765   5.750   5.513 -0.0897 -0.0727  0.1350
 2768ntf    on514516   1.857   5.992   5.132  0.1205  0.0281  0.4488
 2768ntf    on514517   1.713   6.070   5.314 -0.2781 -0.0224 -0.0397
 2768ntf    fn414518   1.612   6.045   5.017  0.2543 -0.1345  0.3152
 2768ntf    fn414519   1.618   5.833   5.034 -0.2809 -0.0141 -0.2279
 2768ntf    fn414520   1.485   5.949   5.152 -0.3368  0.3409 -0.1857
 2769ntf    cn114521   6.446   4.819   0.831 -0.1845  0.3381 -0.6185
 2769ntf    sn214522   6.365   4.934   0.945  0.1291 -0.0107 -0.0416
 2769ntf    nn314523   6.493   4.983   1.022 -0.0267 -0.1325  0.2964
 2769ntf    sn214524   6.503   5.045   1.166 -0.2936  0.0796  0.2256
 2769ntf    cn114525   6.543   4.904   1.273  0.3292  0.0183 -0.0854
 2769ntf    fn414526   6.551   4.875   0.774  0.5476 -0.4618 -0.0736
 2769ntf    fn414527   6.484   4.706   0.888 -0.7008  0.4095 -0.1296
 2769ntf    fn414528   6.363   4.779   0.735 -0.2730 -0.3619 -0.2533
 2769ntf    on514529   6.309   5.039   0.864 -0.3455  0.1733  0.5123
 2769ntf    on514530   6.271   4.858   1.024 -0.0164 -0.0029 -0.2080
 2769ntf    on514531   6.375   5.092   1.214 -0.2373  0.5636 -0.0918
 2769ntf    on514532   6.617   5.132   1.184 -0.0023 -0.1013 -0.6863
 2769ntf    fn414533   6.573   4.940   1.397  0.0905 -0.3130  0.0694
 2769ntf    fn414534   6.442   4.821   1.295  0.0694  0.3824  0.1005
 2769ntf    fn414535   6.635   4.824   1.221  0.7373  0.1269  0.4547
 2770ntf    cn114536   6.975   4.929   5.131 -0.0947 -0.5049 -0.4884
 2770ntf    sn214537   7.057   4.900   4.972  0.0200  0.0850 -0.5407
 2770ntf    nn314538   7.200   4.863   5.026  0.0481  0.4918 -0.3392
 2770ntf    sn214539   7.329   4.951   5.038  0.0779  0.3900  0.1185
 2770ntf    cn114540   7.390   4.897   5.200 -0.2000 -0.1979  0.0295
 2770ntf    fn414541   7.055   4.990   5.218 -0.5886  0.2586 -0.5589
 2770ntf    fn414542   6.874   5.014   5.120  0.0548 -0.2579  0.0251
 2770ntf    fn414543   6.935   4.818   5.191 -0.0356 -0.3930 -0.2384
 2770ntf    on514544   6.989   4.785   4.917 -0.1667  0.1728 -0.4913
 2770ntf    on514545   7.062   5.026   4.902 -0.2098  0.2912 -0.1890
 2770ntf    on514546   7.304   5.092   5.054 -0.7157  0.2518  0.1031
 2770ntf    on514547   7.437   4.908   4.952  0.2404  0.3875  0.3242
 2770ntf    fn414548   7.438   4.774   5.204 -0.0888 -0.1416  0.5144
 2770ntf    fn414549   7.486   4.978   5.243 -0.4852  0.2674 -0.2075
 2770ntf    fn414550   7.300   4.899   5.298 -0.0511 -0.0521  0.1653
 2771ntf    cn114551   4.659   3.662   5.890 -0.2066  0.1875 -0.0846
 2771ntf    sn214552   4.627   3.840   5.900 -0.1348  0.1899  0.1047
 2771ntf    nn314553   4.707   3.889   5.775 -0.2421 -0.1172 -0.0851
 2771ntf    sn214554   4.681   3.840   5.628 -0.0566 -0.2775 -0.0652
 2771ntf    cn114555   4.717   3.994   5.539 -0.0638 -0.2194  0.0326
 2771ntf    fn414556   4.579   3.599   5.975  0.0032  0.0550  0.0151
 2771ntf    fn414557   4.635   3.612   5.770  0.1366 -0.3474  0.0622
 2771ntf    fn414558   4.782   3.630   5.925 -0.3447 -0.2895 -0.0145
 2771ntf    on514559   4.484   3.858   5.892 -0.1541 -0.1848 -0.4150
 2771ntf    on514560   4.708   3.883   6.011 -0.3636  0.1540  0.2866
 2771ntf    on514561   4.542   3.820   5.594 -0.0827 -0.4383  0.1312
 2771ntf    on514562   4.779   3.745   5.583 -0.1354 -0.0841 -0.6567
 2771ntf    fn414563   4.609   4.070   5.550  0.2048  0.2328 -0.3889
 2771ntf    fn414564   4.820   4.066   5.581 -0.2538  0.3633 -0.4730
 2771ntf    fn414565   4.733   3.972   5.409  0.2717 -0.4164  0.1048
 2772ntf    cn114566   2.498   1.546   4.394 -0.1214  0.3685 -0.2575
 2772ntf    sn214567   2.638   1.634   4.470 -0.1703  0.0803  0.1688
 2772ntf    nn314568   2.600   1.617   4.622  0.0990 -0.0377  0.2221
 2772ntf    sn214569   2.514   1.714   4.710 -0.0226  0.0635 -0.0056
 2772ntf    cn114570   2.647   1.794   4.804  0.0116  0.0308 -0.0253
 2772ntf    fn414571   2.504   1.542   4.261  0.4668 -0.2589 -0.2224
 2772ntf    fn414572   2.503   1.418   4.427  0.2775  0.2943 -0.5988
 2772ntf    fn414573   2.381   1.591   4.435 -0.0689  0.4141 -0.1584
 2772ntf    on514574   2.747   1.544   4.444 -0.0120  0.4397 -0.4307
 2772ntf    on514575   2.642   1.763   4.404 -0.9564 -0.2345 -0.5241
 2772ntf    on514576   2.442   1.636   4.809 -0.3495  0.2902 -0.0639
 2772ntf    on514577   2.443   1.817   4.639 -0.6238 -0.2351  0.1489
 2772ntf    fn414578   2.604   1.878   4.897  0.6741  0.2094  0.1258
 2772ntf    fn414579   2.721   1.713   4.877  0.0667  0.1527  0.0546
 2772ntf    fn414580   2.733   1.854   4.724 -0.1139  0.3274  0.0621
 2773ntf    cn114581   3.677   1.559   4.501 -0.1561 -0.1188  0.3185
 2773ntf    sn214582   3.737   1.724   4.549 -0.1349  0.0835 -0.3909
 2773ntf    nn314583   3.608   1.811   4.523 -0.3227 -0.0461  0.1063
 2773ntf    sn214584   3.575   1.904   4.401 -0.2902 -0.1459  0.0211
 2773ntf    cn114585   3.429   1.812   4.342  0.1014 -0.8259  0.0997
 2773ntf    fn414586   3.551   1.537   4.534 -0.0998 -0.4012  0.3407
 2773ntf    fn414587   3.695   1.540   4.371  0.3958  0.0732  0.3647
 2773ntf    fn414588   3.747   1.464   4.560  0.0831 -0.0977  0.0751
 2773ntf    on514589   3.758   1.711   4.691 -0.6284  0.1115 -0.3133
 2773ntf    on514590   3.857   1.744   4.473  0.1399  0.7051  0.1952
 2773ntf    on514591   3.661   1.893   4.287 -0.7051 -0.3134 -0.2797
 2773ntf    on514592   3.524   2.034   4.438  0.2093  0.0252  0.1116
 2773ntf    fn414593   3.476   1.696   4.299  0.3939 -0.5868 -0.2373
 2773ntf    fn414594   3.335   1.793   4.433  0.0561  0.2979  0.3041
 2773ntf    fn414595   3.374   1.877   4.240  0.6028 -0.5289  0.0094
 2774ntf    cn114596   0.943   1.978   4.115 -0.2908 -0.2751  0.1388
 2774ntf    sn214597   1.028   2.043   4.262 -0.0610 -0.1044 -0.0683
 2774ntf    nn314598   1.157   2.108   4.200 -0.2074  0.1685 -0.0908
 2774ntf    sn214599   1.307   2.064   4.206 -0.2740 -0.0321  0.1158
 2774ntf    cn114600   1.361   2.164   4.348  0.0249 -0.0180 -0.0076
 2774ntf    fn414601   0.838   1.906   4.152 -0.2919 -0.2837  0.1197
 2774ntf    fn414602   0.906   2.068   4.026  0.7272 -0.2519 -0.2704
 2774ntf    fn414603   1.025   1.901   4.045  0.0737  0.0122  0.2475
 2774ntf    on514604   0.927   2.135   4.311  0.1254 -0.3298  0.7464
 2774ntf    on514605   1.047   1.931   4.351 -0.4201 -0.2361 -0.1546
 2774ntf    on514606   1.386   2.107   4.094 -0.1687 -0.7815 -0.1059
 2774ntf    on514607   1.333   1.930   4.252  0.7160  0.1099 -0.0060
 2774ntf    fn414608   1.292   2.136   4.457  0.4260 -0.6858  0.0762
 2774ntf    fn414609   1.487   2.137   4.378 -0.0453  0.0464  0.3583
 2774ntf    fn414610   1.359   2.296   4.338 -0.3227  0.0237  0.5511
 2775ntf    cn114611   0.923   2.271   0.038  0.1034 -0.2190  0.4690
 2775ntf    sn214612   0.785   2.380  -0.008  0.2609 -0.2098  0.0147
 2775ntf    nn314613   0.702   2.368   0.124 -0.0855 -0.3533 -0.2136
 2775ntf    sn214614   0.612   2.471   0.201  0.2253 -0.1982 -0.0558
 2775ntf    cn114615   0.708   2.495   0.353 -0.2890 -0.4390  0.3079
 2775ntf    fn414616   1.010   2.263  -0.062 -0.4007  0.0161  0.0063
 2775ntf    fn414617   0.982   2.316   0.148  0.4515  0.1367  0.1419
 2775ntf    fn414618   0.883   2.147   0.061  0.2972 -0.4088 -0.1903
 2775ntf    on514619   0.845   2.507  -0.040  0.0170 -0.1425 -0.1838
 2775ntf    on514620   0.716   2.302  -0.108  0.5368 -0.2895 -0.1160
 2775ntf    on514621   0.489   2.408   0.241 -0.2467  0.9058  0.2923
 2775ntf    on514622   0.601   2.604   0.145  0.3326 -0.2009 -0.0833
 2775ntf    fn414623   0.639   2.539   0.458 -0.0740 -0.0526  0.2891
 2775ntf    fn414624   0.763   2.381   0.389  0.8079  0.0253  0.1454
 2775ntf    fn414625   0.814   2.574   0.341 -0.5940 -0.0283  0.2895
 2776ntf    cn114626   0.520   4.173   4.616  0.3611 -0.0410 -0.0884
 2776ntf    sn214627   0.446   4.304   4.719  0.0613 -0.3751  0.1266
 2776ntf    nn314628   0.535   4.319   4.847  0.0829  0.1566  0.0509
 2776ntf    sn214629   0.485   4.291   4.993  0.1548  0.1338  0.0721
 2776ntf    cn114630   0.424   4.461   5.017 -0.0415  0.0265  0.3209
 2776ntf    fn414631   0.565   4.071   4.687 -0.2727 -0.1181  0.2132
 2776ntf    fn414632   0.438   4.113   4.532 -0.4184  0.7580  0.0834
 2776ntf    fn414633   0.620   4.213   4.540 -0.3243  0.5375 -0.6933
 2776ntf    on514634   0.465   4.419   4.633 -0.3316  0.1483  0.7338
 2776ntf    on514635   0.312   4.256   4.740 -0.0696 -0.0755 -0.0292
 2776ntf    on514636   0.593   4.270   5.087  0.4191  0.2061 -0.2144
 2776ntf    on514637   0.364   4.215   5.012  0.0757  0.3222  0.3290
 2776ntf    fn414638   0.352   4.479   5.127 -0.3512  0.5310  0.0360
 2776ntf    fn414639   0.524   4.547   5.011  0.3006 -0.3392  0.6684
 2776ntf    fn414640   0.343   4.486   4.915  0.6684  0.1574 -0.2120
 2777ntf    cn114641   2.472   5.582   6.581  0.3632 -0.1292  0.1600
 2777ntf    sn214642   2.452   5.542   6.758  0.0450  0.1210  0.1806
 2777ntf    nn314643   2.509   5.669   6.832  0.2523  0.1768 -0.0734
 2777ntf    sn214644   2.496   5.707   6.983 -0.1934 -0.1546 -0.0261
 2777ntf    cn114645   2.358   5.826   6.982  0.0184  0.0930  0.1076
 2777ntf    fn414646   2.400   5.502   6.505  0.0670  0.3933 -0.1113
 2777ntf    fn414647   2.418   5.701   6.565  0.2546 -0.2150 -0.1224
 2777ntf    fn414648   2.596   5.578   6.537  0.3776 -0.3033  0.2135
 2777ntf    on514649   2.309   5.528   6.767  0.0682 -0.4126 -0.2176
 2777ntf    on514650   2.528   5.421   6.775  0.5486  0.3817 -0.1913
 2777ntf    on514651   2.605   5.788   7.032 -0.4874  0.1462  0.1309
 2777ntf    on514652   2.446   5.602   7.069  0.1712  0.0287  0.4186
 2777ntf    fn414653   2.334   5.892   7.094 -0.5077  0.3697 -0.1665
 2777ntf    fn414654   2.381   5.923   6.896  0.4082 -0.0305  0.0668
 2777ntf    fn414655   2.245   5.768   6.946  0.0637 -0.0670  0.2206
 2778ntf    cn114656   0.260   5.200   6.006 -0.0531  0.1595 -0.1372
 2778ntf    sn214657   0.258   5.380   5.979 -0.1005  0.1528 -0.1805
 2778ntf    nn314658   0.113   5.410   6.033 -0.0221  0.1288  0.0453
 2778ntf    sn214659   0.067   5.510   6.146 -0.2261  0.1154 -0.0264
 2778ntf    cn114660  -0.075   5.595   6.070 -0.5397 -0.1377  0.2728
 2778ntf    fn414661   0.215   5.165   6.126  0.7221 -0.3551  0.0039
 2778ntf    fn414662   0.185   5.136   5.918  0.4441  0.1922 -0.5863
 2778ntf    fn414663   0.386   5.163   5.999 -0.0815 -0.0211  0.2589
 2778ntf    on514664   0.368   5.425   6.061  0.3916 -0.7187 -0.3498
 2778ntf    on514665   0.268   5.401   5.837 -0.0443 -0.0519 -0.2062
 2778ntf    on514666   0.159   5.619   6.163 -0.4645  0.1497  1.0952
 2778ntf    on514667   0.021   5.446   6.267 -1.0225  0.1981 -0.2778
 2778ntf    fn414668  -0.034   5.677   5.974  0.0632 -0.4158  0.2839
 2778ntf    fn414669  -0.153   5.510   6.006 -0.5815 -0.2261  0.4412
 2778ntf    fn414670  -0.150   5.660   6.157 -0.3006  0.4720  0.0294
 2779ntf    cn114671   6.629   1.017   6.668  0.2601  0.2378  0.5508
 2779ntf    sn214672   6.651   0.967   6.495  0.1279  0.1955  0.5460
 2779ntf    nn314673   6.668   0.812   6.516 -0.0500  0.0547 -0.3083
 2779ntf    sn214674   6.557   0.702   6.503  0.0147 -0.0767  0.2340
 2779ntf    cn114675   6.530   0.696   6.323 -0.1179  0.1174  0.2477
 2779ntf    fn414676   6.736   0.980   6.737  0.3494  0.0116  0.2932
 2779ntf    fn414677   6.612   1.148   6.674  0.1225  0.2705 -0.4432
 2779ntf    fn414678   6.521   0.964   6.722  0.0618 -0.1622 -0.2207
 2779ntf    on514679   6.530   1.004   6.425 -0.1052 -0.3418  0.6608
 2779ntf    on514680   6.775   1.028   6.453 -0.3730  0.8315 -0.0191
 2779ntf    on514681   6.440   0.737   6.579 -0.6347 -0.0717 -0.7507
 2779ntf    on514682   6.608   0.570   6.533 -0.2384 -0.2511 -0.0858
 2779ntf    fn414683   6.440   0.602   6.296  0.2721 -0.2043  0.0530
 2779ntf    fn414684   6.494   0.805   6.258  0.4661  0.1444 -0.0331
 2779ntf    fn414685   6.637   0.665   6.252 -0.1244 -0.1319  0.3449
 2780ntf    cn114686   1.822   3.608   1.639 -0.0348 -0.4358 -0.0737
 2780ntf    sn214687   1.935   3.744   1.679 -0.1669 -0.4193  0.2440
 2780ntf    nn314688   2.054   3.717   1.580  0.0588  0.3487  0.2948
 2780ntf    sn214689   2.058   3.731   1.424  0.0122  0.0292  0.2639
 2780ntf    cn114690   2.131   3.894   1.390  0.1102 -0.0618  0.0290
 2780ntf    fn414691   1.872   3.489   1.668 -0.0496 -0.4256 -0.0062
 2780ntf    fn414692   1.713   3.619   1.713  0.3870 -0.4215  0.5512
 2780ntf    fn414693   1.788   3.598   1.511  0.0977  0.3216 -0.1721
 2780ntf    on514694   1.871   3.869   1.645 -0.2979 -0.4788  0.2750
 2780ntf    on514695   1.978   3.731   1.816 -0.1406 -0.0919  0.2683
 2780ntf    on514696   1.932   3.739   1.355  0.2195  0.0296 -0.1214
 2780ntf    on514697   2.156   3.636   1.376 -0.3158  0.0024 -0.3568
 2780ntf    fn414698   2.143   3.915   1.260 -0.3632  0.3352  0.0486
 2780ntf    fn414699   2.060   3.997   1.433  0.3442  0.0937  0.0458
 2780ntf    fn414700   2.250   3.902   1.448  0.0196  0.1816  0.1851
 2781ntf    cn114701   6.608   0.159   5.833  0.3917 -0.3858 -0.4812
 2781ntf    sn214702   6.600   0.272   5.690 -0.2741  0.0541 -0.1027
 2781ntf    nn314703   6.586   0.414   5.755 -0.0054  0.2377 -0.4468
 2781ntf    sn214704   6.452   0.484   5.797 -0.0425 -0.1587  0.1069
 2781ntf    cn114705   6.488   0.531   5.969  0.0769  0.4839 -0.0894
 2781ntf    fn414706   6.510   0.194   5.915  0.9156 -0.2112  0.0809
 2781ntf    fn414707   6.605   0.031   5.803  0.0164 -0.4804 -0.0401
 2781ntf    fn414708   6.721   0.181   5.899 -0.1242  0.4169  0.1567
 2781ntf    on514709   6.731   0.263   5.632 -0.4358  0.3468 -0.5196
 2781ntf    on514710   6.490   0.218   5.613 -0.0747 -0.1473 -0.2474
 2781ntf    on514711   6.340   0.393   5.804 -0.3543  0.2335  0.2235
 2781ntf    on514712   6.435   0.613   5.734  0.0863 -0.1685  0.0511
 2781ntf    fn414713   6.394   0.605   6.023 -0.5537 -0.0357 -0.4530
 2781ntf    fn414714   6.494   0.419   6.040 -0.1382  0.0129 -0.7952
 2781ntf    fn414715   6.603   0.595   5.980  0.1749  0.2860  0.0401
 2782ntf    cn114716   3.654   1.936   1.594 -0.5237 -0.4015  0.1032
 2782ntf    sn214717   3.772   1.880   1.720  0.0991 -0.0164 -0.3044
 2782ntf    nn314718   3.902   1.926   1.645 -0.0630  0.2197 -0.4414
 2782ntf    sn214719   4.034   1.982   1.708 -0.2452  0.1728 -0.0198
 2782ntf    cn114720   4.079   1.838   1.809  0.0373  0.0747 -0.2857
 2782ntf    fn414721   3.665   2.066   1.573  0.2781 -0.4537  0.1796
 2782ntf    fn414722   3.666   1.875   1.477 -0.4519 -0.4333  0.1274
 2782ntf    fn414723   3.529   1.919   1.635 -0.4894 -0.2725  0.2606
 2782ntf    on514724   3.745   1.954   1.841 -0.1099 -0.1818 -0.2488
 2782ntf    on514725   3.764   1.736   1.727  0.1180 -0.0233 -0.4155
 2782ntf    on514726   4.021   2.083   1.811  0.4488  0.2370  0.0066
 2782ntf    on514727   4.141   1.995   1.612  0.0427  0.4277  0.3309
 2782ntf    fn414728   4.070   1.730   1.735  0.1308 -0.1216 -0.0147
 2782ntf    fn414729   4.209   1.840   1.834  0.0648  0.0877 -0.4315
 2782ntf    fn414730   4.010   1.826   1.921  0.4742  0.0725 -0.0099
 2783ntf    cn114731   5.959   1.083   4.890  0.2003  0.0901  0.0492
 2783ntf    sn214732   5.806   1.150   4.818  0.1100 -0.0508  0.1109
 2783ntf    nn314733   5.822   1.303   4.849 -0.3718  0.0034  0.0981
 2783ntf    sn214734   5.882   1.418   4.761  0.0018 -0.2263  0.0507
 2783ntf    cn114735   5.988   1.498   4.885  0.0213 -0.2564  0.0537
 2783ntf    fn414736   5.986   0.959   4.853 -0.4411 -0.0902  0.1866
 2783ntf    fn414737   6.059   1.158   4.845  0.4193 -0.3872 -0.2714
 2783ntf    fn414738   5.951   1.083   5.022 -0.5000  0.5097  0.0092
 2783ntf    on514739   5.818   1.113   4.679  0.1662 -0.0366  0.1114
 2783ntf    on514740   5.693   1.095   4.888  0.5222 -0.0014  0.8242
 2783ntf    on514741   5.784   1.522   4.741 -0.3035 -0.4519  0.3781
 2783ntf    on514742   5.985   1.393   4.662  0.3739 -0.2245  0.4352
 2783ntf    fn414743   5.921   1.553   4.985  0.0208 -0.2884  0.0715
 2783ntf    fn414744   6.072   1.415   4.944 -0.0684 -0.5070 -0.1703
 2783ntf    fn414745   6.062   1.598   4.839  0.1597 -0.3378  0.1001
 2784ntf    cn114746   0.654   4.175   0.317  0.2843  0.3795  0.0477
 2784ntf    sn214747   0.682   4.106   0.483 -0.1919  0.0315 -0.0152
 2784ntf    nn314748   0.773   3.987   0.438 -0.2746 -0.1263  0.2324
 2784ntf    sn214749   0.738   3.835   0.420 -0.1029 -0.1745  0.2980
 2784ntf    cn114750   0.903   3.769   0.459 -0.1473 -0.3935  0.1160
 2784ntf    fn414751   0.619   4.083   0.228 -0.1036  0.2154  0.3689
 2784ntf    fn414752   0.554   4.261   0.319 -0.2662 -0.2443 -0.3455
 2784ntf    fn414753   0.764   4.236   0.274  0.2589  0.5287  0.1965
 2784ntf    on514754   0.735   4.217   0.559  0.9622 -0.6531  0.1975
 2784ntf    on514755   0.554   4.059   0.529 -0.1013 -0.1680  0.0337
 2784ntf    on514756   0.721   3.791   0.284 -0.1145 -0.0649  0.2636
 2784ntf    on514757   0.659   3.775   0.524 -0.3144 -0.0439  0.2135
 2784ntf    fn414758   0.932   3.780   0.587  0.1565  0.4208 -0.0175
 2784ntf    fn414759   0.926   3.644   0.421  0.1329 -0.2984 -0.0308
 2784ntf    fn414760   0.992   3.851   0.406 -0.1456 -0.0155  0.6967
 2785ntf    cn114761   1.520   3.188   6.998 -0.0599 -0.0545 -0.4566
 2785ntf    sn214762   1.370   3.211   6.898 -0.2070  0.0203 -0.2192
 2785ntf    nn314763   1.383   3.367   6.883 -0.5716 -0.0053 -0.8438
 2785ntf    sn214764   1.268   3.469   6.915 -0.4978 -0.2370  0.1984
 2785ntf    cn114765   1.296   3.602   6.794  0.0599 -0.2549  0.3072
 2785ntf    fn414766   1.636   3.201   6.935 -0.0177 -0.0578 -0.3788
 2785ntf    fn414767   1.527   3.269   7.102  0.1437 -0.2162 -0.3425
 2785ntf    fn414768   1.520   3.067   7.051  0.7692  0.1009 -0.0856
 2785ntf    on514769   1.403   3.153   6.770  0.6078  0.8215 -0.3912
 2785ntf    on514770   1.257   3.164   6.973 -0.0364 -0.3340 -0.1830
 2785ntf    on514771   1.292   3.544   7.036  0.5793 -0.2417 -0.0106
 2785ntf    on514772   1.134   3.419   6.892 -0.5426  0.2082 -0.5312
 2785ntf    fn414773   1.206   3.698   6.797  0.6832  0.3645 -0.4074
 2785ntf    fn414774   1.417   3.653   6.810 -0.1120  0.1732  0.2581
 2785ntf    fn414775   1.282   3.540   6.678  0.4315  0.6096 -0.2019
 2786ntf    cn114776   2.906   4.239   0.795  0.4691  0.3977 -0.1429
 2786ntf    sn214777   2.813   4.394   0.781  0.2220  0.2940  0.3519
 2786ntf    nn314778   2.726   4.384   0.912 -0.3504  0.7589  0.0115
 2786ntf    sn214779   2.764   4.416   1.061 -0.0921  0.2441  0.0561
 2786ntf    cn114780   2.720   4.260   1.144  0.1436  0.0093 -0.2551
 2786ntf    fn414781   2.820   4.144   0.828  1.1238 -0.0620  0.2496
 2786ntf    fn414782   2.967   4.193   0.687 -0.6407 -0.7336 -0.3141
 2786ntf    fn414783   3.002   4.238   0.885  0.4224  0.3090 -0.0943
 2786ntf    on514784   2.908   4.503   0.785  0.0203  0.4898 -0.1709
 2786ntf    on514785   2.742   4.370   0.658  0.7464  0.2870  0.0512
 2786ntf    on514786   2.677   4.513   1.122  0.1013  0.3635  0.1395
 2786ntf    on514787   2.906   4.429   1.083  0.0462  0.0947 -0.6928
 2786ntf    fn414788   2.594   4.237   1.111 -0.0072 -0.1549  0.4144
 2786ntf    fn414789   2.789   4.158   1.096  0.4613  0.0479  0.1168
 2786ntf    fn414790   2.739   4.259   1.275 -0.0162 -0.0444 -0.2320
 2787ntf    cn114791   3.272   0.370   2.403  0.2089 -0.0998  0.2334
 2787ntf    sn214792   3.319   0.195   2.388  0.0820 -0.1116 -0.0257
 2787ntf    nn314793   3.370   0.188   2.239 -0.0069  0.4642 -0.0843
 2787ntf    sn214794   3.516   0.187   2.183  0.0780 -0.2029  0.1423
 2787ntf    cn114795   3.490   0.296   2.039 -0.2023  0.0185  0.3606
 2787ntf    fn414796   3.379   0.444   2.421  0.0862 -0.0242  0.6742
 2787ntf    fn414797   3.210   0.415   2.295  0.2393  0.3242  0.3917
 2787ntf    fn414798   3.196   0.393   2.509  0.0386 -0.1511  0.1245
 2787ntf    on514799   3.425   0.183   2.485  0.2273  0.4907 -0.1095
 2787ntf    on514800   3.193   0.129   2.413 -0.1153  0.1521 -0.3139
 2787ntf    on514801   3.561   0.064   2.122  0.1759 -0.0830 -0.0303
 2787ntf    on514802   3.614   0.266   2.253  0.1570  0.1917 -0.4075
 2787ntf    fn414803   3.609   0.324   1.988 -0.3848 -0.1348 -0.1508
 2787ntf    fn414804   3.411   0.260   1.940  0.1851 -0.1774  0.1189
 2787ntf    fn414805   3.445   0.414   2.078 -0.5269 -0.0343  0.1429
 2788ntf    cn114806   3.524   5.746   2.581 -0.0448  0.0067  0.2523
 2788ntf    sn214807   3.686   5.668   2.611 -0.1793 -0.1934  0.4586
 2788ntf    nn314808   3.667   5.529   2.541  0.4860  0.0174 -0.1411
 2788ntf    sn214809   3.623   5.391   2.601 -0.0603  0.3226  0.1591
 2788ntf    cn114810   3.791   5.327   2.631 -0.1144  0.1170  0.0254
 2788ntf    fn414811   3.494   5.753   2.452  0.3820  0.0199  0.1514
 2788ntf    fn414812   3.426   5.677   2.636 -0.3759 -0.1396 -0.5144
 2788ntf    fn414813   3.525   5.870   2.626  0.5152  0.0687  0.0786
 2788ntf    on514814   3.773   5.754   2.535 -0.5135 -0.0173  0.2723
 2788ntf    on514815   3.706   5.670   2.754  0.0438  0.0369  0.4241
 2788ntf    on514816   3.568   5.298   2.507 -0.5169  0.9174 -0.1686
 2788ntf    on514817   3.569   5.398   2.735  0.3146  0.6740  0.2956
 2788ntf    fn414818   3.788   5.212   2.697 -0.0170  0.3525  0.4451
 2788ntf    fn414819   3.859   5.305   2.520 -0.0272  0.0841  0.0854
 2788ntf    fn414820   3.873   5.411   2.692  0.3275  0.0648 -0.4942
 2789ntf    cn114821   1.867   2.324   3.181 -0.4208 -0.3720 -0.2217
 2789ntf    sn214822   1.853   2.364   3.358 -0.0215  0.2837 -0.3343
 2789ntf    nn314823   1.748   2.479   3.371 -0.0019  0.3538 -0.7869
 2789ntf    sn214824   1.593   2.468   3.396  0.1688 -0.0818  0.1146
 2789ntf    cn114825   1.579   2.451   3.577  0.3477  0.3861  0.1758
 2789ntf    fn414826   1.891   2.430   3.105 -0.2936 -0.1404  0.1381
 2789ntf    fn414827   1.950   2.227   3.145 -0.3547 -0.4939  0.2503
 2789ntf    fn414828   1.745   2.292   3.142 -0.6895  0.0235  0.2797
 2789ntf    on514829   1.809   2.245   3.427 -0.1121  0.4812 -0.0538
 2789ntf    on514830   1.989   2.405   3.385  0.0657 -0.2813  0.1169
 2789ntf    on514831   1.535   2.351   3.337 -0.3937  0.2386  0.0225
 2789ntf    on514832   1.529   2.595   3.368  0.2467  0.0746  0.6360
 2789ntf    fn414833   1.634   2.343   3.630 -0.4912  0.0788  0.4224
 2789ntf    fn414834   1.647   2.546   3.639  0.1086  0.0851  0.9117
 2789ntf    fn414835   1.454   2.454   3.620  0.2384  0.1843 -0.1162
 2790ntf    cn114836   0.903   3.131   3.453 -0.1323  0.0453 -0.1299
 2790ntf    sn214837   1.015   3.091   3.591 -0.1961 -0.3720 -0.1978
 2790ntf    nn314838   0.906   3.056   3.698 -0.2118  0.0835 -0.0646
 2790ntf    sn214839   0.901   3.087   3.852 -0.1722 -0.2815  0.0097
 2790ntf    cn114840   0.732   3.150   3.874  0.0328  0.1940  0.2301
 2790ntf    fn414841   0.826   3.031   3.415 -0.1876  0.0661 -0.0728
 2790ntf    fn414842   0.812   3.219   3.492  0.1956  0.3483 -0.0423
 2790ntf    fn414843   0.959   3.177   3.342  0.0929  0.1661  0.0329
 2790ntf    on514844   1.088   2.973   3.550  0.2661 -0.1310 -0.0772
 2790ntf    on514845   1.092   3.210   3.616  0.3178 -0.6922 -0.2398
 2790ntf    on514846   0.979   3.201   3.891  0.0090 -0.3140 -0.2571
 2790ntf    on514847   0.903   2.965   3.929  0.7804 -0.5393 -0.4097
 2790ntf    fn414848   0.710   3.200   3.995 -0.7018 -0.0178  0.1922
 2790ntf    fn414849   0.696   3.239   3.783 -0.2532  0.2122  0.3588
 2790ntf    fn414850   0.641   3.055   3.860  0.3845 -0.0207 -0.6369
 2791ntf    cn114851   0.345   5.478   1.561 -0.1558 -0.0120 -0.1328
 2791ntf    sn214852   0.323   5.606   1.688 -0.1920  0.2255 -0.3747
 2791ntf    nn314853   0.289   5.733   1.602 -0.0349  0.1624 -0.5295
 2791ntf    sn214854   0.140   5.780   1.593 -0.0593  0.2012  0.0437
 2791ntf    cn114855   0.141   5.888   1.447 -0.1592  0.1990  0.0417
 2791ntf    fn414856   0.364   5.360   1.617 -0.5345 -0.0665 -0.1201
 2791ntf    fn414857   0.236   5.467   1.487 -0.3408 -0.5197  0.2124
 2791ntf    fn414858   0.440   5.506   1.473 -0.3111 -0.7563 -0.5523
 2791ntf    on514859   0.224   5.565   1.785 -0.2788 -0.0579 -0.5787
 2791ntf    on514860   0.456   5.617   1.742 -0.2861  0.2859 -0.1545
 2791ntf    on514861   0.126   5.874   1.702  0.0520  0.1279  0.1222
 2791ntf    on514862   0.034   5.686   1.570  0.2623 -0.2943  0.5569
 2791ntf    fn414863   0.133   5.816   1.337  0.0183 -0.0816  0.2099
 2791ntf    fn414864   0.036   5.968   1.451 -0.1358  0.2272  0.1233
 2791ntf    fn414865   0.244   5.972   1.444  0.3057 -0.3600  0.2616
 2792ntf    cn114866   6.394   5.797   4.800 -0.0489 -0.1731 -0.0449
 2792ntf    sn214867   6.482   5.848   4.650 -0.0073  0.1379  0.0844
 2792ntf    nn314868   6.617   5.907   4.705  0.0652 -0.3964  0.4824
 2792ntf    sn214869   6.756   5.840   4.674  0.2590  0.1336  0.2003
 2792ntf    cn114870   6.868   5.971   4.732  0.2162  0.1744  0.1914
 2792ntf    fn414871   6.277   5.741   4.776 -0.2148  0.2124 -0.1326
 2792ntf    fn414872   6.463   5.714   4.877 -0.4806 -0.3924  0.1076
 2792ntf    fn414873   6.360   5.899   4.877 -0.0384 -0.1787 -0.0327
 2792ntf    on514874   6.485   5.730   4.567  0.6636  0.3567 -0.2109
 2792ntf    on514875   6.395   5.955   4.607 -0.2592 -0.0581  0.1066
 2792ntf    on514876   6.797   5.815   4.539  0.3348 -0.0476  0.2561
 2792ntf    on514877   6.777   5.731   4.766  0.2205  0.0354  0.0909
 2792ntf    fn414878   6.825   6.093   4.703 -0.3825 -0.0802  0.0047
 2792ntf    fn414879   6.883   5.967   4.863  0.0675  0.2395  0.2100
 2792ntf    fn414880   6.992   5.961   4.685  0.0359  0.9155 -0.4681
 2793ntf    cn114881   2.001   1.045   3.201 -0.0760 -0.0032  0.1787
 2793ntf    sn214882   2.173   1.075   3.251 -0.0170 -0.1106  0.0426
 2793ntf    nn314883   2.137   1.137   3.391  0.2116 -0.0195  0.0627
 2793ntf    sn214884   2.148   1.065   3.530  0.2583 -0.1900 -0.0296
 2793ntf    cn114885   2.324   1.022   3.541  0.2365 -0.1674  0.4224
 2793ntf    fn414886   1.956   0.944   3.275 -0.0813 -0.1270  0.0077
 2793ntf    fn414887   1.929   1.148   3.239  0.2672  0.2076  0.2633
 2793ntf    fn414888   1.972   1.009   3.077  0.4592  0.0335  0.0373
 2793ntf    on514889   2.239   0.947   3.247 -0.4990 -0.3587  0.0774
 2793ntf    on514890   2.216   1.174   3.155  0.2859 -0.1338  0.1514
 2793ntf    on514891   2.068   0.945   3.534  0.1701 -0.1312 -0.0320
 2793ntf    on514892   2.133   1.140   3.652  0.1747 -0.3221  0.0419
 2793ntf    fn414893   2.361   0.918   3.468 -0.7267 -0.0203 -0.2894
 2793ntf    fn414894   2.379   1.136   3.501 -0.3871 -0.0986 -0.2653
 2793ntf    fn414895   2.370   1.005   3.664 -0.3482 -0.0299  0.6623
 2794ntf    cn114896   6.238   1.163   6.851  0.0923 -0.4030  0.1448
 2794ntf    sn214897   6.117   1.194   6.719  0.3903  0.2367  0.0142
 2794ntf    nn314898   6.027   1.067   6.737 -0.1511  0.6109 -0.0376
 2794ntf    sn214899   5.951   0.989   6.623  0.1160 -0.0290  0.2195
 2794ntf    cn114900   5.785   1.062   6.626  0.1492  0.0675 -0.2074
 2794ntf    fn414901   6.301   1.048   6.834  0.0964 -0.3051 -0.5525
 2794ntf    fn414902   6.334   1.254   6.857 -0.9097  0.7029 -0.1916
 2794ntf    fn414903   6.179   1.163   6.969  0.1448 -0.0863  0.1713
 2794ntf    on514904   6.053   1.314   6.767  0.1183  0.0904  0.0215
 2794ntf    on514905   6.198   1.207   6.600 -0.2148  0.8448 -0.3353
 2794ntf    on514906   5.912   0.854   6.658 -0.4892  0.1205  0.1298
 2794ntf    on514907   5.995   1.003   6.487  0.3576 -0.2897  0.2697
 2794ntf    fn414908   5.792   1.193   6.614  0.2536  0.0199 -0.6548
 2794ntf    fn414909   5.703   1.012   6.535  0.0914 -0.4511  0.1292
 2794ntf    fn414910   5.726   1.046   6.744  0.3360 -0.0197 -0.1248
 2795ntf    cn114911   4.353   3.168   6.669 -0.0454 -0.2163 -0.1977
 2795ntf    sn214912   4.491   3.054   6.639 -0.0532 -0.3312  0.1887
 2795ntf    nn314913   4.610   3.136   6.701  0.0819 -0.1228 -0.3348
 2795ntf    sn214914   4.724   3.219   6.632  0.1779 -0.0994 -0.1484
 2795ntf    cn114915   4.843   3.085   6.601  0.2565 -0.0417 -0.0959
 2795ntf    fn414916   4.232   3.135   6.625 -0.4362 -0.0964  0.7490
 2795ntf    fn414917   4.337   3.188   6.799  0.7017 -0.0124 -0.1350
 2795ntf    fn414918   4.374   3.291   6.625 -0.2676  0.0393  0.3887
 2795ntf    on514919   4.465   2.944   6.727 -0.6034 -0.0304  0.4071
 2795ntf    on514920   4.497   3.038   6.496  0.6114  0.2474  0.1443
 2795ntf    on514921   4.789   3.308   6.725  0.0552 -0.0523 -0.1068
 2795ntf    on514922   4.693   3.281   6.506 -0.2166 -0.3607 -0.1806
 2795ntf    fn414923   4.899   3.032   6.708  0.0343 -0.3971 -0.1539
 2795ntf    fn414924   4.790   2.988   6.527  0.1806  0.1851 -0.3399
 2795ntf    fn414925   4.944   3.135   6.533 -0.3045  0.4458 -0.5886
 2796ntf    cn114926   5.888   4.614   3.629 -0.1215  0.8391 -0.2388
 2796ntf    sn214927   5.948   4.779   3.581  0.5143  0.6981  0.0522
 2796ntf    nn314928   6.079   4.744   3.502  0.3235 -0.4301  0.2229
 2796ntf    sn214929   6.099   4.709   3.350  0.2175 -0.1783  0.1503
 2796ntf    cn114930   6.146   4.870   3.279  0.0547 -0.0707  0.2870
 2796ntf    fn414931   5.868   4.534   3.526  0.4591  0.2723  0.0857
 2796ntf    fn414932   5.971   4.547   3.707  0.2049  0.8660 -0.5611
 2796ntf    fn414933   5.773   4.628   3.692  0.0685 -0.3469  0.3973
 2796ntf    on514934   5.842   4.836   3.501 -0.1648 -0.2484  0.2665
 2796ntf    on514935   5.976   4.843   3.707 -0.7800  0.5219  0.4376
 2796ntf    on514936   5.987   4.656   3.277  0.1531  0.1988 -0.0294
 2796ntf    on514937   6.220   4.631   3.339  0.1284 -0.2488 -0.3684
 2796ntf    fn414938   6.267   4.904   3.322  0.1330 -0.3155  0.2590
 2796ntf    fn414939   6.150   4.867   3.147  0.0299  0.2273  0.2782
 2796ntf    fn414940   6.063   4.963   3.325  0.0306 -0.0573  0.2159
 2797ntf    cn114941   0.247   6.835   4.773  0.1717  0.1517  0.2258
 2797ntf    sn214942   0.377   6.961   4.797  0.1515  0.2332 -0.0872
 2797ntf    nn314943   0.373   6.975   4.954  0.1384  0.3259 -0.0961
 2797ntf    sn214944   0.283   7.076   5.035 -0.1582  0.0152 -0.0356
 2797ntf    cn114945   0.409   7.207   5.040 -0.2275  0.0886 -0.2113
 2797ntf    fn414946   0.145   6.817   4.855  0.0272 -0.1558 -0.0191
 2797ntf    fn414947   0.189   6.854   4.656  0.1677 -0.0804  0.1882
 2797ntf    fn414948   0.301   6.714   4.775  0.1993  0.1629  0.1819
 2797ntf    on514949   0.497   6.894   4.753 -0.1100 -0.0316 -0.4050
 2797ntf    on514950   0.336   7.073   4.716  0.5916  0.3993 -0.0795
 2797ntf    on514951   0.266   7.031   5.171  0.4219  0.5793  0.2268
 2797ntf    on514952   0.165   7.119   4.964 -0.2705 -0.2628 -0.0181
 2797ntf    fn414953   0.364   7.324   5.081  0.5890  0.3628 -0.0737
 2797ntf    fn414954   0.516   7.165   5.105 -0.2860 -0.0440 -0.2007
 2797ntf    fn414955   0.455   7.219   4.916 -0.4817  0.4045 -0.2759
 2798ntf    cn114956   2.040   6.739   1.732  0.1866 -0.4225 -0.5850
 2798ntf    sn214957   2.202   6.687   1.667  0.3490 -0.0115 -0.5080
 2798ntf    nn314958   2.267   6.830   1.660  0.1417  0.0899 -0.4058
 2798ntf    sn214959   2.415   6.870   1.623  0.3543 -0.3192 -0.0100
 2798ntf    cn114960   2.396   7.051   1.625 -0.3813 -0.3918  0.1741
 2798ntf    fn414961   1.980   6.824   1.650 -0.1559  0.1538  0.2474
 2798ntf    fn414962   1.949   6.643   1.744  0.2255 -0.3678  0.1612
 2798ntf    fn414963   2.045   6.801   1.849  0.0542 -0.3920 -0.5956
 2798ntf    on514964   2.252   6.602   1.772 -0.0976  0.2174 -0.1031
 2798ntf    on514965   2.172   6.632   1.537 -0.7567  0.4275 -0.4523
 2798ntf    on514966   2.447   6.840   1.486 -0.1265 -0.1357 -0.1632
 2798ntf    on514967   2.517   6.846   1.723  0.2839 -0.5925 -0.0014
 2798ntf    fn414968   2.321   7.097   1.528  0.2796  0.3662  0.0138
 2798ntf    fn414969   2.338   7.094   1.736  0.0219 -0.1147  0.2795
 2798ntf    fn414970   2.515   7.108   1.620 -0.5257 -0.1005  0.0868
 2799ntf    cn114971   1.723   4.197   0.120  0.0852 -0.0314  0.3102
 2799ntf    sn214972   1.542   4.198   0.097  0.1061  0.0649  0.1476
 2799ntf    nn314973   1.490   4.064   0.160  0.1356 -0.0633 -0.0987
 2799ntf    sn214974   1.441   3.938   0.081 -0.1602 -0.0284  0.0303
 2799ntf    cn114975   1.271   3.986   0.038 -0.1128  0.0884 -0.0239
 2799ntf    fn414976   1.779   4.110   0.037  0.0642  0.5140 -0.2852
 2799ntf    fn414977   1.774   4.317   0.101  0.3883 -0.1539  0.3463
 2799ntf    fn414978   1.755   4.159   0.243  0.3494  0.2851  0.3385
 2799ntf    on514979   1.504   4.314   0.175  0.1993 -0.0359  0.3447
 2799ntf    on514980   1.529   4.202  -0.046 -0.3394 -0.1421  0.1809
 2799ntf    on514981   1.413   3.826   0.167 -0.2374 -0.1678 -0.1759
 2799ntf    on514982   1.511   3.904  -0.040 -0.1223 -0.0582  0.0605
 2799ntf    fn414983   1.204   3.893  -0.028  0.0989  0.1687 -0.3553
 2799ntf    fn414984   1.198   4.012   0.145 -0.1864 -0.0372 -0.0439
 2799ntf    fn414985   1.261   4.102  -0.026  0.2035  0.1074 -0.0389
 2800ntf    cn114986   1.376   5.892   0.694 -0.1167  0.0777  0.2738
 2800ntf    sn214987   1.200   5.889   0.741 -0.2301  0.1117 -0.1463
 2800ntf    nn314988   1.201   5.779   0.853  0.2557  0.0884 -0.1720
 2800ntf    sn214989   1.149   5.631   0.852  0.1027  0.1399  0.1598
 2800ntf    cn114990   1.112   5.600   1.027 -0.2826  0.0273  0.0604
 2800ntf    fn414991   1.457   5.915   0.796  0.4769 -0.4982 -0.0659
 2800ntf    fn414992   1.425   5.782   0.639 -0.5270  0.2213 -0.3806
 2800ntf    fn414993   1.408   5.989   0.610  0.4827  0.0441  0.4590
 2800ntf    on514994   1.184   6.019   0.801  0.6295  0.0087  0.3261
 2800ntf    on514995   1.129   5.867   0.617 -0.2654  0.0100 -0.1085
 2800ntf    on514996   1.251   5.532   0.829  0.1752  0.2204  0.1399
 2800ntf    on514997   1.025   5.610   0.781  0.0826 -0.2976  0.3172
 2800ntf    fn414998   1.222   5.629   1.095  0.0178 -0.1195 -0.3676
 2800ntf    fn414999   1.017   5.679   1.076 -0.1750  0.3037 -0.1769
 2800ntf    fn415000   1.079   5.477   1.062 -0.4692  0.0981  0.1374
 2801ntf    cn115001   0.890   6.340   5.415  0.0005 -0.2201 -0.5269
 2801ntf    sn215002   1.037   6.427   5.355 -0.0491  0.1430 -0.1284
 2801ntf    nn315003   1.054   6.376   5.207 -0.1474  0.7668 -0.3573
 2801ntf    sn215004   1.163   6.290   5.134 -0.1225  0.0995  0.4450
 2801ntf    cn115005   1.070   6.136   5.109  0.1241 -0.0080  0.1707
 2801ntf    fn415006   0.888   6.211   5.385 -0.5279 -0.3297 -0.0392
 2801ntf    fn415007   0.873   6.338   5.546 -0.1108  0.0312 -0.5378
 2801ntf    fn415008   0.781   6.389   5.358 -0.0713  0.2565  0.0083
 2801ntf    on515009   0.995   6.565   5.361  0.1364  0.1832  0.2759
 2801ntf    on515010   1.135   6.389   5.453 -0.1675  0.3300  0.0618
 2801ntf    on515011   1.267   6.253   5.226  0.3057  0.1008 -0.0330
 2801ntf    on515012   1.187   6.349   5.004  0.2065 -0.6106  0.1786
 2801ntf    fn415013   1.056   6.078   5.227 -0.0524 -0.0712  0.1193
 2801ntf    fn415014   0.947   6.151   5.060  0.1597  0.0842  0.1091
 2801ntf    fn415015   1.134   6.055   5.028 -0.0901  0.0508 -0.0603
 2802ntf    cn115016   6.362   2.652   0.182 -0.0103  0.2202 -0.1449
 2802ntf    sn215017   6.301   2.755   0.319  0.1910  0.0071  0.1085
 2802ntf    nn315018   6.357   2.895   0.275  0.4578 -0.3583 -0.7408
 2802ntf    sn215019   6.496   2.961   0.306  0.0145  0.3899 -0.3176
 2802ntf    cn115020   6.497   3.121   0.219 -0.1009  0.4334 -0.2394
 2802ntf    fn415021   6.295   2.539   0.171 -0.2608  0.3599 -0.0580
 2802ntf    fn415022   6.347   2.713   0.066  0.2078  0.4128 -0.0731
 2802ntf    fn415023   6.490   2.620   0.190 -0.0997 -0.1268 -0.0545
 2802ntf    on515024   6.158   2.754   0.303  0.1593  0.0557  0.3933
 2802ntf    on515025   6.363   2.697   0.435 -0.4844 -0.4993  0.2240
 2802ntf    on515026   6.596   2.876   0.246 -0.3207 -0.1811 -0.0730
 2802ntf    on515027   6.520   3.002   0.442 -0.6451  0.4820 -0.2234
 2802ntf    fn415028   6.453   3.098   0.096 -0.3262 -0.1312 -0.0576
 2802ntf    fn415029   6.424   3.206   0.290  0.0307  0.0133  0.4025
 2802ntf    fn415030   6.618   3.174   0.214  0.0479  0.1046 -0.1408
 2803ntf    cn115031   2.762   2.859   1.206 -0.0270 -0.3614 -0.5291
 2803ntf    sn215032   2.602   2.834   1.290  0.1394  0.0544 -0.0812
 2803ntf    nn315033   2.509   2.920   1.198  0.1486  0.4543  0.2803
 2803ntf    sn215034   2.402   3.023   1.250 -0.4097  0.0379 -0.0384
 2803ntf    cn115035   2.264   2.978   1.140 -0.2624 -0.5188 -0.0022
 2803ntf    fn415036   2.760   2.812   1.083  0.4420 -0.1807 -0.6075
 2803ntf    fn415037   2.783   2.988   1.189  0.6284 -0.3634  0.1923
 2803ntf    fn415038   2.863   2.805   1.273 -0.5802 -0.4876  0.2221
 2803ntf    on515039   2.572   2.693   1.283 -0.1994  0.1414 -0.4020
 2803ntf    on515040   2.632   2.887   1.421 -0.6854 -0.5133  0.3448
 2803ntf    on515041   2.432   3.161   1.224  0.3744 -0.1852 -0.3817
 2803ntf    on515042   2.353   2.990   1.381 -0.2476  0.2385  0.0735
 2803ntf    fn415043   2.301   2.991   1.013  0.8067 -0.6273  0.2861
 2803ntf    fn415044   2.223   2.854   1.160 -0.5415 -0.4050  0.1260
 2803ntf    fn415045   2.158   3.056   1.154  0.3426  0.3479 -0.1015
 2804ntf    cn115046   4.602   0.822   1.315 -0.1087 -0.3620 -0.2033
 2804ntf    sn215047   4.500   0.681   1.369 -0.2790 -0.0000  0.4343
 2804ntf    nn315048   4.432   0.649   1.231  0.0821 -0.2492  0.3126
 2804ntf    sn215049   4.502   0.571   1.114 -0.0792 -0.2091  0.1891
 2804ntf    cn115050   4.406   0.417   1.110  0.1566 -0.3594  0.2575
 2804ntf    fn415051   4.657   0.885   1.418 -0.3295  0.4771 -0.5916
 2804ntf    fn415052   4.696   0.781   1.232 -0.0070 -0.0408 -0.2445
 2804ntf    fn415053   4.526   0.912   1.255  0.1909  0.5559  0.7751
 2804ntf    on515054   4.595   0.587   1.424 -0.1274  0.0198  0.2058
 2804ntf    on515055   4.404   0.743   1.457  0.0348  0.5705  0.3784
 2804ntf    on515056   4.636   0.523   1.140  0.0440 -0.2298 -0.4746
 2804ntf    on515057   4.480   0.626   0.983  0.1181  0.2314  0.3383
 2804ntf    fn415058   4.289   0.441   1.054  0.4888  0.5338 -0.0684
 2804ntf    fn415059   4.458   0.326   1.029  0.2577 -0.2178  0.1626
 2804ntf    fn415060   4.389   0.368   1.232 -0.0822  0.3108  0.5021
 2805ntf    cn115061   3.625   6.459   5.920  0.4379  0.2281  0.4692
 2805ntf    sn215062   3.540   6.358   6.046  0.0859 -0.1044 -0.0276
 2805ntf    nn315063   3.404   6.435   6.060 -0.0799 -0.4484  0.2368
 2805ntf    sn215064   3.372   6.553   6.159 -0.0009 -0.2455  0.0212
 2805ntf    cn115065   3.319   6.457   6.304 -0.3063  0.1304  0.1582
 2805ntf    fn415066   3.746   6.409   5.902  0.1371 -0.2810 -0.1832
 2805ntf    fn415067   3.571   6.458   5.799 -0.2291 -0.5590  0.7602
 2805ntf    fn415068   3.629   6.586   5.956 -0.0499  0.2451  0.4743
 2805ntf    on515069   3.531   6.229   5.982  0.5533 -0.0660 -0.1756
 2805ntf    on515070   3.632   6.372   6.156  0.1295 -0.7276  0.0166
 2805ntf    on515071   3.247   6.618   6.129  0.1818 -0.0254 -0.2629
 2805ntf    on515072   3.479   6.638   6.202 -0.1038 -0.4380  0.6669
 2805ntf    fn415073   3.411   6.375   6.351 -0.1884 -0.0911 -0.4501
 2805ntf    fn415074   3.284   6.533   6.407 -0.3003 -0.0132  0.2677
 2805ntf    fn415075   3.212   6.381   6.286 -0.2912  0.2591 -0.4843
 2806ntf    cn115076   0.794   2.312   2.685 -0.0079 -0.2423  0.1636
 2806ntf    sn215077   0.761   2.297   2.863 -0.2023  0.0922  0.1582
 2806ntf    nn315078   0.656   2.180   2.863  0.0556 -0.1413  0.0168
 2806ntf    sn215079   0.500   2.195   2.862  0.0763  0.0929  0.0952
 2806ntf    cn115080   0.474   2.164   3.040 -0.3099 -0.0974  0.0087
 2806ntf    fn415081   0.685   2.310   2.611  0.2765  0.4785 -0.2905
 2806ntf    fn415082   0.857   2.425   2.658 -0.1065 -0.3697 -0.6283
 2806ntf    fn415083   0.874   2.216   2.643 -0.1058 -0.3369  0.1945
 2806ntf    on515084   0.891   2.254   2.910 -0.1765 -0.0565 -0.0469
 2806ntf    on515085   0.722   2.425   2.915  0.6831  0.2746  0.4039
 2806ntf    on515086   0.430   2.088   2.794  0.0955  0.1496 -0.0131
 2806ntf    on515087   0.445   2.327   2.848 -0.2976 -0.0188  0.4487
 2806ntf    fn415088   0.527   2.250   3.126 -0.2771  0.0785 -0.1871
 2806ntf    fn415089   0.346   2.154   3.072 -0.1101 -0.8887  0.5999
 2806ntf    fn415090   0.529   2.049   3.076 -0.4371 -0.1837 -0.0735
 2807ntf    cn115091   1.427   4.847   0.953  0.0255 -0.0643  0.0336
 2807ntf    sn215092   1.395   4.748   1.102 -0.2300  0.1300  0.1104
 2807ntf    nn315093   1.494   4.628   1.078 -0.0486  0.2363  0.3248
 2807ntf    sn215094   1.605   4.570   1.173  0.0725 -0.2675 -0.1216
 2807ntf    cn115095   1.755   4.601   1.076  0.1828 -0.3507  0.0225
 2807ntf    fn415096   1.554   4.879   0.937  0.0793 -0.2859  0.0183
 2807ntf    fn415097   1.392   4.785   0.841 -0.3696 -0.1459  0.1997
 2807ntf    fn415098   1.355   4.958   0.948 -0.3304 -0.3050 -0.2886
 2807ntf    on515099   1.429   4.838   1.210 -0.1918  0.3558 -0.0889
 2807ntf    on515100   1.256   4.712   1.088 -0.2146  0.3552 -0.6668
 2807ntf    on515101   1.607   4.426   1.179 -0.0187 -0.2791 -0.3427
 2807ntf    on515102   1.615   4.640   1.299 -0.2299  0.4020 -0.4633
 2807ntf    fn415103   1.868   4.559   1.132  0.3285 -0.5045 -0.3888
 2807ntf    fn415104   1.751   4.552   0.953  0.3115  0.2864 -0.2393
 2807ntf    fn415105   1.775   4.730   1.055  0.1266 -0.2736  0.4273
 2808ntf    cn115106   0.333   4.413   5.996  0.3994 -0.0719  0.0391
 2808ntf    sn215107   0.242   4.332   5.862 -0.0479  0.2748  0.1311
 2808ntf    nn315108   0.156   4.456   5.820 -1.0244 -0.5624 -0.3906
 2808ntf    sn215109   0.176   4.547   5.693 -0.0922  0.3084  0.3672
 2808ntf    cn115110   0.058   4.479   5.573  0.3310  0.0281  0.1089
 2808ntf    fn415111   0.264   4.458   6.099  0.4679 -0.2818  0.1780
 2808ntf    fn415112   0.411   4.321   6.051  0.2208 -0.1189  0.2129
 2808ntf    fn415113   0.410   4.512   5.956  0.4201  0.1084  0.5148
 2808ntf    on515114   0.348   4.293   5.772 -0.2839 -0.0645 -0.0034
 2808ntf    on515115   0.156   4.239   5.931  0.3252 -0.0909  0.1035
 2808ntf    on515116   0.306   4.536   5.632 -0.2194  0.1997  0.1157
 2808ntf    on515117   0.115   4.676   5.718 -0.6647  0.1725 -0.3196
 2808ntf    fn415118   0.076   4.532   5.453  0.4273 -0.0630  0.0830
 2808ntf    fn415119   0.070   4.347   5.576  0.1711  0.0118  0.0195
 2808ntf    fn415120  -0.068   4.507   5.602  0.1800  0.2504 -0.7374
 2809ntf    cn115121   6.389   5.890   3.443  0.0802 -0.1633 -0.0112
 2809ntf    sn215122   6.383   5.753   3.323  0.1308 -0.1882  0.0146
 2809ntf    nn315123   6.233   5.711   3.340  0.1111 -0.0401  0.2073
 2809ntf    sn215124   6.144   5.623   3.246  0.1924  0.0551  0.0415
 2809ntf    cn115125   6.161   5.461   3.327  0.1092 -0.1227 -0.2917
 2809ntf    fn415126   6.496   5.967   3.443 -0.0963  0.0862 -0.4139
 2809ntf    fn415127   6.289   5.974   3.419  0.0856 -0.0865  0.2381
 2809ntf    fn415128   6.368   5.845   3.566 -0.1635  0.2577  0.1015
 2809ntf    on515129   6.412   5.818   3.198  0.3885 -0.0082  0.1649
 2809ntf    on515130   6.474   5.654   3.375  0.0630  0.0093  0.5195
 2809ntf    on515131   6.192   5.595   3.113 -0.1003 -0.3648  0.0207
 2809ntf    on515132   6.004   5.656   3.258  0.2554  0.2716  0.1849
 2809ntf    fn415133   6.071   5.371   3.291  0.1372 -0.3885  0.2845
 2809ntf    fn415134   6.279   5.405   3.309  0.2598  0.2047 -0.3276
 2809ntf    fn415135   6.147   5.470   3.459  0.2579  0.2976 -0.3016
 2810ntf    cn115136   4.513   3.767   6.886 -0.3013 -0.0575  0.2531
 2810ntf    sn215137   4.654   3.828   6.789 -0.3203 -0.2649  0.0953
 2810ntf    nn315138   4.633   3.983   6.803  0.4737 -0.1402 -0.0651
 2810ntf    sn215139   4.551   4.085   6.717 -0.0957 -0.3590  0.2132
 2810ntf    cn115140   4.446   4.167   6.841 -0.0865 -0.5445  0.3430
 2810ntf    fn415141   4.399   3.790   6.823 -0.2713 -0.3202  0.1002
 2810ntf    fn415142   4.506   3.639   6.918 -0.0533 -0.0211  0.4563
 2810ntf    fn415143   4.506   3.827   7.004 -0.1889  0.3754  0.0410
 2810ntf    on515144   4.765   3.784   6.870 -0.4774  0.2240  0.5856
 2810ntf    on515145   4.636   3.767   6.660  0.2572  0.0445 -0.1371
 2810ntf    on515146   4.447   4.031   6.633  0.0238 -0.2208 -0.0273
 2810ntf    on515147   4.631   4.188   6.655 -0.1087 -0.2496  0.3759
 2810ntf    fn415148   4.516   4.253   6.913 -0.2591 -0.0395 -0.0854
 2810ntf    fn415149   4.354   4.247   6.791  0.4617  0.2349  0.5599
 2810ntf    fn415150   4.388   4.085   6.926 -0.6402  0.1520  0.6468
 2811ntf    cn115151   5.182   5.169   3.940  0.0692 -0.1440 -0.2031
 2811ntf    sn215152   5.349   5.241   3.954  0.0021  0.0187 -0.2408
 2811ntf    nn315153   5.307   5.384   4.002 -0.2065 -0.0283 -0.2786
 2811ntf    sn215154   5.303   5.519   3.922  0.0835  0.1070 -0.0693
 2811ntf    cn115155   5.477   5.565   3.899  0.2711 -0.5229  0.0565
 2811ntf    fn415156   5.175   5.037   3.929 -0.3426 -0.1373 -0.0305
 2811ntf    fn415157   5.116   5.199   4.050  0.1160 -0.1748 -0.1667
 2811ntf    fn415158   5.113   5.223   3.841 -0.0674  0.1356  0.0458
 2811ntf    on515159   5.416   5.164   4.055 -0.1171 -0.0210 -0.1914
 2811ntf    on515160   5.407   5.228   3.822 -0.5549 -0.1495 -0.4759
 2811ntf    on515161   5.255   5.625   4.007  0.3309  0.0431  0.1497
 2811ntf    on515162   5.244   5.508   3.791 -0.3820 -0.2988  0.1713
 2811ntf    fn415163   5.535   5.482   3.813  0.2110  0.1345 -0.6318
 2811ntf    fn415164   5.496   5.681   3.837 -0.2377 -0.1308  0.6226
 2811ntf    fn415165   5.541   5.569   4.015 -0.1776 -0.2036  0.2939
 2812ntf    cn115166   5.415   0.190   0.406 -0.1514 -0.1222  0.3878
 2812ntf    sn215167   5.477   0.050   0.504  0.1870 -0.0518  0.2729
 2812ntf    nn315168   5.366  -0.060   0.495  0.4109 -0.2477 -0.0898
 2812ntf    sn215169   5.326  -0.157   0.378  0.1826  0.1381 -0.3351
 2812ntf    cn115170   5.167  -0.228   0.429  0.2127  0.1252 -0.2598
 2812ntf    fn415171   5.285   0.210   0.425 -0.0767  0.6848  0.0738
 2812ntf    fn415172   5.472   0.306   0.434 -0.5981  0.1191  0.3202
 2812ntf    fn415173   5.427   0.173   0.276 -0.5865  0.2440  0.2947
 2812ntf    on515174   5.600   0.025   0.433  0.0593  0.5887 -0.1847
 2812ntf    on515175   5.491   0.110   0.635 -0.2192  0.3618  0.1298
 2812ntf    on515176   5.420  -0.266   0.369  0.2445  0.1626  0.0052
 2812ntf    on515177   5.288  -0.083   0.260 -0.2909 -0.1990 -0.3959
 2812ntf    fn415178   5.118  -0.305   0.334 -0.8741  0.0625  0.3315
 2812ntf    fn415179   5.175  -0.317   0.526 -0.2148  0.1540 -0.1947
 2812ntf    fn415180   5.083  -0.134   0.471  0.3367  0.1988 -0.1768
 2813ntf    cn115181   6.692   1.457   2.217  0.0007 -0.0462 -0.0742
 2813ntf    sn215182   6.873   1.470   2.233 -0.0239 -0.1842  0.3484
 2813ntf    nn315183   6.903   1.360   2.341 -0.2840 -0.1443  0.4638
 2813ntf    sn215184   6.926   1.206   2.321  0.0628 -0.0519  0.1301
 2813ntf    cn115185   7.108   1.204   2.322  0.0683  0.2141 -0.2542
 2813ntf    fn415186   6.653   1.524   2.110 -0.2478  0.1852  0.1594
 2813ntf    fn415187   6.649   1.333   2.196  0.1419 -0.0977 -0.0645
 2813ntf    fn415188   6.639   1.494   2.333 -0.2325 -0.1779 -0.1375
 2813ntf    on515189   6.921   1.452   2.098  0.7089  0.1615  0.5579
 2813ntf    on515190   6.896   1.601   2.289  0.4178  0.0525 -0.3650
 2813ntf    on515191   6.892   1.154   2.191  0.4845  0.0815 -0.0374
 2813ntf    on515192   6.889   1.134   2.440 -0.2109 -0.2005 -0.0450
 2813ntf    fn415193   7.162   1.274   2.223 -0.1155  0.6893 -0.0186
 2813ntf    fn415194   7.164   1.245   2.435  0.3115 -0.0876 -0.2613
 2813ntf    fn415195   7.153   1.082   2.297 -0.1499  0.0006  0.3654
 2814ntf    cn115196   2.783   2.437   4.536  0.0171  0.3551  0.1841
 2814ntf    sn215197   2.697   2.347   4.404  0.3108 -0.0052  0.2372
 2814ntf    nn315198   2.722   2.444   4.283 -0.6443 -0.1466 -0.0857
 2814ntf    sn215199   2.833   2.436   4.172 -0.3033 -0.1885  0.2551
 2814ntf    cn115200   2.758   2.319   4.055  0.3952  0.0875 -0.4885
 2814ntf    fn415201   2.698   2.520   4.595 -0.1123  0.3958 -0.0558
 2814ntf    fn415202   2.831   2.365   4.636 -0.3242  0.1716  0.2163
 2814ntf    fn415203   2.880   2.510   4.482  0.5161 -0.4746 -0.0621
 2814ntf    on515204   2.751   2.215   4.385 -0.2978 -0.1464 -0.5911
 2814ntf    on515205   2.557   2.358   4.437  0.3363 -0.0537  0.3615
 2814ntf    on515206   2.959   2.370   4.198  0.1102  0.2191 -0.6377
 2814ntf    on515207   2.836   2.556   4.091 -0.7346 -0.0121  0.5006
 2814ntf    fn415208   2.723   2.206   4.115  0.0434  0.3979 -0.0979
 2814ntf    fn415209   2.645   2.370   4.008 -0.0402  0.2047  0.6541
 2814ntf    fn415210   2.824   2.266   3.954  0.5478 -0.0673 -0.3074
 2815ntf    cn115211   1.077   4.736   1.886  0.0087  0.0843  0.0084
 2815ntf    sn215212   1.181   4.656   1.761 -0.1187 -0.2070  0.0886
 2815ntf    nn315213   1.190   4.503   1.795  0.2600 -0.2379 -0.1400
 2815ntf    sn215214   1.306   4.446   1.884  0.1915  0.5201  0.4472
 2815ntf    cn115215   1.226   4.296   1.949 -0.0312  0.3270 -0.2565
 2815ntf    fn415216   1.045   4.862   1.859 -0.1715  0.0013 -0.1605
 2815ntf    fn415217   0.965   4.671   1.910  0.0193 -0.1318 -0.5195
 2815ntf    fn415218   1.136   4.726   2.005 -0.4654 -0.5272  0.1943
 2815ntf    on515219   1.102   4.663   1.640 -0.5594  0.0257  0.3869
 2815ntf    on515220   1.308   4.725   1.758  0.0995 -0.6030  0.0654
 2815ntf    on515221   1.343   4.511   2.007 -0.1325  0.4029  0.6080
 2815ntf    on515222   1.412   4.388   1.806 -0.2308 -0.1318  0.3466
 2815ntf    fn415223   1.181   4.226   1.847 -0.0371  0.0024 -0.0327
 2815ntf    fn415224   1.308   4.216   2.016 -0.7745 -0.0363  0.2253
 2815ntf    fn415225   1.121   4.324   2.024  0.2117  0.0722  0.1827
 2816ntf    cn115226   4.494   0.890   6.549 -0.2075  0.0553 -0.1747
 2816ntf    sn215227   4.647   0.802   6.507 -0.2818 -0.0837 -0.1503
 2816ntf    nn315228   4.583   0.668   6.453 -0.8243  0.1991 -0.2187
 2816ntf    sn215229   4.591   0.612   6.307 -0.0621 -0.0051 -0.1054
 2816ntf    cn115230   4.767   0.569   6.292 -0.0807 -0.1897  0.1880
 2816ntf    fn415231   4.517   1.012   6.596  0.0621 -0.0858  0.0589
 2816ntf    fn415232   4.411   0.908   6.447 -0.2763 -0.2122 -0.1667
 2816ntf    fn415233   4.420   0.837   6.645  0.1505 -0.0377  0.0513
 2816ntf    on515234   4.705   0.891   6.410  0.5728 -0.3514  0.1092
 2816ntf    on515235   4.716   0.792   6.633 -0.0251  0.4821 -0.2462
 2816ntf    on515236   4.565   0.715   6.209 -0.5505 -0.0528 -0.0262
 2816ntf    on515237   4.518   0.489   6.291 -0.8184  0.4944 -0.5453
 2816ntf    fn415238   4.809   0.506   6.400 -0.6224 -0.7194  0.0991
 2816ntf    fn415239   4.796   0.489   6.190  0.2368  0.2163 -0.0446
 2816ntf    fn415240   4.848   0.672   6.273 -0.3438  0.0437  0.3159
 2817ntf    cn115241   6.622   2.372   5.812 -0.1701 -0.1639 -0.0950
 2817ntf    sn215242   6.538   2.265   5.933  0.2588 -0.1511  0.2161
 2817ntf    nn315243   6.390   2.313   5.915  0.2837 -0.0286  0.3345
 2817ntf    sn215244   6.272   2.329   6.017 -0.1543  0.2136 -0.2041
 2817ntf    cn115245   6.228   2.503   5.985 -0.5585  0.2264  0.4086
 2817ntf    fn415246   6.750   2.342   5.802 -0.0152  0.2775  0.4831
 2817ntf    fn415247   6.564   2.358   5.694 -0.4116  0.1068 -0.0098
 2817ntf    fn415248   6.619   2.502   5.837  0.0233 -0.2238  0.2392
 2817ntf    on515249   6.555   2.131   5.883  0.0422 -0.1114  0.0326
 2817ntf    on515250   6.603   2.294   6.058  0.1070  0.8612  0.0694
 2817ntf    on515251   6.295   2.324   6.159  0.2055  0.4815 -0.2509
 2817ntf    on515252   6.153   2.259   5.977 -0.4094  0.3054  0.3791
 2817ntf    fn415253   6.327   2.589   6.004 -0.2335 -0.0882  0.1606
 2817ntf    fn415254   6.186   2.532   5.863  0.2971 -0.5458 -0.0872
 2817ntf    fn415255   6.133   2.538   6.070 -0.1229  0.5227  0.7780
 2818ntf    cn115256   4.452   2.596   1.724 -0.3161  0.0563  0.2164
 2818ntf    sn215257   4.581   2.467   1.722 -0.1610  0.2126  0.1160
 2818ntf    nn315258   4.609   2.454   1.568 -0.4857  0.0022  0.0743
 2818ntf    sn215259   4.544   2.348   1.472 -0.1614  0.1989 -0.3658
 2818ntf    cn115260   4.507   2.461   1.335 -0.0838  0.1862 -0.3978
 2818ntf    fn415261   4.482   2.713   1.671 -0.1859  0.2439  0.7025
 2818ntf    fn415262   4.340   2.559   1.664 -0.3192 -0.1293  0.3374
 2818ntf    fn415263   4.417   2.634   1.845 -0.4108  0.4387  0.0702
 2818ntf    on515264   4.693   2.536   1.780 -0.0406 -0.0192  0.1568
 2818ntf    on515265   4.529   2.357   1.799  0.7809  0.0632  0.5547
 2818ntf    on515266   4.407   2.309   1.496  0.1247  0.0987  1.2096
 2818ntf    on515267   4.628   2.249   1.408 -0.2308  0.0257 -0.1881
 2818ntf    fn415268   4.467   2.393   1.229  0.0177 -0.6469  0.0921
 2818ntf    fn415269   4.411   2.549   1.361 -0.2624 -0.1379  0.0540
 2818ntf    fn415270   4.610   2.535   1.299  0.1533  0.1346  0.1621
 2819ntf    cn115271   3.385   3.562   4.416 -0.4169 -0.1144  0.1167
 2819ntf    sn215272   3.455   3.624   4.260  0.1919  0.0120  0.4372
 2819ntf    nn315273   3.439   3.777   4.292 -0.6765  0.0936 -0.3450
 2819ntf    sn215274   3.336   3.872   4.223 -0.2283  0.5515 -0.3890
 2819ntf    cn115275   3.437   3.902   4.075  0.1393 -0.0270 -0.2571
 2819ntf    fn415276   3.336   3.440   4.404 -0.0695 -0.2390 -0.0497
 2819ntf    fn415277   3.468   3.569   4.518 -0.1241 -0.4028 -0.0993
 2819ntf    fn415278   3.279   3.630   4.457 -0.4704 -0.1807  0.0867
 2819ntf    on515279   3.588   3.568   4.257  0.0719 -0.2562 -0.0756
 2819ntf    on515280   3.365   3.570   4.161  0.1824  0.1024  0.3960
 2819ntf    on515281   3.327   3.997   4.293 -0.1303  0.3257  0.0248
 2819ntf    on515282   3.214   3.822   4.165  0.1002 -0.0239 -0.5897
 2819ntf    fn415283   3.455   3.789   4.008 -0.5366 -0.2602 -0.0443
 2819ntf    fn415284   3.378   3.989   3.995 -0.1949 -0.2602 -0.2603
 2819ntf    fn415285   3.561   3.938   4.106  0.0852 -0.0112 -0.0622
 2820ntf    cn115286   0.844   2.201   2.117  0.1892  0.0241  0.3729
 2820ntf    sn215287   0.887   2.068   2.232  0.3743 -0.3311 -0.1025
 2820ntf    nn315288   0.828   1.947   2.152 -0.2813 -0.2479  0.2474
 2820ntf    sn215289   0.868   1.796   2.170  0.4042 -0.0998 -0.0082
 2820ntf    cn115290   0.703   1.723   2.192  0.1627  0.2945 -0.4790
 2820ntf    fn415291   0.870   2.323   2.161  0.2199  0.2209 -0.1694
 2820ntf    fn415292   0.907   2.195   2.000 -0.0875 -0.2595  0.2385
 2820ntf    fn415293   0.714   2.197   2.093  0.2432  0.1017  0.0491
 2820ntf    on515294   1.032   2.069   2.235  0.3682 -0.0795  0.1978
 2820ntf    on515295   0.815   2.097   2.353 -0.0905 -0.2709 -0.3940
 2820ntf    on515296   0.940   1.756   2.288 -0.1372 -0.0723  0.3334
 2820ntf    on515297   0.914   1.737   2.046 -0.4379  0.4381 -0.5872
 2820ntf    fn415298   0.621   1.719   2.089 -0.3312  0.0568 -0.0852
 2820ntf    fn415299   0.718   1.598   2.234 -0.0040  0.4419  0.0318
 2820ntf    fn415300   0.635   1.787   2.286  0.2573  0.2488 -0.3783
 2821ntf    cn115301   4.745   5.904   0.224  0.2268 -0.2529  0.2438
 2821ntf    sn215302   4.596   5.823   0.160  0.2384 -0.0317 -0.0678
 2821ntf    nn315303   4.492   5.885   0.260  0.0102  0.2300 -0.4636
 2821ntf    sn215304   4.441   5.829   0.398  0.4242  0.5246 -0.1887
 2821ntf    cn115305   4.316   5.706   0.350  0.4388  0.2588  0.4479
 2821ntf    fn415306   4.720   6.010   0.299 -0.4390  0.0405 -0.3784
 2821ntf    fn415307   4.826   5.821   0.289  0.1225 -0.7467 -0.2520
 2821ntf    fn415308   4.813   5.956   0.123 -0.8147  0.4160 -0.1203
 2821ntf    on515309   4.579   5.874   0.026  0.0432 -0.3876 -0.1818
 2821ntf    on515310   4.618   5.680   0.169 -0.1120 -0.0912 -0.1292
 2821ntf    on515311   4.354   5.924   0.462  0.0343  0.3581 -0.4674
 2821ntf    on515312   4.534   5.749   0.474  0.0320 -0.5909 -0.8605
 2821ntf    fn415313   4.346   5.640   0.239 -0.4214  0.5792  0.0184
 2821ntf    fn415314   4.279   5.615   0.438 -0.3033  0.2738  0.1531
 2821ntf    fn415315   4.204   5.766   0.315  0.2001  0.0430  0.8383
 2822ntf    cn115316   5.579   3.403   0.560  0.0464  0.1405  0.0623
 2822ntf    sn215317   5.623   3.356   0.390  0.0980  0.0055  0.1127
 2822ntf    nn315318   5.634   3.494   0.316  0.7015 -0.0554  0.0826
 2822ntf    sn215319   5.626   3.519   0.161  0.2266 -0.3216  0.0627
 2822ntf    cn115320   5.448   3.551   0.136  0.2242 -0.0993  0.3596
 2822ntf    fn415321   5.676   3.467   0.622  0.0353 -0.2717  0.5167
 2822ntf    fn415322   5.477   3.487   0.565  0.2352  0.4118 -0.5362
 2822ntf    fn415323   5.552   3.292   0.628  0.1869  0.3731  0.4985
 2822ntf    on515324   5.745   3.280   0.403  0.2715 -0.0092 -1.4177
 2822ntf    on515325   5.511   3.275   0.348 -0.4530  0.6106  0.4010
 2822ntf    on515326   5.657   3.407   0.076 -0.1120 -0.0601 -0.4112
 2822ntf    on515327   5.681   3.647   0.125 -0.4061 -0.1270 -0.2273
 2822ntf    fn415328   5.415   3.572   0.010 -0.0384 -0.3470  0.3873
 2822ntf    fn415329   5.371   3.449   0.169 -0.4368  0.1798 -0.3072
 2822ntf    fn415330   5.397   3.654   0.202  0.1709 -0.0326  0.2128
 2823ntf    cn115331   0.821   4.820   6.621 -0.3384 -0.3378 -0.3580
 2823ntf    sn215332   0.834   4.825   6.439  0.0133 -0.2271 -0.3319
 2823ntf    nn315333   0.724   4.930   6.400  0.1903  0.0359 -0.1301
 2823ntf    sn215334   0.718   5.041   6.289 -0.0212  0.0499 -0.1064
 2823ntf    cn115335   0.624   4.954   6.160 -0.0485 -0.4414  0.2423
 2823ntf    fn415336   0.880   4.720   6.685 -0.0020  0.1493  0.1016
 2823ntf    fn415337   0.862   4.931   6.680 -0.4302 -0.2694 -0.4241
 2823ntf    fn415338   0.693   4.805   6.650 -0.3270 -0.0236 -0.1395
 2823ntf    on515339   0.970   4.871   6.430 -0.1950  0.3647 -0.5021
 2823ntf    on515340   0.808   4.693   6.389 -0.2634 -0.2700 -0.0847
 2823ntf    on515341   0.847   5.077   6.236 -0.0498 -0.9334 -0.8642
 2823ntf    on515342   0.637   5.153   6.329 -0.3186 -0.0887 -0.3215
 2823ntf    fn415343   0.495   4.942   6.187 -0.2000  0.2729 -0.1385
 2823ntf    fn415344   0.629   5.016   6.044 -0.3976  0.0929  0.5116
 2823ntf    fn415345   0.671   4.831   6.149  0.5938 -0.1982  0.1943
 2824ntf    cn115346   6.309   2.650   4.798  0.2925  0.1559  0.0690
 2824ntf    sn215347   6.486   2.654   4.838  0.3298  0.1795 -0.0992
 2824ntf    nn315348   6.550   2.689   4.699  0.0367 -0.1618 -0.3222
 2824ntf    sn215349   6.664   2.789   4.657  0.1139  0.0328  0.3445
 2824ntf    cn115350   6.593   2.882   4.519  0.2063 -0.1602  0.1668
 2824ntf    fn415351   6.237   2.595   4.894  0.0865  0.4859  0.1060
 2824ntf    fn415352   6.251   2.768   4.783 -0.3321 -0.1800 -0.1917
 2824ntf    fn415353   6.282   2.586   4.685  0.2691  0.5183 -0.1317
 2824ntf    on515354   6.497   2.752   4.943  0.0092  0.2007 -0.0850
 2824ntf    on515355   6.515   2.518   4.876  0.2942  0.1527 -0.1686
 2824ntf    on515356   6.765   2.714   4.587 -0.5840 -0.4177 -0.1909
 2824ntf    on515357   6.711   2.892   4.746  0.7889  0.0657 -0.0461
 2824ntf    fn415358   6.560   2.799   4.421  0.1378 -0.1943  0.2186
 2824ntf    fn415359   6.487   2.953   4.555 -0.1234 -0.3737 -0.3585
 2824ntf    fn415360   6.677   2.970   4.466 -0.0553 -0.5855 -0.9883
 2825ntf    cn115361   6.729   3.704   5.225  0.0979 -0.2174 -0.4931
 2825ntf    sn215362   6.716   3.809   5.078 -0.0600  0.1362 -0.2293
 2825ntf    nn315363   6.729   3.950   5.147  0.6017 -0.1448  0.2255
 2825ntf    sn215364   6.856   4.036   5.180  0.4049  0.2969 -0.1587
 2825ntf    cn115365   6.808   4.089   5.347  0.4322 -0.2291  0.0155
 2825ntf    fn415366   6.619   3.707   5.298  0.3244 -0.5802 -0.1322
 2825ntf    fn415367   6.741   3.577   5.190  0.5830 -0.2591 -0.1925
 2825ntf    fn415368   6.834   3.730   5.302 -0.3265  0.2568 -0.0691
 2825ntf    on515369   6.825   3.768   4.993  0.1588 -0.2956  0.2635
 2825ntf    on515370   6.583   3.782   5.030  0.1291 -0.3482 -0.4839
 2825ntf    on515371   6.866   4.164   5.113  0.0829  0.1376 -0.5145
 2825ntf    on515372   6.975   3.961   5.212  0.3766  0.7177  0.9916
 2825ntf    fn415373   6.760   3.990   5.422 -0.6656  0.0751 -0.2778
 2825ntf    fn415374   6.909   4.141   5.415  0.7347 -0.0383 -0.5745
 2825ntf    fn415375   6.718   4.183   5.327  0.5189 -0.1433  0.0249
 2826ntf    cn115376   5.572   2.257   3.330 -0.2079 -0.3467  0.0629
 2826ntf    sn215377   5.681   2.313   3.464 -0.2772  0.2616 -0.1299
 2826ntf    nn315378   5.584   2.300   3.587 -0.7303  0.1767 -0.4941
 2826ntf    sn215379   5.554   2.171   3.670 -0.0111  0.3456  0.0412
 2826ntf    cn115380   5.674   2.201   3.803  0.2351  0.1888 -0.1436
 2826ntf    fn415381   5.444   2.292   3.334  0.0435  0.5586  0.3365
 2826ntf    fn415382   5.614   2.312   3.217  0.1977 -0.3579  0.2092
 2826ntf    fn415383   5.577   2.127   3.309  0.0483 -0.3571  0.1805
 2826ntf    on515384   5.793   2.222   3.461 -0.7072 -0.2770  0.0113
 2826ntf    on515385   5.706   2.450   3.428  0.3672  0.2380  0.2139
 2826ntf    on515386   5.589   2.040   3.620 -0.1162  0.0614  0.7018
 2826ntf    on515387   5.433   2.172   3.750  0.2443 -0.3708  0.4489
 2826ntf    fn415388   5.700   2.093   3.875 -0.6283  0.1302  0.0962
 2826ntf    fn415389   5.788   2.246   3.755  0.2132  0.1712 -0.2101
 2826ntf    fn415390   5.627   2.294   3.885  0.2230  0.0322  0.0279
 2827ntf    cn115391   3.659   0.176   0.780  0.3253  0.1875  0.1534
 2827ntf    sn215392   3.591   0.008   0.782  0.1658  0.2528  0.1926
 2827ntf    nn315393   3.526   0.004   0.639  0.2396 -0.1709  0.1673
 2827ntf    sn215394   3.379  -0.023   0.590  0.3308 -0.2371 -0.0701
 2827ntf    cn115395   3.378  -0.203   0.563 -0.0999 -0.2397 -0.0470
 2827ntf    fn415396   3.762   0.178   0.698  0.0102  0.2011 -0.2426
 2827ntf    fn415397   3.571   0.267   0.743  0.2076  0.3067  0.7106
 2827ntf    fn415398   3.702   0.227   0.895 -0.3211  0.3809  0.3107
 2827ntf    on515399   3.702  -0.084   0.791  0.0214  0.0666  0.1112
 2827ntf    on515400   3.509   0.008   0.901  0.1020 -0.4535  0.1566
 2827ntf    on515401   3.369   0.019   0.453 -0.4181 -0.3758 -0.0603
 2827ntf    on515402   3.274   0.011   0.682  0.3943 -0.0998 -0.0485
 2827ntf    fn415403   3.428  -0.265   0.668  0.0274  0.0327  0.0546
 2827ntf    fn415404   3.259  -0.253   0.537 -0.4883  0.5211  0.2607
 2827ntf    fn415405   3.462  -0.248   0.470  0.1123 -0.1117  0.0808
 2828ntf    cn115406   3.505   6.062   0.984  0.4063  0.0629  0.0041
 2828ntf    sn215407   3.557   6.166   1.124  0.0758  0.0161  0.1649
 2828ntf    nn315408   3.709   6.123   1.123  0.1990  0.4502  0.1100
 2828ntf    sn215409   3.829   6.222   1.105  0.2203  0.3691 -0.2026
 2828ntf    cn115410   3.931   6.172   1.247 -0.3445 -0.0860  0.0475
 2828ntf    fn415411   3.489   5.933   1.010  0.1222  0.1267  0.1605
 2828ntf    fn415412   3.386   6.092   0.933  0.5100 -0.4353 -0.5409
 2828ntf    fn415413   3.593   6.071   0.886  0.1730  0.4520 -0.1705
 2828ntf    on515414   3.530   6.298   1.074 -0.0879 -0.2330 -0.4107
 2828ntf    on515415   3.469   6.112   1.224  0.2927  0.4126  0.5748
 2828ntf    on515416   3.809   6.361   1.140 -0.6133  0.1354  0.2704
 2828ntf    on515417   3.905   6.193   0.986 -0.2294  0.0799 -0.4189
 2828ntf    fn415418   3.952   6.042   1.259 -0.0124 -0.0457 -0.0837
 2828ntf    fn415419   4.051   6.224   1.227 -0.2258 -0.3430  0.0859
 2828ntf    fn415420   3.880   6.212   1.362  0.2309  0.4946  0.1118
 2829ntf    cn115421   2.361   2.059   5.939 -0.2755  0.2447  0.2631
 2829ntf    sn215422   2.313   1.923   6.048  0.0851  0.0244  0.1482
 2829ntf    nn315423   2.295   1.993   6.188 -0.0541  0.2079  0.0375
 2829ntf    sn215424   2.189   1.965   6.301 -0.1835 -0.0691 -0.1496
 2829ntf    cn115425   2.286   1.876   6.426  0.0809  0.4072 -0.0133
 2829ntf    fn415426   2.376   2.018   5.814 -0.4095  0.4177  0.1900
 2829ntf    fn415427   2.270   2.154   5.929  0.1376  0.5906 -0.2841
 2829ntf    fn415428   2.470   2.120   5.983  0.1872 -0.3069 -0.1095
 2829ntf    on515429   2.194   1.876   5.983  0.3868 -0.2675 -0.1980
 2829ntf    on515430   2.430   1.838   6.049 -0.1609 -0.3241 -0.2851
 2829ntf    on515431   2.086   1.870   6.270 -0.1809 -0.0005 -0.3716
 2829ntf    on515432   2.149   2.078   6.381 -0.0630  0.0575 -0.2664
 2829ntf    fn415433   2.320   1.759   6.377 -0.3108  0.2343  0.1271
 2829ntf    fn415434   2.396   1.942   6.457  0.3511  0.1249 -0.3638
 2829ntf    fn415435   2.214   1.851   6.534 -0.5150  0.0849 -0.4788
 2830ntf    cn115436   2.020   4.945   5.839 -0.2092  0.4638  0.3280
 2830ntf    sn215437   1.901   4.859   5.946  0.2183 -0.1413  0.3227
 2830ntf    nn315438   1.907   4.719   5.875  0.6841  0.1434 -0.2067
 2830ntf    sn215439   1.999   4.598   5.912  0.3009 -0.0705  0.0535
 2830ntf    cn115440   1.906   4.529   6.052  0.2360  0.0530  0.0709
 2830ntf    fn415441   2.132   4.876   5.825 -0.5255  0.0200 -0.0018
 2830ntf    fn415442   1.971   4.959   5.718 -0.1843  0.2831  0.2970
 2830ntf    fn415443   2.054   5.067   5.880  0.2842  0.2047  0.6923
 2830ntf    on515444   1.949   4.873   6.081 -0.2299  0.0372  0.4636
 2830ntf    on515445   1.779   4.929   5.913  0.1203 -0.6998 -0.5352
 2830ntf    on515446   2.131   4.632   5.961  0.0241  0.6051  0.3496
 2830ntf    on515447   1.992   4.494   5.813 -0.3273  0.0509 -0.0317
 2830ntf    fn415448   1.775   4.530   6.031  0.2298  0.1141  0.1109
 2830ntf    fn415449   1.941   4.407   6.088  0.0656 -0.0625 -0.1503
 2830ntf    fn415450   1.927   4.611   6.154  0.5488  0.0540  0.0055
 2831ntf    cn115451   5.153   6.133   0.054  0.0074 -0.1011  0.1315
 2831ntf    sn215452   5.195   5.980  -0.035  0.2284  0.1060 -0.1231
 2831ntf    nn315453   5.201   6.041  -0.180  0.1176 -0.1777 -0.2490
 2831ntf    sn215454   5.100   6.037  -0.300 -0.1528 -0.1545 -0.0246
 2831ntf    cn115455   5.221   5.992  -0.429 -0.2265 -0.0952 -0.1139
 2831ntf    fn415456   5.253   6.218   0.070  0.3892 -0.5076 -0.0743
 2831ntf    fn415457   5.066   6.207  -0.014  0.1787 -0.0999 -0.0865
 2831ntf    fn415458   5.102   6.107   0.173 -0.1770 -0.5998 -0.0537
 2831ntf    on515459   5.325   5.952   0.019  0.3699 -0.2912 -0.6593
 2831ntf    on515460   5.089   5.887  -0.005 -0.1869  0.6163  0.0220
 2831ntf    on515461   5.051   6.163  -0.351 -0.0578 -0.2919 -0.4648
 2831ntf    on515462   5.014   5.921  -0.297 -0.5402  0.1205 -0.4288
 2831ntf    fn415463   5.290   5.892  -0.377 -0.2124 -0.0871 -0.1181
 2831ntf    fn415464   5.162   5.952  -0.541 -0.1952 -0.2106 -0.0902
 2831ntf    fn415465   5.298   6.096  -0.452 -0.3153  0.0553  0.2728
 2832ntf    cn115466   1.966   3.599   3.285  0.0663  0.0824 -0.4575
 2832ntf    sn215467   2.046   3.647   3.129  0.5500  0.1393 -0.1926
 2832ntf    nn315468   2.106   3.784   3.177  0.6484  0.0021  0.0787
 2832ntf    sn215469   2.064   3.934   3.155  0.0775 -0.2089 -0.2825
 2832ntf    cn115470   2.220   3.996   3.086  0.0502  0.1850  0.0098
 2832ntf    fn415471   1.911   3.704   3.345  0.1840 -0.3795  0.4794
 2832ntf    fn415472   1.866   3.512   3.279 -0.1265  0.2763 -0.1191
 2832ntf    fn415473   2.049   3.542   3.371 -0.6102  0.0354  0.1715
 2832ntf    on515474   2.142   3.540   3.115  0.0633 -0.3968  0.5070
 2832ntf    on515475   1.935   3.661   3.039  0.1939  0.3257  0.2714
 2832ntf    on515476   2.044   4.004   3.279  0.1136 -0.6242 -0.0418
 2832ntf    on515477   1.972   3.973   3.051 -0.5985  0.1758  0.4568
 2832ntf    fn415478   2.321   4.000   3.172  0.0666  0.1221 -0.0063
 2832ntf    fn415479   2.265   3.928   2.982  0.0850 -0.0679  0.1894
 2832ntf    fn415480   2.214   4.121   3.041 -0.2839  0.0772 -0.2425
 2833ntf    cn115481   4.972   4.817   6.001 -0.1055  0.2085 -0.0467
 2833ntf    sn215482   4.829   4.900   5.926 -0.1468  0.0743 -0.1150
 2833ntf    nn315483   4.871   4.910   5.775 -0.2195 -0.4481 -0.1725
 2833ntf    sn215484   4.949   5.031   5.713  0.5183 -0.6711  0.3017
 2833ntf    cn115485   4.815   5.137   5.651  0.7183 -0.4813  0.1925
 2833ntf    fn415486   4.934   4.783   6.123  0.2919 -0.0514  0.0090
 2833ntf    fn415487   4.994   4.703   5.939  0.4163  0.4628 -0.3391
 2833ntf    fn415488   5.080   4.895   6.004 -0.0471  0.1244  0.0830
 2833ntf    on515489   4.726   4.800   5.938 -0.5889  0.5529  0.1404
 2833ntf    on515490   4.817   5.016   6.011 -0.4837 -0.1689  0.1687
 2833ntf    on515491   5.009   4.993   5.587 -0.2985 -0.6436 -0.1067
 2833ntf    on515492   5.025   5.114   5.803 -0.1933  0.0654  0.2334
 2833ntf    fn415493   4.859   5.252   5.601 -0.5773 -0.0576 -0.0136
 2833ntf    fn415494   4.740   5.079   5.559  0.3740 -0.1371  0.2504
 2833ntf    fn415495   4.733   5.173   5.748  0.0031  0.3289 -0.6823
 2834ntf    cn115496   2.281   5.745   3.227  0.0411 -0.1386  0.2682
 2834ntf    sn215497   2.206   5.812   3.378  0.0640  0.2565  0.1046
 2834ntf    nn315498   2.057   5.794   3.332 -0.0685  0.2297  0.5402
 2834ntf    sn215499   1.950   5.906   3.303  0.0369  0.1153 -0.3020
 2834ntf    cn115500   1.854   5.895   3.457  0.2351 -0.2510 -0.2031
 2834ntf    fn415501   2.301   5.614   3.223  0.7412 -0.0290  0.1129
 2834ntf    fn415502   2.206   5.771   3.122 -0.2223 -0.1013  0.4627
 2834ntf    fn415503   2.398   5.799   3.198  0.2336 -0.4477  0.4530
 2834ntf    on515504   2.237   5.717   3.482 -0.5582  0.1390  0.1863
 2834ntf    on515505   2.263   5.943   3.397 -0.0507  0.2420  0.5792
 2834ntf    on515506   1.853   5.864   3.206 -0.1803  0.5550 -0.2787
 2834ntf    on515507   2.006   6.039   3.295 -0.2893  0.2707 -0.0235
 2834ntf    fn415508   1.765   5.993   3.464  0.4186 -0.0767 -0.3136
 2834ntf    fn415509   1.787   5.782   3.474  0.9157 -0.4965  0.9346
 2834ntf    fn415510   1.930   5.914   3.563 -0.2577 -0.4146  0.1855
 2835ntf    cn115511   6.942   2.090   0.076 -0.1330 -0.1002 -0.1262
 2835ntf    sn215512   7.045   2.090   0.227  0.0729  0.3263 -0.2657
 2835ntf    nn315513   6.939   2.102   0.342 -0.2758  0.1394 -0.5664
 2835ntf    sn215514   6.861   1.981   0.404  0.2162 -0.0331 -0.2883
 2835ntf    cn115515   6.952   1.943   0.557 -0.2365  0.0391 -0.0015
 2835ntf    fn415516   6.861   2.194   0.089  0.0258 -0.0472  0.5082
 2835ntf    fn415517   7.004   2.107  -0.039 -0.0974 -0.3401 -0.1429
 2835ntf    fn415518   6.876   1.977   0.061 -0.2040 -0.0703 -0.0437
 2835ntf    on515519   7.134   1.977   0.221 -0.4714 -0.1142 -0.1256
 2835ntf    on515520   7.112   2.218   0.217  0.6846 -0.0448 -1.0197
 2835ntf    on515521   6.863   1.856   0.332  0.0528 -0.2280  0.0444
 2835ntf    on515522   6.732   2.023   0.451  0.4214  0.6985 -0.3680
 2835ntf    fn415523   6.954   2.033   0.654 -0.3622 -0.3146  0.3314
 2835ntf    fn415524   6.914   1.828   0.612 -0.3497  0.2047  0.2708
 2835ntf    fn415525   7.081   1.928   0.533 -0.3025  0.1672 -0.4421
 2836ntf    cn115526   4.113   1.747   5.123  0.0087  0.4560  0.3811
 2836ntf    sn215527   4.167   1.604   5.221  0.1914  0.1988 -0.0910
 2836ntf    nn315528   4.042   1.590   5.315 -0.0260 -0.5465 -0.4783
 2836ntf    sn215529   3.895   1.555   5.274 -0.2292 -0.1319 -0.1089
 2836ntf    cn115530   3.886   1.381   5.327  0.3740 -0.1665 -0.1220
 2836ntf    fn415531   4.226   1.801   5.079  0.0001  0.0738 -0.1276
 2836ntf    fn415532   4.040   1.709   5.019  0.1496  0.2053  0.3740
 2836ntf    fn415533   4.038   1.826   5.198 -0.4134 -0.3060  0.7704
 2836ntf    on515534   4.177   1.485   5.139  0.0522 -0.0003  0.1778
 2836ntf    on515535   4.285   1.644   5.294 -0.1142  0.3766  0.3095
 2836ntf    on515536   3.871   1.543   5.133  0.2849  0.3810 -0.2418
 2836ntf    on515537   3.789   1.610   5.356 -0.2521 -0.3206 -0.0108
 2836ntf    fn415538   3.980   1.305   5.273  0.0119 -0.4388 -0.3706
 2836ntf    fn415539   3.898   1.369   5.458  0.3801  0.1874 -0.0889
 2836ntf    fn415540   3.770   1.327   5.296  0.3111  0.1201 -0.3926
 2837ntf    cn115541   6.803   2.677   5.713  0.2217 -0.2145  0.0098
 2837ntf    sn215542   6.947   2.656   5.603 -0.0183 -0.1230 -0.3213
 2837ntf    nn315543   7.069   2.719   5.678 -0.0815  0.1623 -0.4554
 2837ntf    sn215544   7.116   2.868   5.667  0.2409  0.0920 -0.0627
 2837ntf    cn115545   7.230   2.856   5.526  0.3591 -0.0897  0.0483
 2837ntf    fn415546   6.838   2.638   5.834  0.2573  0.1819  0.1278
 2837ntf    fn415547   6.765   2.803   5.723  0.1427 -0.2172 -0.2354
 2837ntf    fn415548   6.698   2.609   5.671  0.0951  0.1024 -0.1930
 2837ntf    on515549   6.969   2.514   5.596 -0.1367 -0.1615  0.0870
 2837ntf    on515550   6.911   2.726   5.482 -0.3310  0.0963 -0.1034
 2837ntf    on515551   7.211   2.897   5.771  0.0629 -0.4516  0.2535
 2837ntf    on515552   7.015   2.968   5.642  0.2291  0.0031 -0.3861
 2837ntf    fn415553   7.291   2.972   5.504  0.5170 -0.1243  0.3055
 2837ntf    fn415554   7.319   2.760   5.546  0.2013 -0.2250  0.1036
 2837ntf    fn415555   7.174   2.820   5.412 -0.4764  0.2056  0.3562
 2838ntf    cn115556   3.399   0.161   3.865  0.0835  0.0166  0.0832
 2838ntf    sn215557   3.476   0.194   4.026  0.0403  0.0929  0.0879
 2838ntf    nn315558   3.378   0.311   4.063 -0.0457  0.2964 -0.7489
 2838ntf    sn215559   3.393   0.464   4.034  0.5043  0.3675 -0.1165
 2838ntf    cn115560   3.438   0.520   4.201 -0.1820 -0.2893  0.2917
 2838ntf    fn415561   3.362   0.273   3.805  0.2673  0.3356  0.5631
 2838ntf    fn415562   3.483   0.098   3.784 -0.0938 -0.2404  0.0974
 2838ntf    fn415563   3.291   0.085   3.872  0.1223 -0.0309  0.1692
 2838ntf    on515564   3.448   0.077   4.105  0.7472 -0.1822 -0.0574
 2838ntf    on515565   3.616   0.224   4.006  0.0182  0.1257 -0.0181
 2838ntf    on515566   3.261   0.521   4.018  0.1611 -0.4338 -0.1494
 2838ntf    on515567   3.494   0.497   3.936 -0.0031  0.3057 -0.6655
 2838ntf    fn415568   3.545   0.463   4.254 -0.0548 -0.4931 -0.1846
 2838ntf    fn415569   3.453   0.651   4.211 -0.4241 -0.2253 -0.1433
 2838ntf    fn415570   3.344   0.494   4.291  0.1406 -0.0948  0.6883
 2839ntf    cn115571   3.718   5.416   1.736 -0.6500 -0.1001  0.1119
 2839ntf    sn215572   3.864   5.523   1.712 -0.3880 -0.4894 -0.0327
 2839ntf    nn315573   3.817   5.627   1.605 -0.1352 -0.3816 -0.0395
 2839ntf    sn215574   3.734   5.757   1.633  0.3036 -0.0661 -0.1947
 2839ntf    cn115575   3.872   5.875   1.642  0.0708  0.1875  0.1264
 2839ntf    fn415576   3.621   5.475   1.803 -0.1926  0.2459  0.4817
 2839ntf    fn415577   3.671   5.378   1.619 -0.2788  0.1319 -0.1156
 2839ntf    fn415578   3.756   5.311   1.807  0.3826  0.3752  0.2828
 2839ntf    on515579   3.905   5.580   1.838  0.1280 -0.3158 -0.2748
 2839ntf    on515580   3.965   5.438   1.654 -0.1741  0.1020 -0.5309
 2839ntf    on515581   3.657   5.764   1.755  0.3336 -0.0950 -0.1739
 2839ntf    on515582   3.659   5.794   1.516  0.3610 -0.0045 -0.2118
 2839ntf    fn415583   3.907   5.914   1.520 -0.8439  0.0945 -0.1694
 2839ntf    fn415584   3.844   5.981   1.715  0.0157  0.4440 -0.2642
 2839ntf    fn415585   3.981   5.823   1.696  0.2027 -0.0289 -0.3398
 2840ntf    cn115586   5.956   4.283   4.524 -0.1779 -0.1402 -0.0682
 2840ntf    sn215587   6.110   4.324   4.436 -0.0305 -0.3418  0.0919
 2840ntf    nn315588   6.121   4.481   4.446 -0.0086 -0.3520  0.2226
 2840ntf    sn215589   6.060   4.593   4.354 -0.0313 -0.4770  0.0853
 2840ntf    cn115590   6.189   4.591   4.225 -0.0109 -0.0284  0.0989
 2840ntf    fn415591   5.847   4.342   4.477 -0.2510  0.3348  0.6859
 2840ntf    fn415592   5.942   4.151   4.524  0.5954 -0.2319 -0.0506
 2840ntf    fn415593   5.966   4.333   4.646 -0.1585  0.6545 -0.3889
 2840ntf    on515594   6.214   4.254   4.507  0.1457  0.0943  0.2695
 2840ntf    on515595   6.091   4.281   4.300 -0.1493 -0.5061  0.1608
 2840ntf    on515596   6.072   4.723   4.415  0.1861 -0.4223 -0.0717
 2840ntf    on515597   5.938   4.560   4.286 -0.1650  0.1187  0.0310
 2840ntf    fn415598   6.172   4.676   4.125 -0.0485 -0.0797  0.0614
 2840ntf    fn415599   6.311   4.611   4.271  0.1395 -0.4021 -0.1412
 2840ntf    fn415600   6.189   4.472   4.168  0.4551 -0.2282  0.5048
 2841ntf    cn115601   1.987   6.135   5.980  0.1679  0.1225  0.0615
 2841ntf    sn215602   1.813   6.138   6.030  0.1708  0.0515  0.0756
 2841ntf    nn315603   1.833   6.170   6.183 -0.0351  0.0457  0.1046
 2841ntf    sn215604   1.778   6.295   6.261 -0.3149 -0.0907  0.1272
 2841ntf    cn115605   1.898   6.418   6.201 -0.2699 -0.1190  0.1584
 2841ntf    fn415606   2.074   6.088   6.068 -0.1469 -0.5139  0.0349
 2841ntf    fn415607   2.007   6.065   5.870 -0.3111 -0.0249  0.0683
 2841ntf    fn415608   2.027   6.255   5.939 -0.0416  0.0533 -0.3522
 2841ntf    on515609   1.755   6.246   5.955  0.0002 -0.2665 -0.2520
 2841ntf    on515610   1.766   6.004   6.006 -0.4101  0.3689 -0.6150
 2841ntf    on515611   1.807   6.289   6.402  0.4292  0.2862 -0.0049
 2841ntf    on515612   1.646   6.340   6.226 -0.2224  0.0847  0.0006
 2841ntf    fn415613   2.020   6.382   6.237 -0.1016 -0.2374 -0.5275
 2841ntf    fn415614   1.897   6.435   6.070 -0.1539 -0.5957  0.0945
 2841ntf    fn415615   1.878   6.540   6.248  0.6704 -0.0746  0.4507
 2842ntf    cn115616   4.677   5.013   3.777  0.0250  0.2590 -0.0417
 2842ntf    sn215617   4.689   4.927   3.617 -0.3123  0.1185  0.0069
 2842ntf    nn315618   4.775   4.803   3.662  0.2122  0.5309  0.1514
 2842ntf    sn215619   4.829   4.683   3.577  0.0932  0.2418  0.4771
 2842ntf    cn115620   4.693   4.565   3.603  0.0249  0.2197  0.0258
 2842ntf    fn415621   4.793   5.033   3.837  0.2850 -0.4910 -0.2759
 2842ntf    fn415622   4.609   5.126   3.776 -0.2827  0.0816  0.4394
 2842ntf    fn415623   4.603   4.947   3.864  0.2288  0.3144  0.1731
 2842ntf    on515624   4.552   4.893   3.588 -0.3403  0.4998 -0.3033
 2842ntf    on515625   4.749   5.036   3.544 -0.1581  0.1499  0.1798
 2842ntf    on515626   4.946   4.627   3.639  0.2587  0.2506  0.1763
 2842ntf    on515627   4.835   4.708   3.435  0.0561 -0.8567  0.2754
 2842ntf    fn415628   4.584   4.604   3.539 -0.1783  0.2754  0.4073
 2842ntf    fn415629   4.721   4.445   3.554 -0.4212  0.0230  0.2568
 2842ntf    fn415630   4.665   4.551   3.731  0.0662  0.0258  0.0139
 2843ntf    cn115631   5.873   3.855   1.433  0.0315 -0.1055 -0.0950
 2843ntf    sn215632   5.974   3.927   1.300  0.2566  0.0141  0.1399
 2843ntf    nn315633   6.067   3.808   1.257 -0.3076 -0.4963  0.3214
 2843ntf    sn215634   6.126   3.769   1.117 -0.1063 -0.1451  0.3084
 2843ntf    cn115635   6.007   3.646   1.055  0.2249 -0.1393 -0.3498
 2843ntf    fn415636   5.793   3.947   1.484 -0.0303 -0.6036  0.7282
 2843ntf    fn415637   5.800   3.756   1.385 -0.4199  0.3550 -0.3728
 2843ntf    fn415638   5.941   3.811   1.537 -0.2126  0.1099  0.1575
 2843ntf    on515639   5.881   3.952   1.192  0.6248 -0.1893 -0.2274
 2843ntf    on515640   6.038   4.036   1.368 -0.0403  0.5109 -0.3661
 2843ntf    on515641   6.241   3.682   1.114  0.1090  0.1566 -0.6246
 2843ntf    on515642   6.129   3.872   1.015  0.4711 -0.1362  0.3307
 2843ntf    fn415643   6.003   3.540   1.133  0.3311  0.2629  0.2093
 2843ntf    fn415644   5.883   3.688   1.038  0.2356  0.0708  0.0785
 2843ntf    fn415645   6.043   3.602   0.936 -0.2232 -0.0290 -0.5268
 2844ntf    cn115646   6.313   0.990   1.501 -0.2643  0.0878  0.1512
 2844ntf    sn215647   6.415   1.077   1.624 -0.2716  0.1009  0.1476
 2844ntf    nn315648   6.393   0.971   1.738 -0.4759  0.2262  0.2260
 2844ntf    sn215649   6.463   0.966   1.878  0.0636 -0.1774 -0.0555
 2844ntf    cn115650   6.502   0.789   1.892  0.4893 -0.0582  0.3305
 2844ntf    fn415651   6.301   1.063   1.392  0.0121 -0.1187 -0.0196
 2844ntf    fn415652   6.367   0.876   1.463 -0.0077  0.3964 -0.4261
 2844ntf    fn415653   6.191   0.963   1.543 -0.4432 -0.5843 -0.7863
 2844ntf    on515654   6.546   1.075   1.564 -0.2829 -0.2662  0.1364
 2844ntf    on515655   6.345   1.202   1.641 -0.3651  0.1669 -0.7168
 2844ntf    on515656   6.365   0.984   1.983 -0.0755  0.5175 -0.2985
 2844ntf    on515657   6.594   1.026   1.887  0.3211 -0.7408  0.0007
 2844ntf    fn415658   6.577   0.771   1.999  0.3670 -0.5619  0.3320
 2844ntf    fn415659   6.395   0.717   1.920  0.3770  0.0323  0.1356
 2844ntf    fn415660   6.563   0.742   1.784 -0.9242  0.1125 -0.5807
 2845ntf    cn115661   1.130   3.868   5.969  0.0140 -0.1215 -0.0193
 2845ntf    sn215662   1.123   4.048   5.991  0.0494 -0.1191 -0.0305
 2845ntf    nn315663   1.253   4.058   6.079 -0.0652  0.5452  0.0693
 2845ntf    sn215664   1.271   4.045   6.234 -0.2117  0.1286  0.0538
 2845ntf    cn115665   1.431   3.959   6.247 -0.2827  0.0074  0.1178
 2845ntf    fn415666   1.029   3.821   5.898 -0.2169 -0.2176  0.3661
 2845ntf    fn415667   1.234   3.832   5.896 -0.0232 -0.1592 -0.0538
 2845ntf    fn415668   1.139   3.793   6.078 -0.1860  0.4397  0.3879
 2845ntf    on515669   1.147   4.104   5.860  0.4386  0.1277  0.1432
 2845ntf    on515670   0.999   4.077   6.058 -0.1060 -0.1231 -0.3123
 2845ntf    on515671   1.184   3.955   6.305 -0.4154  0.4881  0.2653
 2845ntf    on515672   1.296   4.165   6.310  0.4175 -0.0002  0.0563
 2845ntf    fn415673   1.457   3.908   6.366 -0.0986  0.3218  0.2122
 2845ntf    fn415674   1.437   3.856   6.163 -0.1304 -0.1240  0.2886
 2845ntf    fn415675   1.534   4.034   6.213 -0.2152 -0.1892 -0.1165
 2846ntf    cn115676   5.457   5.359   0.588 -0.0361 -0.0789 -0.0339
 2846ntf    sn215677   5.593   5.239   0.584 -0.2139 -0.2820  0.0346
 2846ntf    nn315678   5.642   5.260   0.437  0.5279  0.0084  0.3190
 2846ntf    sn215679   5.719   5.156   0.348 -0.0154  0.0385 -0.1922
 2846ntf    cn115680   5.883   5.233   0.347 -0.0690  0.1612  0.2914
 2846ntf    fn415681   5.403   5.362   0.709  0.2906  0.1155  0.1102
 2846ntf    fn415682   5.493   5.486   0.573  0.3534 -0.1138  0.5503
 2846ntf    fn415683   5.368   5.334   0.494 -0.0463 -0.4155  0.0662
 2846ntf    on515684   5.683   5.293   0.683 -0.1367  0.4290 -0.4181
 2846ntf    on515685   5.531   5.111   0.608 -0.9723  0.0866  0.0566
 2846ntf    on515686   5.687   5.163   0.208  0.2464  0.1328 -0.2473
 2846ntf    on515687   5.748   5.025   0.402 -0.2164 -0.2591 -0.7887
 2846ntf    fn415688   5.929   5.268   0.466  0.1075  0.5870  0.1017
 2846ntf    fn415689   5.974   5.152   0.294  0.1149  0.5136  0.0630
 2846ntf    fn415690   5.891   5.339   0.268 -0.3081 -0.1969 -0.2199
 2847ntf    cn115691   2.223   6.545   2.835 -0.1632  0.4387 -0.2425
 2847ntf    sn215692   2.142   6.583   2.677 -0.3391  0.0443 -0.2470
 2847ntf    nn315693   2.006   6.507   2.697 -0.0139 -0.3829  0.3618
 2847ntf    sn215694   1.981   6.363   2.637 -0.0915 -0.3203  0.2423
 2847ntf    cn115695   1.843   6.308   2.742  0.0301 -0.4626  0.3283
 2847ntf    fn415696   2.329   6.622   2.851  0.1034  0.0980 -0.3689
 2847ntf    fn415697   2.148   6.556   2.944  0.1609  0.0553  0.0182
 2847ntf    fn415698   2.268   6.421   2.836 -0.1603  0.4397  0.1501
 2847ntf    on515699   2.134   6.727   2.682  0.3900  0.1017 -0.6357
 2847ntf    on515700   2.226   6.531   2.572  0.1310 -0.1791  0.2381
 2847ntf    on515701   2.084   6.267   2.670  0.8834  0.4653 -0.4611
 2847ntf    on515702   1.922   6.361   2.506  0.4704  0.1758 -0.0247
 2847ntf    fn415703   1.826   6.178   2.721 -0.4008 -0.3193 -0.2308
 2847ntf    fn415704   1.859   6.330   2.871  0.4416  0.4032  0.1346
 2847ntf    fn415705   1.728   6.369   2.721  0.2109 -0.0138  0.6366
 2848ntf    cn115706   2.518   2.480   0.104 -0.2046 -0.1280 -0.0567
 2848ntf    sn215707   2.373   2.587   0.081 -0.1694 -0.0859 -0.0804
 2848ntf    nn315708   2.293   2.544   0.209  0.0860 -0.3597 -0.0114
 2848ntf    sn215709   2.155   2.601   0.258  0.1946  0.2310 -0.3770
 2848ntf    cn115710   2.199   2.759   0.336  0.4212  0.1872 -0.4154
 2848ntf    fn415711   2.580   2.478   0.221 -0.1986  0.4042 -0.0500
 2848ntf    fn415712   2.488   2.353   0.081  0.0713 -0.2123  0.0493
 2848ntf    fn415713   2.614   2.499   0.016  0.0971  0.4551  0.3921
 2848ntf    on515714   2.437   2.716   0.087  0.0402 -0.1993  0.1756
 2848ntf    on515715   2.328   2.531  -0.044  0.0550 -0.3447 -0.0475
 2848ntf    on515716   2.101   2.521   0.366  0.2559  0.7474  0.0424
 2848ntf    on515717   2.068   2.634   0.148 -0.0276  0.2841 -0.1858
 2848ntf    fn415718   2.091   2.818   0.386  0.5868  0.4362 -0.3474
 2848ntf    fn415719   2.285   2.747   0.436  0.2934  0.0855 -0.3184
 2848ntf    fn415720   2.249   2.852   0.256  0.0260  0.2419 -0.6009
 2849ntf    cn115721   1.605   3.179   4.897  0.0358 -0.2485  0.2690
 2849ntf    sn215722   1.569   3.092   5.053 -0.0682 -0.2169  0.2619
 2849ntf    nn315723   1.680   2.981   5.054 -0.1442 -0.2908  0.3799
 2849ntf    sn215724   1.812   2.967   5.137 -0.1347 -0.0852  0.3987
 2849ntf    cn115725   1.931   2.940   5.001 -0.2310 -0.0031  0.2975
 2849ntf    fn415726   1.504   3.249   4.849  0.2190  0.1823  0.5039
 2849ntf    fn415727   1.714   3.254   4.897 -0.0398 -0.1347 -0.2586
 2849ntf    fn415728   1.628   3.092   4.800  0.0841  0.1126 -0.0483
 2849ntf    on515729   1.575   3.195   5.154 -0.1428  0.0861 -0.0367
 2849ntf    on515730   1.441   3.034   5.023 -0.1490 -0.1181  0.4166
 2849ntf    on515731   1.813   2.844   5.210 -0.3755 -0.4333 -0.1755
 2849ntf    on515732   1.869   3.083   5.201 -0.4613  0.3683 -0.1219
 2849ntf    fn415733   1.885   2.846   4.921  0.0940 -0.1990  0.3420
 2849ntf    fn415734   1.962   3.048   4.931 -0.1867  0.0735  0.4348
 2849ntf    fn415735   2.044   2.897   5.053  0.1084  0.2645 -0.2181
 2850ntf    cn115736   2.913   2.254   5.874  0.1904 -0.2032 -0.0496
 2850ntf    sn215737   2.920   2.286   6.053 -0.0126  0.0641 -0.0887
 2850ntf    nn315738   3.075   2.302   6.069 -0.0390  0.0537  0.1758
 2850ntf    sn215739   3.170   2.296   6.194  0.2704 -0.0551 -0.0625
 2850ntf    cn115740   3.230   2.125   6.176 -0.0828 -0.2105  0.2183
 2850ntf    fn415741   2.793   2.260   5.818  0.2320 -0.0574 -0.1254
 2850ntf    fn415742   2.992   2.336   5.805  0.3903 -0.0464  0.3626
 2850ntf    fn415743   2.942   2.128   5.847 -0.1198 -0.4633  0.8145
 2850ntf    on515744   2.842   2.406   6.070  0.6578  0.5486 -0.4060
 2850ntf    on515745   2.880   2.160   6.112 -0.1509  0.0291 -0.2559
 2850ntf    on515746   3.089   2.298   6.313  0.6060 -0.1255  0.1690
 2850ntf    on515747   3.291   2.374   6.185  0.5339 -0.5212 -0.6780
 2850ntf    fn415748   3.302   2.100   6.068 -0.3962 -0.4119  0.0578
 2850ntf    fn415749   3.316   2.095   6.272 -0.0004  0.1341  0.2559
 2850ntf    fn415750   3.143   2.026   6.184  0.1990 -0.4680  0.1378
 2851ntf    cn115751   1.692   6.801   2.100 -0.0377  0.2907  0.2942
 2851ntf    sn215752   1.528   6.864   2.144 -0.0830  0.1451  0.3355
 2851ntf    nn315753   1.552   6.889   2.298  0.4647  0.1206  0.2554
 2851ntf    sn215754   1.449   6.876   2.416 -0.1440  0.2364 -0.2544
 2851ntf    cn115755   1.440   6.695   2.422 -0.1209  0.2513  0.2791
 2851ntf    fn415756   1.700   6.683   2.159  0.0796 -0.0156 -0.3251
 2851ntf    fn415757   1.717   6.781   1.971 -0.1664  0.0632  0.3033
 2851ntf    fn415758   1.790   6.878   2.142  0.1860 -0.2518  0.7825
 2851ntf    on515759   1.505   6.983   2.065  0.4043 -0.1338 -0.2278
 2851ntf    on515760   1.438   6.757   2.110 -0.0290  0.0363  0.5318
 2851ntf    on515761   1.316   6.924   2.387 -0.1489  0.3106 -0.1106
 2851ntf    on515762   1.511   6.912   2.541  0.4135 -0.3828 -0.3476
 2851ntf    fn415763   1.554   6.638   2.388 -0.3228  0.2377 -0.4029
 2851ntf    fn415764   1.407   6.650   2.542  0.3591 -0.3675  0.1850
 2851ntf    fn415765   1.354   6.636   2.340 -0.2607  0.3418  0.3599
 2852ntf    cn115766   5.090   0.027   5.072 -0.0466 -0.1219  0.1528
 2852ntf    sn215767   4.910   0.023   5.097 -0.0749  0.2485  0.0065
 2852ntf    nn315768   4.864   0.018   4.947  0.2417  0.0529 -0.0856
 2852ntf    sn215769   4.841   0.140   4.850 -0.3468 -0.0903 -0.1282
 2852ntf    cn115770   4.935   0.066   4.714 -0.0156 -0.6523  0.4030
 2852ntf    fn415771   5.158   0.053   5.183 -0.1519 -0.0677  0.2053
 2852ntf    fn415772   5.141  -0.088   5.031 -0.1704 -0.1057 -0.0451
 2852ntf    fn415773   5.126   0.126   4.993  0.3379  0.1155  0.6140
 2852ntf    on515774   4.885  -0.102   5.164 -0.0092  0.2001 -0.0580
 2852ntf    on515775   4.896   0.143   5.175 -0.7932  0.4546 -0.4248
 2852ntf    on515776   4.911   0.262   4.881 -0.0833 -0.1462 -0.5079
 2852ntf    on515777   4.714   0.149   4.783 -0.4938 -0.9131  0.0286
 2852ntf    fn415778   4.954   0.160   4.623  0.0324 -0.3144  0.7611
 2852ntf    fn415779   5.055   0.033   4.762  0.1393 -0.1746  0.3424
 2852ntf    fn415780   4.890  -0.047   4.662 -0.1773 -0.5669  0.3568
 2853ntf    cn115781   0.361   5.185   3.941 -0.0823 -0.2492  0.3593
 2853ntf    sn215782   0.420   5.206   3.770 -0.1632  0.2407  0.3907
 2853ntf    nn315783   0.550   5.293   3.776  0.0733 -0.1484  1.0184
 2853ntf    sn215784   0.558   5.447   3.743  0.1157 -0.3641 -0.0089
 2853ntf    cn115785   0.588   5.427   3.565 -0.1810 -0.0317 -0.0978
 2853ntf    fn415786   0.448   5.115   4.012  0.1185 -0.2903  0.0749
 2853ntf    fn415787   0.350   5.297   4.011 -0.6667 -0.1753  0.1548
 2853ntf    fn415788   0.244   5.125   3.947 -0.1295 -0.2234 -0.2696
 2853ntf    on515789   0.462   5.071   3.744  0.0856  0.4220 -0.1510
 2853ntf    on515790   0.309   5.251   3.690  0.0804  0.0229 -0.0720
 2853ntf    on515791   0.676   5.515   3.790  0.0082  0.0325 -0.3057
 2853ntf    on515792   0.430   5.514   3.752  0.4379  0.2980 -0.2943
 2853ntf    fn415793   0.700   5.368   3.525 -0.1146 -0.0235  0.0730
 2853ntf    fn415794   0.489   5.358   3.511 -0.5693 -0.1804  0.7955
 2853ntf    fn415795   0.593   5.545   3.505  0.5886  0.1126  0.2281
 2854ntf    cn115796   0.254   5.717   0.925 -0.3126  0.1715  0.5944
 2854ntf    sn215797   0.286   5.605   1.065 -0.0760 -0.3141  0.1545
 2854ntf    nn315798   0.351   5.487   0.985 -0.1650 -0.1250 -0.1990
 2854ntf    sn215799   0.481   5.405   1.015 -0.2300 -0.2545 -0.2740
 2854ntf    cn115800   0.608   5.513   0.941  0.1129 -0.4333  0.0474
 2854ntf    fn415801   0.176   5.662   0.833  0.7774 -0.1776 -0.1291
 2854ntf    fn415802   0.192   5.830   0.959 -0.1972  0.3057  0.3565
 2854ntf    fn415803   0.369   5.751   0.870 -0.4236  0.3225  0.4533
 2854ntf    on515804   0.365   5.691   1.149 -0.2418 -0.5729  0.5789
 2854ntf    on515805   0.153   5.572   1.110 -0.1455 -0.0981  0.1100
 2854ntf    on515806   0.490   5.287   0.932  0.1514 -0.5172  0.1360
 2854ntf    on515807   0.518   5.397   1.154 -0.2168  0.5225 -0.2304
 2854ntf    fn415808   0.730   5.483   0.981  0.1361 -0.3408  0.0463
 2854ntf    fn415809   0.607   5.510   0.809  0.4117  0.2585  0.0258
 2854ntf    fn415810   0.590   5.642   0.966  0.0749 -0.4190 -0.0562
 2855ntf    cn115811   6.407   5.604   1.425 -0.1602 -0.2270  0.1735
 2855ntf    sn215812   6.563   5.644   1.341  0.1030 -0.5180  0.5209
 2855ntf    nn315813   6.576   5.799   1.362  0.8525 -0.4734 -0.2094
 2855ntf    sn215814   6.627   5.875   1.490 -0.5829 -0.1744  0.2038
 2855ntf    cn115815   6.804   5.895   1.453 -0.4843  0.0368  0.7717
 2855ntf    fn415816   6.401   5.473   1.441 -0.3825 -0.2348  0.0405
 2855ntf    fn415817   6.407   5.660   1.544  0.4379 -0.0450  0.0925
 2855ntf    fn415818   6.296   5.634   1.359  0.3277 -0.1291 -0.6160
 2855ntf    on515819   6.666   5.562   1.400  0.7664  0.1754  0.3590
 2855ntf    on515820   6.533   5.607   1.205  0.4808 -0.1678  0.3369
 2855ntf    on515821   6.636   5.808   1.618 -0.1242 -0.6687 -0.0802
 2855ntf    on515822   6.583   6.012   1.491  0.5651  0.2080 -0.3260
 2855ntf    fn415823   6.824   5.964   1.342  0.2635 -0.1013  0.8159
 2855ntf    fn415824   6.868   5.963   1.547  0.2414 -0.0448  0.3408
 2855ntf    fn415825   6.876   5.785   1.443 -0.0701  0.3691  0.0015
 2856ntf    cn115826   0.482   1.498   1.970  0.2495  0.1137 -0.3408
 2856ntf    sn215827   0.382   1.624   1.886 -0.1400 -0.1007 -0.2019
 2856ntf    nn315828   0.344   1.725   2.001  0.3998  0.1747 -0.2592
 2856ntf    sn215829   0.301   1.875   1.986  0.1979  0.1084 -0.3498
 2856ntf    cn115830   0.455   1.965   2.021 -0.0554  0.2132  0.5228
 2856ntf    fn415831   0.407   1.392   1.996 -0.0677  0.5041  0.3485
 2856ntf    fn415832   0.590   1.458   1.905  0.0298 -0.2576 -0.4816
 2856ntf    fn415833   0.528   1.535   2.088  0.2865 -0.2212 -0.2495
 2856ntf    on515834   0.476   1.679   1.791 -0.2874  0.2080 -0.1712
 2856ntf    on515835   0.268   1.546   1.845 -0.3039  0.0610 -0.0606
 2856ntf    on515836   0.213   1.915   2.094  0.6352  0.2864 -0.0565
 2856ntf    on515837   0.274   1.922   1.852  0.3096  0.2182 -0.3343
 2856ntf    fn415838   0.496   1.945   2.146 -0.0753 -0.4369  0.4305
 2856ntf    fn415839   0.552   1.922   1.943 -0.0939  0.0416  0.5687
 2856ntf    fn415840   0.438   2.095   2.008 -0.0794  0.1445 -0.1587
 2857ntf    cn115841   2.196   5.406   0.884  0.0940 -0.2704  0.0034
 2857ntf    sn215842   2.027   5.357   0.930  0.0472  0.2217  0.3620
 2857ntf    nn315843   2.017   5.222   0.850 -0.8233  0.3752  0.2070
 2857ntf    sn215844   1.946   5.199   0.712 -0.1211 -0.1207 -0.0776
 2857ntf    cn115845   1.786   5.125   0.757 -0.1129 -0.2311 -0.2281
 2857ntf    fn415846   2.285   5.325   0.937  0.4335 -0.1823 -0.4243
 2857ntf    fn415847   2.218   5.392   0.754 -0.5665  0.2526 -0.1749
 2857ntf    fn415848   2.226   5.529   0.923 -0.0091 -0.1527 -0.2823
 2857ntf    on515849   2.040   5.327   1.071 -0.3560 -0.7380  0.2043
 2857ntf    on515850   1.944   5.469   0.895 -0.4043 -0.0493  0.5479
 2857ntf    on515851   2.011   5.107   0.622  0.2887 -0.3127  0.4117
 2857ntf    on515852   1.903   5.323   0.651  0.2274  0.0147 -0.0513
 2857ntf    fn415853   1.802   5.000   0.796  0.6750 -0.0641 -0.0020
 2857ntf    fn415854   1.717   5.186   0.852 -0.2159 -0.3675 -0.2154
 2857ntf    fn415855   1.697   5.123   0.659 -0.0815 -0.4521 -0.2516
 2858ntf    cn115856   3.756   3.984   5.928  0.0239  0.0995 -0.0682
 2858ntf    sn215857   3.903   4.090   5.942 -0.0146  0.1067  0.3012
 2858ntf    nn315858   3.930   4.062   6.094  0.1271 -0.0623  0.2445
 2858ntf    sn215859   4.007   3.942   6.159  0.1245 -0.1117  0.1555
 2858ntf    cn115860   4.159   4.022   6.218  0.2387  0.0394 -0.3409
 2858ntf    fn415861   3.644   4.032   5.980 -0.1008  0.1445 -0.3768
 2858ntf    fn415862   3.732   3.951   5.802 -0.0540  0.0850 -0.0501
 2858ntf    fn415863   3.778   3.868   5.988  0.4651  0.2868  0.1356
 2858ntf    on515864   3.993   4.025   5.850  0.1657  0.7557  0.0135
 2858ntf    on515865   3.865   4.228   5.925 -0.8059 -0.1936 -0.4500
 2858ntf    on515866   4.053   3.841   6.067 -0.5203 -0.1518 -0.1288
 2858ntf    on515867   3.941   3.894   6.278  0.7776  0.4258  0.7395
 2858ntf    fn415868   4.133   4.132   6.288 -0.1814 -0.5266  0.4107
 2858ntf    fn415869   4.233   3.945   6.295  0.1185  0.2791  0.0141
 2858ntf    fn415870   4.229   4.063   6.114 -0.2531  0.1066 -0.6496
 2859ntf    cn115871   1.266   2.547   6.371 -0.0497 -0.2535  0.0551
 2859ntf    sn215872   1.093   2.514   6.324 -0.0016 -0.1989 -0.1622
 2859ntf    nn315873   1.063   2.371   6.383  0.4959 -0.1409  0.2435
 2859ntf    sn215874   1.032   2.338   6.533 -0.1338  0.0888  0.1684
 2859ntf    cn115875   1.160   2.211   6.559 -0.1591 -0.0682 -0.4469
 2859ntf    fn415876   1.357   2.467   6.316 -0.0267 -0.3440  0.2255
 2859ntf    fn415877   1.308   2.669   6.340 -0.1430 -0.1307  0.4083
 2859ntf    fn415878   1.287   2.534   6.500 -0.0213  0.3917  0.1193
 2859ntf    on515879   1.013   2.618   6.384  0.2038  0.1774 -0.5308
 2859ntf    on515880   1.100   2.516   6.180  0.2132  0.6358 -0.1446
 2859ntf    on515881   0.911   2.266   6.561  0.0872 -0.2883  0.1636
 2859ntf    on515882   1.076   2.440   6.625  0.0372 -0.5553  0.8147
 2859ntf    fn415883   1.282   2.261   6.550 -0.1482  0.1065  0.5279
 2859ntf    fn415884   1.156   2.151   6.677  0.0965 -0.1339 -0.4704
 2859ntf    fn415885   1.151   2.110   6.475 -0.2255 -0.1399 -0.3534
 2860ntf    cn115886   0.936   6.390   1.826  0.1103 -0.1220 -0.1136
 2860ntf    sn215887   0.826   6.302   1.711 -0.1862 -0.0206  0.0915
 2860ntf    nn315888   0.716   6.280   1.821 -0.2190  0.0924  0.0814
 2860ntf    sn215889   0.722   6.162   1.925 -0.2591 -0.0357 -0.0618
 2860ntf    cn115890   0.545   6.120   1.924 -0.2881  0.0802  0.1210
 2860ntf    fn415891   0.981   6.319   1.928 -0.2619  0.1190  0.2233
 2860ntf    fn415892   1.043   6.452   1.778 -0.1767  0.2822 -0.2389
 2860ntf    fn415893   0.861   6.485   1.881  0.3812  0.1920 -0.2789
 2860ntf    on515894   0.784   6.406   1.621 -0.0870  0.3202  0.4328
 2860ntf    on515895   0.894   6.183   1.665 -0.6214 -0.2844  0.1279
 2860ntf    on515896   0.751   6.208   2.059  0.0118  0.6071 -0.3350
 2860ntf    on515897   0.796   6.046   1.880  0.0861  0.2078 -0.1239
 2860ntf    fn415898   0.500   6.106   1.800 -0.4519  0.3884  0.1450
 2860ntf    fn415899   0.512   6.013   1.994  0.3759  0.0834  0.4515
 2860ntf    fn415900   0.471   6.221   1.966  0.0089  0.5169 -0.3842
 2861ntf    cn115901   4.808   4.123   2.841 -0.0533 -0.0177  0.1369
 2861ntf    sn215902   4.815   4.178   2.668 -0.7170  0.0970  0.1449
 2861ntf    nn315903   4.835   4.332   2.693 -0.1416  0.0218  0.1614
 2861ntf    sn215904   4.757   4.458   2.641 -0.0201 -0.0074 -0.0914
 2861ntf    cn115905   4.849   4.494   2.488  0.0406  0.2286  0.0003
 2861ntf    fn415906   4.719   4.180   2.921  0.0503  0.2930  0.0312
 2861ntf    fn415907   4.770   3.996   2.830  0.2460 -0.0810 -0.1808
 2861ntf    fn415908   4.926   4.124   2.901  0.0336 -0.7567 -0.0153
 2861ntf    on515909   4.936   4.122   2.613 -1.1306 -0.5217 -0.1386
 2861ntf    on515910   4.691   4.140   2.605 -0.2076 -0.1517 -0.7134
 2861ntf    on515911   4.782   4.576   2.719 -0.1840  0.3469 -0.5700
 2861ntf    on515912   4.619   4.439   2.603  0.0248  0.3604 -0.4404
 2861ntf    fn415913   4.978   4.469   2.502  0.0010  0.1116  0.1726
 2861ntf    fn415914   4.807   4.426   2.383  0.3122  0.1376 -0.0493
 2861ntf    fn415915   4.838   4.622   2.458  0.5680  0.2992  0.1007
 2862ntf    cn115916   0.339   6.197   5.181 -0.0324  0.0805  0.0371
 2862ntf    sn215917   0.435   6.116   5.049 -0.2112  0.3174 -0.2366
 2862ntf    nn315918   0.439   6.239   4.951 -0.0633  0.0590 -0.5569
 2862ntf    sn215919   0.370   6.263   4.812 -0.5322  0.3012 -0.2854
 2862ntf    cn115920   0.209   6.336   4.856 -0.6253  0.0463 -0.1965
 2862ntf    fn415921   0.236   6.260   5.128 -0.4813 -0.0374  0.7510
 2862ntf    fn415922   0.281   6.113   5.265 -0.1942 -0.4994 -0.6411
 2862ntf    fn415923   0.407   6.290   5.245 -0.3511  0.1493  0.2754
 2862ntf    on515924   0.567   6.086   5.097 -0.4078 -0.0764  0.0574
 2862ntf    on515925   0.351   6.005   5.011 -0.1941  0.1572  0.1917
 2862ntf    on515926   0.337   6.150   4.728  0.2099  0.0538 -0.2454
 2862ntf    on515927   0.438   6.374   4.751  0.1275  0.1561  0.1815
 2862ntf    fn415928   0.212   6.446   4.930  0.0382  0.1262 -0.3293
 2862ntf    fn415929   0.135   6.356   4.748  0.0745 -0.2667 -0.7444
 2862ntf    fn415930   0.141   6.247   4.925  0.0596 -0.2364  0.1219
 2863ntf    cn115931   6.271   2.507   3.859  0.1397  0.0340 -0.0577
 2863ntf    sn215932   6.128   2.619   3.863  0.0562 -0.0710 -0.1014
 2863ntf    nn315933   6.140   2.714   3.739 -0.1730  0.0997  0.0063
 2863ntf    sn215934   6.093   2.863   3.723  0.1715  0.2067 -0.0237
 2863ntf    cn115935   6.098   2.882   3.542 -0.1429  0.0344 -0.0506
 2863ntf    fn415936   6.307   2.474   3.736  0.4281 -0.3448  0.1238
 2863ntf    fn415937   6.376   2.557   3.922  0.4831 -0.3638 -0.3066
 2863ntf    fn415938   6.244   2.391   3.917 -0.1523  0.2512  0.2383
 2863ntf    on515939   6.011   2.536   3.853  0.1799 -0.2020 -0.4693
 2863ntf    on515940   6.152   2.685   3.989  0.0241  0.6685 -0.4752
 2863ntf    on515941   6.195   2.956   3.764  0.1044  0.2604  0.0199
 2863ntf    on515942   5.955   2.885   3.758  0.1297  0.0997 -0.1186
 2863ntf    fn415943   6.082   3.007   3.502  0.3152 -0.0011 -0.3478
 2863ntf    fn415944   6.210   2.842   3.484  0.0127  0.2267  0.1180
 2863ntf    fn415945   6.000   2.818   3.479 -0.2073  0.1781 -0.0960
 2864ntf    cn115946   6.066   4.176   3.736 -0.2694 -0.1553  0.0375
 2864ntf    sn215947   6.030   4.058   3.603  0.2051 -0.1653 -0.0819
 2864ntf    nn315948   5.877   4.032   3.621  0.1850  0.0615  0.0831
 2864ntf    sn215949   5.819   3.925   3.720  0.0708 -0.1544 -0.2153
 2864ntf    cn115950   5.821   3.779   3.611 -0.0204 -0.1929 -0.1651
 2864ntf    fn415951   6.074   4.117   3.854  0.3180 -0.0344  0.0607
 2864ntf    fn415952   6.182   4.236   3.716 -0.3148 -0.0857 -0.0201
 2864ntf    fn415953   5.978   4.274   3.752 -0.0626  0.0733 -0.2017
 2864ntf    on515954   6.055   4.135   3.483  0.1017  0.3746  0.2368
 2864ntf    on515955   6.121   3.947   3.618 -0.2519 -0.5151  0.0972
 2864ntf    on515956   5.679   3.942   3.748 -0.0154 -0.3057 -0.5518
 2864ntf    on515957   5.904   3.889   3.832 -0.3531 -0.0561  0.1380
 2864ntf    fn415958   5.931   3.708   3.623 -0.3334 -0.7138 -0.3675
 2864ntf    fn415959   5.727   3.690   3.638 -0.3604  0.1714 -0.1373
 2864ntf    fn415960   5.796   3.803   3.483  0.0635 -0.5216 -0.2417
 2865ntf    cn115961   0.263   3.487   4.859  0.0845 -0.0623  0.0055
 2865ntf    sn215962   0.222   3.473   5.035  0.0441  0.0992  0.0093
 2865ntf    nn315963   0.352   3.416   5.102 -0.1142  0.3940  0.5814
 2865ntf    sn215964   0.396   3.268   5.129  0.1379  0.2689 -0.4679
 2865ntf    cn115965   0.358   3.251   5.306 -0.2261 -0.2381 -0.5901
 2865ntf    fn415966   0.383   3.540   4.852  0.0086  0.1039 -0.0453
 2865ntf    fn415967   0.259   3.378   4.784  0.3984 -0.1747  0.1503
 2865ntf    fn415968   0.180   3.566   4.792  0.5620  0.1941 -0.2884
 2865ntf    on515969   0.200   3.612   5.066 -0.6144 -0.0340  0.1700
 2865ntf    on515970   0.107   3.385   5.027  0.3524 -0.3400  0.3722
 2865ntf    on515971   0.537   3.239   5.122  0.0186 -0.6417  0.6864
 2865ntf    on515972   0.316   3.169   5.060  0.2489  0.0530 -0.2858
 2865ntf    fn415973   0.400   3.137   5.359 -0.1030 -0.0301 -0.2364
 2865ntf    fn415974   0.419   3.352   5.365 -0.2162 -0.6341  0.0911
 2865ntf    fn415975   0.229   3.258   5.335 -0.0907  0.4893 -0.1340
 2866ntf    cn115976   0.734   6.961   6.817 -0.2109 -0.0698 -0.1759
 2866ntf    sn215977   0.867   7.074   6.766 -0.0770 -0.0678  0.1732
 2866ntf    nn315978   0.988   6.974   6.763 -0.2823 -0.3103 -0.1446
 2866ntf    sn215979   1.035   6.873   6.652 -0.4099 -0.3392 -0.1722
 2866ntf    cn115980   1.092   6.733   6.753 -0.3007 -0.0079  0.2276
 2866ntf    fn415981   0.617   7.021   6.826  0.1807  0.5716  0.7262
 2866ntf    fn415982   0.719   6.862   6.730  0.0950 -0.1034 -0.1937
 2866ntf    fn415983   0.758   6.899   6.931  0.0720 -0.0384 -0.2177
 2866ntf    on515984   0.817   7.113   6.636 -0.5535 -0.6510  0.1768
 2866ntf    on515985   0.873   7.173   6.870  0.6764  0.0867 -0.0140
 2866ntf    on515986   1.150   6.920   6.580 -0.4700  0.2117  0.0881
 2866ntf    on515987   0.930   6.817   6.570 -0.7186  0.1380 -0.1089
 2866ntf    fn415988   1.155   6.643   6.680 -0.1820 -0.0116  0.3327
 2866ntf    fn415989   1.170   6.781   6.849 -0.3057  0.2163  0.1225
 2866ntf    fn415990   0.988   6.671   6.806  0.1116 -0.8864  0.0164
 2867ntf    cn115991   6.078   5.777   2.024  0.0186  0.0014 -0.1536
 2867ntf    sn215992   6.168   5.895   1.919 -0.1188  0.2900  0.0526
 2867ntf    nn315993   6.055   5.934   1.818 -0.1184 -0.1137 -0.1043
 2867ntf    sn215994   6.071   5.948   1.662 -0.0014  0.0101 -0.0809
 2867ntf    cn115995   6.065   5.775   1.608  0.0521  0.0328 -0.1598
 2867ntf    fn415996   6.160   5.685   2.072 -0.2269 -0.1834 -0.0878
 2867ntf    fn415997   6.020   5.838   2.126  0.2228  0.2767 -0.1988
 2867ntf    fn415998   5.985   5.718   1.952  0.0682 -0.2546 -0.0088
 2867ntf    on515999   6.194   6.004   2.010 -0.2647  0.5638 -0.2327
 2867ntf    on516000   6.276   5.811   1.874 -0.0828  0.4520 -0.1648
 2867ntf    on516001   6.196   5.996   1.608  0.4173 -0.0901  0.7775
 2867ntf    on516002   5.954   6.010   1.605  0.0721  0.1591 -0.0711
 2867ntf    fn416003   6.151   5.749   1.511  0.2313 -0.2355  0.0670
 2867ntf    fn416004   6.108   5.692   1.702 -0.0474  0.2420  0.0715
 2867ntf    fn416005   5.947   5.738   1.561  0.2220 -0.6254 -0.0834
 2868ntf    cn116006   4.926   4.545   0.400 -0.4556 -0.0822 -0.4887
 2868ntf    sn216007   4.763   4.619   0.433 -0.3527 -0.0053 -0.1431
 2868ntf    nn316008   4.706   4.621   0.287 -0.2220 -0.7743 -0.2104
 2868ntf    sn216009   4.554   4.612   0.246 -0.3159  0.0243 -0.0666
 2868ntf    cn116010   4.538   4.434   0.210  0.1627 -0.1414  0.5347
 2868ntf    fn416011   4.987   4.511   0.513  0.0809  0.0520 -0.7373
 2868ntf    fn416012   4.924   4.436   0.325 -0.2170 -0.6488  0.3078
 2868ntf    fn416013   5.006   4.628   0.335 -0.1373  0.1533  0.1919
 2868ntf    on516014   4.709   4.521   0.524  0.4378 -0.2966  0.0220
 2868ntf    on516015   4.783   4.753   0.483 -0.0574 -0.2898  0.5105
 2868ntf    on516016   4.536   4.679   0.119  0.1944  0.1989 -0.0501
 2868ntf    on516017   4.454   4.648   0.343  0.3852  0.2192  0.5914
 2868ntf    fn416018   4.415   4.390   0.192  0.3042 -0.5202  0.4829
 2868ntf    fn416019   4.604   4.388   0.106 -0.3376 -0.6900  0.4583
 2868ntf    fn416020   4.577   4.353   0.308 -0.2503 -0.8989  0.0773
 2869ntf    cn116021   6.693   5.345   5.138 -0.0188  0.2269 -0.4160
 2869ntf    sn216022   6.602   5.285   4.992 -0.5425 -0.1107  0.0462
 2869ntf    nn316023   6.557   5.143   5.041 -0.1620 -0.1025  0.4307
 2869ntf    sn216024   6.449   5.046   4.981  0.0902 -0.0402 -0.1297
 2869ntf    cn116025   6.526   4.881   4.989  0.3157  0.0633 -0.1696
 2869ntf    fn416026   6.723   5.472   5.111 -0.0371  0.4526  0.6076
 2869ntf    fn416027   6.622   5.345   5.249  0.1699  0.1797 -0.2946
 2869ntf    fn416028   6.804   5.280   5.168 -0.3406 -0.2081 -0.1538
 2869ntf    on516029   6.491   5.377   4.981 -0.3755  0.1266  0.3308
 2869ntf    on516030   6.705   5.276   4.891 -0.0538  1.1227  0.4064
 2869ntf    on516031   6.429   5.062   4.839  0.1702 -0.0055 -0.1367
 2869ntf    on516032   6.333   5.031   5.066  0.2215  0.2842  0.1092
 2869ntf    fn416033   6.455   4.779   4.945  0.2620 -0.0969  0.2867
 2869ntf    fn416034   6.643   4.877   4.926  0.4261  0.2040  0.0255
 2869ntf    fn416035   6.553   4.859   5.116  0.8350  0.0487 -0.2799
 2870ntf    cn116036   1.186   0.571   5.362  0.0323  0.1864 -0.0307
 2870ntf    sn216037   1.095   0.414   5.348  0.0814  0.1095  0.5131
 2870ntf    nn316038   0.949   0.472   5.350  0.0153 -0.0192 -0.2660
 2870ntf    sn216039   0.816   0.417   5.414 -0.0287  0.3208 -0.0634
 2870ntf    cn116040   0.746   0.327   5.273  0.0857 -0.0849  0.1389
 2870ntf    fn416041   1.312   0.560   5.399  0.0070  0.3043  0.0891
 2870ntf    fn416042   1.183   0.645   5.252 -0.7155 -0.3204 -0.3654
 2870ntf    fn416043   1.128   0.644   5.456 -1.0148 -0.3941 -0.2034
 2870ntf    on516044   1.133   0.370   5.216 -0.5668  0.1605  0.3059
 2870ntf    on516045   1.137   0.342   5.466  0.1902 -0.1954  0.2894
 2870ntf    on516046   0.718   0.520   5.438 -0.0424  0.4069 -0.4849
 2870ntf    on516047   0.828   0.315   5.515 -0.6193  0.6107  0.3032
 2870ntf    fn416048   0.837   0.240   5.230  0.0306 -0.0243 -0.1033
 2870ntf    fn416049   0.637   0.260   5.305 -0.2126  0.1560 -0.3728
 2870ntf    fn416050   0.721   0.405   5.170 -0.0031 -0.0868  0.1587
 2871ntf    cn116051   2.597   3.876   1.365  0.1442  0.0979 -0.2839
 2871ntf    sn216052   2.588   3.708   1.432  0.2039  0.3549  0.3698
 2871ntf    nn316053   2.739   3.686   1.470  0.3315  0.0472 -0.3109
 2871ntf    sn216054   2.806   3.736   1.603  0.0415 -0.2861 -0.0386
 2871ntf    cn116055   2.800   3.593   1.715  0.1308 -0.1061  0.1964
 2871ntf    fn416056   2.596   3.968   1.460 -0.1645  0.1217 -0.3093
 2871ntf    fn416057   2.710   3.907   1.302  0.5489  0.0868  0.4320
 2871ntf    fn416058   2.499   3.901   1.279  0.4556  0.2797 -0.5891
 2871ntf    on516059   2.498   3.711   1.546  0.0766 -0.2344  0.2895
 2871ntf    on516060   2.549   3.620   1.325  0.7731  0.1356  0.3436
 2871ntf    on516061   2.732   3.833   1.679 -0.0178  0.1570 -0.6549
 2871ntf    on516062   2.946   3.769   1.594 -0.0893  0.2233 -0.1814
 2871ntf    fn416063   2.856   3.616   1.832 -0.1204 -0.0619  0.3091
 2871ntf    fn416064   2.679   3.545   1.741  0.0427 -0.4008 -0.7076
 2871ntf    fn416065   2.860   3.488   1.662 -0.0881  0.1094 -0.4829
 2872ntf    cn116066   5.181   3.041   5.223 -0.1058  0.1067 -0.0197
 2872ntf    sn216067   5.113   3.190   5.302  0.0605  0.2454 -0.1390
 2872ntf    nn316068   5.050   3.128   5.432 -0.3156  0.6478 -0.1292
 2872ntf    sn216069   5.084   3.163   5.581  0.1258 -0.2755 -0.0035
 2872ntf    cn116070   4.946   3.063   5.644  0.0035 -0.0013  0.1662
 2872ntf    fn416071   5.254   3.067   5.116  0.0685  0.0657  0.0894
 2872ntf    fn416072   5.263   2.969   5.299 -0.1328 -0.1264 -0.2092
 2872ntf    fn416073   5.085   2.965   5.174 -0.0552 -0.0527  0.1251
 2872ntf    on516074   5.232   3.270   5.320  0.2057  0.0183 -0.0688
 2872ntf    on516075   5.019   3.237   5.204  0.6193  0.4311 -0.5947
 2872ntf    on516076   5.046   3.296   5.621  0.0712 -0.4393  0.4968
 2872ntf    on516077   5.201   3.104   5.640  0.2750 -0.0352 -0.0602
 2872ntf    fn416078   4.828   3.099   5.596  0.1480 -0.5586 -0.6090
 2872ntf    fn416079   4.960   2.933   5.626 -0.0985 -0.0261  0.2616
 2872ntf    fn416080   4.938   3.076   5.776 -0.1024 -0.1052  0.1701
 2873ntf    cn116081   1.423   1.653   4.828  0.0453  0.3021  0.1909
 2873ntf    sn216082   1.332   1.498   4.859  0.2916  0.1032 -0.0691
 2873ntf    nn316083   1.428   1.446   4.971 -0.4835 -0.2656  0.4336
 2873ntf    sn216084   1.559   1.359   4.960 -0.2078  0.1965  0.0306
 2873ntf    cn116085   1.560   1.266   5.116 -0.1505  0.3677  0.1336
 2873ntf    fn416086   1.356   1.727   4.741  0.3038  0.4115  0.0868
 2873ntf    fn416087   1.438   1.728   4.935  0.1669 -0.0484  0.4220
 2873ntf    fn416088   1.542   1.631   4.775  0.1020  0.1582  0.3775
 2873ntf    on516089   1.199   1.527   4.908  0.1193 -0.2718 -0.3149
 2873ntf    on516090   1.332   1.418   4.739 -0.6724 -0.0982  0.0540
 2873ntf    on516091   1.677   1.442   4.958  0.2650 -0.4641  0.3888
 2873ntf    on516092   1.550   1.252   4.865  0.2860 -0.1231  0.3360
 2873ntf    fn416093   1.448   1.200   5.142 -0.1375  0.0932 -0.5030
 2873ntf    fn416094   1.661   1.181   5.121 -0.2809  0.1883 -0.3108
 2873ntf    fn416095   1.579   1.348   5.219  0.2746  0.2034  0.1876
 2874ntf    cn116096   5.412   4.180   3.148 -0.1469 -0.2450  0.2717
 2874ntf    sn216097   5.232   4.181   3.124 -0.1359 -0.3104  0.1872
 2874ntf    nn316098   5.193   4.264   3.252 -0.0045 -0.1031  0.0920
 2874ntf    sn216099   5.134   4.230   3.393 -0.0331 -0.1787  0.0612
 2874ntf    cn116100   4.956   4.226   3.354 -0.0227 -0.0049 -0.0068
 2874ntf    fn416101   5.472   4.291   3.107 -0.2500 -0.4062 -0.3240
 2874ntf    fn416102   5.448   4.170   3.274  0.2243  0.1611  0.1990
 2874ntf    fn416103   5.478   4.083   3.087  0.6825  0.4369  0.0585
 2874ntf    on516104   5.212   4.256   3.002  0.4038  0.3267  0.4830
 2874ntf    on516105   5.187   4.045   3.134 -0.1218 -0.3032  0.3515
 2874ntf    on516106   5.150   4.340   3.484  0.3104 -0.1207 -0.0682
 2874ntf    on516107   5.166   4.098   3.442 -0.2818 -0.2269  0.0953
 2874ntf    fn416108   4.927   4.151   3.249  0.0178  0.1781 -0.1467
 2874ntf    fn416109   4.888   4.169   3.453 -0.4081 -0.2201 -0.3946
 2874ntf    fn416110   4.892   4.340   3.336  0.2299  0.1563  0.1165
 2875ntf    cn116111   4.005   5.766   3.478  0.4967 -0.0514 -0.2706
 2875ntf    sn216112   3.972   5.935   3.419 -0.0867 -0.1155 -0.1385
 2875ntf    nn316113   4.088   6.016   3.488 -0.5390  0.1084  0.3590
 2875ntf    sn216114   4.200   6.111   3.432 -0.1378 -0.5557  0.0291
 2875ntf    cn116115   4.340   6.014   3.496  0.0341 -0.4311 -0.1598
 2875ntf    fn416116   3.924   5.671   3.434  0.4182 -0.3706  0.5476
 2875ntf    fn416117   4.133   5.734   3.466  0.6897  0.6094 -0.0200
 2875ntf    fn416118   3.992   5.762   3.610 -0.4191 -0.0406 -0.3553
 2875ntf    on516119   3.973   5.910   3.277  0.2825 -0.0906 -0.1416
 2875ntf    on516120   3.843   5.968   3.473 -0.0948 -0.1815 -0.1182
 2875ntf    on516121   4.200   6.241   3.495 -0.0845 -0.4368 -0.2169
 2875ntf    on516122   4.213   6.107   3.288 -0.1255  0.1357  0.0107
 2875ntf    fn416123   4.341   6.021   3.628 -0.0266  0.1082 -0.1876
 2875ntf    fn416124   4.331   5.886   3.463 -0.0919 -0.3203 -0.5639
 2875ntf    fn416125   4.462   6.053   3.463  0.0617 -0.2923  0.1052
 2876ntf    cn116126   5.537   6.787   2.602  0.2921  0.0494  0.2339
 2876ntf    sn216127   5.580   6.625   2.530  0.0626  0.0178  0.1656
 2876ntf    nn316128   5.688   6.570   2.630 -0.4151  0.2735  0.8284
 2876ntf    sn216129   5.834   6.622   2.654 -0.0569 -0.1928 -0.2831
 2876ntf    cn116130   5.929   6.515   2.542 -0.0504 -0.5034  0.0166
 2876ntf    fn416131   5.627   6.879   2.573  0.1751  0.2100  0.3778
 2876ntf    fn416132   5.422   6.834   2.555 -0.0020 -0.3907  0.5023
 2876ntf    fn416133   5.518   6.788   2.733  0.1202  0.5748  0.2078
 2876ntf    on516134   5.459   6.548   2.533  0.1282 -0.0869  0.1143
 2876ntf    on516135   5.627   6.662   2.399 -0.1236  0.1739  0.1426
 2876ntf    on516136   5.889   6.592   2.784 -0.5422 -0.0964 -0.0557
 2876ntf    on516137   5.848   6.756   2.602  0.4483  0.1764  0.7737
 2876ntf    fn416138   5.928   6.391   2.587  0.0952 -0.4933  0.0462
 2876ntf    fn416139   5.894   6.513   2.414 -0.3455  0.4239  0.0745
 2876ntf    fn416140   6.054   6.557   2.532 -0.1647 -0.0428  0.4744
 2877ntf    cn116141   5.843   2.404   5.730 -0.2289  0.2776  0.0680
 2877ntf    sn216142   5.748   2.441   5.580  0.0308  0.2917 -0.0928
 2877ntf    nn316143   5.619   2.509   5.638 -0.2251  0.1985 -0.5478
 2877ntf    sn216144   5.486   2.445   5.693  0.1821 -0.3121 -0.1461
 2877ntf    cn116145   5.442   2.566   5.821 -0.0061 -0.1782 -0.3378
 2877ntf    fn416146   5.965   2.454   5.718 -0.0191 -0.3506 -0.4810
 2877ntf    fn416147   5.785   2.448   5.841 -0.0894 -0.0421  0.2689
 2877ntf    fn416148   5.863   2.274   5.746 -0.0715  0.3318  0.3216
 2877ntf    on516149   5.820   2.548   5.514  0.4348 -0.1121 -0.3136
 2877ntf    on516150   5.738   2.311   5.518  0.2889  0.2509 -0.0494
 2877ntf    on516151   5.498   2.317   5.759  0.8563 -0.0752  0.2064
 2877ntf    on516152   5.382   2.462   5.595 -0.0426 -0.2263  0.1089
 2877ntf    fn416153   5.339   2.523   5.891  0.1084 -0.3543 -0.2749
 2877ntf    fn416154   5.543   2.589   5.903 -0.1214  0.2465 -0.3133
 2877ntf    fn416155   5.415   2.685   5.769  0.5924  0.0642 -0.1090
 2878ntf    cn116156   2.363   4.693   1.885 -0.1114  0.1384 -0.0704
 2878ntf    sn216157   2.204   4.708   1.797 -0.2631  0.1934  0.2147
 2878ntf    nn316158   2.219   4.613   1.673 -0.6389  0.6265 -0.1619
 2878ntf    sn216159   2.112   4.508   1.628 -0.1343  0.1703 -0.2977
 2878ntf    cn116160   2.148   4.517   1.450  0.3129 -0.2721 -0.2335
 2878ntf    fn416161   2.388   4.571   1.929 -0.0013 -0.1393 -0.8807
 2878ntf    fn416162   2.462   4.719   1.800  0.2682 -0.0061  0.3243
 2878ntf    fn416163   2.382   4.773   1.988 -0.1114  0.6138 -0.4343
 2878ntf    on516164   2.104   4.675   1.895  0.2023  0.2101  0.7038
 2878ntf    on516165   2.201   4.845   1.751  0.2801  0.3061  0.5026
 2878ntf    on516166   1.975   4.555   1.625  0.0278  0.6337 -0.5175
 2878ntf    on516167   2.141   4.368   1.651 -0.4462  0.0786 -0.4513
 2878ntf    fn416168   2.275   4.493   1.424  0.3488  0.0570 -0.3631
 2878ntf    fn416169   2.082   4.430   1.376  0.1510 -0.1662 -0.2154
 2878ntf    fn416170   2.123   4.633   1.391  0.7585 -0.1851 -0.2507
 2879ntf    cn116171   6.245   0.854   3.328 -0.2996 -0.0588 -0.2650
 2879ntf    sn216172   6.242   0.733   3.192 -0.5342 -0.0815 -0.2399
 2879ntf    nn316173   6.222   0.590   3.256  0.4637 -0.1669 -0.1130
 2879ntf    sn216174   6.156   0.461   3.196 -0.0697 -0.0007  0.1136
 2879ntf    cn116175   6.306   0.376   3.138 -0.1458 -0.2010  0.2100
 2879ntf    fn416176   6.348   0.840   3.410 -0.6917 -0.3438  0.1852
 2879ntf    fn416177   6.250   0.977   3.280  0.1184 -0.0404 -0.1697
 2879ntf    fn416178   6.136   0.846   3.403 -0.2560 -0.2268 -0.2185
 2879ntf    on516179   6.125   0.770   3.115 -0.2124  0.2615 -0.5684
 2879ntf    on516180   6.373   0.745   3.133 -0.2714 -0.4726  0.2538
 2879ntf    on516181   6.076   0.472   3.077  0.2265 -0.0986 -0.0959
 2879ntf    on516182   6.114   0.363   3.292  0.2921 -0.1824  0.0878
 2879ntf    fn416183   6.259   0.276   3.066 -0.6282  0.2378 -0.0953
 2879ntf    fn416184   6.376   0.444   3.048 -0.5565 -0.0022  0.0377
 2879ntf    fn416185   6.387   0.335   3.234  0.0957 -0.3863 -0.0687
 2880ntf    cn116186   0.704   4.046   3.840 -0.0925  0.0213  0.1802
 2880ntf    sn216187   0.641   4.051   3.670  0.1436  0.1505  0.0951
 2880ntf    nn316188   0.741   4.148   3.597  0.2820  0.0651  0.1719
 2880ntf    sn216189   0.889   4.124   3.549  0.2412 -0.1451  0.1511
 2880ntf    cn116190   0.878   4.138   3.368 -0.3303 -0.2429  0.1744
 2880ntf    fn416191   0.615   4.051   3.937 -0.1268  0.3525  0.1329
 2880ntf    fn416192   0.772   3.936   3.868  0.2262  0.1047 -0.2624
 2880ntf    fn416193   0.787   4.148   3.860 -0.2499  0.0764  0.5648
 2880ntf    on516194   0.635   3.910   3.639 -0.5547  0.2789 -0.3937
 2880ntf    on516195   0.515   4.120   3.690 -0.1060 -0.2143 -0.2021
 2880ntf    on516196   0.926   3.986   3.571  0.1577 -0.1641  0.1744
 2880ntf    on516197   0.982   4.225   3.593 -0.4368  0.4298  0.2862
 2880ntf    fn416198   0.827   4.254   3.329  0.4064  0.0001 -0.0963
 2880ntf    fn416199   0.993   4.118   3.305 -0.6598 -0.6154 -0.3198
 2880ntf    fn416200   0.798   4.045   3.319 -0.2795 -0.1173 -0.1535
 2881ntf    cn116201   3.707   2.278   2.785 -0.2516 -0.4371  0.0838
 2881ntf    sn216202   3.676   2.242   2.961  0.0486  0.3160  0.2944
 2881ntf    nn316203   3.586   2.114   2.944  0.5885  0.0466 -0.6211
 2881ntf    sn216204   3.613   1.971   3.003 -0.0731  0.0888 -0.2049
 2881ntf    cn116205   3.669   1.870   2.862 -0.0935 -0.1584 -0.0364
 2881ntf    fn416206   3.602   2.325   2.721  0.2593  0.8794  0.1773
 2881ntf    fn416207   3.808   2.362   2.771 -0.1609 -0.5524  0.0380
 2881ntf    fn416208   3.753   2.169   2.725  0.1264 -0.2124 -0.0370
 2881ntf    on516209   3.809   2.216   3.010  0.2869 -0.0195 -0.5173
 2881ntf    on516210   3.614   2.362   3.012 -0.0530  0.3785  0.0266
 2881ntf    on516211   3.487   1.911   3.040 -0.2952  0.4185 -0.4134
 2881ntf    on516212   3.715   1.971   3.104 -0.5212  0.6020  0.2539
 2881ntf    fn416213   3.787   1.913   2.820 -0.1431  0.4392  0.4147
 2881ntf    fn416214   3.690   1.744   2.895 -0.1086 -0.1647 -0.0517
 2881ntf    fn416215   3.582   1.881   2.764  0.1548 -0.4044 -0.2846
 2882ntf    cn116216   1.569   1.068   1.808  0.1537  0.3323 -0.1690
 2882ntf    sn216217   1.572   0.949   1.671  0.1660  0.0869  0.0448
 2882ntf    nn316218   1.507   1.038   1.559  0.0773  0.3991  0.3458
 2882ntf    sn216219   1.381   1.001   1.472  0.2900  0.2050  0.1215
 2882ntf    cn116220   1.445   0.893   1.341  0.1100  0.2488 -0.0017
 2882ntf    fn416221   1.448   1.075   1.861  0.4278  0.4336  0.4434
 2882ntf    fn416222   1.656   1.036   1.902 -0.0392  1.1410  0.2989
 2882ntf    fn416223   1.592   1.195   1.775  0.6358  0.3595  0.2668
 2882ntf    on516224   1.712   0.931   1.640  0.0655 -0.0877 -0.3148
 2882ntf    on516225   1.502   0.831   1.717 -0.2550  0.2628 -0.1353
 2882ntf    on516226   1.323   1.116   1.407  0.3502 -0.1563 -0.5809
 2882ntf    on516227   1.280   0.941   1.555  0.1909  0.1826 -0.0159
 2882ntf    fn416228   1.362   0.884   1.237  0.0402 -0.2867  0.0965
 2882ntf    fn416229   1.561   0.941   1.299  0.1901  0.0670  0.0106
 2882ntf    fn416230   1.471   0.772   1.387  0.3560  0.2073 -0.2486
 2883ntf    cn116231   6.838   4.937   0.132 -0.2599 -0.0291 -0.2163
 2883ntf    sn216232   6.923   4.950   0.293 -0.0433  0.3380 -0.3591
 2883ntf    nn316233   6.812   5.041   0.357 -0.5878 -0.0029 -0.8079
 2883ntf    sn216234   6.716   5.009   0.477  0.3954 -0.1312 -0.0440
 2883ntf    cn116235   6.835   5.045   0.610 -0.0156 -0.0410  0.3037
 2883ntf    fn416236   6.919   4.869   0.052  0.1236 -0.0480  0.1832
 2883ntf    fn416237   6.724   4.871   0.137 -0.6935  0.7518  0.3463
 2883ntf    fn416238   6.811   5.048   0.067 -0.3797  0.5548  0.8173
 2883ntf    on516239   6.937   4.816   0.345  0.1406  0.4719 -0.0642
 2883ntf    on516240   7.044   5.022   0.264  0.1843 -0.0062 -0.2558
 2883ntf    on516241   6.667   4.874   0.489  0.5619 -0.2077 -0.2210
 2883ntf    on516242   6.621   5.117   0.485  0.0337 -0.4536  0.0687
 2883ntf    fn416243   6.785   5.013   0.728 -0.4406 -0.4064  0.0298
 2883ntf    fn416244   6.941   4.970   0.585  0.0632 -0.1206  0.8693
 2883ntf    fn416245   6.870   5.172   0.612  0.9043 -0.2803 -0.2077
 2884ntf    cn116246   2.870   0.699   1.318 -0.2906  0.1179 -0.0298
 2884ntf    sn216247   2.847   0.633   1.486 -0.0047 -0.0962 -0.0753
 2884ntf    nn316248   2.891   0.483   1.469 -0.2408 -0.0845 -0.8489
 2884ntf    sn216249   3.035   0.422   1.482 -0.2973 -0.0612 -0.0704
 2884ntf    cn116250   2.999   0.299   1.611  0.3807 -0.2587 -0.0613
 2884ntf    fn416251   2.997   0.686   1.284 -0.3002 -0.4816  0.1677
 2884ntf    fn416252   2.797   0.640   1.225 -0.0699 -0.0488 -0.0983
 2884ntf    fn416253   2.844   0.829   1.309  0.2517  0.2286 -0.0212
 2884ntf    on516254   2.924   0.718   1.573 -0.5827  0.2751  0.0754
 2884ntf    on516255   2.704   0.627   1.503 -0.0842  0.1677 -0.6147
 2884ntf    on516256   3.138   0.504   1.542 -0.3332 -0.2083  0.1935
 2884ntf    on516257   3.073   0.343   1.367 -0.5480 -0.4144  0.0869
 2884ntf    fn416258   2.939   0.358   1.713 -0.4912 -0.1320 -0.6339
 2884ntf    fn416259   2.909   0.209   1.572  0.0481  0.0999 -0.1320
 2884ntf    fn416260   3.107   0.237   1.654  0.5640  0.0995 -0.0077
 2885ntf    cn116261   5.675   5.897   0.606  0.0480  0.0293  0.0027
 2885ntf    sn216262   5.531   5.951   0.509  0.0052 -0.2116 -0.0677
 2885ntf    nn316263   5.415   5.885   0.592 -0.2252 -0.0242 -0.2406
 2885ntf    sn216264   5.269   5.936   0.621 -0.2728 -0.1941 -0.1819
 2885ntf    cn116265   5.181   5.895   0.467  0.0415 -0.3714 -0.3155
 2885ntf    fn416266   5.675   5.765   0.611  0.1530  0.0360  0.2177
 2885ntf    fn416267   5.785   5.933   0.542  0.2253 -0.4413  0.0438
 2885ntf    fn416268   5.685   5.939   0.731  0.0640  0.3268 -0.0983
 2885ntf    on516269   5.546   6.094   0.517  0.1787 -0.2620  0.5721
 2885ntf    on516270   5.554   5.893   0.379 -0.6193 -0.3042 -0.1415
 2885ntf    on516271   5.268   6.079   0.636  0.4401 -0.1681 -0.3209
 2885ntf    on516272   5.210   5.850   0.721 -0.2131  0.1578  0.1559
 2885ntf    fn416273   5.247   5.921   0.355  0.3363  0.6587  0.0848
 2885ntf    fn416274   5.153   5.767   0.449 -0.5800 -0.2230 -0.4319
 2885ntf    fn416275   5.064   5.955   0.461  0.2410  0.0854  0.2526
 2886ntf    cn116276   5.211   5.137   1.347  0.5511 -0.2464 -0.7707
 2886ntf    sn216277   5.370   5.205   1.403  0.2305 -0.0159 -0.1152
 2886ntf    nn316278   5.340   5.359   1.406 -0.6095 -0.1794  0.1350
 2886ntf    sn216279   5.363   5.463   1.521  0.0642 -0.1330 -0.0352
 2886ntf    cn116280   5.207   5.442   1.612 -0.2047  0.4856 -0.3452
 2886ntf    fn416281   5.213   5.006   1.364  0.4210 -0.0912  0.5942
 2886ntf    fn416282   5.108   5.176   1.421  0.9128 -0.0233 -0.3752
 2886ntf    fn416283   5.172   5.160   1.223 -0.4189  0.1885 -0.4028
 2886ntf    on516284   5.387   5.143   1.532  0.5129  0.5858  0.1377
 2886ntf    on516285   5.468   5.163   1.305  0.6728 -0.5185  0.5353
 2886ntf    on516286   5.362   5.602   1.482 -0.1180  0.0720  0.6789
 2886ntf    on516287   5.468   5.429   1.614  1.0323  0.2526 -0.9720
 2886ntf    fn416288   5.181   5.523   1.713  0.2447 -0.1975  0.3331
 2886ntf    fn416289   5.104   5.455   1.531 -0.7017 -0.1200  0.1760
 2886ntf    fn416290   5.207   5.321   1.666  0.0279  0.7341  0.2205
 2887ntf    cn116291   2.965   2.697   2.642 -0.1655  0.0401  0.2235
 2887ntf    sn216292   3.123   2.608   2.630 -0.2206 -0.0247 -0.0275
 2887ntf    nn316293   3.148   2.576   2.781  0.1627 -0.2713 -0.1408
 2887ntf    sn216294   3.122   2.442   2.858 -0.0136 -0.1566  0.0018
 2887ntf    cn116295   3.289   2.372   2.879 -0.1240 -0.5010 -0.2658
 2887ntf    fn416296   2.985   2.808   2.711  0.2008  0.3964 -0.4464
 2887ntf    fn416297   2.910   2.735   2.528 -0.4069 -0.3374  0.2137
 2887ntf    fn416298   2.882   2.626   2.717  0.0981 -0.6216 -0.1020
 2887ntf    on516299   3.086   2.498   2.544 -0.0565 -0.3173  0.2780
 2887ntf    on516300   3.210   2.709   2.574  0.1045 -0.1979  0.1638
 2887ntf    on516301   3.041   2.342   2.792 -0.2967  0.4481 -0.5773
 2887ntf    on516302   3.092   2.464   2.998 -0.1385  0.2525 -0.0888
 2887ntf    fn416303   3.374   2.452   2.941 -0.4958 -0.1027 -0.2606
 2887ntf    fn416304   3.288   2.263   2.954 -0.5393 -0.3547 -0.0539
 2887ntf    fn416305   3.342   2.340   2.762 -0.0918 -0.3156 -0.3018
 2888ntf    cn116306   6.619   4.487   6.497  0.0556 -0.3604 -0.3868
 2888ntf    sn216307   6.769   4.585   6.524  0.0396 -0.4839  0.1636
 2888ntf    nn316308   6.868   4.489   6.450  0.5207  0.4263 -0.4042
 2888ntf    sn216309   6.990   4.415   6.515  0.2861  0.2657 -0.1464
 2888ntf    cn116310   7.106   4.555   6.513  0.2039  0.3344 -0.0896
 2888ntf    fn416311   6.599   4.447   6.372  0.1505  0.0053 -0.5212
 2888ntf    fn416312   6.602   4.392   6.587  0.6188 -0.1231 -0.0196
 2888ntf    fn416313   6.511   4.563   6.513  0.4072  0.1048 -0.1886
 2888ntf    on516314   6.737   4.700   6.443 -0.3314 -0.9242 -0.3180
 2888ntf    on516315   6.764   4.594   6.668 -1.2944  0.0020  0.1011
 2888ntf    on516316   7.057   4.323   6.427 -0.1081 -0.1596 -0.0078
 2888ntf    on516317   6.976   4.377   6.654 -0.8147  0.2056 -0.2683
 2888ntf    fn416318   7.066   4.643   6.603  0.2335  0.1813  0.0733
 2888ntf    fn416319   7.234   4.528   6.533  0.0741 -0.3534 -0.1822
 2888ntf    fn416320   7.100   4.620   6.398 -0.6254 -0.2980 -0.4163
 2889ntf    cn116321   3.309   2.327   5.064 -0.0640 -0.0198  0.1710
 2889ntf    sn216322   3.401   2.463   5.143 -0.0664  0.1661 -0.1449
 2889ntf    nn316323   3.324   2.475   5.279  0.2849 -0.2870  0.0934
 2889ntf    sn216324   3.367   2.418   5.419 -0.0378 -0.1677  0.2419
 2889ntf    cn116325   3.256   2.276   5.442 -0.0980 -0.2398 -0.4744
 2889ntf    fn416326   3.315   2.217   5.137 -0.0398 -0.2825 -0.2181
 2889ntf    fn416327   3.183   2.365   5.058 -0.2458 -0.7032 -0.5088
 2889ntf    fn416328   3.351   2.297   4.942  0.0081  0.4996  0.0631
 2889ntf    on516329   3.534   2.409   5.145  0.0134  0.3499 -0.4319
 2889ntf    on516330   3.374   2.582   5.066 -0.3043  0.1549 -0.0825
 2889ntf    on516331   3.327   2.510   5.523  0.0540  0.2552 -0.0963
 2889ntf    on516332   3.499   2.360   5.427  0.3145  0.5922  0.0432
 2889ntf    fn416333   3.127   2.301   5.457  0.0003  0.0585 -0.0870
 2889ntf    fn416334   3.255   2.193   5.339 -0.3056 -0.0797 -0.6016
 2889ntf    fn416335   3.276   2.200   5.548  0.3139 -0.3917 -0.6587
 2890ntf    cn116336   6.940   4.035   2.174  0.2647 -0.1338  0.2208
 2890ntf    sn216337   6.785   4.062   2.265  0.1596  0.2685 -0.0724
 2890ntf    nn316338   6.846   4.115   2.400  0.2746  0.5078 -0.2179
 2890ntf    sn216339   6.790   4.196   2.523 -0.0762 -0.0879  0.0156
 2890ntf    cn116340   6.829   4.072   2.651 -0.2653 -0.0392  0.1207
 2890ntf    fn416341   7.004   4.148   2.149  0.4469 -0.2743  0.0552
 2890ntf    fn416342   7.030   3.965   2.240  0.1152 -0.2521  0.2977
 2890ntf    fn416343   6.916   3.985   2.054  0.2388  0.2621  0.0589
 2890ntf    on516344   6.706   4.149   2.182  0.1070 -0.1026 -0.4111
 2890ntf    on516345   6.732   3.929   2.275  0.4421  0.1722  0.1656
 2890ntf    on516346   6.647   4.214   2.530 -0.0191  0.2904  0.2230
 2890ntf    on516347   6.881   4.304   2.551 -0.2813  0.2604 -0.6309
 2890ntf    fn416348   6.958   4.078   2.679 -0.3984  0.1028  0.7245
 2890ntf    fn416349   6.764   4.102   2.762 -0.2509 -0.5607  0.2731
 2890ntf    fn416350   6.811   3.946   2.615  0.4886 -0.0936 -0.0836
 2891ntf    cn116351   5.135   6.314   2.040  0.0058 -0.0313 -0.1495
 2891ntf    sn216352   5.232   6.220   2.161  0.0196  0.0516 -0.0950
 2891ntf    nn316353   5.230   6.080   2.090  0.4459 -0.2692  0.5158
 2891ntf    sn216354   5.152   5.948   2.125 -0.2544 -0.0801 -0.2947
 2891ntf    cn116355   5.247   5.905   2.275 -0.1183  0.2366 -0.2907
 2891ntf    fn416356   5.094   6.431   2.087 -0.5481  0.0084 -0.7149
 2891ntf    fn416357   5.204   6.344   1.931  0.2448 -0.6511 -0.1687
 2891ntf    fn416358   5.027   6.249   2.001  0.0759 -0.5687  0.5400
 2891ntf    on516359   5.362   6.282   2.152  0.1553 -0.2193 -0.0248
 2891ntf    on516360   5.153   6.232   2.282  0.8548 -0.2770  0.4970
 2891ntf    on516361   5.183   5.844   2.029  0.3676 -0.2792  0.1128
 2891ntf    on516362   5.014   5.968   2.162 -0.1844  0.6830 -0.4308
 2891ntf    fn416363   5.372   5.899   2.233  0.0871 -0.1061  0.3615
 2891ntf    fn416364   5.241   5.990   2.376 -0.0170 -0.2001  0.0864
 2891ntf    fn416365   5.235   5.780   2.316 -0.0152  0.4454  0.3893
 2892ntf    cn116366   1.145   1.735   3.736 -0.2053  0.0338 -0.0203
 2892ntf    sn216367   1.315   1.725   3.672 -0.0481  0.2412  0.3660
 2892ntf    nn316368   1.292   1.623   3.555 -0.0135  0.6750 -0.0188
 2892ntf    sn216369   1.270   1.647   3.401  0.0063  0.5560 -0.0401
 2892ntf    cn116370   1.439   1.628   3.338 -0.0418  0.0307 -0.0094
 2892ntf    fn416371   1.102   1.619   3.783  0.1665  0.1478  0.6071
 2892ntf    fn416372   1.139   1.821   3.836 -0.3300 -0.0916  0.0802
 2892ntf    fn416373   1.054   1.773   3.647 -0.0712 -0.0190 -0.1808
 2892ntf    on516374   1.348   1.856   3.622 -0.2999  0.2624  0.2567
 2892ntf    on516375   1.391   1.668   3.781  0.0726 -0.5826 -0.1465
 2892ntf    on516376   1.232   1.779   3.357  0.0996  0.4751 -0.3678
 2892ntf    on516377   1.202   1.540   3.332  0.0152  0.3019  0.3424
 2892ntf    fn416378   1.517   1.714   3.400 -0.1386  0.0768  0.0478
 2892ntf    fn416379   1.472   1.504   3.370  0.4683  0.0150 -0.5749
 2892ntf    fn416380   1.448   1.637   3.206  0.0974  0.1112  0.0060
 2893ntf    cn116381   2.199   4.141   0.328  0.1012  0.2296  0.2107
 2893ntf    sn216382   2.220   4.320   0.352  0.4542  0.2403 -0.1815
 2893ntf    nn316383   2.076   4.380   0.338  0.2238 -0.1628  0.4493
 2893ntf    sn216384   1.986   4.443   0.451  0.1804 -0.0388  0.3452
 2893ntf    cn116385   2.070   4.598   0.496 -0.2835  0.3726 -0.1823
 2893ntf    fn416386   2.156   4.077   0.436  0.4751  0.0236  0.2384
 2893ntf    fn416387   2.116   4.107   0.231  0.1709  0.0316  0.2209
 2893ntf    fn416388   2.318   4.087   0.306 -0.0285  0.0300  0.0021
 2893ntf    on516389   2.275   4.330   0.485  0.6730 -0.4195 -0.2169
 2893ntf    on516390   2.312   4.365   0.250  0.0329  0.1316 -0.6143
 2893ntf    on516391   1.981   4.369   0.574  0.4865 -0.2262  0.2455
 2893ntf    on516392   1.860   4.488   0.396  0.7497  0.8457 -0.2544
 2893ntf    fn416393   2.009   4.657   0.597  0.3095  0.3133  0.2133
 2893ntf    fn416394   2.195   4.581   0.535 -0.4426 -0.0931  0.1284
 2893ntf    fn416395   2.070   4.680   0.392 -0.1098  0.0421 -0.4496
 2894ntf    cn116396   0.286   1.926   6.455  0.0503  0.0432 -0.2243
 2894ntf    sn216397   0.120   1.889   6.390 -0.1119  0.1378  0.1327
 2894ntf    nn316398   0.075   1.765   6.476  0.0739  0.0085  0.0440
 2894ntf    sn216399   0.008   1.632   6.427 -0.1351  0.1280  0.0048
 2894ntf    cn116400  -0.147   1.667   6.516 -0.3378 -0.0958 -0.2576
 2894ntf    fn416401   0.287   1.925   6.587  0.2452 -0.1594 -0.2270
 2894ntf    fn416402   0.378   1.837   6.422  0.1371  0.0204  0.0740
 2894ntf    fn416403   0.331   2.045   6.419 -0.1702  0.1640 -0.1025
 2894ntf    on516404   0.051   2.010   6.426  0.4939  0.3930  0.4527
 2894ntf    on516405   0.151   1.853   6.254 -0.2571  0.2603  0.0675
 2894ntf    on516406   0.058   1.513   6.492 -0.6507 -0.2157 -0.2253
 2894ntf    on516407  -0.035   1.627   6.290 -0.2151 -0.0859  0.0375
 2894ntf    fn416408  -0.249   1.585   6.505 -0.4021 -0.0683  0.1294
 2894ntf    fn416409  -0.130   1.676   6.647 -0.1683 -0.6032 -0.2437
 2894ntf    fn416410  -0.200   1.782   6.476 -0.6703 -0.1930 -0.0977
 2895ntf    cn116411   6.829   5.950   5.155 -0.5468 -0.0218  0.1493
 2895ntf    sn216412   6.793   6.033   5.313  0.1858  0.2414  0.1825
 2895ntf    nn316413   6.654   6.088   5.266 -0.2286 -0.3392  0.7226
 2895ntf    sn216414   6.576   6.212   5.323  0.0035  0.2289 -0.1702
 2895ntf    cn116415   6.612   6.325   5.185 -0.1373  0.0908 -0.3197
 2895ntf    fn416416   6.812   6.031   5.052 -0.2738  0.2863  0.3432
 2895ntf    fn416417   6.953   5.904   5.150 -0.3914  0.3707  0.3285
 2895ntf    fn416418   6.753   5.844   5.136 -0.3576 -0.1897  0.3368
 2895ntf    on516419   6.781   5.932   5.414  0.0215 -0.2765 -0.3468
 2895ntf    on516420   6.895   6.134   5.334 -0.0315  0.3246  0.8366
 2895ntf    on516421   6.623   6.276   5.443  0.0340 -0.3669  0.1412
 2895ntf    on516422   6.434   6.189   5.321 -0.0367  0.3589  0.6599
 2895ntf    fn416423   6.558   6.292   5.069 -0.5116  0.8361 -0.3659
 2895ntf    fn416424   6.562   6.446   5.206  0.0303  0.0183  0.5385
 2895ntf    fn416425   6.743   6.340   5.175 -0.1303  0.3426  0.0803
 2896ntf    cn116426   6.200   4.985   2.602 -0.4455  0.0332  0.1864
 2896ntf    sn216427   6.276   4.820   2.613 -0.1614  0.1374 -0.1802
 2896ntf    nn316428   6.190   4.747   2.723  0.3921 -0.1232  0.0818
 2896ntf    sn216429   6.145   4.596   2.714 -0.1165  0.0233  0.1343
 2896ntf    cn116430   5.994   4.605   2.613  0.0771  0.3875 -0.1274
 2896ntf    fn416431   6.210   5.052   2.716 -0.1324 -0.6794  0.5869
 2896ntf    fn416432   6.252   5.059   2.506 -0.0356 -0.4849  0.0028
 2896ntf    fn416433   6.075   4.973   2.561 -0.4007 -0.5811  0.2138
 2896ntf    on516434   6.258   4.774   2.478 -0.3199 -0.4504  0.0383
 2896ntf    on516435   6.411   4.852   2.651 -0.1877 -0.1002  0.1211
 2896ntf    on516436   6.094   4.544   2.838 -0.4118 -0.3345 -0.1368
 2896ntf    on516437   6.224   4.502   2.638 -0.6955 -0.2459 -0.1367
 2896ntf    fn416438   5.899   4.687   2.654  0.3981  0.8435 -0.2832
 2896ntf    fn416439   6.014   4.639   2.487 -0.0884 -0.1824 -0.3077
 2896ntf    fn416440   5.933   4.489   2.605 -0.1206  0.4588  0.3225
 2897ntf    cn116441   5.158   1.433   2.579  0.1907 -0.0056 -0.3067
 2897ntf    sn216442   5.101   1.423   2.407  0.0300 -0.1453 -0.2458
 2897ntf    nn316443   5.239   1.413   2.332  0.3287 -0.3110  0.3179
 2897ntf    sn216444   5.286   1.324   2.211 -0.5031 -0.1628 -0.1253
 2897ntf    cn116445   5.368   1.187   2.298 -0.3554  0.0172  0.0211
 2897ntf    fn416446   5.056   1.432   2.663  0.3372 -0.3735 -0.1299
 2897ntf    fn416447   5.223   1.324   2.618 -0.5191 -0.1974  0.3633
 2897ntf    fn416448   5.232   1.540   2.604  0.0064 -0.0057  0.2418
 2897ntf    on516449   5.017   1.306   2.408 -0.2137  0.0305 -0.1980
 2897ntf    on516450   5.042   1.551   2.376 -0.1182 -0.0110  0.5897
 2897ntf    on516451   5.398   1.386   2.143 -0.3057 -0.1996  0.1626
 2897ntf    on516452   5.188   1.260   2.127 -0.1791  0.1847 -0.7760
 2897ntf    fn416453   5.424   1.099   2.217 -0.7379 -0.3358  0.1360
 2897ntf    fn416454   5.467   1.231   2.374 -0.2547  0.2074 -0.2225
 2897ntf    fn416455   5.283   1.122   2.376 -0.2121 -0.2907 -0.0800
 2898ntf    cn116456   2.964   6.561   3.062 -0.3132 -0.5053 -0.0011
 2898ntf    sn216457   3.048   6.712   3.116 -0.8495 -0.1664 -0.1131
 2898ntf    nn316458   2.977   6.815   3.021 -0.1769  0.1751 -0.2518
 2898ntf    sn216459   2.846   6.901   3.032 -0.2330  0.0482  0.0684
 2898ntf    cn116460   2.810   6.889   2.854  0.4501 -0.0425 -0.0677
 2898ntf    fn416461   2.948   6.548   2.931  0.5603  0.3766 -0.2056
 2898ntf    fn416462   3.025   6.453   3.109  0.1509 -0.1079  0.3267
 2898ntf    fn416463   2.843   6.559   3.114 -0.1753 -0.0552  0.3447
 2898ntf    on516464   3.014   6.723   3.256 -0.1480 -0.8336  0.1126
 2898ntf    on516465   3.185   6.679   3.086 -0.8549  0.0412 -0.3704
 2898ntf    on516466   2.881   7.041   3.038 -0.0396  0.0142 -0.2392
 2898ntf    on516467   2.732   6.847   3.101 -0.2720  0.4180  0.2941
 2898ntf    fn416468   2.686   6.928   2.832  0.3958 -0.1237  0.0897
 2898ntf    fn416469   2.890   6.954   2.771  0.4036 -0.0145 -0.0895
 2898ntf    fn416470   2.811   6.763   2.813 -0.1106  0.0171 -0.2665
 2899ntf    cn116471   1.284   1.985   5.634 -0.0493 -0.6607 -0.1332
 2899ntf    sn216472   1.289   2.056   5.467 -0.1099 -0.2455  0.0407
 2899ntf    nn316473   1.285   1.928   5.376 -0.2408 -0.2205  0.0121
 2899ntf    sn216474   1.243   1.940   5.225 -0.0431  0.2917 -0.0031
 2899ntf    cn116475   1.065   1.911   5.243 -0.0274  0.0302 -0.2624
 2899ntf    fn416476   1.279   2.077   5.729  0.8820 -0.3654 -0.3619
 2899ntf    fn416477   1.172   1.917   5.654 -0.4649 -0.0224 -0.2538
 2899ntf    fn416478   1.390   1.910   5.661  0.2794 -0.0771  0.2118
 2899ntf    on516479   1.171   2.139   5.467  0.0403 -0.0311 -0.0384
 2899ntf    on516480   1.420   2.117   5.459 -0.0138 -0.4859 -0.2207
 2899ntf    on516481   1.287   1.829   5.144 -0.4413 -0.0448  0.2413
 2899ntf    on516482   1.255   2.071   5.165 -0.2372  0.3674  0.1232
 2899ntf    fn416483   1.044   1.799   5.311  0.4648  0.2859  0.3143
 2899ntf    fn416484   1.005   2.008   5.311 -0.1116 -0.1387 -0.0958
 2899ntf    fn416485   1.005   1.899   5.126 -0.3506  0.4180 -0.1404
 2900ntf    cn116486   2.634   5.475   4.590 -0.0601 -0.0409 -0.0394
 2900ntf    sn216487   2.554   5.456   4.752 -0.0931  0.1954 -0.0282
 2900ntf    nn316488   2.677   5.430   4.846 -0.4064 -0.2662  0.2588
 2900ntf    sn216489   2.724   5.521   4.965  0.0200  0.0297 -0.1353
 2900ntf    cn116490   2.882   5.442   5.009  0.2931  0.5550 -0.1699
 2900ntf    fn416491   2.551   5.512   4.493 -0.8002 -0.3732  0.4543
 2900ntf    fn416492   2.731   5.564   4.596 -0.0938 -0.0117  0.0596
 2900ntf    fn416493   2.697   5.366   4.549  0.4779  0.2892 -0.1005
 2900ntf    on516494   2.480   5.577   4.776  0.1270  0.2672  0.2968
 2900ntf    on516495   2.465   5.345   4.725  0.1067  0.0798 -0.2193
 2900ntf    on516496   2.646   5.499   5.084 -0.2348  0.1132 -0.2877
 2900ntf    on516497   2.764   5.655   4.931  0.0409 -0.0279 -0.3400
 2900ntf    fn416498   2.936   5.485   5.122  0.2145 -0.1185  0.1220
 2900ntf    fn416499   2.867   5.312   5.028 -0.2668  0.6846  0.2938
 2900ntf    fn416500   2.967   5.456   4.908  0.1252 -0.1587 -0.4093
 2901ntf    cn116501   0.437   6.629   0.547  0.1610  0.0175  0.2695
 2901ntf    sn216502   0.334   6.692   0.410  0.4236 -0.1550 -0.0075
 2901ntf    nn316503   0.194   6.710   0.478  0.5094  0.0631  0.1156
 2901ntf    sn216504   0.124   6.836   0.540  0.0582 -0.0802 -0.0965
 2901ntf    cn116505   0.055   6.912   0.390 -0.4367 -0.6234 -0.1470
 2901ntf    fn416506   0.401   6.508   0.587  0.0572 -0.1425 -0.2910
 2901ntf    fn416507   0.564   6.622   0.510  0.1192  0.3287  0.0667
 2901ntf    fn416508   0.430   6.707   0.653  0.1320 -0.0292  0.3020
 2901ntf    on516509   0.403   6.811   0.367  0.0609  0.1314  0.1967
 2901ntf    on516510   0.336   6.581   0.318 -0.2770 -0.3758  0.2434
 2901ntf    on516511   0.216   6.930   0.599 -0.5992  0.4412  0.1124
 2901ntf    on516512   0.014   6.787   0.619  0.1140  0.0105  0.0368
 2901ntf    fn416513  -0.023   7.018   0.402  0.5832  0.1316 -0.0868
 2901ntf    fn416514   0.155   6.963   0.320 -0.9357 -0.4232 -0.7238
 2901ntf    fn416515  -0.004   6.830   0.304  0.0373 -0.8386 -0.2676
 2902ntf    cn116516   3.897   4.528   5.468  0.0062 -0.2544 -0.2308
 2902ntf    sn216517   4.015   4.658   5.421  0.0408 -0.1368  0.1820
 2902ntf    nn316518   4.042   4.637   5.268  0.3386  0.1619  0.1922
 2902ntf    sn216519   4.126   4.726   5.170 -0.0231  0.2356 -0.0520
 2902ntf    cn116520   4.288   4.644   5.177 -0.1994 -0.1309 -0.2738
 2902ntf    fn416521   3.898   4.506   5.598 -0.2953 -0.0022 -0.1848
 2902ntf    fn416522   3.773   4.553   5.430  0.1574  0.3796 -0.3192
 2902ntf    fn416523   3.935   4.416   5.409  0.7394 -0.1167 -0.0240
 2902ntf    on516524   3.946   4.779   5.460 -0.1538 -0.1987  0.0281
 2902ntf    on516525   4.129   4.619   5.499  0.3648  0.0449 -0.2010
 2902ntf    on516526   4.155   4.857   5.225 -0.3959  0.1466  0.3706
 2902ntf    on516527   4.087   4.714   5.032 -0.1834  0.5917 -0.0420
 2902ntf    fn416528   4.296   4.563   5.281  0.1043 -0.0106 -0.2041
 2902ntf    fn416529   4.312   4.569   5.070 -0.2750 -0.3437 -0.1429
 2902ntf    fn416530   4.384   4.734   5.189 -0.2181 -0.1328 -0.1051
 2903ntf    cn116531   4.446   1.271   2.102 -0.2402  0.3566  0.6198
 2903ntf    sn216532   4.420   1.214   2.272 -0.1128  0.0688  0.5437
 2903ntf    nn316533   4.374   1.066   2.250  0.2244  0.0014  0.2839
 2903ntf    sn216534   4.397   0.933   2.330 -0.3723 -0.1836  0.1566
 2903ntf    cn116535   4.244   0.917   2.426 -0.5351 -0.3328 -0.1301
 2903ntf    fn416536   4.511   1.387   2.099  0.5297 -0.0779  0.1754
 2903ntf    fn416537   4.525   1.195   2.028 -0.4310  0.4857  0.2798
 2903ntf    fn416538   4.334   1.279   2.032 -0.0128 -0.2912  0.1720
 2903ntf    on516539   4.553   1.229   2.328  0.1507  0.1626 -0.0937
 2903ntf    on516540   4.317   1.303   2.319 -0.1659  0.1150  0.3377
 2903ntf    on516541   4.490   0.951   2.439  0.2342 -0.5367 -0.2977
 2903ntf    on516542   4.405   0.816   2.247 -0.5423  0.3632 -0.6434
 2903ntf    fn416543   4.142   0.886   2.347 -0.4858 -0.0262 -0.3128
 2903ntf    fn416544   4.259   0.825   2.520 -0.2683  0.3735  0.5246
 2903ntf    fn416545   4.217   1.031   2.486 -0.0725 -0.2458 -0.0851
 2904ntf    cn116546   1.881   6.677   5.876  0.4663 -0.2582  0.1710
 2904ntf    sn216547   1.859   6.853   5.837  0.1775 -0.3518 -0.0981
 2904ntf    nn316548   1.725   6.863   5.757 -0.1097 -0.3813  0.3720
 2904ntf    sn216549   1.596   6.950   5.781  0.1077 -0.0173  0.2294
 2904ntf    cn116550   1.560   6.979   5.605 -0.0077  0.0852  0.2698
 2904ntf    fn416551   1.772   6.632   5.936  0.3094 -0.0005  0.0794
 2904ntf    fn416552   1.906   6.596   5.774 -0.0047 -0.3074  0.0919
 2904ntf    fn416553   1.982   6.662   5.960  0.2509  0.3374  0.5393
 2904ntf    on516554   1.850   6.924   5.962  0.4598  0.5778 -0.5985
 2904ntf    on516555   1.973   6.877   5.752  0.3631 -1.2001 -0.1024
 2904ntf    on516556   1.612   7.084   5.831 -0.0629  0.1199 -0.0792
 2904ntf    on516557   1.490   6.865   5.828  0.2927 -0.1992  0.3178
 2904ntf    fn416558   1.516   6.875   5.536 -0.4256  0.2246  0.3187
 2904ntf    fn416559   1.464   7.070   5.595  0.2162  0.2918 -0.0014
 2904ntf    fn416560   1.668   7.025   5.544 -0.1523 -0.2131 -0.2132
 2905ntf    cn116561   4.624   1.557   0.973  0.4978  0.5680 -0.4209
 2905ntf    sn216562   4.481   1.627   0.886  0.0500 -0.1745 -0.2950
 2905ntf    nn316563   4.559   1.724   0.790  0.0994 -0.1559 -0.2369
 2905ntf    sn216564   4.524   1.875   0.762 -0.3269 -0.1264  0.4317
 2905ntf    cn116565   4.387   1.863   0.643 -0.2577 -0.0553  0.3448
 2905ntf    fn416566   4.719   1.642   1.010  0.2470  0.8015 -0.3043
 2905ntf    fn416567   4.589   1.491   1.083  0.0559  0.4411 -0.6334
 2905ntf    fn416568   4.684   1.475   0.890  0.3447  0.0478 -0.0237
 2905ntf    on516569   4.430   1.508   0.823 -0.2826 -0.2783  0.1645
 2905ntf    on516570   4.405   1.688   0.992 -0.0866 -0.4317 -0.2465
 2905ntf    on516571   4.626   1.949   0.692 -0.7669  0.0421 -0.0416
 2905ntf    on516572   4.463   1.946   0.871 -0.0785  1.2681 -0.3177
 2905ntf    fn416573   4.326   1.978   0.619 -0.0301 -0.0052  0.0156
 2905ntf    fn416574   4.435   1.816   0.530  0.0389  0.2323  0.3504
 2905ntf    fn416575   4.298   1.772   0.681  0.1978 -0.7244 -0.1923
 2906ntf    cn116576   3.826   4.039   3.752  0.2564  0.1204  0.0353
 2906ntf    sn216577   3.929   4.182   3.798  0.0683  0.2729 -0.0165
 2906ntf    nn316578   3.832   4.304   3.775  0.3541  0.5454  0.2177
 2906ntf    sn216579   3.806   4.370   3.635 -0.0827  0.1650  0.1173
 2906ntf    cn116580   3.626   4.346   3.625 -0.0149 -0.3012  0.0043
 2906ntf    fn416581   3.869   3.928   3.809  0.2948 -0.0239 -0.2755
 2906ntf    fn416582   3.697   4.047   3.783  0.2231 -0.4573  0.0446
 2906ntf    fn416583   3.827   4.015   3.622  0.4237 -0.7122  0.1872
 2906ntf    on516584   3.972   4.164   3.934 -0.3149  0.5031  0.1371
 2906ntf    on516585   4.040   4.176   3.707  0.2498  0.1657  0.2117
 2906ntf    on516586   3.848   4.301   3.516 -0.1225 -0.2676  0.3531
 2906ntf    on516587   3.824   4.513   3.644  0.2579  0.1618 -0.4895
 2906ntf    fn416588   3.582   4.414   3.521 -0.3738 -0.2959  0.1587
 2906ntf    fn416589   3.587   4.220   3.612 -0.2603 -0.2864  0.5500
 2906ntf    fn416590   3.564   4.388   3.734 -0.1960 -0.7186  0.0662
 2907ntf    cn116591   4.481   3.937   1.285  0.1181  0.4184  0.0030
 2907ntf    sn216592   4.606   3.855   1.388 -0.0843  0.2726  0.1322
 2907ntf    nn316593   4.522   3.734   1.443  0.1653  0.4923  1.0095
 2907ntf    sn216594   4.549   3.579   1.452  0.0222  0.4170  0.1774
 2907ntf    cn116595   4.479   3.553   1.618 -0.1759 -0.4286 -0.0342
 2907ntf    fn416596   4.434   3.865   1.184  0.2641  0.1689  0.1122
 2907ntf    fn416597   4.373   3.969   1.355  0.2011  0.6737  0.0137
 2907ntf    fn416598   4.524   4.053   1.239  0.0393  0.5793  0.3316
 2907ntf    on516599   4.714   3.826   1.297 -0.2139 -0.1419  0.1084
 2907ntf    on516600   4.635   3.960   1.482  0.5212 -0.0307  0.2860
 2907ntf    on516601   4.686   3.539   1.476  0.1266  0.4053 -0.4019
 2907ntf    on516602   4.474   3.494   1.363  0.4418 -0.2751  0.4825
 2907ntf    fn416603   4.508   3.431   1.659 -0.2468 -0.4366 -0.0077
 2907ntf    fn416604   4.530   3.638   1.706  0.1163 -0.1658 -0.4504
 2907ntf    fn416605   4.348   3.568   1.612 -0.2115 -0.5334  0.5004
 2908ntf    cn116606   2.185   5.441   6.070 -0.1301 -0.0400 -0.1157
 2908ntf    sn216607   2.193   5.571   5.944  0.0509  0.0106 -0.0529
 2908ntf    nn316608   2.250   5.695   6.021  0.3067  0.1887 -0.5199
 2908ntf    sn216609   2.401   5.729   6.051  0.2284  0.1195 -0.0280
 2908ntf    cn116610   2.424   5.678   6.224  0.2826  0.2395  0.0003
 2908ntf    fn416611   2.299   5.403   6.127 -0.1833  0.0233  0.0339
 2908ntf    fn416612   2.113   5.476   6.176 -0.5403 -0.6892 -0.1701
 2908ntf    fn416613   2.126   5.335   6.018  0.3825 -0.1903 -0.4009
 2908ntf    on516614   2.279   5.512   5.844  0.2556 -0.0376  0.1496
 2908ntf    on516615   2.053   5.583   5.915  0.1117  0.3611 -0.2042
 2908ntf    on516616   2.428   5.870   6.058  0.2553  0.0775  0.7754
 2908ntf    on516617   2.498   5.651   5.979 -0.3133 -0.4063 -0.2026
 2908ntf    fn416618   2.358   5.565   6.240  0.4485  0.1447  0.0208
 2908ntf    fn416619   2.551   5.652   6.250  0.0893  0.0407  0.7444
 2908ntf    fn416620   2.382   5.766   6.313 -0.0418  0.2279 -0.1396
 2909ntf    cn116621   4.405   5.408   2.206  0.1925  0.0758  0.0597
 2909ntf    sn216622   4.460   5.562   2.286  0.1844  0.1419 -0.0604
 2909ntf    nn316623   4.613   5.555   2.249  0.3396  0.8306  0.4344
 2909ntf    sn216624   4.727   5.485   2.331  0.0210  0.1116  0.2760
 2909ntf    cn116625   4.812   5.630   2.401  0.0558  0.4603 -0.4714
 2909ntf    fn416626   4.289   5.364   2.250 -0.0076  0.0832 -0.4535
 2909ntf    fn416627   4.392   5.421   2.075  0.0101  0.1794  0.0887
 2909ntf    fn416628   4.489   5.308   2.226  0.1417 -0.0248 -0.2242
 2909ntf    on516629   4.398   5.666   2.209  0.6576  0.3864 -0.1155
 2909ntf    on516630   4.426   5.554   2.426  0.4829  0.1268  0.0113
 2909ntf    on516631   4.819   5.430   2.234  0.4123  0.2433  0.5687
 2909ntf    on516632   4.690   5.399   2.440 -0.2998 -0.2426 -0.1098
 2909ntf    fn416633   4.919   5.587   2.466 -0.3793  0.3164  0.1604
 2909ntf    fn416634   4.858   5.709   2.306  1.4521 -0.1086 -0.2866
 2909ntf    fn416635   4.741   5.706   2.483 -0.4346 -0.1782 -0.3035
 2910ntf    cn116636   4.151   6.992   1.154 -0.1052  0.1168 -0.0483
 2910ntf    sn216637   4.191   6.854   1.266  0.1417  0.2815  0.0677
 2910ntf    nn316638   4.109   6.748   1.184  0.4553  0.2397 -0.1936
 2910ntf    sn216639   4.156   6.639   1.083  0.0378 -0.1031 -0.0200
 2910ntf    cn116640   4.167   6.495   1.194 -0.2830  0.0135  0.1646
 2910ntf    fn416641   4.020   6.999   1.144 -0.1035  0.1111 -0.0747
 2910ntf    fn416642   4.190   7.106   1.210 -0.1476  0.0731  0.0708
 2910ntf    fn416643   4.202   6.990   1.032  0.3586  0.1938  0.1403
 2910ntf    on516644   4.335   6.853   1.256  0.1102 -0.5659 -0.3422
 2910ntf    on516645   4.124   6.894   1.387  0.9962 -0.1561  0.6960
 2910ntf    on516646   4.286   6.648   1.021 -0.0966 -0.3550 -0.3428
 2910ntf    on516647   4.045   6.598   1.001  0.2085 -0.2001 -0.2049
 2910ntf    fn416648   4.050   6.468   1.248 -0.3662 -0.3015 -0.1734
 2910ntf    fn416649   4.219   6.390   1.132  0.1882 -0.0225  0.6168
 2910ntf    fn416650   4.246   6.517   1.298  0.5037  0.2957 -0.4775
 2911ntf    cn116651   3.693   1.485   2.597  0.3313  0.0316 -0.0476
 2911ntf    sn216652   3.636   1.624   2.495 -0.4003 -0.1745  0.0736
 2911ntf    nn316653   3.566   1.551   2.375 -0.3250 -0.4674  0.2090
 2911ntf    sn216654   3.625   1.531   2.231 -0.3136 -0.1449  0.1692
 2911ntf    cn116655   3.547   1.680   2.163  0.3278  0.1613  0.0976
 2911ntf    fn416656   3.589   1.422   2.649 -0.0161  0.4205 -0.2672
 2911ntf    fn416657   3.745   1.392   2.517  0.0927 -0.1756  0.0361
 2911ntf    fn416658   3.782   1.513   2.690 -0.0526  0.0383  0.3176
 2911ntf    on516659   3.550   1.701   2.581 -0.4103 -0.0181 -0.0760
 2911ntf    on516660   3.766   1.682   2.470 -0.2073 -0.5113  0.2890
 2911ntf    on516661   3.564   1.422   2.159 -0.1258 -0.1970  0.0893
 2911ntf    on516662   3.765   1.562   2.217 -0.4054 -0.0053 -0.4574
 2911ntf    fn416663   3.598   1.787   2.221 -0.0572  0.5133 -0.2029
 2911ntf    fn416664   3.574   1.695   2.034 -0.1519 -0.1221 -0.0364
 2911ntf    fn416665   3.415   1.689   2.174  0.2969  0.1009 -0.2021
 2912ntf    cn116666   4.538   5.255   4.931  0.2123 -0.3756 -0.0517
 2912ntf    sn216667   4.558   5.132   5.063 -0.2117 -0.1667  0.2083
 2912ntf    nn316668   4.617   5.224   5.175  0.0472 -0.0670 -0.0113
 2912ntf    sn216669   4.526   5.302   5.276 -0.2544  0.0444 -0.3692
 2912ntf    cn116670   4.626   5.445   5.328 -0.0723 -0.2614  0.1254
 2912ntf    fn416671   4.641   5.338   4.929 -0.0393 -0.0617  0.0054
 2912ntf    fn416672   4.532   5.205   4.809  0.2823 -0.6075  0.0394
 2912ntf    fn416673   4.434   5.336   4.944 -0.0396 -0.7160  0.0642
 2912ntf    on516674   4.422   5.087   5.079 -0.4890  0.3154 -0.7077
 2912ntf    on516675   4.655   5.032   5.025  0.0272 -0.0172  0.4220
 2912ntf    on516676   4.511   5.235   5.402 -0.2846  1.1561  0.2337
 2912ntf    on516677   4.406   5.356   5.217 -0.1958  0.3871 -0.1801
 2912ntf    fn416678   4.557   5.528   5.404  0.7396  0.4755  0.0654
 2912ntf    fn416679   4.732   5.398   5.392 -0.0458 -0.3499  0.0187
 2912ntf    fn416680   4.669   5.513   5.223  0.4686 -0.5126  0.1792
 2913ntf    cn116681   0.239   3.586   4.177  0.2638  0.0500  0.2300
 2913ntf    sn216682   0.127   3.583   4.320 -0.4608 -0.3623 -0.3351
 2913ntf    nn316683  -0.006   3.634   4.255 -0.3940 -0.3603 -0.4698
 2913ntf    sn216684  -0.129   3.697   4.329  0.3369  0.3292  0.1596
 2913ntf    cn116685  -0.218   3.551   4.390 -0.1530  0.5200 -0.0976
 2913ntf    fn416686   0.246   3.705   4.119 -0.2948  0.0628  0.1861
 2913ntf    fn416687   0.364   3.558   4.209  0.0069 -0.5499  0.7161
 2913ntf    fn416688   0.208   3.498   4.083  0.3622  0.2373  0.0199
 2913ntf    on516689   0.132   3.446   4.364 -0.1550 -0.1143  0.4168
 2913ntf    on516690   0.193   3.672   4.413  0.1357 -0.7540 -0.3757
 2913ntf    on516691  -0.226   3.753   4.239  0.0538 -0.0330  0.2393
 2913ntf    on516692  -0.096   3.764   4.453  0.2300 -0.0844  0.4119
 2913ntf    fn416693  -0.160   3.472   4.479 -0.4499  0.1222 -0.2578
 2913ntf    fn416694  -0.330   3.581   4.455 -0.1223  0.0762  0.1629
 2913ntf    fn416695  -0.259   3.471   4.293 -0.1017 -0.2381  0.4987
 2914ntf    cn116696   3.772   2.172   6.540  0.0360  0.0883  0.0632
 2914ntf    sn216697   3.761   2.330   6.630  0.3053 -0.0296  0.3005
 2914ntf    nn316698   3.794   2.287   6.777  0.1271 -0.0187  0.3436
 2914ntf    sn216699   3.712   2.258   6.908 -0.2254  0.1263  0.1549
 2914ntf    cn116700   3.775   2.091   6.942  0.1733  0.1909 -0.2508
 2914ntf    fn416701   3.860   2.095   6.600 -0.0026  0.0965  0.1306
 2914ntf    fn416702   3.654   2.113   6.552  0.1189 -0.0584  0.1424
 2914ntf    fn416703   3.794   2.180   6.410  0.6054 -0.3558  0.1308
 2914ntf    on516704   3.864   2.412   6.572 -0.4647  0.4507 -0.4024
 2914ntf    on516705   3.627   2.375   6.601  0.4854  0.4606  0.2134
 2914ntf    on516706   3.572   2.241   6.879 -0.0915 -0.1322 -0.3543
 2914ntf    on516707   3.752   2.335   7.024  0.3778 -0.0788  0.0864
 2914ntf    fn416708   3.901   2.098   6.981  0.0620 -0.0592  0.1671
 2914ntf    fn416709   3.713   2.036   7.045  0.4183  0.0341 -0.1868
 2914ntf    fn416710   3.765   2.011   6.838  0.5096  0.6866 -0.6664
 2915ntf    cn116711   6.537   0.032   3.084 -0.1904  0.1499 -0.2064
 2915ntf    sn216712   6.654  -0.104   3.055 -0.2357  0.0687 -0.0074
 2915ntf    nn316713   6.564  -0.233   3.061  0.3038 -0.3173 -0.1370
 2915ntf    sn216714   6.554  -0.340   3.175  0.1657 -0.2252 -0.0614
 2915ntf    cn116715   6.388  -0.308   3.242  0.0396  0.2187 -0.5810
 2915ntf    fn416716   6.579   0.156   3.060 -0.0967  0.1479 -0.0535
 2915ntf    fn416717   6.428   0.015   3.012 -0.2030  0.3480 -0.2347
 2915ntf    fn416718   6.493   0.025   3.208 -0.5981  0.4565 -0.3321
 2915ntf    on516719   6.701  -0.082   2.921 -0.0404 -0.3337 -0.0063
 2915ntf    on516720   6.749  -0.091   3.163 -0.1814 -0.2336 -0.0173
 2915ntf    on516721   6.643  -0.324   3.287 -0.1502  0.1677  0.1369
 2915ntf    on516722   6.539  -0.472   3.119  0.0042 -0.2371  0.0105
 2915ntf    fn416723   6.295  -0.332   3.151 -0.3205  0.1102 -0.1828
 2915ntf    fn416724   6.354  -0.372   3.352  0.5818  0.0347 -0.5176
 2915ntf    fn416725   6.373  -0.184   3.285 -0.5834  0.0773 -0.3950
 2916ntf    cn116726   0.507   1.036   0.244 -0.2913  0.6234  0.0596
 2916ntf    sn216727   0.444   1.195   0.306 -0.6431  0.3747  0.3424
 2916ntf    nn316728   0.582   1.247   0.359 -0.3862  0.0179  0.0282
 2916ntf    sn216729   0.609   1.303   0.503 -0.0421  0.3266 -0.1552
 2916ntf    cn116730   0.727   1.440   0.481  0.0991  0.2277 -0.0128
 2916ntf    fn416731   0.569   0.968   0.339 -0.1669  0.2321 -0.3008
 2916ntf    fn416732   0.407   0.963   0.200  0.1407 -0.0772  0.2228
 2916ntf    fn416733   0.591   1.038   0.141  0.1467 -0.1115  0.3941
 2916ntf    on516734   0.416   1.268   0.185  0.3130  0.0965 -0.0546
 2916ntf    on516735   0.341   1.167   0.403 -0.1115 -0.2212  0.7441
 2916ntf    on516736   0.681   1.214   0.590 -0.1027  0.1018 -0.3356
 2916ntf    on516737   0.497   1.370   0.563  0.1439  0.7834 -0.3067
 2916ntf    fn416738   0.689   1.518   0.381 -0.6499 -0.1469 -0.0232
 2916ntf    fn416739   0.742   1.521   0.585  0.2669  0.2419 -0.0481
 2916ntf    fn416740   0.850   1.398   0.455 -0.0638 -0.0643 -0.3215
 2917ntf    cn116741   4.704   1.189   0.109 -0.0739 -0.0591  0.3409
 2917ntf    sn216742   4.593   1.180   0.253 -0.4949  0.0775  0.0304
 2917ntf    nn316743   4.577   1.334   0.278  0.1028  0.1814 -0.1948
 2917ntf    sn216744   4.452   1.420   0.318  0.0788  0.1247 -0.1489
 2917ntf    cn116745   4.376   1.486   0.167 -0.2668  0.0682 -0.0014
 2917ntf    fn416746   4.656   1.278   0.023  0.0511  0.2426  0.5804
 2917ntf    fn416747   4.830   1.216   0.137 -0.1934  0.5863  0.2870
 2917ntf    fn416748   4.700   1.067   0.058 -0.4841  0.0191  0.1806
 2917ntf    on516749   4.480   1.108   0.201 -0.1772 -0.2719 -0.1860
 2917ntf    on516750   4.668   1.114   0.358  0.3516  0.3017 -0.4201
 2917ntf    on516751   4.496   1.542   0.381 -0.2927  0.3585 -0.3395
 2917ntf    on516752   4.350   1.339   0.382  0.1826 -0.1897 -0.3797
 2917ntf    fn416753   4.471   1.542   0.094 -0.1901  0.0019  0.0471
 2917ntf    fn416754   4.324   1.395   0.086 -0.1486 -0.3255  0.3636
 2917ntf    fn416755   4.287   1.580   0.196 -0.4891  0.1431 -0.9009
 2918ntf    cn116756   2.143   3.415   2.674  0.3896  0.0307 -0.0026
 2918ntf    sn216757   2.097   3.269   2.577 -0.2845  0.2444 -0.0053
 2918ntf    nn316758   2.031   3.167   2.677  0.0481 -0.1796 -0.2174
 2918ntf    sn216759   2.082   3.028   2.728  0.0308 -0.1057 -0.0001
 2918ntf    cn116760   2.020   2.922   2.595 -0.1054 -0.0745  0.0394
 2918ntf    fn416761   2.205   3.505   2.599 -0.0262  0.5386  0.2510
 2918ntf    fn416762   2.039   3.482   2.721  0.4027 -0.1730  0.3236
 2918ntf    fn416763   2.222   3.397   2.779 -0.0832  0.0176  0.3524
 2918ntf    on516764   2.002   3.324   2.483  0.3972  0.2582 -0.6880
 2918ntf    on516765   2.225   3.234   2.523 -0.4283 -0.3592  0.0331
 2918ntf    on516766   2.007   2.989   2.845 -0.2956 -0.2023 -0.2426
 2918ntf    on516767   2.226   3.020   2.727  0.0356  0.0074 -0.2627
 2918ntf    fn416768   2.072   2.801   2.604  0.1568  0.0589  0.3331
 2918ntf    fn416769   1.890   2.906   2.615 -0.1988  0.3001 -0.2592
 2918ntf    fn416770   2.047   2.971   2.475  0.1960  0.1620  0.2033
 2919ntf    cn116771   6.817   4.812   1.582 -0.0145  0.1824  0.1490
 2919ntf    sn216772   6.942   4.786   1.711  0.2317 -0.3475 -0.1913
 2919ntf    nn316773   6.982   4.938   1.717 -0.3890 -0.1825 -0.2215
 2919ntf    sn216774   7.088   5.014   1.629 -0.2440 -0.2609 -0.1138
 2919ntf    cn116775   7.215   5.029   1.758 -0.0196  0.2707 -0.3930
 2919ntf    fn416776   6.749   4.704   1.546  0.2047  0.2771 -0.5584
 2919ntf    fn416777   6.730   4.900   1.628 -0.4244 -0.3569  0.4120
 2919ntf    fn416778   6.854   4.868   1.468  0.0476 -0.5970 -0.2210
 2919ntf    on516779   6.866   4.738   1.823  0.4142  0.0003  0.0863
 2919ntf    on516780   7.029   4.693   1.644  0.3727 -0.2235 -0.1821
 2919ntf    on516781   7.051   5.151   1.601  0.2370  0.0719  0.8237
 2919ntf    on516782   7.144   4.941   1.518 -0.1745 -0.3263 -0.0364
 2919ntf    fn416783   7.295   5.132   1.736  0.7056 -0.3005 -0.5076
 2919ntf    fn416784   7.159   5.048   1.876  0.0422  0.3732 -0.3804
 2919ntf    fn416785   7.293   4.922   1.770 -0.5773 -0.1514 -0.4891
 2920ntf    cn116786   4.541   2.259   4.089  0.5537 -0.3318  0.0703
 2920ntf    sn216787   4.449   2.141   4.192  0.0371  0.1190  0.1306
 2920ntf    nn316788   4.308   2.209   4.194 -0.1042 -0.1747  0.1858
 2920ntf    sn216789   4.207   2.231   4.312 -0.1791 -0.2716  0.1396
 2920ntf    cn116790   4.287   2.371   4.397 -0.2955 -0.0187 -0.1663
 2920ntf    fn416791   4.481   2.279   3.973  0.1610  0.1625  0.3595
 2920ntf    fn416792   4.554   2.374   4.151 -0.1740 -0.3809  0.3191
 2920ntf    fn416793   4.663   2.219   4.056  0.4729  0.5486 -1.3989
 2920ntf    on516794   4.462   2.013   4.127 -0.0900 -0.0542  0.4399
 2920ntf    on516795   4.515   2.145   4.320 -0.1289  0.2475  0.2122
 2920ntf    on516796   4.201   2.124   4.409  0.9668 -0.3699  0.1134
 2920ntf    on516797   4.081   2.287   4.268 -0.0044 -0.3828 -0.4981
 2920ntf    fn416798   4.411   2.349   4.438 -0.2472 -0.0139 -0.3091
 2920ntf    fn416799   4.286   2.476   4.316  0.0355  0.2085  0.1244
 2920ntf    fn416800   4.218   2.401   4.506 -0.4314  0.2177 -0.3167
 2921ntf    cn116801   4.766   6.711   0.136 -0.0037 -0.0895 -0.3223
 2921ntf    sn216802   4.807   6.691  -0.040  0.2035 -0.0527 -0.2798
 2921ntf    nn316803   4.959   6.728  -0.037  0.1870  0.0206 -0.3319
 2921ntf    sn216804   5.077   6.692  -0.135  0.1712 -0.1074 -0.3035
 2921ntf    cn116805   5.140   6.546  -0.046  0.0632  0.0740  0.0725
 2921ntf    fn416806   4.638   6.739   0.151  0.1204  0.4008 -0.1720
 2921ntf    fn416807   4.793   6.604   0.210  0.1177 -0.0031 -0.2421
 2921ntf    fn416808   4.833   6.811   0.191  0.0567 -0.2952 -0.0153
 2921ntf    on516809   4.780   6.551  -0.063  0.2881 -0.1448  0.1793
 2921ntf    on516810   4.725   6.793  -0.101  0.1302  0.3112  0.4201
 2921ntf    on516811   5.183   6.789  -0.128 -0.0985  0.1427  0.4162
 2921ntf    on516812   5.040   6.644  -0.266  0.0775  0.6219 -0.5482
 2921ntf    fn416813   5.241   6.495  -0.114 -0.3153  0.3174 -0.6820
 2921ntf    fn416814   5.187   6.583   0.072  0.0240 -0.6854  0.3305
 2921ntf    fn416815   5.050   6.455  -0.013  0.2449 -0.1519 -0.0483
 2922ntf    cn116816   5.353   1.354   6.588  0.2481  0.1516  0.3539
 2922ntf    sn216817   5.257   1.323   6.740 -0.3317 -0.1298 -0.0654
 2922ntf    nn316818   5.164   1.206   6.689 -0.0194 -0.5968  0.4314
 2922ntf    sn216819   5.016   1.212   6.638  0.0893  0.0178  0.1679
 2922ntf    cn116820   4.933   1.207   6.800 -0.1954 -0.0431  0.0212
 2922ntf    fn416821   5.407   1.243   6.541 -0.0461  0.2799 -0.2881
 2922ntf    fn416822   5.282   1.410   6.492 -0.3404 -0.3156  0.5071
 2922ntf    fn416823   5.458   1.433   6.601  0.2688  0.2144 -0.1917
 2922ntf    on516824   5.355   1.267   6.830  0.2592 -0.0639 -0.6589
 2922ntf    on516825   5.205   1.451   6.781 -0.1340 -0.0266 -0.1333
 2922ntf    on516826   4.982   1.094   6.562 -0.1828  0.0202  0.2859
 2922ntf    on516827   4.977   1.340   6.585 -0.1247  0.0090  0.3027
 2922ntf    fn416828   4.953   1.322   6.861 -0.1244  0.0072 -0.0977
 2922ntf    fn416829   4.801   1.196   6.797 -0.2324  0.3500  0.1748
 2922ntf    fn416830   4.986   1.111   6.876 -0.5648 -0.2359  0.0356
 2923ntf    cn116831   2.526   1.777   2.625 -0.0372 -0.0499  0.1942
 2923ntf    sn216832   2.672   1.717   2.717 -0.0032 -0.2782 -0.0096
 2923ntf    nn316833   2.620   1.698   2.864  0.5988 -0.1358  0.2239
 2923ntf    sn216834   2.571   1.811   2.961  0.2561  0.0798 -0.1948
 2923ntf    cn116835   2.566   1.724   3.120 -0.2725 -0.2334 -0.3819
 2923ntf    fn416836   2.464   1.882   2.678  0.4020  0.2623  0.0952
 2923ntf    fn416837   2.553   1.798   2.498  0.7484  0.3938  0.4234
 2923ntf    fn416838   2.431   1.686   2.635  0.1339 -0.2046  0.4118
 2923ntf    on516839   2.704   1.588   2.661 -0.1351 -0.5237  0.4771
 2923ntf    on516840   2.777   1.814   2.699  0.0963 -0.2871  0.5033
 2923ntf    on516841   2.433   1.847   2.942  0.2247 -0.1861 -0.4795
 2923ntf    on516842   2.667   1.918   2.977  0.1459  0.1728 -0.1496
 2923ntf    fn416843   2.525   1.805   3.217  0.4243 -0.3601  0.0292
 2923ntf    fn416844   2.493   1.614   3.120 -0.6914  0.0376 -0.0637
 2923ntf    fn416845   2.689   1.693   3.155 -0.1283  0.2958 -0.4134
 2924ntf    cn116846   4.090   4.695   2.390 -0.3591 -0.0537  0.0019
 2924ntf    sn216847   4.193   4.597   2.503 -0.1856 -0.3651 -0.4239
 2924ntf    nn316848   4.086   4.542   2.603 -0.5447  0.4529 -0.3570
 2924ntf    sn216849   4.029   4.610   2.733  0.0397 -0.1887  0.2460
 2924ntf    cn116850   4.155   4.589   2.863 -0.0666 -0.2334  0.3419
 2924ntf    fn416851   4.044   4.804   2.448 -0.0585 -0.0550  0.2429
 2924ntf    fn416852   4.157   4.743   2.286 -0.5004 -0.1904 -0.1523
 2924ntf    fn416853   3.982   4.626   2.359 -0.3090 -0.1501  0.0401
 2924ntf    on516854   4.250   4.491   2.423  0.4612 -0.0407 -0.3987
 2924ntf    on516855   4.283   4.697   2.555 -0.3396 -0.3717 -0.1417
 2924ntf    on516856   3.922   4.527   2.782  0.1290 -0.4244  0.0382
 2924ntf    on516857   3.999   4.751   2.727  0.4505 -0.0939  0.4173
 2924ntf    fn416858   4.117   4.649   2.975 -0.1619  1.0939 -0.3768
 2924ntf    fn416859   4.174   4.463   2.897  0.3501 -0.2061  0.2161
 2924ntf    fn416860   4.272   4.637   2.824 -0.1937  0.0352  0.2817
 2925ntf    cn116861   3.521   6.321   5.502 -0.0116  0.1516 -0.0441
 2925ntf    sn216862   3.366   6.237   5.548  0.0540 -0.0404 -0.1736
 2925ntf    nn316863   3.358   6.136   5.428 -0.1957  0.0564 -0.2379
 2925ntf    sn216864   3.341   5.980   5.428  0.0267  0.0307 -0.2339
 2925ntf    cn116865   3.232   5.952   5.285  0.3243  0.0545 -0.4635
 2925ntf    fn416866   3.513   6.342   5.372  0.2538 -0.2336 -0.1244
 2925ntf    fn416867   3.540   6.434   5.567  0.3395  0.0210  0.0813
 2925ntf    fn416868   3.630   6.250   5.524 -0.1523 -0.0276  0.0776
 2925ntf    on516869   3.385   6.174   5.677  0.9781 -0.2367 -0.3940
 2925ntf    on516870   3.271   6.345   5.544  0.2667  0.1299 -0.6968
 2925ntf    on516871   3.265   5.933   5.542  0.1808  0.5992  0.1089
 2925ntf    on516872   3.465   5.911   5.405  0.1130  0.3170 -0.6298
 2925ntf    fn416873   3.146   6.052   5.267 -0.1061 -0.2477 -0.0763
 2925ntf    fn416874   3.300   5.953   5.171  0.0177 -0.6184 -0.6551
 2925ntf    fn416875   3.163   5.840   5.286  0.2869  0.0786 -0.3988
 2926ntf    cn116876   3.310   5.382   4.947  0.2117 -0.4068  0.3325
 2926ntf    sn216877   3.322   5.335   4.772  0.2017  0.1284  0.1880
 2926ntf    nn316878   3.461   5.398   4.735  0.1634 -0.1802 -0.4988
 2926ntf    sn216879   3.512   5.524   4.656 -0.0388  0.0545 -0.2549
 2926ntf    cn116880   3.543   5.450   4.493 -0.1070  0.3290 -0.3934
 2926ntf    fn416881   3.314   5.513   4.964  0.2747 -0.3476 -0.1375
 2926ntf    fn416882   3.203   5.339   5.012 -0.3329 -0.6000 -0.6845
 2926ntf    fn416883   3.415   5.338   5.016  0.8709  0.1474 -0.3103
 2926ntf    on516884   3.332   5.191   4.781 -0.3650  0.0669 -0.1623
 2926ntf    on516885   3.207   5.390   4.705  0.3694 -0.0501 -0.2494
 2926ntf    on516886   3.644   5.561   4.701  0.1752 -0.4308 -0.4811
 2926ntf    on516887   3.416   5.628   4.626  0.1942  0.2755 -0.2372
 2926ntf    fn416888   3.630   5.350   4.494  0.1133  0.5196  0.5337
 2926ntf    fn416889   3.435   5.393   4.443 -0.1340  0.3465 -0.3558
 2926ntf    fn416890   3.576   5.537   4.399  0.2099  0.2256 -0.3807
 2927ntf    cn116891   3.129   0.865   2.646  0.2006  0.1570 -0.4786
 2927ntf    sn216892   3.091   1.013   2.548 -0.0110  0.3100 -0.1670
 2927ntf    nn316893   3.196   1.120   2.593  0.2765 -0.1415  0.2479
 2927ntf    sn216894   3.177   1.243   2.689  0.1187  0.1614 -0.1673
 2927ntf    cn116895   3.300   1.206   2.818 -0.0167 -0.3103 -0.1702
 2927ntf    fn416896   3.130   0.873   2.778  0.1894 -0.0645 -0.4635
 2927ntf    fn416897   3.046   0.768   2.612  0.6782 -0.1285 -0.8362
 2927ntf    fn416898   3.251   0.819   2.621  0.1895 -0.2206  0.1429
 2927ntf    on516899   3.109   0.963   2.414  0.1678  0.3401 -0.1542
 2927ntf    on516900   2.955   1.034   2.590 -0.1178 -0.5673 -0.0468
 2927ntf    on516901   3.055   1.237   2.766 -0.2199  0.8556 -0.6431
 2927ntf    on516902   3.213   1.373   2.638  0.1931  0.2469  0.1022
 2927ntf    fn416903   3.309   1.079   2.851  0.1702 -0.1998  0.2215
 2927ntf    fn416904   3.419   1.250   2.780 -0.2479 -0.1592 -0.7256
 2927ntf    fn416905   3.268   1.264   2.933 -0.4229 -0.2441 -0.3149
 2928ntf    cn116906   6.416   4.315   5.375 -0.0982 -0.0764 -0.1953
 2928ntf    sn216907   6.282   4.289   5.254  0.0812  0.1627 -0.4476
 2928ntf    nn316908   6.188   4.202   5.345  0.3096  0.5274  0.1419
 2928ntf    sn216909   6.068   4.252   5.433 -0.1411 -0.0729 -0.1274
 2928ntf    cn116910   5.946   4.294   5.304 -0.2349 -0.2885 -0.1076
 2928ntf    fn416911   6.457   4.210   5.443 -0.0767 -0.0669 -0.1930
 2928ntf    fn416912   6.525   4.359   5.315  0.0905 -0.2092  0.0512
 2928ntf    fn416913   6.382   4.408   5.463 -0.1085 -0.4495  0.1958
 2928ntf    on516914   6.238   4.422   5.221 -0.4857  0.1058  0.0476
 2928ntf    on516915   6.339   4.205   5.153 -0.1058 -0.6054  0.0789
 2928ntf    on516916   6.097   4.377   5.499  0.0564 -0.2763  0.1751
 2928ntf    on516917   6.006   4.158   5.523  0.3771  0.3398  0.6682
 2928ntf    fn416918   5.825   4.310   5.353  0.1758  0.9667  0.5218
 2928ntf    fn416919   5.968   4.408   5.242  0.0266 -0.4980 -0.4040
 2928ntf    fn416920   5.946   4.204   5.207 -0.2245 -0.4202  0.0134
 2929ntf    cn116921   5.324   4.521   5.798  0.0265 -0.4648  0.0348
 2929ntf    sn216922   5.253   4.573   5.639  0.0496 -0.1685  0.1194
 2929ntf    nn316923   5.382   4.554   5.551  0.2154  0.1868  0.2836
 2929ntf    sn216924   5.421   4.656   5.439 -0.3914 -0.0046 -0.1077
 2929ntf    cn116925   5.498   4.779   5.549 -0.1575  0.1260 -0.4160
 2929ntf    fn416926   5.226   4.526   5.887  0.1660 -1.0324  0.2228
 2929ntf    fn416927   5.365   4.395   5.795  0.0124 -0.4690 -0.0046
 2929ntf    fn416928   5.426   4.592   5.843 -0.0939 -0.0730 -0.3049
 2929ntf    on516929   5.144   4.481   5.619 -0.1887  0.0908  0.2209
 2929ntf    on516930   5.213   4.708   5.668  0.5673  0.0780 -0.3005
 2929ntf    on516931   5.321   4.733   5.369  0.2017  1.0364  0.1520
 2929ntf    on516932   5.530   4.610   5.357  0.0027  0.9851 -0.1574
 2929ntf    fn416933   5.546   4.874   5.470 -0.0015  0.3737 -0.0249
 2929ntf    fn416934   5.419   4.845   5.631 -0.2607 -0.2546 -0.2076
 2929ntf    fn416935   5.601   4.723   5.612 -0.3934  0.0774 -0.0745
 2930ntf    cn116936   5.641   6.198   6.842  0.2017  0.0806  0.0807
 2930ntf    sn216937   5.782   6.279   6.761  0.2368 -0.1562 -0.0994
 2930ntf    nn316938   5.863   6.147   6.733  0.4079 -0.0101 -0.3036
 2930ntf    sn216939   5.949   6.070   6.840 -0.1193 -0.0764  0.0797
 2930ntf    cn116940   6.119   6.112   6.791 -0.1639 -0.0523 -0.0547
 2930ntf    fn416941   5.598   6.095   6.770  0.0829  0.1345  0.0735
 2930ntf    fn416942   5.685   6.149   6.957 -0.5414  0.2616  0.4472
 2930ntf    fn416943   5.541   6.277   6.875  0.0970  0.1262 -0.3428
 2930ntf    on516944   5.738   6.336   6.636  0.1221  0.1785  0.0944
 2930ntf    on516945   5.835   6.367   6.863 -0.2453  0.2505 -0.1971
 2930ntf    on516946   5.962   5.930   6.809 -0.0112 -0.0704  0.0951
 2930ntf    on516947   5.931   6.106   6.979 -0.5345  0.4035 -0.0920
 2930ntf    fn416948   6.153   6.238   6.814  0.7788 -0.1990 -0.5959
 2930ntf    fn416949   6.207   6.043   6.861 -0.2965 -0.2983 -0.1290
 2930ntf    fn416950   6.143   6.089   6.663  0.2126 -0.1210  0.0278
 2931ntf    cn116951   3.424   4.976   5.827 -0.3756 -0.0258 -0.2247
 2931ntf    sn216952   3.433   4.805   5.767 -0.0699 -0.0482 -0.1202
 2931ntf    nn316953   3.522   4.813   5.638  0.0872  0.3319  0.0116
 2931ntf    sn216954   3.472   4.828   5.490 -0.0033  0.0452  0.0114
 2931ntf    cn116955   3.434   4.656   5.447 -0.1365 -0.0683  0.5719
 2931ntf    fn416956   3.372   5.062   5.741 -0.1856  0.5108  0.1858
 2931ntf    fn416957   3.356   4.988   5.939 -0.0174 -0.2558  0.0204
 2931ntf    fn416958   3.545   5.026   5.849 -0.7130  0.3995  0.6921
 2931ntf    on516959   3.511   4.739   5.869 -0.5092  0.1671  0.3619
 2931ntf    on516960   3.299   4.753   5.754 -0.2162  0.1863  0.4004
 2931ntf    on516961   3.580   4.867   5.403  0.2709 -0.1622  0.2585
 2931ntf    on516962   3.347   4.899   5.483 -0.0670 -0.0079  0.5566
 2931ntf    fn416963   3.373   4.652   5.330  0.3495 -0.0625  0.3164
 2931ntf    fn416964   3.542   4.582   5.437  0.2144  0.4558  0.4443
 2931ntf    fn416965   3.350   4.601   5.534 -0.2864  0.4227  0.7415
 2932ntf    cn116966   0.539   4.312   3.358  0.0123  0.0426  0.0824
 2932ntf    sn216967   0.393   4.359   3.260  0.0141 -0.0492  0.0355
 2932ntf    nn316968   0.288   4.264   3.328  0.1178 -0.4673 -0.3865
 2932ntf    sn216969   0.171   4.297   3.428  0.4124 -0.0451 -0.1803
 2932ntf    cn116970   0.038   4.308   3.304  0.1521 -0.1390  0.0903
 2932ntf    fn416971   0.507   4.336   3.484 -0.0920  0.4823 -0.0270
 2932ntf    fn416972   0.571   4.184   3.346  0.2571  0.1688 -0.6847
 2932ntf    fn416973   0.648   4.383   3.334  0.3703 -0.3148  0.6547
 2932ntf    on516974   0.385   4.499   3.295 -0.0104 -0.0793  0.1498
 2932ntf    on516975   0.424   4.318   3.126 -0.2518 -0.1290 -0.0028
 2932ntf    on516976   0.169   4.427   3.491 -0.1842 -0.1901  0.1000
 2932ntf    on516977   0.130   4.182   3.504 -0.2573  0.2485 -0.0974
 2932ntf    fn416978   0.063   4.384   3.199 -0.3801  0.4923  0.4170
 2932ntf    fn416979   0.018   4.187   3.255 -0.1062  0.0165 -0.1847
 2932ntf    fn416980  -0.083   4.344   3.342  0.1768 -0.1149  0.1463
 2933ntf    cn116981   3.925   2.949   2.168 -0.3129  0.0387 -0.1305
 2933ntf    sn216982   3.762   3.025   2.197 -0.2152  0.1837  0.0383
 2933ntf    nn316983   3.667   2.900   2.188 -0.3065  0.2283  0.3852
 2933ntf    sn216984   3.605   2.844   2.055  0.1975  0.4398  0.0567
 2933ntf    cn116985   3.436   2.901   2.090  0.2368  0.5382  0.0847
 2933ntf    fn416986   3.934   2.826   2.215 -0.1111  0.2934  0.5001
 2933ntf    fn416987   3.936   2.948   2.036 -0.0106  0.1100 -0.1070
 2933ntf    fn416988   4.030   3.010   2.219 -0.5524  0.2317  0.1344
 2933ntf    on516989   3.770   3.082   2.329 -0.7401  0.1486  0.0852
 2933ntf    on516990   3.738   3.120   2.091 -0.1583 -0.2685 -0.3863
 2933ntf    on516991   3.594   2.700   2.051  0.1850  0.4245  0.5063
 2933ntf    on516992   3.640   2.910   1.932  0.2383 -0.2875 -0.3265
 2933ntf    fn416993   3.350   2.858   2.000  0.6873 -0.3936  0.0926
 2933ntf    fn416994   3.393   2.856   2.206  0.6994 -0.0139  0.0487
 2933ntf    fn416995   3.428   3.033   2.088 -0.1079  0.5168  0.0099
 2934ntf    cn116996   3.281   0.031   1.539 -0.1905 -0.4840 -0.0990
 2934ntf    sn216997   3.288  -0.053   1.378  0.0354 -0.4983 -0.0824
 2934ntf    nn316998   3.264  -0.198   1.433  0.1635 -0.2701  0.5916
 2934ntf    sn216999   3.318  -0.337   1.385 -0.2725 -0.2342 -0.0162
 2934ntf    cn117000   3.179  -0.451   1.415 -0.4873  0.0403  0.0278
 2934ntf    fn417001   3.386  -0.003   1.613 -0.3747  0.3206  0.5576
 2934ntf    fn417002   3.289   0.163   1.532 -0.2698 -0.4608  0.2153
 2934ntf    fn417003   3.174   0.003   1.612 -0.2070  0.2617  0.1741
 2934ntf    on517004   3.173  -0.004   1.307 -0.1064 -0.3478  0.2504
 2934ntf    on517005   3.417  -0.016   1.325 -0.0455 -0.7203 -0.4348
 2934ntf    on517006   3.426  -0.388   1.465  0.1353  0.2787 -0.2337
 2934ntf    on517007   3.331  -0.358   1.243  0.6425  0.1745 -0.0011
 2934ntf    fn417008   3.155  -0.462   1.545 -0.2853  0.2373  0.0832
 2934ntf    fn417009   3.065  -0.406   1.367 -0.3620 -0.1872 -0.4910
 2934ntf    fn417010   3.205  -0.576   1.382 -0.1566  0.0969  0.0620
 2935ntf    cn117011   4.333   2.838   5.989 -0.2443  0.1314  0.0226
 2935ntf    sn217012   4.155   2.871   5.999 -0.3111 -0.3124  0.3450
 2935ntf    nn317013   4.098   2.748   6.078  0.2760 -0.4353  0.5773
 2935ntf    sn217014   4.005   2.628   6.040 -0.2778  0.1821 -0.0401
 2935ntf    cn117015   4.024   2.514   6.181 -0.0871 -0.3811 -0.5166
 2935ntf    fn417016   4.359   2.723   5.928 -0.3684 -0.1365  0.4763
 2935ntf    fn417017   4.402   2.930   5.924 -0.2523  0.1813  0.0856
 2935ntf    fn417018   4.386   2.831   6.110 -0.0338  0.1873 -0.0642
 2935ntf    on517019   4.149   2.994   6.073  0.0389  0.0848 -0.2745
 2935ntf    on517020   4.100   2.887   5.866 -0.2098 -0.2804  0.3059
 2935ntf    on517021   4.054   2.554   5.926 -0.5137 -0.2807  0.1564
 2935ntf    on517022   3.864   2.659   6.043 -0.4219 -0.4679  0.1807
 2935ntf    fn417023   4.148   2.469   6.192  0.0368  0.0612 -0.0379
 2935ntf    fn417024   3.997   2.567   6.299  0.3311 -0.7598 -0.2509
 2935ntf    fn417025   3.950   2.406   6.163 -0.0407 -0.3714 -0.7701
 2936ntf    cn117026   3.744   5.039   0.678 -0.1458 -0.1068 -0.1042
 2936ntf    sn217027   3.658   5.118   0.817 -0.0828 -0.1992 -0.0121
 2936ntf    nn317028   3.762   5.100   0.933  0.1179 -0.3332 -0.2124
 2936ntf    sn217029   3.883   5.190   0.976 -0.0483 -0.1368 -0.1489
 2936ntf    cn117030   3.799   5.288   1.103  0.0402  0.1628 -0.3222
 2936ntf    fn417031   3.876   5.032   0.687 -0.1763  0.0707  0.5248
 2936ntf    fn417032   3.701   4.914   0.666  0.6847 -0.4041 -0.0753
 2936ntf    fn417033   3.718   5.098   0.562 -0.1126  0.3471  0.1160
 2936ntf    on517034   3.637   5.253   0.770  0.1960 -0.2741 -0.3553
 2936ntf    on517035   3.539   5.040   0.841 -0.2919  0.0828 -0.1096
 2936ntf    on517036   3.935   5.283   0.879  0.6642 -0.4693 -0.0907
 2936ntf    on517037   3.977   5.110   1.051  0.0685  0.1751  0.0399
 2936ntf    fn417038   3.686   5.344   1.066  0.0875  0.2380 -0.3539
 2936ntf    fn417039   3.781   5.217   1.213  0.1336  0.8095  0.1202
 2936ntf    fn417040   3.883   5.383   1.141 -0.0077  0.0690  0.0274
 2937ntf    cn117041   5.669   0.631   4.199 -0.1266  0.0168 -0.2601
 2937ntf    sn217042   5.830   0.651   4.281 -0.2399  0.1163 -0.0598
 2937ntf    nn317043   5.917   0.672   4.151  0.1084  0.2855  0.1983
 2937ntf    sn217044   6.000   0.569   4.068 -0.0123 -0.0094  0.4390
 2937ntf    cn117045   5.937   0.597   3.900 -0.1668 -0.4837  0.4160
 2937ntf    fn417046   5.649   0.502   4.176 -0.4467  0.0638 -0.2462
 2937ntf    fn417047   5.564   0.682   4.260  0.3274  0.0356  0.5106
 2937ntf    fn417048   5.661   0.697   4.084 -0.4324  0.1363 -0.1679
 2937ntf    on517049   5.813   0.776   4.351 -0.1033  0.1840 -0.1471
 2937ntf    on517050   5.846   0.527   4.354 -0.0261  0.4469  0.4564
 2937ntf    on517051   5.975   0.428   4.088  0.3505 -0.1303  0.0700
 2937ntf    on517052   6.136   0.616   4.064 -0.0143 -0.0086  0.3680
 2937ntf    fn417053   5.964   0.716   3.849  0.3293 -0.4437  0.7726
 2937ntf    fn417054   5.990   0.524   3.804  0.2855  0.4927 -0.0951
 2937ntf    fn417055   5.806   0.578   3.901 -0.1977 -0.2993  0.1130
 2938ntf    cn117056   0.363   0.237   2.609 -0.0452  0.1019 -0.0384
 2938ntf    sn217057   0.378   0.417   2.592  0.0747  0.1019  0.0620
 2938ntf    nn317058   0.230   0.457   2.627 -0.1705 -0.2613 -0.5437
 2938ntf    sn217059   0.146   0.585   2.594  0.2302  0.1265 -0.0706
 2938ntf    cn117060  -0.001   0.499   2.531  0.2080  0.0699  0.0591
 2938ntf    fn417061   0.336   0.206   2.735  0.2481  0.1981  0.0488
 2938ntf    fn417062   0.274   0.187   2.524 -0.5259  0.6820  0.1202
 2938ntf    fn417063   0.476   0.176   2.576 -0.0727  0.2413 -0.4007
 2938ntf    on517064   0.476   0.446   2.694  0.2038  0.3139 -0.1213
 2938ntf    on517065   0.415   0.438   2.454 -0.0202 -0.0114  0.0199
 2938ntf    on517066   0.196   0.665   2.485  0.4300  0.0278 -0.0521
 2938ntf    on517067   0.086   0.650   2.708  0.1566  0.0916 -0.0896
 2938ntf    fn417068  -0.048   0.412   2.619  0.0040  0.2549  0.1340
 2938ntf    fn417069  -0.105   0.578   2.507  0.5506  0.4640 -0.1298
 2938ntf    fn417070   0.027   0.427   2.424 -0.2567  0.4363 -0.3130
 2939ntf    cn117071   2.545   0.872   5.971  0.0758 -0.0798  0.4154
 2939ntf    sn217072   2.586   1.045   6.008 -0.0340 -0.0603  0.4446
 2939ntf    nn317073   2.742   1.043   6.024  0.0138  0.1374  0.0250
 2939ntf    sn217074   2.856   1.024   5.918 -0.1752  0.1479 -0.1808
 2939ntf    cn117075   2.925   1.191   5.933  0.0957  0.0260 -0.0688
 2939ntf    fn417076   2.579   0.791   6.070  0.8047 -0.2958  0.0008
 2939ntf    fn417077   2.413   0.868   5.958  0.0294  0.7859  0.5646
 2939ntf    fn417078   2.600   0.834   5.856 -0.1218 -0.1585  0.3469
 2939ntf    on517079   2.535   1.113   5.891  0.8558  0.3178  0.2665
 2939ntf    on517080   2.514   1.066   6.131 -0.3490  0.1291  0.2320
 2939ntf    on517081   2.807   1.013   5.783 -0.3612  0.1240 -0.1112
 2939ntf    on517082   2.963   0.941   5.968  0.0619  0.8808  0.5533
 2939ntf    fn417083   3.011   1.212   5.834 -0.2415 -0.0302 -0.3763
 2939ntf    fn417084   2.830   1.281   5.921  0.5034  0.3999 -0.5722
 2939ntf    fn417085   2.984   1.200   6.051 -0.3826 -0.1898  0.1898
 2940ntf    cn117086   1.110   5.280   4.230 -0.2822 -0.1722 -0.0070
 2940ntf    sn217087   1.258   5.357   4.158 -0.3508 -0.0740 -0.0422
 2940ntf    nn317088   1.350   5.356   4.285 -0.2989 -0.4762 -0.0839
 2940ntf    sn217089   1.498   5.305   4.292 -0.2396 -0.3000 -0.0682
 2940ntf    cn117090   1.471   5.129   4.327  0.3358 -0.3145  0.3292
 2940ntf    fn417091   1.063   5.358   4.326  0.7007 -0.0634  0.4046
 2940ntf    fn417092   1.015   5.240   4.148 -0.0238  0.0119 -0.3989
 2940ntf    fn417093   1.145   5.169   4.295  0.1941  0.1143  0.2332
 2940ntf    on517094   1.301   5.269   4.053  0.1083 -0.4223  0.4375
 2940ntf    on517095   1.227   5.492   4.117 -0.4223 -0.0166  0.2007
 2940ntf    on517096   1.563   5.347   4.415 -0.6515  0.5505 -0.1340
 2940ntf    on517097   1.574   5.309   4.170 -0.3756  0.4391 -0.1339
 2940ntf    fn417098   1.424   5.070   4.218  0.2393  0.2869  0.0409
 2940ntf    fn417099   1.574   5.056   4.367  0.8028  0.2312  0.1394
 2940ntf    fn417100   1.386   5.114   4.427  0.2790 -0.0540  0.3208
 2941ntf    cn117101   1.902   3.204   1.909 -0.2549  0.4306  0.0215
 2941ntf    sn217102   1.914   3.030   1.958 -0.1811  0.2925 -0.4776
 2941ntf    nn317103   2.067   3.014   1.990 -0.2298  0.1049 -0.3333
 2941ntf    sn217104   2.161   2.918   1.908 -0.0852 -0.2626  0.2549
 2941ntf    cn117105   2.106   2.748   1.941 -0.3816 -0.2281 -0.0522
 2941ntf    fn417106   1.984   3.230   1.808 -0.5955 -0.2275 -0.4329
 2941ntf    fn417107   1.778   3.226   1.868 -0.4665  0.1324  0.4965
 2941ntf    fn417108   1.922   3.300   1.998 -0.0645  0.3363  0.0807
 2941ntf    on517109   1.835   3.027   2.079  0.0651  0.3837 -0.3135
 2941ntf    on517110   1.870   2.954   1.844 -0.0807 -0.1681 -0.2153
 2941ntf    on517111   2.290   2.929   1.970  0.3922 -0.0084 -0.7657
 2941ntf    on517112   2.161   2.935   1.765  0.4845 -0.9273  0.1715
 2941ntf    fn417113   1.979   2.735   1.908 -0.3004  0.6283 -0.7446
 2941ntf    fn417114   2.171   2.663   1.863  0.2953  0.3417 -0.1193
 2941ntf    fn417115   2.119   2.716   2.068 -0.0014  0.3407  0.0569
 2942ntf    cn117116   3.724   3.081   3.326 -0.1196 -0.0379 -0.1780
 2942ntf    sn217117   3.757   3.254   3.372  0.4470 -0.1084 -0.3109
 2942ntf    nn317118   3.613   3.315   3.362  0.4547 -0.1654 -0.8373
 2942ntf    sn217119   3.582   3.469   3.352  0.0097 -0.1877  0.0576
 2942ntf    cn117120   3.557   3.482   3.172 -0.1691 -0.4063  0.0655
 2942ntf    fn417121   3.663   3.072   3.209  0.1052 -0.0719 -0.2954
 2942ntf    fn417122   3.840   3.017   3.323 -0.1297 -0.0411 -0.6275
 2942ntf    fn417123   3.644   3.014   3.407 -0.4647  0.6684  0.0700
 2942ntf    on517124   3.811   3.252   3.505 -0.1590 -0.3958 -0.0680
 2942ntf    on517125   3.849   3.298   3.269  0.2237  0.5885 -0.2116
 2942ntf    on517126   3.686   3.564   3.383 -0.2098  0.1769 -0.3138
 2942ntf    on517127   3.452   3.494   3.408 -0.0697 -0.0121 -0.2047
 2942ntf    fn417128   3.458   3.565   3.144  0.1014 -0.2072 -0.3138
 2942ntf    fn417129   3.668   3.529   3.116 -0.4050  0.0679 -0.0079
 2942ntf    fn417130   3.525   3.366   3.118 -0.1480 -0.2251 -0.3406
 2943ntf    cn117131   0.567   2.903   4.231 -0.1558 -0.3155  0.0851
 2943ntf    sn217132   0.580   3.019   4.370 -0.3338  0.1327 -0.2658
 2943ntf    nn317133   0.593   2.914   4.486 -0.0809  0.4412 -0.0137
 2943ntf    sn217134   0.718   2.851   4.557 -0.1884  0.1595 -0.0730
 2943ntf    cn117135   0.714   2.680   4.495  0.2291 -0.0555  0.4753
 2943ntf    fn417136   0.537   2.959   4.114  0.6190 -0.1174 -0.0256
 2943ntf    fn417137   0.683   2.846   4.207 -0.0604 -0.0171 -0.1782
 2943ntf    fn417138   0.489   2.803   4.265  0.1108 -0.6013 -0.1364
 2943ntf    on517139   0.693   3.099   4.331 -0.0138 -0.3884 -0.4240
 2943ntf    on517140   0.448   3.076   4.376 -0.2475  0.2703  0.5029
 2943ntf    on517141   0.713   2.844   4.701  0.1476 -0.3358 -0.0804
 2943ntf    on517142   0.846   2.891   4.502  0.1711 -0.2709  0.4324
 2943ntf    fn417143   0.685   2.676   4.366 -0.4657 -0.2844  0.6336
 2943ntf    fn417144   0.823   2.610   4.521  0.1109 -0.2289  0.5074
 2943ntf    fn417145   0.616   2.612   4.553  0.0991 -0.4004 -0.1414
 2944ntf    cn117146   6.745   3.888   6.744  0.1789 -0.2463  0.4072
 2944ntf    sn217147   6.827   3.741   6.674 -0.1736 -0.0398 -0.4558
 2944ntf    nn317148   6.975   3.770   6.719 -0.1681 -0.1290 -0.4162
 2944ntf    sn217149   7.039   3.718   6.853 -0.4081  0.0797 -0.2198
 2944ntf    cn117150   7.114   3.571   6.777 -0.1865  0.1395 -0.1167
 2944ntf    fn417151   6.614   3.889   6.729  0.2515  0.4357 -0.2751
 2944ntf    fn417152   6.763   3.899   6.874  0.4233 -0.5062  0.3970
 2944ntf    fn417153   6.796   3.997   6.690  0.0525 -0.1625  0.4581
 2944ntf    on517154   6.764   3.622   6.725  0.6407 -0.4897 -0.4789
 2944ntf    on517155   6.812   3.771   6.534 -1.2242  0.0049 -0.3397
 2944ntf    on517156   6.955   3.685   6.965  0.3667 -0.3077  0.2508
 2944ntf    on517157   7.158   3.793   6.886 -0.6197  0.1870  0.3183
 2944ntf    fn417158   7.178   3.485   6.854  0.0845 -0.3499 -0.8801
 2944ntf    fn417159   7.020   3.500   6.716  0.4792 -0.6769 -0.2074
 2944ntf    fn417160   7.202   3.606   6.684  0.1555  0.6248  0.3815
 2945ntf    cn117161   1.500   4.070   5.239 -0.1018 -0.3572  0.4489
 2945ntf    sn217162   1.470   4.249   5.245  0.1126 -0.2940 -0.2269
 2945ntf    nn317163   1.323   4.259   5.299  0.4435  0.5882  0.5383
 2945ntf    sn217164   1.190   4.276   5.218  0.4012 -0.2799  0.4119
 2945ntf    cn117165   1.147   4.453   5.211  0.0990 -0.3758 -0.2991
 2945ntf    fn417166   1.398   4.012   5.176 -0.0569 -0.0520  0.0934
 2945ntf    fn417167   1.615   4.027   5.191 -0.2308  0.1594 -0.3521
 2945ntf    fn417168   1.507   4.022   5.362  0.6249 -0.5644  0.3306
 2945ntf    on517169   1.559   4.288   5.351  0.2013 -0.1318 -0.3614
 2945ntf    on517170   1.498   4.300   5.113 -0.2999  0.1546 -0.1454
 2945ntf    on517171   1.076   4.219   5.286 -0.0712 -0.2994 -0.3764
 2945ntf    on517172   1.207   4.244   5.078 -0.0428 -0.5828  0.4239
 2945ntf    fn417173   1.236   4.526   5.145  0.0694 -0.1760 -0.1184
 2945ntf    fn417174   1.029   4.472   5.154 -0.3433 -0.7187  0.4931
 2945ntf    fn417175   1.131   4.507   5.331  0.8139 -0.3065 -0.2274
 2946ntf    cn117176   5.007   6.269   5.653 -0.0175 -0.3695 -0.0850
 2946ntf    sn217177   4.874   6.147   5.679 -0.2013 -0.0697  0.3965
 2946ntf    nn317178   4.754   6.231   5.621 -0.0362 -0.3703 -0.3932
 2946ntf    sn217179   4.703   6.246   5.473 -0.0876 -0.1539 -0.3525
 2946ntf    cn117180   4.579   6.115   5.463 -0.1928 -0.0585 -0.3037
 2946ntf    fn417181   5.126   6.223   5.689 -0.1174 -0.0723  0.6411
 2946ntf    fn417182   5.008   6.293   5.523  0.4209  0.0170 -0.0118
 2946ntf    fn417183   4.986   6.381   5.720 -0.0389 -0.1749 -0.4159
 2946ntf    on517184   4.915   6.025   5.613 -0.2026  0.0229  0.2219
 2946ntf    on517185   4.862   6.135   5.822 -0.0735  0.6675  0.4732
 2946ntf    on517186   4.795   6.223   5.364 -0.1362 -0.5095 -0.3187
 2946ntf    on517187   4.624   6.366   5.457  0.1320  0.1117  0.4818
 2946ntf    fn417188   4.625   5.993   5.487  0.0501  0.0798 -0.0730
 2946ntf    fn417189   4.483   6.131   5.553  0.1195  0.0863  0.0039
 2946ntf    fn417190   4.512   6.116   5.349 -0.4033 -0.2241 -0.1850
 2947ntf    cn117191   4.568   6.559   2.426 -0.0326  0.1718 -0.1154
 2947ntf    sn217192   4.479   6.557   2.268  0.0689 -0.0979 -0.1703
 2947ntf    nn317193   4.433   6.707   2.252 -0.4952 -0.2848 -0.3068
 2947ntf    sn217194   4.291   6.770   2.235 -0.4335 -0.0214  0.1492
 2947ntf    cn117195   4.227   6.770   2.405 -0.0555  0.3538  0.2926
 2947ntf    fn417196   4.653   6.660   2.439 -0.0221  0.1721 -0.1914
 2947ntf    fn417197   4.493   6.575   2.533  0.2436  0.5557  0.0255
 2947ntf    fn417198   4.630   6.444   2.448  0.1878  0.3468  0.1873
 2947ntf    on517199   4.581   6.523   2.171  0.1341 -0.0150 -0.1309
 2947ntf    on517200   4.382   6.453   2.290  0.1509 -0.1383 -0.0003
 2947ntf    on517201   4.203   6.682   2.162 -0.3416  0.2219 -0.2602
 2947ntf    on517202   4.287   6.911   2.201 -0.3375 -0.0325  0.0918
 2947ntf    fn417203   4.282   6.861   2.484  0.1021  0.2736  0.2741
 2947ntf    fn417204   4.098   6.796   2.395  0.0855  0.8550 -0.2975
 2947ntf    fn417205   4.240   6.653   2.466  0.1555 -0.0391 -0.4919
 2948ntf    cn117206   3.564   6.748   3.578 -0.2502  0.0528  0.1394
 2948ntf    sn217207   3.573   6.575   3.633 -0.3295 -0.0403 -0.1367
 2948ntf    nn317208   3.532   6.590   3.784 -0.7722  0.0644 -0.2684
 2948ntf    sn217209   3.617   6.556   3.911 -0.5006  0.2106 -0.4103
 2948ntf    cn117210   3.485   6.566   4.036  0.0587 -0.3655  0.2331
 2948ntf    fn417211   3.446   6.801   3.608  0.0174  0.7921 -0.0933
 2948ntf    fn417212   3.659   6.822   3.633 -0.3499  0.3067 -0.0285
 2948ntf    fn417213   3.578   6.763   3.448  0.1218  0.3129  0.2087
 2948ntf    on517214   3.468   6.521   3.551 -0.1149  0.4266 -0.7281
 2948ntf    on517215   3.712   6.547   3.604 -0.2914 -0.0241  0.0288
 2948ntf    on517216   3.698   6.669   3.950 -0.3794 -0.1866  0.5198
 2948ntf    on517217   3.667   6.422   3.928 -0.4168  0.3093  0.1573
 2948ntf    fn417218   3.384   6.484   4.014 -0.2530  0.0721  0.0357
 2948ntf    fn417219   3.539   6.535   4.153 -0.4495  0.1955  0.6193
 2948ntf    fn417220   3.452   6.693   4.053  0.6346 -0.2463  0.5005
 2949ntf    cn117221   3.698   5.250   6.078  0.2049 -0.0307 -0.5552
 2949ntf    sn217222   3.673   5.370   5.943  0.1394  0.2555 -0.2909
 2949ntf    nn317223   3.813   5.440   5.939  0.2159  0.1447  0.3245
 2949ntf    sn217224   3.848   5.576   6.010 -0.0683  0.4591 -0.1282
 2949ntf    cn117225   4.022   5.593   5.962 -0.0600 -0.1907 -0.3372
 2949ntf    fn417226   3.619   5.145   6.063 -0.3349  0.2737  0.1345
 2949ntf    fn417227   3.818   5.199   6.095  0.1323 -0.0760 -0.1706
 2949ntf    fn417228   3.673   5.305   6.196  0.3040  0.1215 -0.6042
 2949ntf    on517229   3.653   5.290   5.824 -0.4056  0.1493 -0.1317
 2949ntf    on517230   3.556   5.446   5.978 -0.3459 -0.4108 -0.4443
 2949ntf    on517231   3.843   5.579   6.154  0.1558 -0.0690 -0.1045
 2949ntf    on517232   3.781   5.682   5.940 -0.2869  0.2898 -0.1793
 2949ntf    fn417233   4.043   5.584   5.832 -0.0221 -0.4991 -0.3118
 2949ntf    fn417234   4.075   5.707   6.002 -0.1228 -0.2667 -0.0341
 2949ntf    fn417235   4.097   5.499   6.017  0.1091 -0.2467 -0.6655
 2950ntf    cn117236   3.003   1.904   4.967 -0.0288  0.4471 -0.0872
 2950ntf    sn217237   3.013   1.824   5.131 -0.0203  0.1065 -0.2519
 2950ntf    nn317238   2.935   1.692   5.099  0.3121 -0.1650  0.0527
 2950ntf    sn217239   2.994   1.547   5.090 -0.1390 -0.3297 -0.3014
 2950ntf    cn117240   2.870   1.474   4.979 -0.3913  0.0321 -0.2597
 2950ntf    fn417241   2.883   1.947   4.930 -0.3719 -0.3127  0.1180
 2950ntf    fn417242   3.088   2.005   4.959  0.3045  0.2187  0.4552
 2950ntf    fn417243   3.039   1.826   4.866  0.3926  0.3086  0.1655
 2950ntf    on517244   3.155   1.816   5.155 -0.1376 -0.9082  0.1227
 2950ntf    on517245   2.939   1.918   5.211 -0.0100 -0.3659  0.3180
 2950ntf    on517246   2.978   1.467   5.209  0.2177  0.2246  0.1225
 2950ntf    on517247   3.114   1.526   5.013  0.1676  0.2680  0.0139
 2950ntf    fn417248   2.753   1.467   5.039 -0.1919  0.5753  0.1982
 2950ntf    fn417249   2.856   1.533   4.861  0.7351  0.0686 -0.3882
 2950ntf    fn417250   2.906   1.351   4.944 -0.1333  0.1457 -0.3954
 2951ntf    cn117251   2.938   3.317   4.624  0.4041 -0.0384 -0.2163
 2951ntf    sn217252   2.757   3.322   4.606  0.3817 -0.3406 -0.0868
 2951ntf    nn317253   2.733   3.292   4.454  0.2834 -0.0434 -0.1308
 2951ntf    sn217254   2.630   3.190   4.393 -0.0225  0.1338  0.0903
 2951ntf    cn117255   2.623   3.242   4.219 -0.1483 -0.3085 -0.0371
 2951ntf    fn417256   2.962   3.310   4.754  0.2828  0.0148 -0.1908
 2951ntf    fn417257   2.984   3.204   4.572 -0.1085 -0.2621 -0.1905
 2951ntf    fn417258   3.009   3.417   4.575  0.4025 -0.1334 -0.4128
 2951ntf    on517259   2.703   3.223   4.696 -0.5335  0.3956  0.1813
 2951ntf    on517260   2.733   3.458   4.647 -0.4587 -0.2629 -0.8096
 2951ntf    on517261   2.496   3.203   4.444  0.1820  0.2437  0.6090
 2951ntf    on517262   2.678   3.055   4.377  0.3881  0.2704  0.1391
 2951ntf    fn417263   2.563   3.359   4.203 -0.0175 -0.3253 -0.6911
 2951ntf    fn417264   2.740   3.248   4.158  0.0848 -0.5481  0.3810
 2951ntf    fn417265   2.550   3.161   4.145 -0.6588  0.2357 -0.1367
 2952ntf    cn117266   2.437   6.569   4.730 -0.0330  0.3046  0.0360
 2952ntf    sn217267   2.329   6.427   4.763  0.1123  0.1841 -0.0014
 2952ntf    nn317268   2.246   6.497   4.877  0.4511  0.2265  0.2185
 2952ntf    sn217269   2.156   6.418   4.978  0.3286  0.3708  0.2210
 2952ntf    cn117270   1.987   6.440   4.915  0.3182 -0.1278  0.0756
 2952ntf    fn417271   2.538   6.540   4.649 -0.2138 -0.3903  0.0559
 2952ntf    fn417272   2.383   6.676   4.673  0.3256  0.2991 -0.3191
 2952ntf    fn417273   2.504   6.609   4.837  0.0550 -0.5617  0.3166
 2952ntf    on517274   2.259   6.407   4.638  0.0890 -0.0538  0.0479
 2952ntf    on517275   2.420   6.327   4.812  0.2497  0.3201  0.0212
 2952ntf    on517276   2.134   6.487   5.104 -0.2186  0.0369  0.3114
 2952ntf    on517277   2.168   6.275   4.987 -0.2702  0.3073  0.0261
 2952ntf    fn417278   1.967   6.405   4.789  0.4970 -0.3308  0.1019
 2952ntf    fn417279   1.911   6.362   4.990 -0.1487 -0.1056 -0.3703
 2952ntf    fn417280   1.937   6.562   4.929 -0.0025 -0.2344 -0.1394
 2953ntf    cn117281   0.956   0.101   4.284  0.3359 -0.4638 -0.0434
 2953ntf    sn217282   0.994   0.279   4.288  0.2109 -0.4372 -0.0410
 2953ntf    nn317283   0.848   0.320   4.326  0.2744 -0.0775 -0.1843
 2953ntf    sn217284   0.738   0.395   4.243  0.0910 -0.1744 -0.0311
 2953ntf    cn117285   0.638   0.251   4.196 -0.1369 -0.2061  0.5416
 2953ntf    fn417286   1.062   0.022   4.272  0.5940 -0.1054 -0.1476
 2953ntf    fn417287   0.900   0.065   4.398  0.3803 -0.2174  0.0567
 2953ntf    fn417288   0.875   0.057   4.189 -0.3694  0.0065  0.3383
 2953ntf    on517289   1.078   0.300   4.404  0.0580 -0.2072  0.0276
 2953ntf    on517290   1.042   0.311   4.156 -0.6439  0.2805 -0.1870
 2953ntf    on517291   0.767   0.458   4.116  0.0246 -0.2592 -0.0892
 2953ntf    on517292   0.637   0.463   4.320  0.2149  0.0343 -0.0524
 2953ntf    fn417293   0.508   0.272   4.185 -0.0905 -0.1050  0.1479
 2953ntf    fn417294   0.686   0.189   4.089 -0.3489  0.1387  0.2434
 2953ntf    fn417295   0.634   0.162   4.294 -0.6303 -0.1889  0.5393
 2954ntf    cn117296   6.321   0.260   4.898 -0.0284  0.2069  0.1180
 2954ntf    sn217297   6.356   0.292   4.722  0.0011 -0.0725  0.0729
 2954ntf    nn317298   6.332   0.445   4.698 -0.1347 -0.1401 -0.2300
 2954ntf    sn217299   6.204   0.532   4.668 -0.0728  0.0919  0.1610
 2954ntf    cn117300   6.231   0.555   4.489 -0.3815 -0.1511  0.0813
 2954ntf    fn417301   6.193   0.282   4.921 -0.1332  0.0944 -0.3314
 2954ntf    fn417302   6.339   0.136   4.941  0.2133  0.1308 -0.1969
 2954ntf    fn417303   6.392   0.338   4.977 -0.1775 -0.3218  0.7854
 2954ntf    on517304   6.494   0.254   4.707  0.0967  0.1746  0.3217
 2954ntf    on517305   6.264   0.204   4.654 -0.1806  0.0744  0.1285
 2954ntf    on517306   6.211   0.662   4.730 -0.6437  0.3299 -0.2689
 2954ntf    on517307   6.078   0.464   4.678  0.0767 -0.1568  0.3669
 2954ntf    fn417308   6.245   0.442   4.422 -0.1831  0.1973 -0.4762
 2954ntf    fn417309   6.131   0.623   4.436 -0.3380  0.0216  0.2182
 2954ntf    fn417310   6.341   0.624   4.462 -0.0968 -0.7847 -0.4065
 2955ntf    cn117311   0.082   2.966   6.566 -0.2058  0.0536  0.0912
 2955ntf    sn217312  -0.027   2.856   6.470  0.2882  0.0809 -0.5003
 2955ntf    nn317313   0.058   2.827   6.341  0.4544  0.6413 -0.5230
 2955ntf    sn217314   0.160   2.714   6.303 -0.1828 -0.0410 -0.2538
 2955ntf    cn117315   0.061   2.617   6.186 -0.2849 -0.2521  0.0084
 2955ntf    fn417316   0.051   2.980   6.694  0.5492 -0.4861  0.3368
 2955ntf    fn417317   0.210   2.933   6.562 -0.1764  0.2036 -0.2285
 2955ntf    fn417318   0.077   3.089   6.518  0.1952  0.1514  0.2927
 2955ntf    on517319  -0.070   2.745   6.551  0.0651  0.4887 -0.0561
 2955ntf    on517320  -0.140   2.939   6.434 -0.2275 -0.5095 -0.2509
 2955ntf    on517321   0.197   2.630   6.414  0.5698  0.0932 -0.3963
 2955ntf    on517322   0.276   2.760   6.230  0.1180  0.2740  0.4115
 2955ntf    fn417323  -0.062   2.597   6.229 -0.5043  0.5664 -0.2224
 2955ntf    fn417324   0.044   2.679   6.071  0.3860  0.4938  0.3053
 2955ntf    fn417325   0.123   2.504   6.156  0.1555  0.0449 -0.2145
 2956ntf    cn117326   6.383   4.139   6.813 -0.0882 -0.3075 -0.2355
 2956ntf    sn217327   6.263   4.049   6.710 -0.4798  0.1682 -0.2005
 2956ntf    nn317328   6.287   4.123   6.573  0.2854 -0.0167 -0.1757
 2956ntf    sn217329   6.188   4.215   6.493 -0.1180 -0.1132  0.2023
 2956ntf    cn117330   6.258   4.381   6.516  0.0852 -0.1658 -0.0284
 2956ntf    fn417331   6.378   4.112   6.942  0.3873  0.4476 -0.0515
 2956ntf    fn417332   6.505   4.115   6.769  0.1506 -0.0483  0.2798
 2956ntf    fn417333   6.360   4.269   6.812 -0.1427 -0.3119  0.1985
 2956ntf    on517334   6.313   3.913   6.711 -0.0703  0.3188 -0.1770
 2956ntf    on517335   6.137   4.070   6.776 -0.4835  0.1108 -0.1884
 2956ntf    on517336   6.054   4.221   6.546 -0.2172 -0.1622 -0.0399
 2956ntf    on517337   6.196   4.190   6.351 -0.2298 -0.1612  0.2043
 2956ntf    fn417338   6.264   4.424   6.641  0.2127 -0.0524 -0.0738
 2956ntf    fn417339   6.377   4.397   6.460  0.2190  0.6910  0.4797
 2956ntf    fn417340   6.185   4.468   6.446  0.5831  0.1376 -0.1768
 2957ntf    cn117341   4.947   3.012   4.860 -0.3996 -0.2152 -0.1329
 2957ntf    sn217342   4.866   2.883   4.761 -0.4404 -0.4018  0.1405
 2957ntf    nn317343   4.865   2.942   4.615  0.2381  0.2279  0.3849
 2957ntf    sn217344   4.739   3.000   4.541 -0.0653 -0.5570  0.2735
 2957ntf    cn117345   4.659   2.855   4.468 -0.3104 -0.2176 -0.1335
 2957ntf    fn417346   4.904   3.131   4.823 -0.0522 -0.1625 -0.3783
 2957ntf    fn417347   4.925   3.008   4.990 -0.4922 -0.8869 -0.1651
 2957ntf    fn417348   5.078   3.017   4.843 -0.3060  0.1359  0.6689
 2957ntf    on517349   4.956   2.771   4.766  0.0849  0.0168  0.1331
 2957ntf    on517350   4.740   2.862   4.828 -0.5969 -0.0923 -0.0515
 2957ntf    on517351   4.785   3.072   4.425 -0.1545 -0.2177  0.4453
 2957ntf    on517352   4.643   3.071   4.623  0.6615  0.0946  0.5870
 2957ntf    fn417353   4.552   2.894   4.400 -0.3597  0.2393  0.2042
 2957ntf    fn417354   4.745   2.792   4.389  0.3037  0.1251  0.2596
 2957ntf    fn417355   4.622   2.767   4.560 -0.0668  0.1111  0.2803
 2958ntf    cn117356   4.228   6.409   6.335 -0.0940  0.3951 -0.1023
 2958ntf    sn217357   4.230   6.228   6.347 -0.3557  0.3856 -0.1769
 2958ntf    nn317358   4.300   6.181   6.214 -0.2550 -0.0694  0.0355
 2958ntf    sn217359   4.454   6.155   6.203 -0.2161  0.0678  0.2411
 2958ntf    cn117360   4.488   6.193   6.028 -0.1989 -0.1801  0.1905
 2958ntf    fn417361   4.201   6.458   6.455 -0.3366 -0.2214  0.0963
 2958ntf    fn417362   4.343   6.460   6.295  0.1183  0.5452  0.6869
 2958ntf    fn417363   4.133   6.447   6.251  0.0451  0.0879 -0.4043
 2958ntf    on517364   4.303   6.203   6.468  0.2303 -0.4863 -0.6976
 2958ntf    on517365   4.092   6.185   6.347 -0.1780 -0.1938 -0.1814
 2958ntf    on517366   4.482   6.014   6.220  0.6111  0.1445 -0.3972
 2958ntf    on517367   4.532   6.251   6.277  0.0471 -0.2785  0.4183
 2958ntf    fn417368   4.443   6.311   5.989 -0.5163 -0.1318  0.6916
 2958ntf    fn417369   4.612   6.182   5.985 -0.3343  0.2863 -0.3235
 2958ntf    fn417370   4.424   6.107   5.950 -0.2620  0.3481 -0.3455
 2959ntf    cn117371   5.230   3.306   3.913  0.2968  0.2048 -0.1992
 2959ntf    sn217372   5.104   3.227   3.808  0.2824  0.1550 -0.1440
 2959ntf    nn317373   5.017   3.154   3.917  0.1067 -0.0325 -0.4068
 2959ntf    sn217374   4.862   3.130   3.927  0.1490 -0.1662 -0.0694
 2959ntf    cn117375   4.811   3.236   4.065  0.0630 -0.2745 -0.0175
 2959ntf    fn417376   5.314   3.383   3.847  0.4329  0.6436  0.4781
 2959ntf    fn417377   5.176   3.370   4.015  0.3484 -0.4416  0.2384
 2959ntf    fn417378   5.305   3.210   3.963 -0.2402  0.0322  0.2911
 2959ntf    on517379   5.050   3.340   3.737 -0.2970  0.0337  0.0934
 2959ntf    on517380   5.180   3.137   3.725  0.2692  0.6623 -0.7045
 2959ntf    on517381   4.823   2.999   3.974 -0.2781  0.0462  0.1738
 2959ntf    on517382   4.783   3.185   3.820  0.1199 -0.2078 -0.0693
 2959ntf    fn417383   4.825   3.364   4.035 -0.1204 -0.1857  0.2683
 2959ntf    fn417384   4.684   3.223   4.100  0.0687  0.2100  0.2035
 2959ntf    fn417385   4.876   3.215   4.178  0.2377  0.0671 -0.0505
 2960ntf    cn117386   2.480   2.657   5.556 -0.3710  0.0733  0.2472
 2960ntf    sn217387   2.414   2.582   5.708 -0.3958 -0.0025  0.1988
 2960ntf    nn317388   2.274   2.653   5.715 -0.3440  0.1294 -0.0868
 2960ntf    sn217389   2.193   2.708   5.838 -0.2142  0.0726  0.0255
 2960ntf    cn117390   2.171   2.562   5.944 -0.2856  0.0414 -0.0319
 2960ntf    fn417391   2.489   2.788   5.562 -0.0670  0.0855 -0.4508
 2960ntf    fn417392   2.600   2.609   5.527 -0.2992  0.5029 -0.1654
 2960ntf    fn417393   2.409   2.637   5.446 -0.2176  0.1088  0.1419
 2960ntf    on517394   2.413   2.441   5.678  0.1236 -0.0466  0.3776
 2960ntf    on517395   2.504   2.618   5.814  0.2109  0.4277 -0.4553
 2960ntf    on517396   2.062   2.746   5.791 -0.6201 -0.6427  0.5471
 2960ntf    on517397   2.258   2.807   5.920  0.4560 -0.4449  0.1259
 2960ntf    fn417398   2.120   2.584   6.064 -0.5296 -0.2015 -0.0884
 2960ntf    fn417399   2.077   2.486   5.890 -0.4459  0.2943 -0.1054
 2960ntf    fn417400   2.278   2.485   5.953 -0.5123 -0.2589  0.1154
 2961ntf    cn117401   3.740   4.490   1.431  0.2884  0.0718  0.1156
 2961ntf    sn217402   3.702   4.456   1.257  0.0048 -0.0585  0.2021
 2961ntf    nn317403   3.809   4.553   1.195  0.0528 -0.2683 -0.0458
 2961ntf    sn217404   3.792   4.691   1.123  0.1434 -0.4243 -0.3712
 2961ntf    cn117405   3.778   4.635   0.951  0.1244  0.2168 -0.5834
 2961ntf    fn417406   3.654   4.426   1.509  0.0277  0.0208 -0.2110
 2961ntf    fn417407   3.865   4.456   1.457  0.4511  0.1025 -0.6078
 2961ntf    fn417408   3.719   4.618   1.453 -0.3222 -0.0456  0.2415
 2961ntf    on517409   3.728   4.315   1.240  0.0683  0.0667 -0.8228
 2961ntf    on517410   3.563   4.494   1.248  0.1612  0.4967  0.1154
 2961ntf    on517411   3.919   4.758   1.131 -0.2537  0.3109 -0.1052
 2961ntf    on517412   3.672   4.766   1.153  0.8954  0.4004  0.6586
 2961ntf    fn417413   3.659   4.578   0.936  0.1829 -0.0870  0.0452
 2961ntf    fn417414   3.790   4.730   0.860  0.2557  0.0877 -0.7007
 2961ntf    fn417415   3.866   4.540   0.924  0.0159 -0.0341 -0.0628
 2962ntf    cn117416   4.479   0.282   2.072  0.2641 -0.1689 -0.2375
 2962ntf    sn217417   4.612   0.380   1.995  0.3831 -0.1192  0.0287
 2962ntf    nn317418   4.742   0.300   2.033  0.2633 -0.2021  0.2662
 2962ntf    sn217419   4.827   0.199   1.948  0.1267  0.0592 -0.1867
 2962ntf    cn117420   4.948   0.303   1.861  0.3011 -0.0495 -0.0746
 2962ntf    fn417421   4.503   0.153   2.065 -0.7336 -0.3778  0.0347
 2962ntf    fn417422   4.475   0.307   2.202  0.0732 -0.0386 -0.2670
 2962ntf    fn417423   4.358   0.311   2.026  0.2221 -0.4162 -0.2794
 2962ntf    on517424   4.579   0.375   1.854 -0.7619 -0.2463  0.2939
 2962ntf    on517425   4.612   0.505   2.065 -0.0377 -0.5647  0.8382
 2962ntf    on517426   4.753   0.130   1.845  0.0989  0.0747 -0.1770
 2962ntf    on517427   4.915   0.126   2.035  0.4926  0.2348 -0.4068
 2962ntf    fn417428   4.980   0.412   1.929 -0.5360  0.1386  0.0362
 2962ntf    fn417429   5.058   0.238   1.829  0.3823  0.0745 -0.0500
 2962ntf    fn417430   4.906   0.333   1.739  0.5245 -0.3093 -0.2163
 2963ntf    cn117431   3.412   1.202   0.476  0.2731  0.6408 -0.1733
 2963ntf    sn217432   3.388   1.120   0.315  0.1562 -0.0321  0.1845
 2963ntf    nn317433   3.511   1.180   0.239 -0.1896 -0.2832 -0.5770
 2963ntf    sn217434   3.657   1.123   0.227 -0.1266 -0.2990  0.2686
 2963ntf    cn117435   3.741   1.283   0.204  0.2914 -0.5157  0.2914
 2963ntf    fn417436   3.453   1.327   0.461 -0.0174  0.6919 -0.5756
 2963ntf    fn417437   3.298   1.209   0.542  0.2496  0.4295 -0.1905
 2963ntf    fn417438   3.495   1.144   0.561 -0.3934  0.1136  0.1265
 2963ntf    on517439   3.384   0.978   0.338 -0.3466 -0.0783 -0.1634
 2963ntf    on517440   3.264   1.175   0.265  0.1179 -0.0222  0.2877
 2963ntf    on517441   3.693   1.057   0.105  0.2711  0.3221  0.0440
 2963ntf    on517442   3.710   1.074   0.352 -0.3847  0.1906  0.5784
 2963ntf    fn417443   3.669   1.354   0.120  0.5713  0.0506  0.5272
 2963ntf    fn417444   3.754   1.353   0.316 -0.5898 -0.1768  0.1809
 2963ntf    fn417445   3.861   1.277   0.147  0.7147  0.2906  1.0632
 2964ntf    cn117446   3.976   1.257   2.828 -0.0361 -0.3191  0.2408
 2964ntf    sn217447   4.049   1.409   2.895 -0.2086 -0.1486  0.0461
 2964ntf    nn317448   4.181   1.350   2.956  0.2471  0.9700  0.1616
 2964ntf    sn217449   4.322   1.345   2.887  0.1166  0.2390 -0.0612
 2964ntf    cn117450   4.400   1.460   3.004  0.0028  0.3630 -0.1074
 2964ntf    fn417451   3.982   1.164   2.922 -0.1695 -0.2760  0.2924
 2964ntf    fn417452   3.851   1.267   2.785  0.0794  0.0648 -0.0141
 2964ntf    fn417453   4.048   1.209   2.728  0.2825  0.3725  0.1321
 2964ntf    on517454   4.061   1.503   2.787 -0.0462  0.2796  0.4345
 2964ntf    on517455   3.966   1.455   3.004 -0.1677 -0.3640  0.1688
 2964ntf    on517456   4.337   1.404   2.756 -0.3761 -0.0696 -0.2610
 2964ntf    on517457   4.387   1.218   2.910  0.1449  0.3081  0.2513
 2964ntf    fn417458   4.531   1.463   2.989 -0.0241  0.4565 -0.3329
 2964ntf    fn417459   4.356   1.585   2.995 -0.2613  0.2504 -0.3662
 2964ntf    fn417460   4.381   1.431   3.132 -0.2060  0.0557 -0.2068
 2965ntf    cn117461   4.706   3.251   1.999 -0.4202 -0.0656  0.1739
 2965ntf    sn217462   4.596   3.115   2.050 -0.2623 -0.1505  0.2877
 2965ntf    nn317463   4.512   3.119   1.917  0.0140  0.4114  0.1243
 2965ntf    sn217464   4.365   3.173   1.904 -0.1378 -0.0429 -0.0451
 2965ntf    cn117465   4.262   3.048   1.987 -0.0889 -0.0133  0.0596
 2965ntf    fn417466   4.806   3.252   2.084 -0.0037  0.4189 -0.3150
 2965ntf    fn417467   4.758   3.237   1.878 -0.0137  0.4037  0.2898
 2965ntf    fn417468   4.653   3.372   1.994 -0.2429  0.0013 -0.1469
 2965ntf    on517469   4.676   2.996   2.061 -0.0673 -0.0501 -0.0228
 2965ntf    on517470   4.535   3.168   2.169  0.6605 -0.4772  0.9110
 2965ntf    on517471   4.323   3.172   1.766  0.1053 -0.0326 -0.1184
 2965ntf    on517472   4.346   3.302   1.965  0.1465  0.1121 -0.2806
 2965ntf    fn417473   4.296   3.007   2.108  0.0276  0.5886  0.2341
 2965ntf    fn417474   4.140   3.098   1.997 -0.2311 -0.3237 -0.1006
 2965ntf    fn417475   4.251   2.937   1.915 -0.0813  0.1417 -0.1821
 2966ntf    cn117476   1.185   0.733   2.596 -0.0252  0.0746  0.1663
 2966ntf    sn217477   1.194   0.552   2.592  0.2658  0.0950 -0.1084
 2966ntf    nn317478   1.040   0.523   2.583  0.2812 -0.0043 -0.0609
 2966ntf    sn217479   0.978   0.401   2.506 -0.2834  0.0406  0.3209
 2966ntf    cn117480   0.937   0.293   2.647  0.1253 -0.3356  0.1514
 2966ntf    fn417481   1.305   0.789   2.603  0.1035 -0.1779  0.0028
 2966ntf    fn417482   1.126   0.794   2.495  0.0180 -0.4310 -0.1655
 2966ntf    fn417483   1.120   0.775   2.703  0.2800  0.4207  0.2167
 2966ntf    on517484   1.272   0.524   2.473  0.0377 -0.0522 -0.2249
 2966ntf    on517485   1.246   0.517   2.721  0.1952  0.1020 -0.0780
 2966ntf    on517486   1.062   0.323   2.420  0.2127  0.1185  0.7336
 2966ntf    on517487   0.849   0.431   2.448 -0.2692 -0.6124 -0.0578
 2966ntf    fn417488   0.847   0.338   2.732 -0.1193  0.3379 -0.4496
 2966ntf    fn417489   0.893   0.173   2.612 -0.3121 -0.1685  0.1207
 2966ntf    fn417490   1.048   0.274   2.717 -0.1148 -0.9862  0.3649
 2967ntf    cn117491   6.750   0.669   3.275 -0.0589  0.0367  0.1330
 2967ntf    sn217492   6.920   0.604   3.283  0.0234  0.2367 -0.0090
 2967ntf    nn317493   6.985   0.699   3.390 -0.4811  0.1240  0.4004
 2967ntf    sn217494   7.094   0.675   3.501 -0.2365  0.1008  0.1568
 2967ntf    cn117495   6.983   0.651   3.643 -0.3328 -0.3449  0.0071
 2967ntf    fn417496   6.674   0.606   3.187  0.2590 -0.0875 -0.0569
 2967ntf    fn417497   6.688   0.654   3.391 -0.1181  0.1204  0.1115
 2967ntf    fn417498   6.755   0.798   3.248 -0.0846  0.0223  0.0581
 2967ntf    on517499   6.899   0.469   3.326 -0.1338  0.4020  0.4375
 2967ntf    on517500   6.971   0.628   3.150 -0.3366  0.5169 -0.0985
 2967ntf    on517501   7.164   0.797   3.533  0.5388 -0.2309 -0.2405
 2967ntf    on517502   7.167   0.552   3.490  0.0500  0.2744  0.1054
 2967ntf    fn417503   7.049   0.626   3.755  0.5472  0.0473 -0.4151
 2967ntf    fn417504   6.907   0.757   3.663  0.1813  0.0762 -0.2556
 2967ntf    fn417505   6.905   0.545   3.627 -0.0578 -0.5705  0.1502
 2968ntf    cn117506   6.634   2.095   2.187  0.0466 -0.0291 -0.2007
 2968ntf    sn217507   6.741   2.229   2.248 -0.0920 -0.1423  0.2986
 2968ntf    nn317508   6.661   2.355   2.198 -0.1050 -0.1768  0.2316
 2968ntf    sn217509   6.673   2.505   2.243 -0.0724 -0.1568  0.1563
 2968ntf    cn117510   6.552   2.515   2.378 -0.4655 -0.0032 -0.2034
 2968ntf    fn417511   6.686   1.978   2.220  1.4981  0.7570  0.3885
 2968ntf    fn417512   6.513   2.101   2.241  0.0286  0.8984 -0.3281
 2968ntf    fn417513   6.614   2.097   2.056  0.4062  0.0795 -0.2547
 2968ntf    on517514   6.746   2.206   2.390  0.4068  0.2112  0.3432
 2968ntf    on517515   6.857   2.196   2.169 -0.4598  0.2263 -0.4063
 2968ntf    on517516   6.616   2.595   2.146  0.3074 -0.4704 -0.3624
 2968ntf    on517517   6.803   2.542   2.293 -0.1032 -0.4656  0.4640
 2968ntf    fn417518   6.537   2.633   2.435  0.2188 -0.2126  0.4343
 2968ntf    fn417519   6.428   2.474   2.354 -0.4338 -0.5339  0.4745
 2968ntf    fn417520   6.589   2.432   2.475  0.3674  0.0907 -0.4369
 2969ntf    cn117521   2.913   6.161   1.431 -0.5254  0.0506 -0.2754
 2969ntf    sn217522   2.781   6.245   1.340 -0.4494  0.1681 -0.2774
 2969ntf    nn317523   2.656   6.173   1.402 -0.2116 -0.0921 -0.0986
 2969ntf    sn217524   2.529   6.106   1.339 -0.3357  0.3094 -0.2832
 2969ntf    cn117525   2.419   6.251   1.329 -0.1428  0.4803  0.0513
 2969ntf    fn417526   2.906   6.198   1.558  0.3405 -0.4432 -0.0746
 2969ntf    fn417527   2.890   6.031   1.429 -1.3034  0.1765  0.0901
 2969ntf    fn417528   3.034   6.190   1.386 -0.0847 -0.4798  0.5397
 2969ntf    on517529   2.792   6.386   1.370  0.4662  0.0706 -0.1242
 2969ntf    on517530   2.802   6.204   1.203 -0.0206 -0.4583 -0.0267
 2969ntf    on517531   2.464   6.032   1.445  0.2179  0.0570 -0.1150
 2969ntf    on517532   2.531   6.054   1.204  0.1131 -0.1962 -0.0858
 2969ntf    fn417533   2.392   6.299   1.449 -0.7413 -0.4526  0.3028
 2969ntf    fn417534   2.476   6.348   1.259 -0.3402  0.4457 -0.1602
 2969ntf    fn417535   2.309   6.226   1.261 -0.0598  0.2013  0.0180
 2970ntf    cn117536   1.937   2.822   6.150 -0.0400 -0.2286 -0.1013
 2970ntf    sn217537   1.787   2.802   6.251  0.0678 -0.0617  0.0905
 2970ntf    nn317538   1.838   2.837   6.395  0.2440 -0.1472  0.0489
 2970ntf    sn217539   1.848   2.975   6.469  0.4534 -0.0393 -0.1811
 2970ntf    cn117540   1.689   2.996   6.555  0.4109  0.2984 -0.3385
 2970ntf    fn417541   1.982   2.946   6.145 -0.8287  0.0784  0.2337
 2970ntf    fn417542   2.036   2.750   6.200  0.1591 -0.4922 -0.8492
 2970ntf    fn417543   1.924   2.791   6.021 -0.2190 -0.0094 -0.1375
 2970ntf    on517544   1.695   2.896   6.191  0.5370  0.3693  0.0384
 2970ntf    on517545   1.763   2.660   6.239  0.2267 -0.0908  0.1199
 2970ntf    on517546   1.868   3.086   6.379  0.2431  0.3746  0.2739
 2970ntf    on517547   1.942   2.970   6.577  0.1734 -0.4530  0.0489
 2970ntf    fn417548   1.673   2.895   6.639 -0.1315  0.4450 -0.2645
 2970ntf    fn417549   1.693   3.111   6.619  0.1781 -0.1476  0.4995
 2970ntf    fn417550   1.583   2.998   6.475  0.1364 -0.2246  0.0041
 2971ntf    cn117551   0.456   5.890   6.615  0.3101 -0.0837  0.1030
 2971ntf    sn217552   0.287   5.888   6.683  0.2576  0.1394 -0.0190
 2971ntf    nn317553   0.246   6.036   6.648  0.1618  0.1566  0.1657
 2971ntf    sn217554   0.151   6.072   6.529  0.2495  0.2004  0.1096
 2971ntf    cn117555  -0.011   6.037   6.603  0.1570  0.0891 -0.1433
 2971ntf    fn417556   0.464   5.933   6.490  0.0658 -0.4825 -0.0503
 2971ntf    fn417557   0.531   5.975   6.684  0.0269 -0.2709  0.6539
 2971ntf    fn417558   0.509   5.769   6.617 -0.1145 -0.2724  0.1478
 2971ntf    on517559   0.219   5.782   6.613  0.7123  0.1950 -0.5521
 2971ntf    on517560   0.306   5.869   6.825 -0.0415  0.4563  0.0638
 2971ntf    on517561   0.156   5.989   6.411  0.0973 -0.2782  0.4404
 2971ntf    on517562   0.151   6.214   6.503 -0.2829  0.0841 -0.5605
 2971ntf    fn417563  -0.111   6.037   6.516 -0.0866  0.0638  0.1349
 2971ntf    fn417564  -0.014   5.914   6.652  0.3556  0.1546  0.0376
 2971ntf    fn417565  -0.046   6.118   6.702  0.2946 -0.1946  0.1413
 2972ntf    cn117566   6.407   6.979   6.921  0.1968 -0.1833  0.0524
 2972ntf    sn217567   6.570   7.013   6.848  0.1152  0.2032  0.0450
 2972ntf    nn317568   6.668   7.001   6.970 -0.1938 -0.1703  0.2583
 2972ntf    sn217569   6.758   6.881   7.016  0.1995 -0.0770 -0.2668
 2972ntf    cn117570   6.715   6.873   7.192 -0.0230  0.5846 -0.2868
 2972ntf    fn417571   6.357   7.078   6.993  0.3360 -0.3300  0.3505
 2972ntf    fn417572   6.316   6.953   6.829  0.5114  0.0410 -0.3270
 2972ntf    fn417573   6.420   6.873   6.998  0.0102  0.0685  0.4351
 2972ntf    on517574   6.598   6.919   6.742 -0.1146 -0.1608  0.3050
 2972ntf    on517575   6.562   7.150   6.803 -0.7350  0.2144  0.2160
 2972ntf    on517576   6.898   6.916   7.018  0.2543 -0.3192  0.1357
 2972ntf    on517577   6.715   6.754   6.963 -0.5245  0.2230 -0.4017
 2972ntf    fn417578   6.585   6.861   7.209  0.1120  0.0154  0.4388
 2972ntf    fn417579   6.765   6.758   7.236  0.3281  0.6140 -0.6099
 2972ntf    fn417580   6.772   6.963   7.271  0.0367  0.4828 -0.2122
 2973ntf    cn117581   5.584   2.948   1.152 -0.1481 -0.2072  0.2279
 2973ntf    sn217582   5.738   2.993   1.236 -0.0639  0.1347 -0.1008
 2973ntf    nn317583   5.837   2.998   1.115  0.2240 -0.0848  0.1228
 2973ntf    sn217584   5.954   3.096   1.076  0.3221 -0.3312 -0.2108
 2973ntf    cn117585   5.860   3.210   0.971  0.4179 -0.0176  0.0450
 2973ntf    fn417586   5.586   2.828   1.096 -0.3445  0.0401 -0.3199
 2973ntf    fn417587   5.487   2.950   1.242 -0.7685  0.6695 -0.4389
 2973ntf    fn417588   5.551   3.032   1.054  0.8111  0.3962  0.4162
 2973ntf    on517589   5.706   3.120   1.296 -0.1448 -0.1104  0.3810
 2973ntf    on517590   5.763   2.876   1.317  0.0365  0.2463  0.0300
 2973ntf    on517591   6.038   3.025   0.983 -0.1325 -0.1909 -0.7299
 2973ntf    on517592   6.006   3.181   1.180  0.7856 -0.3352 -0.4385
 2973ntf    fn417593   5.769   3.146   0.900  0.3550  0.0862  0.0312
 2973ntf    fn417594   5.794   3.295   1.048 -0.0950 -0.0565 -0.3475
 2973ntf    fn417595   5.934   3.280   0.886 -0.1928  0.3478 -0.1967
 2974ntf    cn117596   0.087   5.747   2.864 -0.3982 -0.1009 -0.0880
 2974ntf    sn217597   0.107   5.614   2.987  0.2467  0.1077  0.0338
 2974ntf    nn317598   0.018   5.511   2.910  0.6167  0.3669 -0.7552
 2974ntf    sn217599   0.049   5.390   2.814  0.3114  0.0892 -0.5055
 2974ntf    cn117600   0.056   5.479   2.656 -0.3147  0.2581 -0.4407
 2974ntf    fn417601   0.149   5.736   2.748  0.1667  0.2867  0.1744
 2974ntf    fn417602  -0.041   5.770   2.837 -0.2011  0.3168 -0.6693
 2974ntf    fn417603   0.124   5.862   2.917 -0.3402 -0.1225 -0.0832
 2974ntf    on517604   0.250   5.595   2.988  0.2767  0.3058 -0.3022
 2974ntf    on517605   0.047   5.673   3.104 -0.4165  0.6805 -0.5860
 2974ntf    on517606  -0.071   5.312   2.797  0.2555 -0.0719  0.5534
 2974ntf    on517607   0.179   5.330   2.832 -0.0755 -0.5966  0.0947
 2974ntf    fn417608  -0.038   5.572   2.650  0.1150  0.7407  0.0689
 2974ntf    fn417609   0.177   5.531   2.638 -0.1698  0.1317  0.1339
 2974ntf    fn417610   0.045   5.399   2.552 -0.2248 -0.3332  0.0007
 2975ntf    cn117611   6.131   3.268   4.670  0.0048 -0.1377  0.2551
 2975ntf    sn217612   6.130   3.431   4.588 -0.2617 -0.3785 -0.2273
 2975ntf    nn317613   5.990   3.483   4.635 -0.1901 -0.4500  0.0741
 2975ntf    sn217614   5.878   3.543   4.543  0.1769  0.0863 -0.0250
 2975ntf    cn117615   5.964   3.688   4.474 -0.2313  0.2843 -0.1216
 2975ntf    fn417616   6.038   3.188   4.622 -0.0028  0.1284 -0.1785
 2975ntf    fn417617   6.253   3.217   4.667  0.2498  0.4748 -0.6993
 2975ntf    fn417618   6.099   3.285   4.797 -0.0111  0.1126  0.2196
 2975ntf    on517619   6.242   3.493   4.656 -0.2645 -0.0796 -0.4957
 2975ntf    on517620   6.138   3.404   4.447 -0.0933 -0.0920 -0.2741
 2975ntf    on517621   5.770   3.601   4.619  0.3515 -0.0422  0.3191
 2975ntf    on517622   5.841   3.457   4.433  0.1820 -0.0539  0.0835
 2975ntf    fn417623   6.077   3.645   4.421 -0.0969 -0.3243  0.6247
 2975ntf    fn417624   5.893   3.744   4.378 -0.3810 -0.0184 -0.1901
 2975ntf    fn417625   5.994   3.777   4.567 -0.1218  0.1838 -0.0603
 2976ntf    cn117626   1.307   4.919   2.159  0.3034 -0.3653  0.0611
 2976ntf    sn217627   1.439   5.040   2.188  0.0488  0.0168 -0.3641
 2976ntf    nn317628   1.452   5.040   2.345 -0.5090 -0.2217 -0.3150
 2976ntf    sn217629   1.521   4.923   2.423 -0.0221  0.1204 -0.2286
 2976ntf    cn117630   1.696   4.975   2.426  0.0866 -0.2514 -0.0082
 2976ntf    fn417631   1.260   4.922   2.035 -0.4939 -0.1706  0.3584
 2976ntf    fn417632   1.340   4.792   2.176 -0.0366 -0.4540  0.0741
 2976ntf    fn417633   1.205   4.954   2.236  0.2960 -0.2651  0.0056
 2976ntf    on517634   1.548   4.987   2.110  0.3042 -0.2373  0.1595
 2976ntf    on517635   1.373   5.158   2.136  0.2682  0.2948 -0.0232
 2976ntf    on517636   1.521   4.799   2.350  0.4636 -0.0517  0.0617
 2976ntf    on517637   1.481   4.918   2.562  0.5730  0.0029 -0.0559
 2976ntf    fn417638   1.708   5.103   2.457 -0.7261 -0.0988 -0.2831
 2976ntf    fn417639   1.766   4.906   2.514  0.0782 -0.2208  0.0226
 2976ntf    fn417640   1.759   4.956   2.311  0.4769 -0.2577  0.2073
 2977ntf    cn117641   5.190   4.262   6.996  0.1774  0.1782  0.2083
 2977ntf    sn217642   5.190   4.186   6.831  0.0749  0.1339  0.2284
 2977ntf    nn317643   5.145   4.040   6.870  0.1596  0.0442 -0.0104
 2977ntf    sn217644   5.223   3.935   6.957  0.2715  0.1928  0.0689
 2977ntf    cn117645   5.103   3.906   7.091  0.0856  0.0466 -0.1299
 2977ntf    fn417646   5.078   4.260   7.067  0.1346  0.3234  0.1461
 2977ntf    fn417647   5.284   4.208   7.072  0.5152 -0.1640 -0.4473
 2977ntf    fn417648   5.216   4.392   6.991  0.2411  0.1699  0.3244
 2977ntf    on517649   5.089   4.253   6.754  0.5708 -0.0797 -0.6172
 2977ntf    on517650   5.328   4.191   6.790  0.0781 -0.3326  0.1724
 2977ntf    on517651   5.337   3.982   7.032  0.0435  0.5139  0.2217
 2977ntf    on517652   5.225   3.807   6.892  0.6944  0.2596 -0.0538
 2977ntf    fn417653   5.049   4.017   7.137 -0.2070 -0.1561  0.0226
 2977ntf    fn417654   5.000   3.835   7.047 -0.3358  0.4765  0.1550
 2977ntf    fn417655   5.154   3.831   7.187  0.0265 -0.1982 -0.2882
 2978ntf    cn117656   1.103   6.712   0.361  0.0565  0.0531 -0.0884
 2978ntf    sn217657   1.189   6.582   0.455  0.0261 -0.1181 -0.2961
 2978ntf    nn317658   1.068   6.514   0.528  0.2738 -0.2842 -0.0409
 2978ntf    sn217659   0.982   6.387   0.495 -0.2561  0.0224  0.1430
 2978ntf    cn117660   1.037   6.272   0.625  0.2276 -0.0851 -0.1523
 2978ntf    fn417661   1.017   6.663   0.273 -0.1586  0.4460 -0.0956
 2978ntf    fn417662   1.042   6.793   0.446 -0.4107 -0.3337 -0.0450
 2978ntf    fn417663   1.188   6.789   0.297 -0.4147  0.1630 -0.5932
 2978ntf    on517664   1.256   6.506   0.352  0.2126  0.0711 -0.3156
 2978ntf    on517665   1.265   6.656   0.553 -0.4339  0.0436 -0.0590
 2978ntf    on517666   0.997   6.314   0.371  0.0643 -0.2675  0.3497
 2978ntf    on517667   0.846   6.408   0.538 -0.1022  0.4010  0.4517
 2978ntf    fn417668   1.011   6.322   0.745 -0.1091  0.0491 -0.2785
 2978ntf    fn417669   0.982   6.152   0.623  0.4863 -0.2049 -0.1018
 2978ntf    fn417670   1.169   6.258   0.632  0.2084 -0.2918 -0.2163
 2979ntf    cn117671   0.042   0.066   6.322  0.0216  0.0644 -0.2208
 2979ntf    sn217672   0.105  -0.104   6.308  0.1535  0.0799  0.1659
 2979ntf    nn317673   0.187  -0.113   6.441  0.2382  0.4562  0.1402
 2979ntf    sn217674   0.152  -0.208   6.561  0.0726 -0.1180 -0.3552
 2979ntf    cn117675  -0.014  -0.157   6.613  0.2271  0.1181 -0.0820
 2979ntf    fn417676  -0.004   0.075   6.446  0.1965 -0.3253 -0.1288
 2979ntf    fn417677   0.133   0.160   6.302  0.5455 -0.2375  0.6703
 2979ntf    fn417678  -0.054   0.090   6.234  0.0079 -0.0043 -0.2236
 2979ntf    on517679  -0.014  -0.184   6.289 -0.1704  0.6135 -0.1054
 2979ntf    on517680   0.193  -0.097   6.194  0.1667  0.1858  0.1820
 2979ntf    on517681   0.240  -0.181   6.673 -1.1406 -0.1592  0.6374
 2979ntf    on517682   0.145  -0.344   6.516  0.1671 -0.0716 -0.5119
 2979ntf    fn417683  -0.028  -0.027   6.629  0.1402  0.0567  0.3488
 2979ntf    fn417684  -0.112  -0.183   6.527  0.3472 -0.3710 -0.0728
 2979ntf    fn417685  -0.046  -0.199   6.735  0.3520 -0.4095 -0.2263
 2980ntf    cn117686   1.018   5.653   6.898  0.2326  0.0459 -0.4056
 2980ntf    sn217687   0.860   5.656   6.808 -0.1463  0.0728  0.2558
 2980ntf    nn317688   0.911   5.663   6.660 -1.0932 -0.0397 -0.0840
 2980ntf    sn217689   0.923   5.800   6.584  0.1675  0.0372  0.2281
 2980ntf    cn117690   1.048   5.773   6.455 -0.1078  0.3189 -0.1022
 2980ntf    fn417691   1.086   5.766   6.882 -0.1793  0.3280 -0.1949
 2980ntf    fn417692   1.005   5.641   7.029  0.3491 -0.2046 -0.4175
 2980ntf    fn417693   1.095   5.553   6.857  0.1973 -0.2007  0.1276
 2980ntf    on517694   0.806   5.527   6.844 -0.4500  0.1081 -0.0689
 2980ntf    on517695   0.791   5.769   6.863 -0.0982  0.0534  0.3554
 2980ntf    on517696   0.992   5.902   6.659 -0.3422  0.7381 -0.2364
 2980ntf    on517697   0.806   5.832   6.505 -0.1163 -0.4181  0.4631
 2980ntf    fn417698   1.163   5.739   6.513 -0.1346  0.3206 -0.0486
 2980ntf    fn417699   1.029   5.676   6.367  0.0046  0.4140 -0.2335
 2980ntf    fn417700   1.073   5.883   6.386  0.2258  0.3928  0.1333
 2981ntf    cn117701   0.678   6.000   4.487 -0.1254  0.0744 -0.0141
 2981ntf    sn217702   0.652   6.130   4.362 -0.1572  0.1199  0.0400
 2981ntf    nn317703   0.501   6.101   4.329 -0.1913  0.4569 -0.0983
 2981ntf    sn217704   0.441   6.007   4.219  0.1343 -0.2499  0.3189
 2981ntf    cn117705   0.334   5.910   4.328  0.1515  0.0491  0.6055
 2981ntf    fn417706   0.604   5.893   4.466 -0.1748  0.0262  0.3978
 2981ntf    fn417707   0.804   5.959   4.493 -0.0969  0.1579 -0.0371
 2981ntf    fn417708   0.634   6.049   4.602  0.5326  0.3572  0.1234
 2981ntf    on517709   0.671   6.255   4.431 -0.6084  0.2930 -0.1469
 2981ntf    on517710   0.750   6.100   4.260 -0.0407  0.3906  0.0712
 2981ntf    on517711   0.521   5.908   4.152  0.1832 -0.0978  0.1487
 2981ntf    on517712   0.345   6.079   4.139  0.5350 -0.3950 -0.3072
 2981ntf    fn417713   0.266   5.818   4.261  0.7743  0.0704 -0.0661
 2981ntf    fn417714   0.398   5.835   4.416  0.8251  0.2511  0.2891
 2981ntf    fn417715   0.235   5.979   4.382 -0.3414  0.0216 -0.2343
 2982ntf    cn117716   1.405   6.658   4.337  0.0678  0.4993  0.2823
 2982ntf    sn217717   1.291   6.769   4.248 -0.2567 -0.1234 -0.0809
 2982ntf    nn317718   1.381   6.895   4.275 -0.2299 -0.1164 -0.2012
 2982ntf    sn217719   1.456   6.998   4.184 -0.1807  0.3224  0.3325
 2982ntf    cn117720   1.315   7.101   4.134 -0.3105 -0.0927 -0.1648
 2982ntf    fn417721   1.534   6.681   4.321  0.1169  0.1275  0.1347
 2982ntf    fn417722   1.398   6.675   4.468 -0.0093  0.3588  0.2966
 2982ntf    fn417723   1.381   6.530   4.315 -0.2620  0.5415  0.3850
 2982ntf    on517724   1.283   6.721   4.112 -0.2256 -0.3232 -0.0131
 2982ntf    on517725   1.169   6.783   4.323  0.1234  0.3031  0.4562
 2982ntf    on517726   1.514   6.948   4.061 -0.1483  0.4734  0.2854
 2982ntf    on517727   1.545   7.080   4.263  0.1723  0.1981  0.0659
 2982ntf    fn417728   1.278   7.168   4.242 -0.3252 -0.5090  0.0877
 2982ntf    fn417729   1.347   7.189   4.040  0.4090  0.2474  0.3986
 2982ntf    fn417730   1.205   7.042   4.089 -0.0615 -0.5618 -0.1640
 2983ntf    cn117731   5.482   1.742   5.020 -0.4051  0.2357 -0.1651
 2983ntf    sn217732   5.471   1.867   5.152 -0.1717  0.0022  0.0799
 2983ntf    nn317733   5.579   1.826   5.257 -0.3025 -0.0038  0.2122
 2983ntf    sn217734   5.557   1.763   5.399 -0.0892 -0.0188  0.2389
 2983ntf    cn117735   5.720   1.688   5.429 -0.0210 -0.1715 -0.4890
 2983ntf    fn417736   5.389   1.754   4.928  0.2820 -0.0370 -0.9070
 2983ntf    fn417737   5.598   1.737   4.957  0.1073  0.3065  0.7485
 2983ntf    fn417738   5.463   1.625   5.078 -0.0854  0.6378  0.7835
 2983ntf    on517739   5.518   1.987   5.087  0.5822 -0.0925  0.4493
 2983ntf    on517740   5.331   1.862   5.188 -0.2908  0.3974 -0.3106
 2983ntf    on517741   5.468   1.650   5.410 -0.0652 -0.0183  0.4358
 2983ntf    on517742   5.557   1.865   5.501  0.0267  0.5289 -0.3073
 2983ntf    fn417743   5.746   1.603   5.331 -0.3233 -0.4386 -0.3376
 2983ntf    fn417744   5.813   1.782   5.430  0.1197 -0.3082  0.0680
 2983ntf    fn417745   5.721   1.621   5.544 -0.1625  0.1967 -0.2728
 2984ntf    cn117746   1.125   0.481   6.439  0.2669 -0.1500  0.1508
 2984ntf    sn217747   1.217   0.623   6.373  0.1129 -0.1459 -0.0588
 2984ntf    nn317748   1.321   0.633   6.491  0.1151 -0.0376 -0.0703
 2984ntf    sn217749   1.350   0.742   6.600 -0.1073 -0.0016 -0.0479
 2984ntf    cn117750   1.531   0.739   6.602 -0.1061  0.0756 -0.0335
 2984ntf    fn417751   1.072   0.518   6.554 -0.1534  0.0209 -0.0918
 2984ntf    fn417752   1.023   0.449   6.360  0.4311  0.0590 -0.1495
 2984ntf    fn417753   1.195   0.370   6.457  0.8109  0.2382  0.4362
 2984ntf    on517754   1.285   0.572   6.256  0.2804 -0.0762  0.0065
 2984ntf    on517755   1.131   0.737   6.353 -0.2822 -0.3826  0.2947
 2984ntf    on517756   1.295   0.707   6.729  0.0557 -0.2742 -0.0544
 2984ntf    on517757   1.312   0.877   6.565 -0.1262 -0.0732 -0.3089
 2984ntf    fn417758   1.585   0.782   6.488  0.4990 -0.4759  0.0419
 2984ntf    fn417759   1.584   0.812   6.699  0.7970  0.1859 -0.5925
 2984ntf    fn417760   1.582   0.620   6.628  0.2350  0.2839  0.2635
 2985ntf    cn117761   2.491   0.964   6.888  0.1157 -0.0729  0.0836
 2985ntf    sn217762   2.373   0.890   7.005 -0.0208  0.1923  0.1143
 2985ntf    nn317763   2.293   0.799   6.905  0.2948 -0.0237  0.0573
 2985ntf    sn217764   2.216   0.668   6.942  0.0381  0.1475  0.1341
 2985ntf    cn117765   2.058   0.688   6.854  0.0407  0.1330  0.1259
 2985ntf    fn417766   2.440   1.067   6.822 -0.0355 -0.2719 -0.1156
 2985ntf    fn417767   2.609   0.995   6.939  0.2449 -0.6290  0.1293
 2985ntf    fn417768   2.520   0.877   6.793  0.4961  0.0416  0.0905
 2985ntf    on517769   2.456   0.827   7.105 -0.2565  0.0859  0.2426
 2985ntf    on517770   2.290   1.000   7.048 -0.6156 -0.0516 -0.3997
 2985ntf    on517771   2.173   0.653   7.079 -0.3293 -0.5402 -0.0500
 2985ntf    on517772   2.277   0.550   6.885 -0.2555 -0.0731  0.2743
 2985ntf    fn417773   2.076   0.680   6.723 -0.3084  0.2814  0.0696
 2985ntf    fn417774   1.976   0.590   6.889 -0.2881  0.4311  0.1909
 2985ntf    fn417775   1.995   0.801   6.881  0.1882  0.1771  0.2937
 2986ntf    cn117776   6.137   5.205   5.700 -0.0802 -0.1065  0.0993
 2986ntf    sn217777   5.995   5.151   5.600 -0.2174  0.0581  0.2050
 2986ntf    nn317778   5.948   5.290   5.544 -0.2388 -0.0631 -0.0815
 2986ntf    sn217779   5.836   5.376   5.611  0.2496  0.5578 -0.0531
 2986ntf    cn117780   5.711   5.327   5.488  0.0641  0.1306  0.3029
 2986ntf    fn417781   6.180   5.111   5.783  0.4902 -0.1339 -0.2236
 2986ntf    fn417782   6.239   5.248   5.628  0.1696  0.1729  0.6128
 2986ntf    fn417783   6.094   5.301   5.780 -0.4786  0.2361 -0.5142
 2986ntf    on517784   6.056   5.078   5.491  0.0133  0.3428  0.1427
 2986ntf    on517785   5.916   5.078   5.696 -0.7580  0.0517 -0.2443
 2986ntf    on517786   5.848   5.518   5.585  0.5419  0.5453  0.0103
 2986ntf    on517787   5.775   5.333   5.735 -0.1097  0.3560 -0.2968
 2986ntf    fn417788   5.666   5.208   5.522 -0.4491  0.1167 -0.4194
 2986ntf    fn417789   5.612   5.414   5.473 -0.3346 -0.2791  0.5492
 2986ntf    fn417790   5.751   5.313   5.363  0.3007 -0.1596  0.4105
 2987ntf    cn117791   1.772   4.156   6.684  0.2298  0.2678  0.0206
 2987ntf    sn217792   1.770   4.165   6.502  0.0031  0.1173  0.0139
 2987ntf    nn317793   1.925   4.175   6.482 -0.0091  0.3483  0.0334
 2987ntf    sn217794   2.032   4.060   6.470 -0.1438  0.2201  0.0683
 2987ntf    cn117795   2.057   4.044   6.291 -0.2297  0.1743  0.0601
 2987ntf    fn417796   1.794   4.275   6.736 -0.9898  0.2439  0.6365
 2987ntf    fn417797   1.657   4.116   6.736 -0.0489  1.1229  0.0780
 2987ntf    fn417798   1.863   4.069   6.724  0.1830  0.2449  0.0793
 2987ntf    on517799   1.711   4.042   6.456 -0.4559  0.3449 -0.0081
 2987ntf    on517800   1.702   4.289   6.472  0.2655  0.2502 -0.0398
 2987ntf    on517801   1.994   3.926   6.508  0.1395  0.0337 -0.3052
 2987ntf    on517802   2.163   4.099   6.515  0.0020 -0.3911  0.1795
 2987ntf    fn417803   2.151   3.956   6.260 -0.5548 -0.0888 -0.1922
 2987ntf    fn417804   1.947   4.018   6.221 -0.3396 -0.0458  0.3135
 2987ntf    fn417805   2.100   4.161   6.246 -0.1849  0.1395  0.0132
 2988ntf    cn117806   5.293   4.334   2.080 -0.6152  0.1477  0.1594
 2988ntf    sn217807   5.192   4.195   2.139 -0.1762 -0.3110 -0.1700
 2988ntf    nn317808   5.056   4.224   2.067 -0.2976  0.1917  0.2578
 2988ntf    sn217809   5.016   4.177   1.923  0.5944 -0.1640  0.1181
 2988ntf    cn117810   5.000   3.996   1.929  0.3170 -0.1346  0.2584
 2988ntf    fn417811   5.234   4.451   2.102  0.0297  0.3762  0.7090
 2988ntf    fn417812   5.413   4.339   2.136 -0.3532 -0.3422 -0.3558
 2988ntf    fn417813   5.323   4.325   1.952 -0.2019 -0.1421  0.2753
 2988ntf    on517814   5.265   4.078   2.096 -0.1717 -0.3163 -0.1488
 2988ntf    on517815   5.190   4.217   2.281 -0.1549 -0.7323 -0.1016
 2988ntf    on517816   5.111   4.205   1.818  0.1651 -0.2617 -0.3026
 2988ntf    on517817   4.884   4.222   1.887  0.4972  0.0497  0.7492
 2988ntf    fn417818   4.901   3.969   2.013 -0.1345 -0.2554 -0.2994
 2988ntf    fn417819   4.975   3.944   1.810 -0.1594  0.1624  0.2222
 2988ntf    fn417820   5.107   3.931   1.971  0.6148 -0.2049 -0.5785
 2989ntf    cn117821   4.291   5.942   5.268  0.0544 -0.1243 -0.0143
 2989ntf    sn217822   4.195   6.073   5.187 -0.1339 -0.2282  0.0399
 2989ntf    nn317823   4.307   6.183   5.176  0.3737 -0.7656 -0.2463
 2989ntf    sn217824   4.372   6.235   5.043 -0.1702  0.1195 -0.1793
 2989ntf    cn117825   4.284   6.393   5.030  0.0621  0.2846  0.2237
 2989ntf    fn417826   4.340   5.977   5.386  0.3558  0.0158 -0.1800
 2989ntf    fn417827   4.240   5.821   5.279 -0.1375 -0.0167  0.3362
 2989ntf    fn417828   4.396   5.917   5.192  0.1834 -0.1830  0.1834
 2989ntf    on517829   4.145   6.016   5.064  0.5641  0.1569 -0.4323
 2989ntf    on517830   4.098   6.114   5.286 -0.5184 -0.5191 -0.2141
 2989ntf    on517831   4.352   6.155   4.925 -0.1222  0.0043 -0.1098
 2989ntf    on517832   4.505   6.284   5.070 -0.3491  0.3681  0.2737
 2989ntf    fn417833   4.290   6.469   5.138  0.1514  0.2641  0.2334
 2989ntf    fn417834   4.316   6.470   4.928  0.0795  0.0612  0.0596
 2989ntf    fn417835   4.154   6.368   5.036  0.0580  0.2649  0.0514
 2990ntf    cn117836   1.495   2.874   4.551 -0.3722 -0.1201 -0.0776
 2990ntf    sn217837   1.318   2.915   4.548 -0.2961  0.2041 -0.2073
 2990ntf    nn317838   1.272   2.854   4.411  0.0831  0.0015 -0.2462
 2990ntf    sn217839   1.257   2.930   4.275  0.0001  0.0157 -0.2288
 2990ntf    cn117840   1.076   2.950   4.281 -0.1171 -1.1317  0.2648
 2990ntf    fn417841   1.521   2.744   4.551 -0.1433 -0.0739 -0.4472
 2990ntf    fn417842   1.545   2.927   4.441  0.7680 -0.5730  0.2053
 2990ntf    fn417843   1.560   2.925   4.655 -0.2751 -0.6338  0.1191
 2990ntf    on517844   1.270   2.841   4.663  0.3419  0.2053  0.0650
 2990ntf    on517845   1.294   3.057   4.557 -0.1390  0.1923  0.4835
 2990ntf    on517846   1.272   2.838   4.164 -0.3257  0.3547 -0.5568
 2990ntf    on517847   1.315   3.061   4.264 -0.1271  0.1278  0.3959
 2990ntf    fn417848   1.048   3.035   4.378  0.3910 -0.3796 -0.2372
 2990ntf    fn417849   1.024   3.008   4.174 -0.3680 -0.4073  0.7703
 2990ntf    fn417850   1.006   2.838   4.297 -0.6416 -0.8076  0.2531
 2991ntf    cn117851   4.744   5.635   0.789  0.7507  0.2515  0.1375
 2991ntf    sn217852   4.820   5.504   0.889  0.1004  0.0122  0.3260
 2991ntf    nn317853   4.808   5.390   0.782  0.3369  0.2669  0.0257
 2991ntf    sn217854   4.886   5.254   0.785 -0.2724 -0.0868  0.2012
 2991ntf    cn117855   4.761   5.135   0.840 -0.3838 -0.1233 -0.1275
 2991ntf    fn417856   4.822   5.665   0.687  0.2000  0.6768 -0.1688
 2991ntf    fn417857   4.625   5.600   0.742  0.6818  0.0901  0.4244
 2991ntf    fn417858   4.731   5.748   0.857 -0.5541  0.0798  0.2092
 2991ntf    on517859   4.954   5.549   0.917 -0.0361  0.3912  0.3869
 2991ntf    on517860   4.737   5.488   1.006  0.6826 -0.4698  0.6786
 2991ntf    on517861   4.988   5.228   0.884  0.0444  0.3428 -0.0052
 2991ntf    on517862   4.925   5.209   0.654 -0.1075 -0.9406  0.5396
 2991ntf    fn417863   4.675   5.111   0.743  0.0101 -0.0114 -0.5052
 2991ntf    fn417864   4.815   5.017   0.870  0.0484  0.0325 -0.2927
 2991ntf    fn417865   4.689   5.177   0.943  0.2879  0.2085  0.2132
 2992ntf    cn117866   6.350   1.788   6.090  0.1396 -0.1985 -0.1603
 2992ntf    sn217867   6.240   1.644   6.110  0.1068 -0.1017  0.3759
 2992ntf    nn317868   6.103   1.715   6.082 -0.0371 -0.4152  0.2827
 2992ntf    sn217869   6.033   1.811   6.185 -0.0745 -0.0619 -0.0712
 2992ntf    cn117870   5.911   1.693   6.250 -0.2710  0.1811  0.0045
 2992ntf    fn417871   6.474   1.760   6.123  0.0472 -0.2595  0.1345
 2992ntf    fn417872   6.348   1.838   5.967 -0.4519  0.6505  0.1881
 2992ntf    fn417873   6.318   1.880   6.179 -0.0535  0.1070 -0.5390
 2992ntf    on517874   6.284   1.567   5.996 -0.3363 -0.0974  0.1977
 2992ntf    on517875   6.263   1.584   6.239  0.3341 -0.1888  0.2947
 2992ntf    on517876   5.948   1.905   6.116 -0.5117 -0.4466 -0.0648
 2992ntf    on517877   6.109   1.865   6.294 -0.0511 -0.6090  0.1867
 2992ntf    fn417878   5.972   1.610   6.333 -0.3118 -0.2345 -0.3757
 2992ntf    fn417879   5.823   1.750   6.330 -0.3078  0.0687  0.0439
 2992ntf    fn417880   5.838   1.629   6.160  0.3706 -0.2600 -0.2088
 2993ntf    cn117881   6.870   5.985   2.643  0.1132 -0.3815  0.2559
 2993ntf    sn217882   6.892   5.987   2.463 -0.2254 -0.2938  0.2157
 2993ntf    nn317883   6.964   6.126   2.456  0.4097 -0.6094  0.3974
 2993ntf    sn217884   7.114   6.164   2.427  0.1290 -0.0268 -0.3318
 2993ntf    cn117885   7.161   6.194   2.600  0.2808  0.1573 -0.4042
 2993ntf    fn417886   6.795   6.084   2.687  0.0881 -0.0908 -0.4357
 2993ntf    fn417887   6.813   5.873   2.685 -0.2447 -0.2559  0.1100
 2993ntf    fn417888   6.991   5.998   2.696  0.3271 -0.5101 -0.1973
 2993ntf    on517889   6.972   5.869   2.441  0.3993  0.1786 -0.0869
 2993ntf    on517890   6.762   5.992   2.401 -0.0240  0.1090 -0.1784
 2993ntf    on517891   7.125   6.293   2.364  0.2515  0.2691  0.2864
 2993ntf    on517892   7.195   6.058   2.374  0.1720 -0.0343 -0.2507
 2993ntf    fn417893   7.236   6.301   2.616  0.1488  0.1526  0.2825
 2993ntf    fn417894   7.070   6.201   2.696  0.3863 -0.2616 -0.2721
 2993ntf    fn417895   7.237   6.095   2.644  0.2552  0.1832 -0.3003
 2994ntf    cn117896   2.696   4.894   6.500 -0.0913  0.1258  0.0568
 2994ntf    sn217897   2.869   4.948   6.495 -0.1194  0.2041 -0.0699
 2994ntf    nn317898   2.848   5.101   6.466  0.1047  0.3421  0.4776
 2994ntf    sn217899   2.934   5.197   6.376 -0.1470 -0.2107 -0.3651
 2994ntf    cn117900   2.800   5.288   6.293 -0.2335 -0.2504 -0.2701
 2994ntf    fn417901   2.684   4.768   6.541 -0.0884  0.1081  0.0040
 2994ntf    fn417902   2.618   4.961   6.583  0.1590  0.1691  0.2592
 2994ntf    fn417903   2.635   4.903   6.383  0.0097  0.2481  0.0142
 2994ntf    on517904   2.921   4.925   6.628  0.1692  0.6571 -0.1025
 2994ntf    on517905   2.919   4.866   6.387 -1.0243 -0.3725 -0.0618
 2994ntf    on517906   2.995   5.131   6.263  0.0049 -0.0845 -0.3564
 2994ntf    on517907   2.999   5.303   6.449  0.1143 -0.5675 -0.0732
 2994ntf    fn417908   2.849   5.390   6.225 -0.3021  0.3261  0.5292
 2994ntf    fn417909   2.734   5.207   6.212 -0.4653 -0.3479  0.0152
 2994ntf    fn417910   2.708   5.340   6.372  0.1051 -0.4598  0.2670
 2995ntf    cn117911   1.150   5.907   5.900 -0.0026  0.1975 -0.0147
 2995ntf    sn217912   1.115   6.047   6.011 -0.0621  0.1001  0.0886
 2995ntf    nn317913   1.199   6.007   6.138 -0.0064  0.0066  0.0221
 2995ntf    sn217914   1.351   6.030   6.170 -0.0446 -0.1397  0.3090
 2995ntf    cn117915   1.353   6.051   6.350 -0.4395 -0.0685  0.3054
 2995ntf    fn417916   1.072   5.803   5.926  0.7193 -0.3006  0.1716
 2995ntf    fn417917   1.133   5.940   5.773  0.2551  0.5422  0.0373
 2995ntf    fn417918   1.274   5.865   5.917 -0.0977 -0.1028 -0.0626
 2995ntf    on517919   1.150   6.168   5.942  0.2845  0.1573  0.3625
 2995ntf    on517920   0.975   6.023   6.037 -0.1569  0.6162  0.0615
 2995ntf    on517921   1.409   6.155   6.127 -0.6422  0.1166  0.2359
 2995ntf    on517922   1.432   5.914   6.143 -0.1756 -0.2309  0.3090
 2995ntf    fn417923   1.315   5.943   6.416 -0.0238 -0.1068  0.4868
 2995ntf    fn417924   1.476   6.076   6.391 -0.3374 -0.0804  0.0048
 2995ntf    fn417925   1.280   6.155   6.389  0.0643  0.4627 -0.1541
 2996ntf    cn117926   3.921   0.519   5.406  0.1258 -0.7070 -0.0860
 2996ntf    sn217927   4.044   0.642   5.456 -0.5388 -0.0905  0.0485
 2996ntf    nn317928   4.008   0.768   5.368 -0.3075 -0.3161 -0.3713
 2996ntf    sn217929   3.877   0.853   5.383  0.1014  0.2024  0.3307
 2996ntf    cn117930   3.941   0.986   5.489  0.2724  0.1558  0.2864
 2996ntf    fn417931   3.799   0.541   5.454  0.1453 -0.2531 -0.2418
 2996ntf    fn417932   3.911   0.508   5.275  0.3101  0.8148 -0.2437
 2996ntf    fn417933   3.957   0.400   5.451  0.3156 -0.5630  0.1457
 2996ntf    on517934   4.026   0.659   5.598  0.2357  0.3828  0.1000
 2996ntf    on517935   4.161   0.569   5.413 -0.3170  0.3539 -0.1128
 2996ntf    on517936   3.769   0.796   5.460 -0.0711  0.1529  0.0509
 2996ntf    on517937   3.847   0.926   5.263 -0.1550  0.0368  0.2936
 2996ntf    fn417938   3.865   1.094   5.477  0.4693  0.2414 -0.2520
 2996ntf    fn417939   3.957   0.958   5.617  0.1088 -0.0366  0.2633
 2996ntf    fn417940   4.062   1.025   5.450  0.3716 -0.4062  0.0148
 2997ntf    cn117941   5.460   5.540   2.972  0.2743  0.6645  0.0022
 2997ntf    sn217942   5.369   5.395   3.034  0.4704  0.4624 -0.1817
 2997ntf    nn317943   5.456   5.337   3.151  0.2143  0.5002  0.0285
 2997ntf    sn217944   5.411   5.302   3.297  0.1188 -0.1188 -0.1432
 2997ntf    cn117945   5.414   5.469   3.369  0.0462 -0.2363  0.1336
 2997ntf    fn417946   5.467   5.633   3.066  0.2422  0.2614  0.4024
 2997ntf    fn417947   5.583   5.504   2.939  0.0035  0.0116 -0.3210
 2997ntf    fn417948   5.397   5.592   2.867 -0.5169 -0.0814  0.1004
 2997ntf    on517949   5.245   5.451   3.082  0.1373 -0.4647  0.0566
 2997ntf    on517950   5.359   5.311   2.917 -0.0641  0.1804  0.0625
 2997ntf    on517951   5.516   5.229   3.363  0.1480 -0.3193 -0.4098
 2997ntf    on517952   5.273   5.261   3.311  0.0171  0.1864 -0.2388
 2997ntf    fn417953   5.536   5.522   3.372 -0.1127  0.1187  0.4378
 2997ntf    fn417954   5.342   5.564   3.313  0.2744  0.1048  0.4112
 2997ntf    fn417955   5.376   5.463   3.496 -0.0516 -0.1606  0.1076
 2998ntf    cn117956   2.914   4.409   1.516 -0.1694 -0.1872  0.2329
 2998ntf    sn217957   3.034   4.480   1.633  0.1738 -0.2366 -0.0876
 2998ntf    nn317958   2.989   4.408   1.764 -0.2642 -0.0824 -0.1520
 2998ntf    sn217959   3.040   4.275   1.830  0.0452  0.0290 -0.1665
 2998ntf    cn117960   3.194   4.334   1.908 -0.2042  0.0698  0.3018
 2998ntf    fn417961   2.945   4.283   1.488 -0.4674 -0.2106  0.0145
 2998ntf    fn417962   2.795   4.413   1.573 -0.0833 -0.1465  0.4100
 2998ntf    fn417963   2.895   4.475   1.403  0.1869  0.5720  0.6014
 2998ntf    on517964   3.165   4.449   1.581 -0.3055 -0.9662 -0.8923
 2998ntf    on517965   3.000   4.620   1.641  0.5446 -0.1630  0.2374
 2998ntf    on517966   3.081   4.176   1.734 -0.0490 -0.0071 -0.1692
 2998ntf    on517967   2.948   4.243   1.937 -0.4186 -0.0460 -0.5884
 2998ntf    fn417968   3.256   4.240   1.978 -0.7036 -0.9628 -0.5982
 2998ntf    fn417969   3.283   4.383   1.824 -0.2320 -0.0804  0.1830
 2998ntf    fn417970   3.168   4.434   1.989 -0.5125  0.0774  0.1973
 2999ntf    cn117971   2.610   5.154   4.143  0.0289 -0.1537  0.2459
 2999ntf    sn217972   2.731   5.028   4.195 -0.0755 -0.3489  0.0172
 2999ntf    nn317973   2.633   4.911   4.229  0.1501 -0.4893  0.1868
 2999ntf    sn217974   2.566   4.878   4.367  0.0930 -0.1443  0.2411
 2999ntf    cn117975   2.667   4.731   4.399  0.0148 -0.2449  0.0296
 2999ntf    fn417976   2.490   5.150   4.199  0.0219  0.6350  0.2956
 2999ntf    fn417977   2.656   5.277   4.154  0.0538 -0.1541  0.1462
 2999ntf    fn417978   2.580   5.135   4.016 -0.0699 -0.2896  0.2885
 2999ntf    on517979   2.812   5.004   4.078  0.4479  0.3085  0.2377
 2999ntf    on517980   2.807   5.087   4.303 -0.2673  0.6872 -0.3956
 2999ntf    on517981   2.430   4.832   4.358 -0.2842  0.9307  0.2908
 2999ntf    on517982   2.593   4.967   4.477  0.0625 -0.4229  0.4725
 2999ntf    fn417983   2.790   4.758   4.438  0.0390 -0.1116 -0.1409
 2999ntf    fn417984   2.613   4.655   4.494 -0.2762 -0.0255  0.0386
 2999ntf    fn417985   2.680   4.661   4.288 -0.1954 -0.8471  0.3773
 3000ntf    cn117986   1.357   3.505   6.034 -0.0411  0.1483  0.0149
 3000ntf    sn217987   1.445   3.353   5.985 -0.0973  0.0411  0.2487
 3000ntf    nn317988   1.341   3.297   5.881  0.3596 -0.2435 -0.0569
 3000ntf    sn217989   1.350   3.326   5.727  0.0252 -0.3825 -0.1030
 3000ntf    cn117990   1.186   3.279   5.665 -0.1262 -0.2637  0.2067
 3000ntf    fn417991   1.391   3.611   5.962  0.3461 -0.2412 -0.3910
 3000ntf    fn417992   1.226   3.491   6.025  0.0545 -0.7018 -0.1905
 3000ntf    fn417993   1.380   3.543   6.158 -0.5544  0.0710  0.1332
 3000ntf    on517994   1.574   3.400   5.941  0.0123 -0.8319 -0.3770
 3000ntf    on517995   1.451   3.278   6.108  0.1163  0.2106  0.3442
 3000ntf    on517996   1.432   3.226   5.663  0.4101 -0.0941 -0.0681
 3000ntf    on517997   1.362   3.464   5.690  0.3121 -0.4755 -0.3645
 3000ntf    fn417998   1.171   3.295   5.535  0.0188  0.0435  0.2262
 3000ntf    fn417999   1.170   3.152   5.697  0.3441 -0.1965  0.7255
 3000ntf    fn418000   1.086   3.340   5.728 -0.2803 -0.3295  0.0258
 3001ntf    cn118001   4.650   2.447   6.105 -0.1135 -0.2839 -0.2860
 3001ntf    sn218002   4.782   2.343   6.175  0.0101 -0.0366 -0.1499
 3001ntf    nn318003   4.897   2.450   6.172 -0.0467  0.0410  0.3379
 3001ntf    sn218004   5.039   2.434   6.236  0.0447 -0.0448  0.1125
 3001ntf    cn118005   5.139   2.416   6.084  0.3230 -0.1547  0.3081
 3001ntf    fn418006   4.677   2.491   5.983  0.2640  0.3524  0.0253
 3001ntf    fn418007   4.531   2.390   6.090 -0.0756 -0.3699 -0.2562
 3001ntf    fn418008   4.631   2.555   6.178  0.3360 -0.6022  0.3045
 3001ntf    on518009   4.729   2.309   6.305 -0.1425  0.2166 -0.1455
 3001ntf    on518010   4.801   2.242   6.074 -0.2147  0.0559 -0.2861
 3001ntf    on518011   5.068   2.312   6.308  0.1971 -0.2128 -0.2232
 3001ntf    on518012   5.090   2.558   6.288  0.3280 -0.0422 -0.1654
 3001ntf    fn418013   5.153   2.533   6.024 -0.2017 -0.2956 -0.0943
 3001ntf    fn418014   5.262   2.370   6.101  0.4335  0.1851  0.4302
 3001ntf    fn418015   5.086   2.341   5.989  0.2583 -0.3736  0.5151
 3002ntf    cn118016   1.920   2.992   0.901  0.0070  0.0520 -0.1910
 3002ntf    sn218017   1.747   3.009   0.955  0.0138 -0.3566 -0.0428
 3002ntf    nn318018   1.702   2.858   0.946 -0.1451 -0.3220  0.1777
 3002ntf    sn218019   1.655   2.768   1.065 -0.3541 -0.0302  0.3175
 3002ntf    cn118020   1.561   2.634   0.986  0.0502 -0.3315  0.3463
 3002ntf    fn418021   1.931   2.926   0.787 -0.1166 -0.2868 -0.0086
 3002ntf    fn418022   1.963   3.116   0.880  0.4296  0.0492  0.6450
 3002ntf    fn418023   1.999   2.939   0.993 -0.1184  0.1310 -0.0376
 3002ntf    on518024   1.771   3.072   1.082 -0.4040 -0.6546  0.1848
 3002ntf    on518025   1.692   3.094   0.852 -0.8188 -0.3850  0.3760
 3002ntf    on518026   1.553   2.828   1.148 -0.5037 -0.3619  0.3749
 3002ntf    on518027   1.763   2.708   1.139 -0.2289  0.5932  0.6442
 3002ntf    fn418028   1.463   2.691   0.917  0.6543 -0.1715 -0.3916
 3002ntf    fn418029   1.626   2.552   0.905 -0.1267 -0.5999  0.4741
 3002ntf    fn418030   1.496   2.564   1.078 -0.2844 -0.2529  0.1737
 3003ntf    cn118031   5.464   6.712   3.165  0.0800  0.0099  0.2139
 3003ntf    sn218032   5.629   6.638   3.188  0.0722 -0.0310  0.1387
 3003ntf    nn318033   5.695   6.718   3.305  0.1268 -0.0197  0.0999
 3003ntf    sn218034   5.761   6.861   3.295 -0.2084  0.1270 -0.0131
 3003ntf    cn118035   5.934   6.807   3.293 -0.2307  0.0580 -0.1134
 3003ntf    fn418036   5.471   6.839   3.126  0.2716  0.1078  0.5597
 3003ntf    fn418037   5.396   6.648   3.072  0.3325 -0.0122  0.0453
 3003ntf    fn418038   5.382   6.714   3.269  0.0059 -0.4101  0.1617
 3003ntf    on518039   5.604   6.501   3.223 -0.6908  0.0618 -0.0157
 3003ntf    on518040   5.689   6.658   3.058  0.2628  0.2046  0.2622
 3003ntf    on518041   5.754   6.936   3.417  0.0378  0.2550 -0.0789
 3003ntf    on518042   5.748   6.933   3.171  0.4852  0.1780 -0.0575
 3003ntf    fn418043   6.015   6.911   3.289  0.0311 -0.1550 -0.4945
 3003ntf    fn418044   5.969   6.753   3.408 -0.5941 -0.4335 -0.2277
 3003ntf    fn418045   5.964   6.724   3.194  0.0200  0.1483 -0.1136
 3004ntf    cn118046   5.600   2.414   4.845  0.0364 -0.2157 -0.0201
 3004ntf    sn218047   5.734   2.532   4.810 -0.3359  0.1873 -0.0870
 3004ntf    nn318048   5.687   2.580   4.668 -0.2624  0.1628 -0.1190
 3004ntf    sn218049   5.703   2.529   4.520  0.1252 -0.0572 -0.0018
 3004ntf    cn118050   5.851   2.620   4.467  0.0923  0.0534  0.0954
 3004ntf    fn418051   5.591   2.323   4.750  0.4371 -0.3225  0.0403
 3004ntf    fn418052   5.623   2.355   4.961  0.9038  0.1064 -0.0194
 3004ntf    fn418053   5.480   2.470   4.849  0.0571 -0.1890  0.2097
 3004ntf    on518054   5.708   2.633   4.910  0.3616  0.5050 -0.2183
 3004ntf    on518055   5.856   2.456   4.820 -0.6891 -0.3842 -0.1055
 3004ntf    on518056   5.603   2.580   4.431 -0.0575  0.4924  0.5052
 3004ntf    on518057   5.728   2.388   4.512  0.8034  0.0815 -0.4173
 3004ntf    fn418058   5.958   2.567   4.524 -0.0194 -0.6823 -0.3609
 3004ntf    fn418059   5.870   2.600   4.337  0.0841  0.1784  0.0747
 3004ntf    fn418060   5.859   2.750   4.492 -0.4470  0.0626  0.2169
 3005ntf    cn118061   0.088   1.351   5.103  0.2602 -0.3001 -0.3931
 3005ntf    sn218062   0.173   1.494   5.028  0.2402  0.1480  0.4317
 3005ntf    nn318063   0.089   1.519   4.898  0.6857 -0.5573  0.0032
 3005ntf    sn218064   0.117   1.607   4.772 -0.1330 -0.2140  0.0505
 3005ntf    cn118065  -0.032   1.708   4.746 -0.1730 -0.2773  0.0335
 3005ntf    fn418066   0.106   1.240   5.034  0.2451 -0.6792  0.2090
 3005ntf    fn418067   0.128   1.319   5.225  0.1289  0.4376 -0.1474
 3005ntf    fn418068  -0.042   1.372   5.117  0.2743 -0.4598 -0.0294
 3005ntf    on518069   0.155   1.604   5.120 -0.2417  0.4681 -0.0437
 3005ntf    on518070   0.302   1.435   5.005  0.0465 -0.1151  0.0033
 3005ntf    on518071   0.133   1.530   4.651  0.0534  0.9146 -0.6674
 3005ntf    on518072   0.218   1.709   4.789  0.1352 -0.4962  0.1662
 3005ntf    fn418073  -0.005   1.813   4.670 -0.2163  0.1594  0.6161
 3005ntf    fn418074  -0.132   1.637   4.695 -0.5041 -0.1888  0.5567
 3005ntf    fn418075  -0.082   1.762   4.856  0.5878 -0.0254  0.2610
 3006ntf    cn118076   2.321   1.195   1.068  0.1071  0.0816 -0.4387
 3006ntf    sn218077   2.251   1.203   1.235  0.2811  0.1057 -0.3668
 3006ntf    nn318078   2.350   1.111   1.315  0.0488  0.0866 -0.0951
 3006ntf    sn218079   2.479   1.154   1.394  0.1085 -0.5691  0.1686
 3006ntf    cn118080   2.562   0.995   1.423  0.0098 -0.6423  0.0529
 3006ntf    fn418081   2.242   1.247   0.976 -0.2485 -0.1520 -0.2657
 3006ntf    fn418082   2.447   1.234   1.053  0.2881 -0.2631  0.1320
 3006ntf    fn418083   2.343   1.067   1.042  0.2301  0.0865 -0.3600
 3006ntf    on518084   2.249   1.345   1.262 -0.5284  0.0536 -0.1189
 3006ntf    on518085   2.121   1.141   1.227  0.2563  0.0610  0.3160
 3006ntf    on518086   2.450   1.201   1.527 -0.0274 -0.0088 -0.0560
 3006ntf    on518087   2.579   1.229   1.322 -0.3639 -0.1844 -0.0967
 3006ntf    fn418088   2.572   0.922   1.313 -0.3076  0.0346 -0.4336
 3006ntf    fn418089   2.688   1.000   1.463 -0.1023 -0.2709  0.3641
 3006ntf    fn418090   2.495   0.927   1.515 -0.2277 -0.5452 -0.0497
 3007ntf    cn118091   5.207   2.184   4.284 -0.1644  0.0711 -0.2633
 3007ntf    sn218092   5.044   2.213   4.209 -0.3482  0.1034  0.1455
 3007ntf    nn318093   5.043   2.369   4.231  0.1031  0.1114  0.1269
 3007ntf    sn218094   5.087   2.487   4.137  0.1932  0.2081  0.2907
 3007ntf    cn118095   4.919   2.549   4.102  0.0962 -0.2363 -0.0406
 3007ntf    fn418096   5.267   2.077   4.234 -0.3627 -0.1378 -0.0557
 3007ntf    fn418097   5.291   2.284   4.264  0.1370  0.0360  0.7686
 3007ntf    fn418098   5.208   2.174   4.416  0.3798  0.3546 -0.2448
 3007ntf    on518099   5.043   2.170   4.071  0.1011  0.1716  0.1188
 3007ntf    on518100   4.956   2.141   4.297  0.0593 -0.2800  0.2411
 3007ntf    on518101   5.134   2.456   4.005 -0.2524  0.3089  0.1072
 3007ntf    on518102   5.150   2.595   4.208 -0.6396  0.7287  0.2571
 3007ntf    fn418103   4.854   2.588   4.210  0.2895 -0.1240  0.0365
 3007ntf    fn418104   4.918   2.651   4.018  0.1834 -0.2697 -0.0820
 3007ntf    fn418105   4.853   2.454   4.038 -0.1917 -0.1014  0.0528
 3008ntf    cn118106   2.696   0.358   0.555 -0.2113 -0.1572 -0.0888
 3008ntf    sn218107   2.766   0.525   0.535 -0.2928 -0.1061  0.0528
 3008ntf    nn318108   2.865   0.497   0.417 -0.4468  0.3126 -0.1777
 3008ntf    sn218109   2.919   0.599   0.310  0.0359  0.1429 -0.0983
 3008ntf    cn118110   2.784   0.596   0.188  0.1017 -0.1385 -0.1653
 3008ntf    fn418111   2.791   0.266   0.557 -0.3550 -0.3158 -0.5068
 3008ntf    fn418112   2.627   0.342   0.666  0.1451  0.8161  0.2887
 3008ntf    fn418113   2.619   0.324   0.454  0.0510 -0.3179 -0.2354
 3008ntf    on518114   2.648   0.607   0.519 -0.2673 -0.0273  0.2563
 3008ntf    on518115   2.828   0.539   0.665  0.2149 -0.0220 -0.1972
 3008ntf    on518116   3.037   0.559   0.238  0.1128  0.5457 -0.2005
 3008ntf    on518117   2.907   0.735   0.356 -0.0935  0.1801 -0.2400
 3008ntf    fn418118   2.756   0.473   0.149 -0.3943  0.0363 -0.3759
 3008ntf    fn418119   2.672   0.640   0.243  0.3791  0.5888 -0.1721
 3008ntf    fn418120   2.806   0.657   0.074  0.4585 -0.0796 -0.0651
 3009ntf    cn118121   2.943   4.963   0.416 -0.0783 -0.1854  0.0829
 3009ntf    sn218122   2.810   5.004   0.532  0.0296 -0.1915  0.2091
 3009ntf    nn318123   2.732   5.105   0.439 -0.2072 -0.2902  0.2988
 3009ntf    sn218124   2.754   5.260   0.428 -0.1134 -0.3489 -0.3675
 3009ntf    cn118125   2.694   5.320   0.589 -0.0160 -0.2623 -0.3640
 3009ntf    fn418126   3.048   4.896   0.460  0.0729  0.0626  0.1040
 3009ntf    fn418127   2.900   4.892   0.313 -0.0887  0.0911 -0.1066
 3009ntf    fn418128   2.989   5.071   0.354 -0.1851 -0.0285  0.2772
 3009ntf    on518129   2.725   4.888   0.535  0.0616 -0.2105  0.3852
 3009ntf    on518130   2.867   5.049   0.657  0.7620  0.3482 -0.3129
 3009ntf    on518131   2.660   5.321   0.338  0.0282  0.4107 -0.0073
 3009ntf    on518132   2.891   5.303   0.425 -0.0763 -0.4477 -0.1181
 3009ntf    fn418133   2.770   5.289   0.692 -0.1131  0.6526 -0.0045
 3009ntf    fn418134   2.661   5.448   0.596 -0.4690 -0.4307  0.6840
 3009ntf    fn418135   2.578   5.271   0.627  0.2494 -0.2919  0.4215
 3010ntf    cn118136   6.633   3.473   2.896  0.0509  0.1700 -0.1410
 3010ntf    sn218137   6.615   3.340   3.019 -0.0313  0.2003 -0.1203
 3010ntf    nn318138   6.738   3.361   3.114  0.0145  0.2025 -0.1802
 3010ntf    sn218139   6.814   3.250   3.194 -0.0645  0.1395 -0.1916
 3010ntf    cn118140   6.953   3.226   3.080  0.1733  0.1297  0.0980
 3010ntf    fn418141   6.753   3.470   2.841  0.4335  0.3511  0.6612
 3010ntf    fn418142   6.551   3.449   2.796  0.2942  0.3792 -0.3925
 3010ntf    fn418143   6.609   3.596   2.937  0.0841 -0.0564  0.5736
 3010ntf    on518144   6.487   3.373   3.076  0.0378 -0.6416  0.5521
 3010ntf    on518145   6.610   3.225   2.932 -0.2196  0.0484  0.0905
 3010ntf    on518146   6.751   3.121   3.208  0.1965  0.0734  0.4450
 3010ntf    on518147   6.882   3.304   3.310 -0.8343  0.1341  0.2725
 3010ntf    fn418148   7.011   3.334   3.029  0.0627  0.1518  0.0207
 3010ntf    fn418149   7.051   3.163   3.144 -0.4426 -0.0659  0.8506
 3010ntf    fn418150   6.925   3.146   2.978 -0.8690 -0.1992  0.6337
 3011ntf    cn118151   0.344   3.195   6.868  0.0040 -0.3971  0.2397
 3011ntf    sn218152   0.465   3.315   6.804 -0.5681  0.0930  0.0569
 3011ntf    nn318153   0.548   3.222   6.709  0.1433  0.6587  0.1159
 3011ntf    sn218154   0.690   3.242   6.644  0.2994 -0.0905  0.2083
 3011ntf    cn118155   0.654   3.339   6.495 -0.0212  0.0008  0.3435
 3011ntf    fn418156   0.283   3.246   6.975 -0.0651 -0.3107  0.1598
 3011ntf    fn418157   0.249   3.150   6.788  0.2376 -0.3975 -0.0367
 3011ntf    fn418158   0.417   3.090   6.902  0.2290 -0.2572  0.1900
 3011ntf    on518159   0.389   3.412   6.730 -0.7960  0.0556  0.2390
 3011ntf    on518160   0.529   3.358   6.926 -0.1852  0.3556 -0.2341
 3011ntf    on518161   0.745   3.121   6.590  0.2529 -0.1625  0.3223
 3011ntf    on518162   0.779   3.328   6.718  0.5050 -0.6249  0.5874
 3011ntf    fn418163   0.585   3.274   6.402 -0.0964  0.2505  0.2236
 3011ntf    fn418164   0.588   3.448   6.529  0.4511  0.2843  0.3575
 3011ntf    fn418165   0.761   3.393   6.439 -0.3639  0.0316 -0.3043
 3012ntf    cn118166   0.727   4.124   1.544 -0.1910  0.3173  0.1860
 3012ntf    sn218167   0.638   4.211   1.411 -0.0303 -0.2408 -0.2933
 3012ntf    nn318168   0.498   4.234   1.478 -0.0481 -0.1141 -0.3731
 3012ntf    sn218169   0.360   4.268   1.411 -0.2436 -0.0543  0.0632
 3012ntf    cn118170   0.258   4.133   1.480 -0.1830 -0.1882 -0.1096
 3012ntf    fn418171   0.842   4.073   1.502 -0.5373 -0.2289 -0.1200
 3012ntf    fn418172   0.767   4.205   1.640  0.0691  0.3991  0.0076
 3012ntf    fn418173   0.660   4.021   1.593  0.0075  0.0826 -0.0341
 3012ntf    on518174   0.704   4.340   1.406 -0.5633  0.0575  0.2358
 3012ntf    on518175   0.643   4.128   1.293  0.2008 -0.4893 -0.1095
 3012ntf    on518176   0.354   4.249   1.269  0.4972  0.1553  0.0014
 3012ntf    on518177   0.306   4.392   1.461 -0.4946 -0.0603 -0.1914
 3012ntf    fn418178   0.330   4.023   1.487  0.2318  0.0664 -0.3193
 3012ntf    fn418179   0.199   4.162   1.595  0.2048 -0.2641  0.1076
 3012ntf    fn418180   0.154   4.103   1.403 -0.4321 -0.8118  0.4606
 3013ntf    cn118181   5.906   5.795   2.411  0.1484 -0.3727 -0.0438
 3013ntf    sn218182   5.991   5.926   2.504 -0.2387 -0.1556  0.0071
 3013ntf    nn318183   6.063   5.834   2.610 -0.3763 -0.4559 -0.1605
 3013ntf    sn218184   6.045   5.824   2.765 -0.0848  0.1798 -0.0840
 3013ntf    cn118185   5.954   5.667   2.761 -0.4158  0.3622  0.2578
 3013ntf    fn418186   5.835   5.842   2.310 -0.0600 -0.0244  0.2632
 3013ntf    fn418187   5.993   5.710   2.359  0.2315 -0.1757 -0.2264
 3013ntf    fn418188   5.815   5.723   2.474 -0.3285 -0.1438 -0.4629
 3013ntf    on518189   6.087   5.979   2.411 -0.1616 -0.3865 -0.0456
 3013ntf    on518190   5.885   6.014   2.545 -0.0486  0.0244  0.1147
 3013ntf    on518191   5.946   5.911   2.823 -0.2480 -0.4416  0.5955
 3013ntf    on518192   6.169   5.799   2.836  0.0636  0.1330 -0.3594
 3013ntf    fn418193   5.831   5.680   2.713 -0.4902 -0.3415  0.2473
 3013ntf    fn418194   6.008   5.578   2.680  0.3449  0.4434  0.6651
 3013ntf    fn418195   5.943   5.598   2.874  0.1219  0.0711  0.1349
 3014ntf    cn118196   6.600   1.936   6.979  0.1116 -0.1425  0.1110
 3014ntf    sn218197   6.425   1.907   7.018  0.0562 -0.0964 -0.1046
 3014ntf    nn318198   6.376   2.047   6.965  0.3910  0.0562 -0.0147
 3014ntf    sn218199   6.328   2.174   7.044 -0.0850 -0.2031  0.1215
 3014ntf    cn118200   6.478   2.243   7.120 -0.2231  0.2994 -0.0569
 3014ntf    fn418201   6.608   1.964   6.850  0.0924  0.4332  0.2320
 3014ntf    fn418202   6.652   2.038   7.046 -0.1533 -0.1118  0.2727
 3014ntf    fn418203   6.678   1.831   6.999 -0.2449 -0.5288 -0.5151
 3014ntf    on518204   6.394   1.795   6.933  0.4096 -0.2383 -0.0482
 3014ntf    on518205   6.433   1.886   7.160 -0.0864 -0.0274 -0.0855
 3014ntf    on518206   6.248   2.152   7.161 -0.1986  0.1062  0.1034
 3014ntf    on518207   6.284   2.278   6.954  0.1452 -0.4098 -0.2351
 3014ntf    fn418208   6.543   2.158   7.197 -0.0018  0.2345 -0.3130
 3014ntf    fn418209   6.566   2.272   7.025  0.1060 -0.0488  0.1394
 3014ntf    fn418210   6.460   2.355   7.189  0.2272  0.4290 -0.1460
 3015ntf    cn118211   6.419   5.686   0.211  0.1735  0.4745 -0.2209
 3015ntf    sn218212   6.297   5.739   0.335  0.0450  0.0716 -0.1740
 3015ntf    nn318213   6.342   5.888   0.356  0.0871  0.0274  0.0542
 3015ntf    sn218214   6.264   6.018   0.313 -0.0167 -0.0471  0.0183
 3015ntf    cn118215   6.277   6.010   0.132 -0.2288  0.4224 -0.0165
 3015ntf    fn418216   6.406   5.749   0.095  0.1221  0.2509 -0.3372
 3015ntf    fn418217   6.544   5.701   0.251  0.1786 -0.2264  0.0306
 3015ntf    fn418218   6.414   5.557   0.183  0.1810  0.2423  0.8394
 3015ntf    on518219   6.175   5.721   0.260 -0.0623  0.5456 -0.1168
 3015ntf    on518220   6.325   5.662   0.453  0.0753  0.0082 -0.2227
 3015ntf    on518221   6.348   6.130   0.348 -0.4078  0.3722 -0.3725
 3015ntf    on518222   6.124   6.024   0.346 -0.0214  0.3127 -0.0714
 3015ntf    fn418223   6.401   6.005   0.087 -0.1481  0.0506  0.2505
 3015ntf    fn418224   6.220   5.900   0.086 -0.1099  0.1429  0.4937
 3015ntf    fn418225   6.225   6.114   0.067  0.1708  0.3611 -0.4387
 3016ntf    cn118226   5.046   0.377   2.949 -0.4684 -0.0694 -0.1863
 3016ntf    sn218227   5.086   0.488   2.811  0.0705  0.2622  0.2320
 3016ntf    nn318228   5.237   0.520   2.842  0.1019  0.1674  0.1816
 3016ntf    sn218229   5.306   0.660   2.865 -0.2138  0.3775 -0.1293
 3016ntf    cn118230   5.397   0.670   2.708  0.0095 -0.1007 -0.0316
 3016ntf    fn418231   5.065   0.453   3.056 -0.4305 -0.2406 -0.0710
 3016ntf    fn418232   4.924   0.327   2.954 -0.8498  0.8600  0.1370
 3016ntf    fn418233   5.129   0.274   2.956 -0.2269  0.1427  0.0902
 3016ntf    on518234   5.072   0.399   2.699  0.3065 -0.0755  0.4696
 3016ntf    on518235   4.988   0.594   2.815 -0.0962  0.1209 -0.1087
 3016ntf    on518236   5.408   0.645   2.966  0.1348  0.9409 -0.3962
 3016ntf    on518237   5.222   0.777   2.865 -0.4272  0.2284 -0.4924
 3016ntf    fn418238   5.309   0.680   2.610 -0.2531 -0.6109  0.1472
 3016ntf    fn418239   5.480   0.773   2.710 -0.1362  0.0185 -0.1767
 3016ntf    fn418240   5.465   0.559   2.682 -0.1144 -0.1163 -0.2841
 3017ntf    cn118241   3.684   2.832   3.937  0.3705 -0.1785 -0.3296
 3017ntf    sn218242   3.622   2.686   4.026  0.1680  0.1730  0.1092
 3017ntf    nn318243   3.515   2.636   3.924  0.2361 -0.3390  0.2850
 3017ntf    sn218244   3.485   2.495   3.862 -0.1340 -0.1436  0.0152
 3017ntf    cn118245   3.422   2.408   4.008  0.3150 -0.1248  0.2208
 3017ntf    fn418246   3.594   2.924   3.905  0.0605 -0.4683 -0.2997
 3017ntf    fn418247   3.771   2.898   4.011 -0.5741  0.2781  0.3844
 3017ntf    fn418248   3.738   2.801   3.820  0.4915 -0.0609 -0.3046
 3017ntf    on518249   3.740   2.603   4.039  0.0582 -0.1173 -0.6902
 3017ntf    on518250   3.562   2.736   4.147 -0.5075 -0.1239 -0.1015
 3017ntf    on518251   3.599   2.419   3.818 -0.3450 -0.5036  0.0746
 3017ntf    on518252   3.368   2.491   3.777 -0.0103 -0.0917 -0.1578
 3017ntf    fn418253   3.363   2.498   4.085 -0.1136 -0.0136 -0.2291
 3017ntf    fn418254   3.334   2.310   3.989  0.0419  0.1492  0.0609
 3017ntf    fn418255   3.525   2.354   4.071  0.0957 -0.8184 -0.0063
 3018ntf    cn118256   5.665   6.449   1.333 -0.5660 -0.0982 -0.0147
 3018ntf    sn218257   5.663   6.307   1.219  0.0752 -0.0986 -0.0287
 3018ntf    nn318258   5.685   6.368   1.076 -0.3889  0.0375 -0.0425
 3018ntf    sn218259   5.772   6.315   0.957  0.1817  0.1350  0.3270
 3018ntf    cn118260   5.929   6.407   0.957  0.2212  0.0707 -0.1133
 3018ntf    fn418261   5.547   6.509   1.333 -0.2486  0.5369 -0.2530
 3018ntf    fn418262   5.696   6.411   1.455  0.1980 -0.0102 -0.1779
 3018ntf    fn418263   5.761   6.532   1.295 -0.2555 -0.3714  0.1625
 3018ntf    on518264   5.764   6.214   1.263  0.0420 -0.1221 -0.0037
 3018ntf    on518265   5.524   6.269   1.228  0.0756 -0.0281  0.2833
 3018ntf    on518266   5.714   6.356   0.831 -0.3827 -0.7478  0.2946
 3018ntf    on518267   5.813   6.177   0.968  0.1724  0.1077  0.0220
 3018ntf    fn418268   6.000   6.394   1.068  0.0656 -0.1473 -0.0383
 3018ntf    fn418269   6.001   6.367   0.854  0.1697 -0.0791 -0.0921
 3018ntf    fn418270   5.908   6.537   0.939 -0.2887  0.0613  0.3842
 3019ntf    cn118271   1.656   0.107   5.123 -0.3488 -0.1193 -0.1001
 3019ntf    sn218272   1.580   0.084   4.960  0.0126  0.0430 -0.2932
 3019ntf    nn318273   1.655  -0.046   4.912 -0.2887 -0.1783 -0.1671
 3019ntf    sn218274   1.701  -0.076   4.765 -0.0485 -0.1280 -0.1029
 3019ntf    cn118275   1.700  -0.258   4.768 -0.2951 -0.1254  0.0770
 3019ntf    fn418276   1.789   0.103   5.125 -0.3449  0.0333 -0.0314
 3019ntf    fn418277   1.615   0.217   5.183 -0.1687 -0.0710 -0.0627
 3019ntf    fn418278   1.618   0.008   5.201  0.6758 -0.1726  0.3443
 3019ntf    on518279   1.443   0.055   4.995  0.2315  0.3636  0.8697
 3019ntf    on518280   1.608   0.212   4.898  0.3743  0.5255  0.8556
 3019ntf    on518281   1.838  -0.047   4.733 -0.0504  0.0898  0.0796
 3019ntf    on518282   1.602  -0.041   4.665  0.0091  0.2528 -0.0278
 3019ntf    fn418283   1.786  -0.306   4.856 -0.1576  0.2845  0.1715
 3019ntf    fn418284   1.579  -0.304   4.794 -0.2027 -0.2008  0.3718
 3019ntf    fn418285   1.739  -0.310   4.653 -0.6169  0.2418 -0.2040
 3020ntf    cn118286   1.942   0.697   2.897  0.1188  0.3618  0.0991
 3020ntf    sn218287   1.988   0.532   2.957 -0.1236  0.1063 -0.4153
 3020ntf    nn318288   1.925   0.538   3.100  0.4170 -0.0259 -0.1697
 3020ntf    sn218289   1.997   0.535   3.240 -0.2770  0.1507  0.1930
 3020ntf    cn118290   2.015   0.355   3.257 -0.3650  0.0968 -0.2741
 3020ntf    fn418291   1.995   0.723   2.779  0.0403 -0.3042 -0.0837
 3020ntf    fn418292   1.812   0.720   2.884  0.1308  0.1335 -0.4102
 3020ntf    fn418293   1.991   0.790   2.978 -0.3859  0.2187  0.5757
 3020ntf    on518294   1.924   0.434   2.872 -0.2347  0.0597 -0.2777
 3020ntf    on518295   2.132   0.542   2.952 -0.0709 -0.4884 -0.2069
 3020ntf    on518296   1.915   0.570   3.354 -0.0612  0.2441  0.3197
 3020ntf    on518297   2.133   0.581   3.241 -0.1211 -0.3090  0.3330
 3020ntf    fn418298   1.899   0.290   3.256 -0.3858  0.1354 -0.9501
 3020ntf    fn418299   2.092   0.298   3.166  0.1766  0.0739  0.1953
 3020ntf    fn418300   2.072   0.332   3.374 -0.4259 -0.5810 -0.3700
 3021ntf    cn118301   1.283   1.946   0.587  0.3899  0.1242  0.1144
 3021ntf    sn218302   1.440   2.021   0.535  0.2943  0.2455  0.0004
 3021ntf    nn318303   1.534   1.908   0.591  0.1725 -0.0674 -0.4210
 3021ntf    sn218304   1.690   1.891   0.591  0.1968  0.1392 -0.0930
 3021ntf    cn118305   1.713   1.835   0.762 -0.2052  0.0432 -0.0695
 3021ntf    fn418306   1.236   1.850   0.509  0.1739 -0.0182  0.4151
 3021ntf    fn418307   1.284   1.894   0.708 -0.5950 -0.7720 -0.2492
 3021ntf    fn418308   1.185   2.036   0.594  0.0391 -0.3143  1.0646
 3021ntf    on518309   1.423   2.022   0.391  0.0566  0.1007  0.0274
 3021ntf    on518310   1.439   2.140   0.616  0.3645 -0.0164  0.3862
 3021ntf    on518311   1.763   2.015   0.589 -0.8548  0.7686 -0.8655
 3021ntf    on518312   1.738   1.784   0.506 -0.1891 -0.1054 -0.0062
 3021ntf    fn418313   1.642   1.727   0.793  0.0108  0.1000  0.6385
 3021ntf    fn418314   1.835   1.810   0.806 -0.1260  0.1809 -0.2101
 3021ntf    fn418315   1.670   1.934   0.839  0.0189 -0.1274  0.2764
 3022ntf    cn118316   1.732   1.528   6.558  0.3554 -0.0127  0.1664
 3022ntf    sn218317   1.762   1.623   6.710  0.0354  0.1296  0.1433
 3022ntf    nn318318   1.621   1.618   6.778  0.0663  0.1631  0.2099
 3022ntf    sn218319   1.536   1.737   6.834 -0.3130 -0.1029  0.2053
 3022ntf    cn118320   1.435   1.772   6.687  0.0468 -0.4331 -0.1230
 3022ntf    fn418321   1.838   1.524   6.479 -0.1077 -0.4230 -0.4449
 3022ntf    fn418322   1.703   1.402   6.587  0.7030 -0.1099  0.0861
 3022ntf    fn418323   1.633   1.582   6.487  0.7419 -0.0388 -0.4000
 3022ntf    on518324   1.856   1.546   6.787  0.2508 -0.1563 -0.3997
 3022ntf    on518325   1.814   1.754   6.678 -0.0445  0.2545  0.5112
 3022ntf    on518326   1.599   1.863   6.866  0.1382 -0.2980  0.0899
 3022ntf    on518327   1.442   1.688   6.932 -0.2647 -0.3072  0.1500
 3022ntf    fn418328   1.505   1.769   6.575  0.1773  0.0352 -0.0568
 3022ntf    fn418329   1.334   1.688   6.672  0.4092 -0.8126 -0.4476
 3022ntf    fn418330   1.380   1.893   6.692  0.3272 -0.3166  0.1497
 3023ntf    cn118331   5.792   3.045   3.368  0.1329 -0.2608  0.5397
 3023ntf    sn218332   5.676   3.174   3.423 -0.1762 -0.1878 -0.2650
 3023ntf    nn318333   5.763   3.217   3.546 -0.3146 -0.3587 -0.1083
 3023ntf    sn218334   5.727   3.212   3.699  0.1118 -0.2396 -0.0029
 3023ntf    cn118335   5.713   3.391   3.728  0.1522 -0.2183 -0.1158
 3023ntf    fn418336   5.731   2.957   3.289 -0.3634  0.7206 -0.1873
 3023ntf    fn418337   5.896   3.093   3.303 -0.3594  0.1171  0.0182
 3023ntf    fn418338   5.823   2.976   3.477 -0.0887 -1.1362  0.0644
 3023ntf    on518339   5.674   3.264   3.310  0.8677 -0.0247 -0.1662
 3023ntf    on518340   5.556   3.102   3.455  0.1643 -0.5931  0.1130
 3023ntf    on518341   5.835   3.187   3.791  0.4069 -0.4715 -0.4098
 3023ntf    on518342   5.593   3.177   3.736  0.1214 -0.3774 -0.0989
 3023ntf    fn418343   5.693   3.414   3.856 -0.1975 -0.3289 -0.1493
 3023ntf    fn418344   5.818   3.461   3.688  0.0294  0.2825  0.4303
 3023ntf    fn418345   5.605   3.440   3.668  0.1860 -0.4012 -0.3306
 3024ntf    cn118346   1.922   2.254   1.508 -0.0762  0.0701  0.3964
 3024ntf    sn218347   2.077   2.292   1.422 -0.1565 -0.3331  0.0741
 3024ntf    nn318348   2.170   2.327   1.543 -0.1944 -0.0607  0.0242
 3024ntf    sn218349   2.192   2.464   1.617  0.4263 -0.1868  0.0839
 3024ntf    cn118350   2.325   2.533   1.515  0.0798  0.3191 -0.0310
 3024ntf    fn418351   1.822   2.224   1.426 -0.0457 -0.3306  0.5064
 3024ntf    fn418352   1.931   2.163   1.603 -0.0705 -0.0392  0.2903
 3024ntf    fn418353   1.886   2.362   1.575 -0.5446  0.2005 -0.0534
 3024ntf    on518354   2.119   2.173   1.351  0.2833 -0.2983  0.2706
 3024ntf    on518355   2.034   2.405   1.344  0.1582 -0.0978  0.2387
 3024ntf    on518356   2.247   2.448   1.749  0.4983  0.0711  0.0854
 3024ntf    on518357   2.086   2.560   1.597 -0.0275 -0.6460  0.2423
 3024ntf    fn418358   2.438   2.464   1.525  0.1943  0.4926 -0.1189
 3024ntf    fn418359   2.297   2.538   1.386  0.0668  0.3196 -0.0284
 3024ntf    fn418360   2.352   2.654   1.561 -0.0408  0.3653 -0.0822
 3025ntf    cn118361   1.063   4.184   4.451  0.1168  0.0338  0.2554
 3025ntf    sn218362   1.088   4.025   4.535  0.2472 -0.1491 -0.1259
 3025ntf    nn318363   0.948   3.957   4.510  0.1178 -0.0533  0.3317
 3025ntf    sn218364   0.898   3.867   4.391  0.4897  0.1178  0.0435
 3025ntf    cn118365   0.725   3.917   4.372  0.3661 -0.1816  0.3720
 3025ntf    fn418366   1.053   4.170   4.319  0.1370 -0.0721  0.2649
 3025ntf    fn418367   0.947   4.233   4.489 -0.0714 -0.0410 -0.2132
 3025ntf    fn418368   1.161   4.271   4.474  0.0745  0.0645  0.3213
 3025ntf    on518369   1.206   3.972   4.471  0.1316 -0.3271 -0.1948
 3025ntf    on518370   1.105   4.063   4.673  0.0379 -0.2171 -0.0806
 3025ntf    on518371   0.875   3.728   4.424  0.4477  0.0987 -0.0683
 3025ntf    on518372   0.965   3.904   4.269  0.5941 -0.2325 -0.0058
 3025ntf    fn418373   0.665   3.855   4.272 -0.1806  0.3049  0.3865
 3025ntf    fn418374   0.645   3.888   4.474 -0.3881 -0.1872 -0.2095
 3025ntf    fn418375   0.714   4.047   4.349  0.0505 -0.2882 -0.0869
 3026ntf    cn118376   5.158   2.444   0.976  0.0737 -0.0220 -0.1982
 3026ntf    sn218377   5.148   2.263   0.963  0.0497 -0.0370  0.0236
 3026ntf    nn318378   5.118   2.251   0.809  0.3451 -0.1111 -0.0290
 3026ntf    sn218379   5.184   2.162   0.698  0.1618  0.1466 -0.3448
 3026ntf    cn118380   5.258   2.293   0.595  0.1836  0.3048 -0.1263
 3026ntf    fn418381   5.254   2.496   0.902 -0.0760  0.0954 -0.3127
 3026ntf    fn418382   5.048   2.503   0.932 -0.1170 -0.3200 -0.1272
 3026ntf    fn418383   5.177   2.488   1.099  0.0305 -0.2121 -0.1224
 3026ntf    on518384   5.279   2.226   1.010 -0.1071  0.1128  0.5889
 3026ntf    on518385   5.036   2.235   1.049  0.0554  0.0993  0.0754
 3026ntf    on518386   5.082   2.101   0.617  0.2131  0.4417 -0.6334
 3026ntf    on518387   5.307   2.096   0.734  0.1102  0.3441  0.1922
 3026ntf    fn418388   5.356   2.362   0.652  0.1744  0.2750 -0.0734
 3026ntf    fn418389   5.305   2.242   0.483 -0.2201 -0.3235 -0.0148
 3026ntf    fn418390   5.165   2.379   0.557 -0.0331  0.1388  0.0213
 3027ntf    cn118391   1.312   0.269   3.615  0.0866 -0.2031  0.4487
 3027ntf    sn218392   1.320   0.294   3.435 -0.2331 -0.0787  0.4523
 3027ntf    nn318393   1.214   0.192   3.380 -0.1263 -0.0167  0.1272
 3027ntf    sn218394   1.059   0.215   3.369 -0.1395 -0.1417  0.0460
 3027ntf    cn118395   1.041   0.273   3.198  0.1342 -0.4173 -0.0776
 3027ntf    fn418396   1.324   0.141   3.646  0.8038 -0.2868 -0.1480
 3027ntf    fn418397   1.409   0.334   3.678  0.0968  0.3503 -0.1233
 3027ntf    fn418398   1.198   0.308   3.670  0.2413  0.6792  0.1668
 3027ntf    on518399   1.292   0.434   3.414 -0.3151 -0.1080  0.3639
 3027ntf    on518400   1.454   0.259   3.397 -0.4204 -0.3652  0.0563
 3027ntf    on518401   1.005   0.320   3.453 -0.0378  0.2011 -0.3114
 3027ntf    on518402   0.988   0.090   3.373  0.2752 -0.3701  0.2857
 3027ntf    fn418403   1.082   0.188   3.106  0.2508  0.1583 -0.5640
 3027ntf    fn418404   0.917   0.308   3.166  0.1066 -0.2829  0.1743
 3027ntf    fn418405   1.109   0.383   3.167 -0.1905 -0.3445 -0.5507
 3028ntf    cn118406   1.952   6.177   0.499  0.0425  0.1606  0.1885
 3028ntf    sn218407   1.777   6.135   0.475  0.1485 -0.0201 -0.2970
 3028ntf    nn318408   1.799   5.980   0.463 -0.0390 -0.0733  0.0211
 3028ntf    sn218409   1.766   5.880   0.346  0.1173  0.2146 -0.2713
 3028ntf    cn118410   1.933   5.847   0.282  0.1309 -0.2179 -0.0168
 3028ntf    fn418411   2.008   6.112   0.600  0.4090 -0.0606 -0.1477
 3028ntf    fn418412   2.024   6.156   0.389  0.0813  0.3694  0.1736
 3028ntf    fn418413   1.962   6.308   0.510 -0.1225  0.1683  0.2417
 3028ntf    on518414   1.712   6.186   0.594 -0.1914  0.1418 -0.5512
 3028ntf    on518415   1.755   6.198   0.347 -0.0346  0.2543 -0.1313
 3028ntf    on518416   1.696   5.935   0.233 -0.4561  0.3421  0.1388
 3028ntf    on518417   1.722   5.755   0.403  0.1261  0.5820  0.5620
 3028ntf    fn418418   1.995   5.957   0.244 -0.1349 -0.0147  0.1371
 3028ntf    fn418419   2.010   5.796   0.377 -0.1068 -0.5838 -0.0174
 3028ntf    fn418420   1.934   5.760   0.182 -0.6421 -0.4191  0.1393
 3029ntf    cn118421   4.871   1.646   5.831  0.1743  0.1773  0.1579
 3029ntf    sn218422   4.711   1.595   5.901  0.0592  0.2897 -0.0235
 3029ntf    nn318423   4.710   1.442   5.866 -0.0652  0.3071 -0.0986
 3029ntf    sn218424   4.671   1.373   5.730  0.1774  0.0842 -0.0565
 3029ntf    cn118425   4.820   1.274   5.696  0.0133 -0.2244  0.1176
 3029ntf    fn418426   4.970   1.612   5.912 -0.1770  0.3329  0.6624
 3029ntf    fn418427   4.893   1.592   5.713 -0.1366 -0.0705  0.2124
 3029ntf    fn418428   4.883   1.778   5.820  0.3367  0.1328 -0.2054
 3029ntf    on518429   4.725   1.607   6.044 -0.1364 -0.1515  0.0352
 3029ntf    on518430   4.621   1.678   5.824 -0.3427 -0.2734 -0.1681
 3029ntf    on518431   4.656   1.451   5.610  0.1082 -0.1395 -0.1943
 3029ntf    on518432   4.567   1.275   5.750 -0.0684  0.2634 -0.4552
 3029ntf    fn418433   4.841   1.173   5.779 -0.3384 -0.2463  0.1837
 3029ntf    fn418434   4.814   1.208   5.581 -0.0944 -0.2020  0.1100
 3029ntf    fn418435   4.927   1.351   5.693 -0.0061 -0.1907  0.2771
 3030ntf    cn118436   5.658   6.652   4.423  0.1718 -0.1286  0.0939
 3030ntf    sn218437   5.709   6.791   4.528 -0.1962  0.0498  0.0374
 3030ntf    nn318438   5.593   6.890   4.492 -0.1713 -0.0099 -0.2057
 3030ntf    sn218439   5.544   7.010   4.580  0.3342 -0.1528  0.2716
 3030ntf    cn118440   5.446   7.111   4.465  0.2067 -0.2186  0.3226
 3030ntf    fn418441   5.746   6.558   4.395  0.2375  0.1171 -0.5371
 3030ntf    fn418442   5.551   6.595   4.477  0.1499 -0.4832 -0.3205
 3030ntf    fn418443   5.617   6.692   4.304  0.0764  0.2563  0.2553
 3030ntf    on518444   5.713   6.742   4.664 -0.1461 -0.0284  0.0081
 3030ntf    on518445   5.838   6.831   4.478 -0.0386 -0.7276 -0.1899
 3030ntf    on518446   5.640   7.107   4.627 -0.0590  0.2608  0.2264
 3030ntf    on518447   5.441   6.967   4.672  0.6026 -0.1737  0.5629
 3030ntf    fn418448   5.396   7.218   4.525  0.3605  0.1998 -0.2921
 3030ntf    fn418449   5.517   7.153   4.362 -0.2441 -0.1627  0.0307
 3030ntf    fn418450   5.345   7.049   4.406 -0.0951  0.2333  0.3535
 3031ntf    cn118451   1.125   6.606   3.060  0.0625 -0.0475 -0.1090
 3031ntf    sn218452   1.300   6.559   3.080 -0.0257 -0.1458  0.4626
 3031ntf    nn318453   1.307   6.434   2.986  0.0812  0.1120  0.1252
 3031ntf    sn218454   1.391   6.302   3.003 -0.0925 -0.0443 -0.2016
 3031ntf    cn118455   1.498   6.310   2.856  0.0990  0.7295 -0.0272
 3031ntf    fn418456   1.046   6.514   3.113  0.2038 -0.1575 -0.0893
 3031ntf    fn418457   1.088   6.721   3.116  0.4222  0.0280 -0.0212
 3031ntf    fn418458   1.086   6.617   2.935 -0.3532 -0.9604 -0.0645
 3031ntf    on518459   1.378   6.670   3.030 -0.1722 -0.4354 -0.4309
 3031ntf    on518460   1.317   6.535   3.221 -0.4400  0.4475  0.6175
 3031ntf    on518461   1.318   6.179   2.988 -0.2528 -0.0137  0.3040
 3031ntf    on518462   1.488   6.297   3.110  0.1598  0.2275 -0.4169
 3031ntf    fn418463   1.518   6.434   2.816  0.1153  0.7103 -0.0788
 3031ntf    fn418464   1.612   6.244   2.863 -0.2296  0.1516 -0.0339
 3031ntf    fn418465   1.432   6.249   2.759  0.3243 -0.1143  0.3393
 3032ntf    cn118466   5.385   1.558   5.970 -0.4505  0.1110 -0.0505
 3032ntf    sn218467   5.497   1.433   5.900 -0.4234  0.1552 -0.0875
 3032ntf    nn318468   5.431   1.299   5.948 -0.1088 -0.0873 -0.3179
 3032ntf    sn218469   5.399   1.168   5.868 -0.1102 -0.2502 -0.0523
 3032ntf    cn118470   5.507   1.052   5.957 -0.0537 -0.0285  0.1703
 3032ntf    fn418471   5.374   1.544   6.101  0.2657 -0.1053 -0.0063
 3032ntf    fn418472   5.425   1.683   5.950  0.1082 -0.0767 -0.1518
 3032ntf    fn418473   5.266   1.546   5.914 -0.2472  0.0023 -0.4663
 3032ntf    on518474   5.494   1.450   5.757  0.0798  0.2549 -0.0885
 3032ntf    on518475   5.627   1.454   5.958 -0.0085 -0.2859 -0.8385
 3032ntf    on518476   5.442   1.162   5.731 -0.0314 -0.1811 -0.0303
 3032ntf    on518477   5.270   1.116   5.907  0.0191 -0.0569  0.6568
 3032ntf    fn418478   5.485   1.056   6.087  0.1072 -0.1719  0.2025
 3032ntf    fn418479   5.490   0.924   5.929  0.3541  0.0519 -0.4602
 3032ntf    fn418480   5.634   1.082   5.934 -0.1302  0.1588 -0.0136
 3033ntf    cn118481   1.983   1.215   2.455 -0.4774  0.1879  0.0143
 3033ntf    sn218482   2.009   1.340   2.326 -0.0172  0.0968  0.0150
 3033ntf    nn318483   1.994   1.262   2.190  0.2315 -0.3402  0.2371
 3033ntf    sn218484   2.107   1.203   2.098  0.1661 -0.0343 -0.0405
 3033ntf    cn118485   1.993   1.118   1.985 -0.0598  0.2853 -0.0528
 3033ntf    fn418486   2.034   1.099   2.416  0.5090  0.7592 -0.4304
 3033ntf    fn418487   2.044   1.253   2.566  0.6445 -0.3910 -0.3890
 3033ntf    fn418488   1.856   1.202   2.486 -0.4408  0.3136  0.2182
 3033ntf    on518489   1.889   1.414   2.355  0.0457  0.4414 -0.5702
 3033ntf    on518490   2.136   1.398   2.360 -0.2172  0.5833 -0.0573
 3033ntf    on518491   2.186   1.098   2.158  0.2011  0.0362  0.0380
 3033ntf    on518492   2.175   1.297   2.012  0.4723 -0.0809  0.1485
 3033ntf    fn418493   1.924   1.021   2.042  0.2417 -0.1476 -0.4219
 3033ntf    fn418494   1.909   1.204   1.929 -0.1395  0.4498  0.3147
 3033ntf    fn418495   2.042   1.048   1.884 -0.5728  0.2558 -0.2855
 3034ntf    cn118496   3.097   6.953   4.093 -0.0684  0.1437  0.2695
 3034ntf    sn218497   3.026   6.886   4.246  0.1180 -0.1292  0.2374
 3034ntf    nn318498   2.894   6.969   4.266  0.1670 -0.0066  0.0495
 3034ntf    sn218499   2.775   6.985   4.165  0.1589 -0.3742  0.0011
 3034ntf    cn118500   2.674   6.842   4.216  0.1975 -0.3698  0.0893
 3034ntf    fn418501   3.228   6.935   4.084 -0.0940  0.0779  0.0180
 3034ntf    fn418502   3.042   6.908   3.981  0.1055 -0.0126  0.2469
 3034ntf    fn418503   3.071   7.083   4.092 -0.0953  0.1386 -0.0224
 3034ntf    on518504   3.002   6.745   4.225 -0.6675  0.0055  0.1741
 3034ntf    on518505   3.132   6.918   4.337  0.0755  0.2715  0.1485
 3034ntf    on518506   2.803   6.963   4.025 -0.6225  0.2170 -0.2540
 3034ntf    on518507   2.694   7.097   4.206  0.1038 -0.2891 -0.3370
 3034ntf    fn418508   2.734   6.731   4.177  0.4947 -0.1913  0.0281
 3034ntf    fn418509   2.668   6.835   4.348  0.0960  0.3442  0.1293
 3034ntf    fn418510   2.552   6.828   4.168  0.0822 -0.0009  0.2732
 3035ntf    cn118511   3.081   4.378   4.863 -0.2131 -0.4530  0.2359
 3035ntf    sn218512   3.190   4.511   4.921 -0.3107 -0.3183  0.1139
 3035ntf    nn318513   3.262   4.538   4.784 -0.2793  0.3576  0.2570
 3035ntf    sn218514   3.254   4.670   4.700  0.0217  0.1828 -0.0530
 3035ntf    cn118515   3.348   4.779   4.810  0.2794 -0.0255 -0.0669
 3035ntf    fn418516   2.999   4.418   4.766 -0.0880 -0.0349  0.3008
 3035ntf    fn418517   3.142   4.275   4.806 -0.2583  0.1221 -0.8947
 3035ntf    fn418518   3.007   4.331   4.961 -0.5269  0.2691  0.3530
 3035ntf    on518519   3.106   4.618   4.969 -0.1935 -0.0645 -0.2376
 3035ntf    on518520   3.276   4.444   5.015  0.4917  0.1445 -0.2750
 3035ntf    on518521   3.121   4.726   4.698  0.1126  0.3950 -0.2691
 3035ntf    on518522   3.329   4.666   4.577  0.1583  0.6455  0.0124
 3035ntf    fn418523   3.457   4.717   4.853 -0.1588 -0.5934  0.2403
 3035ntf    fn418524   3.392   4.888   4.749  0.3642  0.1029  0.2211
 3035ntf    fn418525   3.287   4.822   4.919  0.1488  0.4186 -0.3122
 3036ntf    cn118526   2.266   0.034   3.756 -0.1460  0.1113 -0.0416
 3036ntf    sn218527   2.195   0.043   3.588 -0.0266 -0.1471 -0.1058
 3036ntf    nn318528   2.296  -0.043   3.503  0.2096  0.1509 -0.1306
 3036ntf    sn218529   2.252  -0.161   3.410 -0.1549  0.2860 -0.1327
 3036ntf    cn118530   2.154  -0.074   3.284  0.0675 -0.1995 -0.6487
 3036ntf    fn418531   2.398   0.037   3.759 -0.1223 -0.3694 -0.4833
 3036ntf    fn418532   2.210   0.123   3.836  0.3788  0.0505  0.3935
 3036ntf    fn418533   2.228  -0.082   3.807  0.2916  0.3120  0.7582
 3036ntf    on518534   2.061  -0.008   3.601 -0.1107  0.1140  0.0647
 3036ntf    on518535   2.198   0.182   3.552  0.2391 -0.1472 -0.0857
 3036ntf    on518536   2.165  -0.260   3.469  0.1667 -0.1640 -0.3997
 3036ntf    on518537   2.366  -0.214   3.340 -0.0984 -0.2051  0.3188
 3036ntf    fn418538   2.116  -0.149   3.183 -0.3414 -0.2052 -0.4953
 3036ntf    fn418539   2.043  -0.028   3.340  0.3238 -0.1839 -0.1412
 3036ntf    fn418540   2.220   0.033   3.243 -0.0332  0.3324  0.5219
 3037ntf    cn118541   5.997   6.832   1.893  0.2095 -0.1421 -0.1859
 3037ntf    sn218542   6.165   6.822   1.962  0.0987  0.2072  0.1353
 3037ntf    nn318543   6.136   6.712   2.071 -0.0712  0.2242  0.1077
 3037ntf    sn218544   6.227   6.673   2.192  0.0329  0.0804 -0.0178
 3037ntf    cn118545   6.331   6.551   2.106  0.4027  0.2924  0.1237
 3037ntf    fn418546   5.985   6.748   1.791 -0.4702  0.1451 -0.3511
 3037ntf    fn418547   5.906   6.798   1.983 -0.6187  0.6084 -0.7174
 3037ntf    fn418548   5.955   6.950   1.850  0.1085 -0.1312 -0.0568
 3037ntf    on518549   6.238   6.770   1.849  0.2320 -0.0486  0.3379
 3037ntf    on518550   6.179   6.956   2.012  0.4183  0.2779 -0.1454
 3037ntf    on518551   6.148   6.600   2.288 -0.3838  0.4607 -0.0716
 3037ntf    on518552   6.318   6.772   2.243  0.1332  0.1712 -0.3701
 3037ntf    fn418553   6.249   6.463   2.051  0.2544  0.0986  0.6442
 3037ntf    fn418554   6.405   6.614   2.017  0.6434  0.3144  0.3383
 3037ntf    fn418555   6.421   6.494   2.185  0.1400  0.0670  0.2668
 3038ntf    cn118556   3.022   5.723   6.165 -0.3584  0.0720  0.0934
 3038ntf    sn218557   2.956   5.850   6.278 -0.1772 -0.0771  0.3695
 3038ntf    nn318558   3.072   5.954   6.260 -0.0051 -0.2567  0.4401
 3038ntf    sn218559   3.202   5.982   6.344  0.0309 -0.0508  0.3171
 3038ntf    cn118560   3.141   6.121   6.445  0.0147  0.2128 -0.0535
 3038ntf    fn418561   3.011   5.756   6.038  0.7081 -0.1853 -0.0726
 3038ntf    fn418562   3.150   5.697   6.185 -0.2894  0.1601 -0.2264
 3038ntf    fn418563   2.959   5.607   6.167  0.0942 -0.1775  0.0313
 3038ntf    on518564   2.828   5.891   6.226  0.2494  0.7496 -0.0505
 3038ntf    on518565   2.947   5.785   6.406 -0.2484 -0.2212  0.2922
 3038ntf    on518566   3.313   6.036   6.271  0.1296  0.1450  0.6085
 3038ntf    on518567   3.235   5.882   6.443 -0.4468  0.1787  0.7159
 3038ntf    fn418568   3.071   6.075   6.548  0.1763 -0.4735 -0.2450
 3038ntf    fn418569   3.236   6.201   6.489 -0.3144  0.4854  0.1641
 3038ntf    fn418570   3.061   6.203   6.379  0.2677  0.1891 -0.3933
 3039ntf    cn118571   2.922   5.056   2.161  0.1716 -0.1664  0.0961
 3039ntf    sn218572   2.849   4.973   2.305 -0.1364  0.1430  0.1181
 3039ntf    nn318573   2.983   4.938   2.378  0.1223  0.1600 -0.3440
 3039ntf    sn218574   3.046   5.007   2.504  0.1567 -0.1907 -0.1683
 3039ntf    cn118575   3.007   4.880   2.629  0.4245  0.0173  0.1284
 3039ntf    fn418576   2.974   5.171   2.200  0.5050 -0.1087 -0.5019
 3039ntf    fn418577   3.018   4.984   2.105  0.1059  0.0963 -0.3604
 3039ntf    fn418578   2.825   5.083   2.074  0.1641 -0.1733  0.1024
 3039ntf    on518579   2.754   5.056   2.376  0.3341  0.4291  0.4136
 3039ntf    on518580   2.798   4.849   2.251 -0.4048  0.3470 -0.1056
 3039ntf    on518581   2.984   5.124   2.562  0.0298 -0.2218 -0.2403
 3039ntf    on518582   3.190   5.014   2.503  0.1522  0.0797  0.3267
 3039ntf    fn418583   3.050   4.904   2.751 -0.5568 -0.6009  0.6091
 3039ntf    fn418584   2.877   4.854   2.638  0.3603  0.1700 -0.3007
 3039ntf    fn418585   3.071   4.769   2.599  0.2529 -0.0205 -0.1074
 3040ntf    cn118586   2.187   6.539   5.711 -0.2595 -0.2084  0.1462
 3040ntf    sn218587   2.337   6.495   5.619 -0.3242 -0.1145 -0.0042
 3040ntf    nn318588   2.456   6.500   5.722 -0.4866  0.7152  0.1527
 3040ntf    sn218589   2.585   6.588   5.729 -0.2133  0.3312 -0.0221
 3040ntf    cn118590   2.513   6.709   5.845  0.0304  0.1074  0.3664
 3040ntf    fn418591   2.153   6.446   5.799  0.3420 -0.2620  0.3249
 3040ntf    fn418592   2.201   6.652   5.778 -0.1960  0.2418 -0.6213
 3040ntf    fn418593   2.086   6.557   5.627 -0.1716  0.3292  0.1524
 3040ntf    on518594   2.324   6.360   5.571  0.3037  0.0545 -0.6773
 3040ntf    on518595   2.345   6.599   5.519  0.0269 -0.0392  0.0995
 3040ntf    on518596   2.632   6.657   5.612  0.0993 -0.6807 -0.5071
 3040ntf    on518597   2.689   6.534   5.813 -0.4075  0.2043  0.1375
 3040ntf    fn418598   2.477   6.647   5.956 -0.1032  0.2412  0.3985
 3040ntf    fn418599   2.601   6.800   5.884  0.1251  0.0757  0.2273
 3040ntf    fn418600   2.407   6.773   5.798  0.1979  0.0418 -0.1139
 3041ntf    cn118601   4.632   6.693   2.970  0.1522  0.0034  0.3157
 3041ntf    sn218602   4.813   6.705   2.968  0.1492 -0.0199 -0.2065
 3041ntf    nn318603   4.829   6.793   3.097  0.0732 -0.2981 -0.0089
 3041ntf    sn218604   4.936   6.781   3.211  0.1490 -0.0209 -0.0506
 3041ntf    cn118605   4.977   6.957   3.229  0.0154  0.0130 -0.0787
 3041ntf    fn418606   4.561   6.805   2.973 -0.1096 -0.1573  0.1945
 3041ntf    fn418607   4.588   6.643   2.856  0.5220  0.3769  0.0060
 3041ntf    fn418608   4.593   6.612   3.067 -0.1041 -0.0253  0.1894
 3041ntf    on518609   4.856   6.568   2.978  0.0643 -0.0865 -0.7160
 3041ntf    on518610   4.853   6.784   2.853 -0.2894  0.4988 -0.0091
 3041ntf    on518611   5.065   6.725   3.178  0.1877 -0.5059  0.8875
 3041ntf    on518612   4.887   6.745   3.341 -0.1934 -0.1881 -0.2244
 3041ntf    fn418613   5.045   6.973   3.341  0.1118  0.2836 -0.1763
 3041ntf    fn418614   5.047   7.001   3.126 -0.1642 -0.4425 -0.3992
 3041ntf    fn418615   4.870   7.034   3.240  0.2830  0.4512 -0.4842
 3042ntf    cn118616   0.751   1.175   1.299  0.4491 -0.0390  0.4357
 3042ntf    sn218617   0.697   1.349   1.298 -0.1474 -0.2268 -0.1415
 3042ntf    nn318618   0.545   1.330   1.264 -0.2472  0.1660  0.0828
 3042ntf    sn218619   0.468   1.364   1.132  0.0881  0.0362 -0.1475
 3042ntf    cn118620   0.429   1.537   1.175 -0.1739 -0.1277  0.2778
 3042ntf    fn418621   0.877   1.160   1.337  0.3419 -0.4454  0.6361
 3042ntf    fn418622   0.681   1.101   1.383 -0.4099  0.2542 -0.0115
 3042ntf    fn418623   0.735   1.121   1.180  0.6733 -0.1351  0.4492
 3042ntf    on518624   0.723   1.397   1.431 -0.9693 -0.2330  0.0258
 3042ntf    on518625   0.775   1.401   1.188 -0.0553 -0.1175 -0.0256
 3042ntf    on518626   0.342   1.294   1.121  0.1038 -0.1250  0.6691
 3042ntf    on518627   0.556   1.361   1.018  0.3337  0.2842  0.0340
 3042ntf    fn418628   0.357   1.541   1.286  0.1141  0.4610  0.4475
 3042ntf    fn418629   0.538   1.603   1.212 -0.1235  0.1007 -0.2722
 3042ntf    fn418630   0.369   1.606   1.080  0.2681 -0.0639  0.0450
 3043ntf    cn118631   3.480   1.596   3.869  0.4007  0.1890 -0.0573
 3043ntf    sn218632   3.354   1.722   3.905  0.0392 -0.1727 -0.0594
 3043ntf    nn318633   3.443   1.845   3.866  0.0387 -0.1951 -0.1316
 3043ntf    sn218634   3.475   1.908   3.725 -0.2490 -0.3443 -0.2635
 3043ntf    cn118635   3.349   2.039   3.723  0.1320  0.0179 -0.5118
 3043ntf    fn418636   3.505   1.582   3.740  0.1599 -0.4630 -0.0367
 3043ntf    fn418637   3.591   1.617   3.937  0.1691 -0.1557  0.4325
 3043ntf    fn418638   3.447   1.476   3.914  0.3142  0.2704  0.0951
 3043ntf    on518639   3.248   1.696   3.810 -0.0252 -0.0290 -0.0275
 3043ntf    on518640   3.327   1.699   4.044  0.5859 -0.2355  0.0365
 3043ntf    on518641   3.446   1.839   3.602 -0.7545  0.3869 -0.5610
 3043ntf    on518642   3.592   1.990   3.733 -0.1859 -0.4990  0.5329
 3043ntf    fn418643   3.241   2.000   3.789  0.3122  0.0537 -0.1978
 3043ntf    fn418644   3.390   2.153   3.774  0.2243 -0.3207  0.1763
 3043ntf    fn418645   3.316   2.067   3.598  0.0663  0.5828 -0.3706
 3044ntf    cn118646   2.901   0.053   6.652 -0.3042  0.2326  0.1491
 3044ntf    sn218647   2.832  -0.107   6.706  0.1289 -0.0451 -0.1069
 3044ntf    nn318648   2.691  -0.059   6.756 -0.0896 -0.7980  0.0011
 3044ntf    sn218649   2.555  -0.054   6.676  0.1603 -0.2174 -0.3975
 3044ntf    cn118650   2.482  -0.217   6.713 -0.0202 -0.0697 -0.0989
 3044ntf    fn418651   2.852   0.081   6.532  0.2412  0.4661 -0.0237
 3044ntf    fn418652   2.883   0.150   6.740  0.2429  0.1407  0.3716
 3044ntf    fn418653   3.033   0.055   6.637 -0.2966  0.0323  0.1761
 3044ntf    on518654   2.845  -0.194   6.592  0.1411 -0.2236  0.0313
 3044ntf    on518655   2.911  -0.142   6.821  0.0686 -0.1981 -0.1121
 3044ntf    on518656   2.560  -0.056   6.532  0.4579 -0.3552 -0.3857
 3044ntf    on518657   2.458   0.036   6.734 -0.0911 -0.6409 -0.1506
 3044ntf    fn418658   2.402  -0.250   6.613  0.2002  0.0463 -0.3128
 3044ntf    fn418659   2.571  -0.315   6.710 -0.0478 -0.1176  0.4976
 3044ntf    fn418660   2.415  -0.229   6.826 -0.4865 -0.1399 -0.3794
 3045ntf    cn118661   1.251   3.116   0.878 -0.1313  0.1159  0.1392
 3045ntf    sn218662   1.105   3.088   0.773  0.2284  0.1786 -0.3852
 3045ntf    nn318663   1.135   2.938   0.739  0.5562  0.1739 -0.0922
 3045ntf    sn218664   1.109   2.800   0.810  0.3396  0.2030 -0.1156
 3045ntf    cn118665   0.950   2.765   0.728  0.2288  0.0123  0.1784
 3045ntf    fn418666   1.265   3.244   0.908  0.1641  0.1004  0.0739
 3045ntf    fn418667   1.252   3.046   0.990  0.0220  0.3974  0.3161
 3045ntf    fn418668   1.361   3.087   0.810 -0.1762  0.1548  0.0502
 3045ntf    on518669   0.995   3.103   0.865  0.1068  0.1708 -0.5286
 3045ntf    on518670   1.125   3.178   0.662 -0.0344  0.0078 -0.5712
 3045ntf    on518671   1.088   2.807   0.952 -0.0600 -0.2666 -0.1492
 3045ntf    on518672   1.204   2.707   0.756 -0.2717 -0.5560  0.0957
 3045ntf    fn418673   0.862   2.861   0.750  0.3660  0.2484 -0.2796
 3045ntf    fn418674   0.952   2.749   0.597  0.2419  0.4709  0.1186
 3045ntf    fn418675   0.892   2.656   0.774  0.1815  0.0394  0.1839
 3046ntf    cn118676   2.381   0.515   5.216 -0.4406 -0.0830 -0.0356
 3046ntf    sn218677   2.287   0.376   5.147 -0.1960 -0.1699 -0.1954
 3046ntf    nn318678   2.192   0.443   5.041 -0.1064 -0.1737 -0.2784
 3046ntf    sn218679   2.059   0.525   5.059  0.1176  0.1380 -0.0265
 3046ntf    cn118680   1.939   0.389   5.049  0.2357  0.0274  0.0679
 3046ntf    fn418681   2.305   0.589   5.295  0.1112  0.2470  0.1931
 3046ntf    fn418682   2.481   0.463   5.285  0.3189  0.0767 -0.9992
 3046ntf    fn418683   2.437   0.597   5.128  0.0737 -0.1576  0.2211
 3046ntf    on518684   2.388   0.300   5.077  0.0896 -0.1211  0.1615
 3046ntf    on518685   2.227   0.316   5.263 -0.2530 -0.0470 -0.1615
 3046ntf    on518686   2.034   0.622   4.955 -0.4442  0.4209  0.3657
 3046ntf    on518687   2.032   0.574   5.192 -0.6429  0.2006 -0.2016
 3046ntf    fn418688   1.816   0.435   5.056  0.2949  0.2579 -0.4027
 3046ntf    fn418689   1.952   0.326   4.933  0.3204  0.6272 -0.2499
 3046ntf    fn418690   1.953   0.296   5.143  0.1991  0.0250  0.0707
 3047ntf    cn118691   5.193   4.588   1.056 -0.2122  0.2608 -0.3167
 3047ntf    sn218692   5.161   4.460   1.181 -0.1325  0.2575 -0.2996
 3047ntf    nn318693   5.310   4.444   1.226 -0.3034  0.0365  0.1963
 3047ntf    sn218694   5.382   4.481   1.361  0.2696 -0.1913 -0.0400
 3047ntf    cn118695   5.455   4.323   1.413  0.0800 -0.3172 -0.1535
 3047ntf    fn418696   5.294   4.555   0.977  0.1052  0.5021 -0.0137
 3047ntf    fn418697   5.084   4.610   0.984 -0.2887  0.3860 -0.1628
 3047ntf    fn418698   5.223   4.706   1.108 -0.5791  0.2994 -0.1936
 3047ntf    on518699   5.077   4.519   1.283  0.0374  0.3341 -0.2029
 3047ntf    on518700   5.108   4.351   1.105  0.2139  0.0986 -0.3147
 3047ntf    on518701   5.289   4.505   1.468 -0.3576 -0.0413 -0.6099
 3047ntf    on518702   5.499   4.563   1.339  0.2515 -0.3289 -0.6708
 3047ntf    fn418703   5.558   4.288   1.338  0.1387  0.0998 -0.2694
 3047ntf    fn418704   5.496   4.336   1.538 -0.1971  0.0520 -0.0997
 3047ntf    fn418705   5.374   4.219   1.411  0.0424 -0.2830 -0.7735
 3048ntf    cn118706   2.272   6.649   4.068  0.1515 -0.5725  0.1723
 3048ntf    sn218707   2.266   6.488   3.984 -0.0892 -0.4942  0.0381
 3048ntf    nn318708   2.411   6.443   4.025  0.2455  0.0792 -0.4809
 3048ntf    sn218709   2.469   6.362   4.147 -0.2382  0.2290 -0.1456
 3048ntf    cn118710   2.491   6.201   4.066  0.1066  0.0612  0.2766
 3048ntf    fn418711   2.360   6.727   4.009 -0.4202 -0.3185 -0.3608
 3048ntf    fn418712   2.162   6.722   4.070  0.2565 -0.4178  0.3312
 3048ntf    fn418713   2.306   6.623   4.193  0.1124 -0.0892  0.2851
 3048ntf    on518714   2.158   6.411   4.040 -0.2610  0.0174  0.4148
 3048ntf    on518715   2.259   6.521   3.843  0.2408 -0.4587  0.0280
 3048ntf    on518716   2.375   6.335   4.252  0.0528 -0.0856  0.0351
 3048ntf    on518717   2.603   6.403   4.182  0.0559 -0.6703 -0.1709
 3048ntf    fn418718   2.576   6.122   4.129  0.4678 -0.2317 -0.5617
 3048ntf    fn418719   2.386   6.120   4.063  0.0213  0.1827 -0.1977
 3048ntf    fn418720   2.537   6.206   3.942 -0.1945  0.3691  0.1754
 3049ntf    cn118721   3.799   0.709   1.043  0.3359  0.0356 -0.2985
 3049ntf    sn218722   3.677   0.832   1.098  0.0281 -0.3641 -0.0822
 3049ntf    nn318723   3.547   0.775   1.030 -0.0255  0.4327 -0.6683
 3049ntf    sn218724   3.427   0.868   0.989 -0.2570  0.2389 -0.4361
 3049ntf    cn118725   3.285   0.763   1.034  0.3855 -0.4392  0.0248
 3049ntf    fn418726   3.824   0.719   0.913 -0.1210 -0.0917 -0.3990
 3049ntf    fn418727   3.907   0.709   1.119 -0.2756 -0.0319  0.5821
 3049ntf    fn418728   3.745   0.589   1.058 -0.6658  0.5134  0.0253
 3049ntf    on518729   3.683   0.831   1.242  0.3807  0.3325 -0.0889
 3049ntf    on518730   3.728   0.953   1.038 -0.0357 -0.2417  0.1117
 3049ntf    on518731   3.417   0.880   0.846 -0.3437  0.6361 -0.3982
 3049ntf    on518732   3.400   0.985   1.068  0.2873 -0.1100  0.2783
 3049ntf    fn418733   3.297   0.729   1.161 -0.6845 -0.2317  0.1879
 3049ntf    fn418734   3.170   0.826   1.026  0.5337 -0.2159 -0.3714
 3049ntf    fn418735   3.276   0.659   0.952  0.0813 -0.4838  0.1148
 3050ntf    cn118736   2.018   1.366   5.554  0.2362 -0.0655  0.1755
 3050ntf    sn218737   2.178   1.384   5.468  0.1280 -0.1339 -0.0418
 3050ntf    nn318738   2.143   1.314   5.332 -0.2114  0.1487 -0.1014
 3050ntf    sn218739   2.095   1.390   5.203 -0.2271 -0.1928 -0.2973
 3050ntf    cn118740   1.983   1.265   5.133 -0.1564 -0.2135 -0.3729
 3050ntf    fn418741   1.940   1.466   5.515  0.2965 -0.2017 -0.3102
 3050ntf    fn418742   1.953   1.256   5.519  0.3856 -0.3788  0.8757
 3050ntf    fn418743   2.022   1.372   5.686 -0.2281 -0.8331  0.2281
 3050ntf    on518744   2.199   1.527   5.465  0.4650 -0.1773  0.1806
 3050ntf    on518745   2.269   1.308   5.550 -0.0234 -0.3453 -0.0692
 3050ntf    on518746   2.203   1.405   5.109  0.0347  0.1013  0.0492
 3050ntf    on518747   2.009   1.502   5.231 -0.2909 -0.3151  0.0027
 3050ntf    fn418748   1.863   1.270   5.188 -0.0425  0.0482 -0.1468
 3050ntf    fn418749   1.962   1.287   5.004 -0.1425 -0.2909 -0.3888
 3050ntf    fn418750   2.022   1.139   5.144 -0.2509 -0.1646  0.6011
 3051ntf    cn118751   1.072   4.122   0.602  0.1020 -0.0782 -0.0923
 3051ntf    sn218752   1.165   4.078   0.752  0.1009 -0.1963 -0.1271
 3051ntf    nn318753   1.060   4.123   0.859  0.0810 -0.4404 -0.0421
 3051ntf    sn218754   1.044   4.259   0.936  0.1889 -0.3506 -0.1774
 3051ntf    cn118755   1.163   4.222   1.068  0.1482 -0.0398 -0.0527
 3051ntf    fn418756   1.148   4.133   0.494  0.1145  0.2713 -0.0503
 3051ntf    fn418757   0.981   4.029   0.582 -0.2524  0.2747 -0.1208
 3051ntf    fn418758   1.008   4.237   0.616  0.4667  0.1355 -0.1463
 3051ntf    on518759   1.171   3.934   0.736 -0.2362 -0.2158 -0.0811
 3051ntf    on518760   1.284   4.160   0.748 -0.1879  0.2061 -0.4925
 3051ntf    on518761   0.928   4.271   1.020  0.6550  0.2083  0.3966
 3051ntf    on518762   1.087   4.381   0.871  0.5179 -0.1383  0.4276
 3051ntf    fn418763   1.105   4.141   1.155  0.2853  0.0673  0.1412
 3051ntf    fn418764   1.272   4.160   1.027  0.3063  0.0270  0.2624
 3051ntf    fn418765   1.198   4.336   1.127  0.1599 -0.2181  0.2898
 3052ntf    cn118766   1.161   0.183   0.791  0.0151  0.0435  0.0301
 3052ntf    sn218767   1.059   0.264   0.664 -0.1694  0.0880  0.2057
 3052ntf    nn318768   0.952   0.341   0.748 -0.3216 -0.4678  0.5237
 3052ntf    sn218769   0.881   0.478   0.718  0.4189 -0.1707  0.1089
 3052ntf    cn118770   0.828   0.522   0.887  0.4724  0.1845  0.0340
 3052ntf    fn418771   1.235   0.276   0.848  0.3160 -0.1889  0.0210
 3052ntf    fn418772   1.088   0.130   0.887  0.3014 -0.1583  0.1389
 3052ntf    fn418773   1.236   0.085   0.744  0.2043  0.2802 -0.1634
 3052ntf    on518774   1.156   0.351   0.601  0.0731 -0.1789  0.2058
 3052ntf    on518775   1.008   0.151   0.590  0.3633 -0.2310  0.3220
 3052ntf    on518776   0.757   0.483   0.646  0.5737 -0.0569 -0.1507
 3052ntf    on518777   0.976   0.583   0.691  0.7516 -0.4735  0.0926
 3052ntf    fn418778   0.782   0.645   0.893  0.0816  0.0112  0.5698
 3052ntf    fn418779   0.727   0.444   0.921  0.2633  0.5055  0.1475
 3052ntf    fn418780   0.926   0.501   0.973  0.3920 -0.1781  0.0383
 3053ntf    cn118781   3.200   4.145   3.369  0.2656 -0.3510 -0.5161
 3053ntf    sn218782   3.228   4.250   3.224 -0.1037  0.4215 -0.0357
 3053ntf    nn318783   3.113   4.355   3.245 -0.1593  0.2630  0.4595
 3053ntf    sn218784   2.960   4.347   3.215 -0.0152  0.0930 -0.2403
 3053ntf    cn118785   2.882   4.399   3.370  0.0360  0.0561 -0.2018
 3053ntf    fn418786   3.310   4.078   3.397  0.3313 -0.0669 -0.0831
 3053ntf    fn418787   3.179   4.213   3.481  0.6437 -0.4522 -0.3810
 3053ntf    fn418788   3.096   4.064   3.353 -0.1022  0.0907 -0.3733
 3053ntf    on518789   3.360   4.306   3.243 -0.0032 -0.0097  0.5656
 3053ntf    on518790   3.207   4.162   3.111  0.1201  0.4155 -0.0732
 3053ntf    on518791   2.906   4.214   3.194  0.5991 -0.1808 -0.1085
 3053ntf    on518792   2.917   4.451   3.125  0.2988  0.3408 -0.1017
 3053ntf    fn418793   2.934   4.345   3.479 -0.3906 -0.0960 -0.0693
 3053ntf    fn418794   2.893   4.528   3.398 -0.2500  0.1525 -0.5178
 3053ntf    fn418795   2.752   4.374   3.372  0.0844 -0.1765  0.1749
 3054ntf    cn118796   4.264   3.432   0.577 -0.1425 -0.3191  0.0295
 3054ntf    sn218797   4.279   3.515   0.738  0.2651  0.0279 -0.1856
 3054ntf    nn318798   4.314   3.401   0.840  0.1877 -0.0274 -0.2203
 3054ntf    sn218799   4.237   3.316   0.947  0.1408  0.2861 -0.0041
 3054ntf    cn118800   4.302   3.159   0.883  0.3102  0.3778 -0.0563
 3054ntf    fn418801   4.251   3.516   0.475  0.5846  0.1545  0.3217
 3054ntf    fn418802   4.368   3.359   0.540 -0.2235 -0.1715 -0.5112
 3054ntf    fn418803   4.159   3.351   0.575  0.0761 -0.6119  0.3677
 3054ntf    on518804   4.393   3.600   0.713  0.1255  0.2373 -0.1110
 3054ntf    on518805   4.151   3.578   0.752  0.3005  0.1348 -0.3402
 3054ntf    on518806   4.095   3.303   0.926  0.1179 -0.4911  0.5976
 3054ntf    on518807   4.289   3.321   1.082  0.0224 -0.1098  0.0570
 3054ntf    fn418808   4.434   3.152   0.892  0.3266  0.7319 -0.0064
 3054ntf    fn418809   4.259   3.046   0.936  0.3787  0.2739 -0.2192
 3054ntf    fn418810   4.279   3.148   0.753  0.0319 -0.2564  0.0473
 3055ntf    cn118811   4.028   0.109   5.845 -0.2711 -0.0846 -0.0073
 3055ntf    sn218812   4.154   0.006   5.925 -0.0457  0.1194 -0.0955
 3055ntf    nn318813   4.081  -0.133   5.933  0.1044  0.0295 -0.2801
 3055ntf    sn218814   4.100  -0.256   5.838  0.1844 -0.2575  0.1063
 3055ntf    cn118815   4.245  -0.345   5.903  0.0977 -0.3647  0.1545
 3055ntf    fn418816   4.076   0.230   5.822 -0.4500 -0.1222 -0.5729
 3055ntf    fn418817   3.994   0.056   5.729 -0.0210  0.3286 -0.2720
 3055ntf    fn418818   3.918   0.119   5.917 -0.6293  0.0599 -0.5727
 3055ntf    on518819   4.267   0.014   5.836  0.0998 -0.0398  0.0710
 3055ntf    on518820   4.156   0.078   6.050 -0.4901  0.5523 -0.3345
 3055ntf    on518821   4.126  -0.227   5.699 -0.0414  0.0982  0.1375
 3055ntf    on518822   3.991  -0.347   5.866 -0.0216 -0.0571 -0.0398
 3055ntf    fn418823   4.214  -0.423   6.005  0.7816 -0.4238  0.3168
 3055ntf    fn418824   4.300  -0.424   5.812  0.2494  0.1364 -0.1956
 3055ntf    fn418825   4.334  -0.253   5.937 -0.2845 -0.1805  0.6698
 3056ntf    cn118826   4.056   5.430   3.193 -0.1677 -0.0940 -0.0765
 3056ntf    sn218827   3.953   5.293   3.131  0.0426 -0.3100  0.0492
 3056ntf    nn318828   4.068   5.199   3.081 -0.1005 -0.3147 -0.2670
 3056ntf    sn218829   4.156   5.104   3.168 -0.0849 -0.0491  0.0088
 3056ntf    cn118830   4.052   4.956   3.188 -0.1337  0.0301  0.3376
 3056ntf    fn418831   4.157   5.446   3.109  0.5332 -0.0987  0.7648
 3056ntf    fn418832   3.991   5.545   3.200  0.0353  0.0064  0.1494
 3056ntf    fn418833   4.113   5.414   3.311  0.0508 -0.4434 -0.2248
 3056ntf    on518834   3.875   5.254   3.247 -0.2246 -0.1347 -0.0692
 3056ntf    on518835   3.879   5.351   3.022 -0.1996  0.0299  0.3873
 3056ntf    on518836   4.176   5.141   3.306 -0.1202  0.3814 -0.1012
 3056ntf    on518837   4.272   5.051   3.101  0.0395  0.0165  0.1700
 3056ntf    fn418838   3.922   4.975   3.205 -0.2368 -0.2559 -0.1238
 3056ntf    fn418839   4.051   4.882   3.079  0.5111  0.0133  0.3382
 3056ntf    fn418840   4.100   4.885   3.289  0.3598  0.5241  0.4561
 3057ntf    cn118841   2.823   0.514   5.915  0.7913 -0.0449  0.0308
 3057ntf    sn218842   2.826   0.339   5.868  0.1615  0.0140 -0.2478
 3057ntf    nn318843   2.891   0.283   6.000  0.1883 -0.2187 -0.3589
 3057ntf    sn218844   2.814   0.226   6.124 -0.2803  0.1334 -0.4834
 3057ntf    cn118845   2.835   0.048   6.092 -0.3961  0.0547 -0.1287
 3057ntf    fn418846   2.943   0.570   5.912  0.6450  0.2948  0.4003
 3057ntf    fn418847   2.731   0.584   5.850  0.5756 -0.0080  0.3699
 3057ntf    fn418848   2.780   0.525   6.040  0.1784 -0.4146 -0.1425
 3057ntf    on518849   2.690   0.302   5.841  0.4117 -0.7546 -0.4817
 3057ntf    on518850   2.910   0.323   5.752  0.0087  0.2892 -0.3971
 3057ntf    on518851   2.671   0.245   6.125 -0.2580  0.2903 -0.1619
 3057ntf    on518852   2.888   0.254   6.245 -0.2993 -0.8246 -0.2405
 3057ntf    fn418853   2.860  -0.020   6.202  0.0592  0.0473 -0.2359
 3057ntf    fn418854   2.729   0.010   6.023 -0.3336 -0.9130  0.2959
 3057ntf    fn418855   2.937   0.016   6.014 -0.4943 -0.1668 -0.1669
 3058ntf    cn118856   5.405   3.494   6.251 -0.0195  0.3226 -0.0212
 3058ntf    sn218857   5.490   3.613   6.144 -0.1273  0.2226 -0.2195
 3058ntf    nn318858   5.374   3.717   6.125 -0.2821  0.0653 -0.1375
 3058ntf    sn218859   5.294   3.764   5.998  0.0151  0.2754 -0.2504
 3058ntf    cn118860   5.371   3.927   5.983  0.5783  0.0375  0.0294
 3058ntf    fn418861   5.337   3.399   6.189  0.0284 -0.1119  0.5749
 3058ntf    fn418862   5.490   3.427   6.328 -0.1251  0.3506  0.1207
 3058ntf    fn418863   5.317   3.554   6.330 -0.7380  0.1532 -0.6865
 3058ntf    on518864   5.596   3.668   6.226 -0.3001 -0.4685  0.4801
 3058ntf    on518865   5.529   3.529   6.034  0.1284 -0.2315  0.2132
 3058ntf    on518866   5.155   3.792   6.028 -0.0503 -0.1643 -0.1323
 3058ntf    on518867   5.329   3.693   5.878  0.3878  0.3106 -0.1621
 3058ntf    fn418868   5.302   4.003   5.899  0.4388 -0.2463 -0.1135
 3058ntf    fn418869   5.372   3.999   6.094  0.0077  0.3403 -0.1553
 3058ntf    fn418870   5.495   3.938   5.936  0.3358  0.0293 -0.6304
 3059ntf    cn118871   4.934   0.650   4.098  0.2760  0.2746  0.0913
 3059ntf    sn218872   4.978   0.826   4.108  0.0136  0.3405  0.0908
 3059ntf    nn318873   4.838   0.884   4.065 -0.0794  0.0257 -0.0308
 3059ntf    sn218874   4.736   0.962   4.155 -0.1553  0.1372 -0.2147
 3059ntf    cn118875   4.607   1.020   4.040 -0.4879 -0.0144  0.0824
 3059ntf    fn418876   4.899   0.622   3.973  0.6699 -0.5825  0.1665
 3059ntf    fn418877   5.034   0.569   4.128  0.2158  0.2732  0.2878
 3059ntf    fn418878   4.836   0.623   4.182  0.3917 -0.2722  0.0494
 3059ntf    on518879   5.030   0.853   4.240 -0.1011  0.1937  0.1657
 3059ntf    on518880   5.072   0.846   4.000  0.1308 -0.3143  0.0665
 3059ntf    on518881   4.780   1.089   4.208 -0.3706  0.1108  0.0282
 3059ntf    on518882   4.672   0.868   4.242  0.2836  0.2849  0.2721
 3059ntf    fn418883   4.641   1.120   3.961 -1.0214  0.2075  0.1326
 3059ntf    fn418884   4.555   0.921   3.969 -0.2993 -0.1685  0.1559
 3059ntf    fn418885   4.506   1.074   4.106 -0.0791  0.4735  0.3117
 3060ntf    cn118886   3.713   0.533   6.385  0.3150 -0.1665  0.1113
 3060ntf    sn218887   3.644   0.369   6.344 -0.2154  0.0671  0.0597
 3060ntf    nn318888   3.554   0.352   6.472  0.4333  0.6479  0.6026
 3060ntf    sn218889   3.535   0.222   6.558  0.0967  0.0335 -0.3864
 3060ntf    cn118890   3.639   0.262   6.702 -0.3075 -0.4729  0.0493
 3060ntf    fn418891   3.625   0.628   6.413  0.0266 -0.3609 -0.1279
 3060ntf    fn418892   3.792   0.516   6.489 -0.2093 -0.2675  0.4986
 3060ntf    fn418893   3.778   0.582   6.281  0.0076  0.0444  0.0156
 3060ntf    on518894   3.569   0.395   6.224 -0.4365 -0.2096  0.1374
 3060ntf    on518895   3.761   0.285   6.342  0.2850  0.7519  0.0915
 3060ntf    on518896   3.594   0.097   6.516 -0.0804 -0.1562 -0.0781
 3060ntf    on518897   3.407   0.224   6.624  0.2636  0.2411 -0.0647
 3060ntf    fn418898   3.768   0.280   6.678 -0.5101  0.7260 -0.2108
 3060ntf    fn418899   3.587   0.368   6.760  0.1106 -0.1707 -0.1269
 3060ntf    fn418900   3.636   0.176   6.802  0.2166 -0.2398  0.2677
 3061ntf    cn118901   5.811   0.002   6.096  0.0978  0.3675 -0.3718
 3061ntf    sn218902   5.772   0.091   6.250  0.0807 -0.2967  0.0121
 3061ntf    nn318903   5.753  -0.033   6.344 -0.0345 -0.2076  0.1058
 3061ntf    sn218904   5.854  -0.109   6.438 -0.0784 -0.1236  0.2210
 3061ntf    cn118905   5.830  -0.016   6.593  0.0043  0.0031  0.1578
 3061ntf    fn418906   5.862   0.080   6.002  0.9194  0.1661 -0.1063
 3061ntf    fn418907   5.911  -0.084   6.115 -0.2151  0.1579  0.3819
 3061ntf    fn418908   5.708  -0.063   6.046  0.4565 -0.8372  0.3953
 3061ntf    on518909   5.882   0.177   6.285  0.1006 -0.4488  0.3284
 3061ntf    on518910   5.646   0.151   6.215  0.4956  0.4251 -0.2507
 3061ntf    on518911   5.994  -0.091   6.406  0.0965 -0.4507  0.7978
 3061ntf    on518912   5.810  -0.243   6.464 -0.5353 -0.0253 -0.0458
 3061ntf    fn418913   5.872   0.109   6.591  0.2939 -0.0974 -0.2192
 3061ntf    fn418914   5.700  -0.018   6.617 -0.0231  0.1140  0.0226
 3061ntf    fn418915   5.880  -0.071   6.703  0.0930 -0.4894 -0.1226
 3062ntf    cn118916   2.467   4.315   4.331 -0.0173 -0.1610 -0.1698
 3062ntf    sn218917   2.462   4.334   4.512 -0.3639  0.0297 -0.1991
 3062ntf    nn318918   2.430   4.185   4.549 -0.3107  0.0320 -0.1451
 3062ntf    sn218919   2.288   4.125   4.580 -0.2794  0.0313 -0.0040
 3062ntf    cn118920   2.260   4.189   4.748 -0.2867  0.1223 -0.0390
 3062ntf    fn418921   2.360   4.249   4.289 -0.2170 -0.0226  0.1183
 3062ntf    fn418922   2.480   4.431   4.268 -0.2356 -0.0668 -0.0395
 3062ntf    fn418923   2.568   4.242   4.285  0.4706  0.3582  0.0617
 3062ntf    on518924   2.595   4.367   4.557 -0.3360 -0.2456 -0.0788
 3062ntf    on518925   2.357   4.431   4.533 -0.1686  0.1849  0.0648
 3062ntf    on518926   2.286   3.982   4.596 -0.1549  0.0364  0.0646
 3062ntf    on518927   2.179   4.178   4.502  0.2507  0.0472 -0.7395
 3062ntf    fn418928   2.344   4.141   4.839 -0.4495  0.2872  0.1996
 3062ntf    fn418929   2.272   4.320   4.755  0.0508  0.0781  0.2255
 3062ntf    fn418930   2.139   4.165   4.795 -0.2588  0.3961  0.1734
 3063ntf    cn118931   5.763   2.056   6.968  0.3803  0.0189 -0.1027
 3063ntf    sn218932   5.694   1.939   7.089 -0.0081  0.4764  0.1225
 3063ntf    nn318933   5.545   1.937   7.040  0.1246  0.0915 -0.2752
 3063ntf    sn218934   5.417   1.927   7.131  0.2462  0.1456 -0.0966
 3063ntf    cn118935   5.352   2.093   7.097  0.2940  0.2724  0.4224
 3063ntf    fn418936   5.895   2.056   6.970  0.3881  0.3238 -0.5259
 3063ntf    fn418937   5.731   2.036   6.841  0.1879 -0.1770 -0.0246
 3063ntf    fn418938   5.722   2.177   7.001  0.1097 -0.1456  0.1683
 3063ntf    on518939   5.769   1.818   7.066 -0.5943  0.1510 -0.0854
 3063ntf    on518940   5.720   2.006   7.214  0.4285 -0.5824  0.6105
 3063ntf    on518941   5.439   1.922   7.273 -0.1841  0.5677 -0.0137
 3063ntf    on518942   5.319   1.841   7.069 -0.3520  0.3764  0.5208
 3063ntf    fn418943   5.449   2.180   7.073  0.2537  0.1745 -0.1087
 3063ntf    fn418944   5.279   2.084   6.986 -0.2293  0.5191  0.7447
 3063ntf    fn418945   5.272   2.144   7.189 -0.4672 -0.1199 -0.0055
 3064ntf    cn118946   6.584   1.512   1.033  0.0455 -0.3455 -0.4397
 3064ntf    sn218947   6.746   1.432   1.049  0.1645 -0.0068  0.0495
 3064ntf    nn318948   6.838   1.559   1.056 -0.0654  0.1528  0.2276
 3064ntf    sn218949   6.905   1.637   0.937  0.0690 -0.0289  0.1812
 3064ntf    cn118950   7.064   1.551   0.945 -0.0157 -0.2116 -0.0835
 3064ntf    fn418951   6.477   1.435   1.046 -0.1520 -0.0305 -0.1793
 3064ntf    fn418952   6.572   1.621   1.107  0.9447 -0.6100  0.0971
 3064ntf    fn418953   6.580   1.563   0.911 -0.1519  0.1299 -0.2357
 3064ntf    on518954   6.742   1.356   1.172  0.0934 -0.0130  0.0433
 3064ntf    on518955   6.768   1.353   0.930  0.6716 -0.0521  0.1688
 3064ntf    on518956   6.939   1.774   0.969  0.0919  0.0999 -0.3764
 3064ntf    on518957   6.860   1.623   0.801  0.5473 -0.0052  0.0189
 3064ntf    fn418958   7.047   1.427   0.901  0.6211 -0.3114 -0.0598
 3064ntf    fn418959   7.146   1.605   0.857 -0.2579 -0.2136 -0.3125
 3064ntf    fn418960   7.129   1.551   1.060 -0.3324  0.1173  0.0986
 3065ntf    cn118961   3.131   3.153   1.437 -0.0672  0.4213 -0.5407
 3065ntf    sn218962   3.246   3.118   1.300  0.5406  0.0409  0.0657
 3065ntf    nn318963   3.367   3.207   1.344 -0.0568  0.6894  0.4210
 3065ntf    sn218964   3.482   3.169   1.444 -0.0469 -0.1387  0.1029
 3065ntf    cn118965   3.615   3.167   1.320 -0.1840  0.0357 -0.0480
 3065ntf    fn418966   3.168   3.106   1.554 -0.7212  0.0137 -0.4910
 3065ntf    fn418967   3.111   3.283   1.453 -0.0088  0.3358  0.2209
 3065ntf    fn418968   3.011   3.099   1.419 -0.1275  0.1853  0.5317
 3065ntf    on518969   3.278   2.977   1.292  0.6331  0.1019 -0.6755
 3065ntf    on518970   3.179   3.168   1.183 -0.0255 -0.3495  0.2174
 3065ntf    on518971   3.487   3.040   1.509 -0.8909 -0.1654  0.1291
 3065ntf    on518972   3.521   3.283   1.524 -0.4416 -0.4839  0.7914
 3065ntf    fn418973   3.729   3.143   1.383 -0.5073 -0.0095  0.5311
 3065ntf    fn418974   3.606   3.074   1.226  0.0753 -0.4785  0.4265
 3065ntf    fn418975   3.621   3.276   1.246  0.4916  0.1380  0.1545
 3066ntf    cn118976   3.698   4.600   6.478 -0.1766  0.1885  0.1522
 3066ntf    sn218977   3.665   4.764   6.406  0.0123  0.2006  0.0934
 3066ntf    nn318978   3.552   4.800   6.509  0.3324 -0.5087  0.7111
 3066ntf    sn218979   3.513   4.941   6.566 -0.0270 -0.3204  0.0232
 3066ntf    cn118980   3.616   4.940   6.717 -0.5459  0.3026  0.3855
 3066ntf    fn418981   3.817   4.564   6.432 -0.1694 -0.4584  0.6609
 3066ntf    fn418982   3.707   4.592   6.609 -0.5529  0.0025  0.1679
 3066ntf    fn418983   3.618   4.500   6.443  0.0577  0.0880 -0.1047
 3066ntf    on518984   3.797   4.822   6.415  0.1538 -0.1162  0.0785
 3066ntf    on518985   3.617   4.733   6.274  0.6747 -0.0479 -0.0945
 3066ntf    on518986   3.376   4.937   6.611 -0.0876  0.1503 -0.1195
 3066ntf    on518987   3.557   5.057   6.492 -0.7343 -0.1076 -0.0644
 3066ntf    fn418988   3.747   4.930   6.700 -0.5837  0.1288  0.1972
 3066ntf    fn418989   3.597   5.058   6.773 -0.1207  0.4972  0.1263
 3066ntf    fn418990   3.571   4.845   6.796  0.3706 -0.2791  0.2160
 3067ntf    cn118991   5.415   4.442   6.309  0.1149  0.4337  0.3025
 3067ntf    sn218992   5.339   4.569   6.414 -0.1917  0.4006  0.1200
 3067ntf    nn318993   5.472   4.640   6.459  0.2196 -0.0926 -0.2984
 3067ntf    sn218994   5.510   4.694   6.602 -0.3008  0.0065 -0.1938
 3067ntf    cn118995   5.691   4.670   6.599 -0.2839  0.0672  0.3747
 3067ntf    fn418996   5.496   4.492   6.216 -0.0241 -0.0508 -0.0846
 3067ntf    fn418997   5.491   4.359   6.378  0.0904  0.1472 -0.0107
 3067ntf    fn418998   5.334   4.372   6.231  0.1162  0.4353  0.2995
 3067ntf    on518999   5.262   4.659   6.330 -0.6285 -0.0333  0.0527
 3067ntf    on519000   5.263   4.502   6.516 -0.0468  0.2161  0.1078
 3067ntf    on519001   5.466   4.609   6.710  0.1072 -0.0095 -0.0378
 3067ntf    on519002   5.492   4.836   6.617  0.1232  0.0654 -0.2233
 3067ntf    fn419003   5.745   4.754   6.513  0.2056 -0.6183  0.0083
 3067ntf    fn419004   5.746   4.693   6.717  0.0336  0.1406  0.2114
 3067ntf    fn419005   5.730   4.549   6.566 -0.2065  0.1343  0.2213
 3068ntf    cn119006   3.114   5.546   5.496  0.0067  0.0289  0.1746
 3068ntf    sn219007   2.964   5.542   5.599 -0.0012 -0.0395  0.1593
 3068ntf    nn319008   2.920   5.394   5.573  0.0410  0.0298 -0.3209
 3068ntf    sn219009   2.774   5.340   5.550  0.1390 -0.2900 -0.2003
 3068ntf    cn119010   2.770   5.356   5.369 -0.0098 -0.1241 -0.1820
 3068ntf    fn419011   3.099   5.510   5.370 -0.0272  0.0621  0.1684
 3068ntf    fn419012   3.170   5.664   5.477  0.4783 -0.2715 -0.2993
 3068ntf    fn419013   3.205   5.472   5.556  0.0880 -0.0784 -0.0821
 3068ntf    on519014   3.016   5.577   5.729  0.7792 -0.8384  0.0719
 3068ntf    on519015   2.889   5.645   5.530 -0.1230 -0.0794  0.2313
 3068ntf    on519016   2.677   5.427   5.612  0.2498 -0.0983 -0.2950
 3068ntf    on519017   2.756   5.198   5.572 -0.8340 -0.2677 -0.8137
 3068ntf    fn419018   2.805   5.474   5.319  0.2052 -0.3225 -0.5034
 3068ntf    fn419019   2.862   5.275   5.319  0.5962  0.4916 -0.0870
 3068ntf    fn419020   2.652   5.328   5.316 -0.3683  0.0470  0.5068
 3069ntf    cn119021   4.772   1.668   3.522 -0.3156  0.0729 -0.0012
 3069ntf    sn219022   4.919   1.658   3.415 -0.0846  0.3571  0.2853
 3069ntf    nn319023   4.881   1.539   3.319  0.5823  0.4132 -0.0534
 3069ntf    sn219024   4.810   1.545   3.180  0.3509 -0.1813  0.0334
 3069ntf    cn119025   4.950   1.596   3.075  0.5002 -0.3580  0.1471
 3069ntf    fn419026   4.662   1.690   3.452 -0.2400  0.4236 -0.0102
 3069ntf    fn419027   4.757   1.564   3.603  0.1220 -0.0574 -0.0866
 3069ntf    fn419028   4.776   1.777   3.598  0.3098  0.2674 -0.3077
 3069ntf    on519029   4.932   1.788   3.355 -0.3395  0.4336  0.3906
 3069ntf    on519030   5.025   1.619   3.504  0.0319  0.3817  0.1575
 3069ntf    on519031   4.718   1.655   3.161  0.2619 -0.3090 -0.2957
 3069ntf    on519032   4.770   1.416   3.128  0.2447 -0.1135 -0.0543
 3069ntf    fn419033   5.002   1.716   3.090 -0.7209  0.2177 -0.1110
 3069ntf    fn419034   5.051   1.519   3.113  0.9686  0.2240  0.1003
 3069ntf    fn419035   4.931   1.579   2.945 -0.1840 -0.3487  0.2448
 3070ntf    cn119036   6.795   1.128   0.135  0.1099 -0.2789  0.0716
 3070ntf    sn219037   6.762   1.066   0.303 -0.0696 -0.0047  0.1381
 3070ntf    nn319038   6.632   1.147   0.339 -0.0420  0.2300 -0.2714
 3070ntf    sn219039   6.612   1.279   0.421  0.0247  0.0196  0.0886
 3070ntf    cn119040   6.430   1.276   0.420  0.0310 -0.2813 -0.4630
 3070ntf    fn419041   6.707   1.084   0.046 -0.1360 -0.5299  0.4382
 3070ntf    fn419042   6.787   1.260   0.135 -0.0437 -0.2890  0.3999
 3070ntf    fn419043   6.918   1.098   0.095  0.0307 -0.4282 -0.0605
 3070ntf    on519044   6.730   0.929   0.275 -0.2765 -0.0212  0.4534
 3070ntf    on519045   6.881   1.098   0.379 -0.1124  0.0388  0.1864
 3070ntf    on519046   6.652   1.400   0.353  0.9018 -0.2473  0.1139
 3070ntf    on519047   6.636   1.274   0.563 -0.3864  0.6073  0.1797
 3070ntf    fn419048   6.365   1.294   0.306  0.1882 -0.0677 -0.5202
 3070ntf    fn419049   6.385   1.160   0.464 -0.3047 -0.0639 -0.2333
 3070ntf    fn419050   6.377   1.362   0.505 -0.0034 -0.6242 -0.1301
 3071ntf    cn119051   0.365   3.239   0.277  0.3988 -0.6787  0.0299
 3071ntf    sn219052   0.454   3.294   0.425  0.2480 -0.0220 -0.1202
 3071ntf    nn319053   0.506   3.154   0.474  0.2306  0.0044 -0.0258
 3071ntf    sn219054   0.636   3.080   0.426  0.2306 -0.1454  0.2033
 3071ntf    cn119055   0.584   2.906   0.435  0.0716 -0.1217 -0.2639
 3071ntf    fn419056   0.407   3.301   0.168 -0.2275 -0.0774  0.1219
 3071ntf    fn419057   0.380   3.109   0.255 -0.5795 -0.7459 -0.3199
 3071ntf    fn419058   0.234   3.260   0.282  0.4331 -0.4893  0.1407
 3071ntf    on519059   0.553   3.386   0.374 -0.5039  0.5872 -0.4986
 3071ntf    on519060   0.344   3.352   0.498  0.0953 -0.0163 -0.3557
 3071ntf    on519061   0.747   3.080   0.519  0.3799  0.0626  0.0248
 3071ntf    on519062   0.673   3.097   0.288  0.2085 -0.2956  0.1790
 3071ntf    fn419063   0.474   2.891   0.363 -0.0441 -0.5750  0.0067
 3071ntf    fn419064   0.669   2.815   0.392  0.0869 -0.0806 -0.3214
 3071ntf    fn419065   0.539   2.872   0.555  0.1502  0.2635 -0.1219
 3072ntf    cn119066   3.772   2.367   1.123 -0.3241  0.0248 -0.3011
 3072ntf    sn219067   3.929   2.432   1.059 -0.2421  0.1236 -0.0029
 3072ntf    nn319068   3.914   2.581   1.106  0.4962  0.3649 -0.5192
 3072ntf    sn219069   3.852   2.701   1.027 -0.0761  0.1034 -0.4681
 3072ntf    cn119070   4.001   2.756   0.940  0.3148  0.0304  0.1504
 3072ntf    fn419071   3.715   2.455   1.204 -0.1356  0.0769 -0.2242
 3072ntf    fn419072   3.682   2.334   1.032 -0.3221 -0.2679 -0.1993
 3072ntf    fn419073   3.795   2.257   1.194  0.2717  0.4652  0.2031
 3072ntf    on519074   4.029   2.357   1.132  0.1711  0.5939 -0.0808
 3072ntf    on519075   3.915   2.412   0.917 -0.4432  0.8139 -0.0828
 3072ntf    on519076   3.816   2.810   1.114 -0.0053  0.1009 -0.4356
 3072ntf    on519077   3.749   2.678   0.928 -0.4127  0.1405 -0.1285
 3072ntf    fn419078   4.055   2.676   0.849  0.7404 -0.0596  0.4824
 3072ntf    fn419079   3.970   2.867   0.874 -0.7301 -0.2089  0.2328
 3072ntf    fn419080   4.100   2.802   1.015  0.4326 -0.3404  0.2229
 3073ntf    cn119081   4.087   2.191   5.083 -0.1960  0.0391 -0.5475
 3073ntf    sn219082   4.038   2.345   5.165 -0.0801 -0.2961  0.1546
 3073ntf    nn319083   3.938   2.410   5.063  0.1753  0.0096  0.0949
 3073ntf    sn219084   3.948   2.542   4.980 -0.2538 -0.1729 -0.2535
 3073ntf    cn119085   4.039   2.485   4.833  0.1620  0.1987 -0.1423
 3073ntf    fn419086   4.177   2.121   5.150 -0.5449  0.2638  0.1637
 3073ntf    fn419087   3.984   2.114   5.054 -0.1259 -0.1606 -0.2680
 3073ntf    fn419088   4.147   2.221   4.969  0.1830 -0.0780 -0.3806
 3073ntf    on519089   3.964   2.300   5.281  0.5155  0.0334  0.6726
 3073ntf    on519090   4.163   2.412   5.191 -0.1773  0.1959 -0.6314
 3073ntf    on519091   4.030   2.645   5.039 -0.5289  0.0242 -0.2123
 3073ntf    on519092   3.822   2.584   4.924 -0.0798  0.1753 -0.3843
 3073ntf    fn419093   4.079   2.578   4.747 -0.1709  0.0301 -0.4792
 3073ntf    fn419094   4.146   2.423   4.880 -0.1222  0.0177  0.2754
 3073ntf    fn419095   3.967   2.396   4.768 -0.1737  0.0971  0.3659
 3074ntf    cn119096   2.306   1.584   0.918  0.3109  0.2838 -0.0497
 3074ntf    sn219097   2.445   1.573   0.802  0.2096 -0.1448 -0.1320
 3074ntf    nn319098   2.369   1.601   0.667  0.2595  0.4462 -0.0394
 3074ntf    sn219099   2.408   1.547   0.525  0.1368  0.1863  0.0242
 3074ntf    cn119100   2.488   1.693   0.452 -0.2066  0.3970  0.0665
 3074ntf    fn419101   2.343   1.544   1.039 -0.2040 -0.2195 -0.0522
 3074ntf    fn419102   2.257   1.706   0.924 -0.6978 -0.0907 -0.4653
 3074ntf    fn419103   2.203   1.508   0.883  0.2095  0.2055  0.4098
 3074ntf    on519104   2.529   1.684   0.839  0.0012 -0.2751  0.7359
 3074ntf    on519105   2.491   1.438   0.828 -0.1346 -0.3180 -0.4100
 3074ntf    on519106   2.296   1.531   0.435 -0.4136 -0.0782  0.7471
 3074ntf    on519107   2.514   1.449   0.521  0.0940  0.1473 -0.1822
 3074ntf    fn419108   2.408   1.798   0.438 -0.5102  0.1914  0.2529
 3074ntf    fn419109   2.585   1.732   0.532 -0.2109  0.2354  0.1489
 3074ntf    fn419110   2.542   1.666   0.334 -0.0504  0.1434  0.1952
 3075ntf    cn119111   2.433   3.537   0.220 -0.3061 -0.6649 -0.0947
 3075ntf    sn219112   2.451   3.495   0.396 -0.2504  0.2448  0.1201
 3075ntf    nn319113   2.387   3.352   0.395  0.0739  0.0992  0.0163
 3075ntf    sn219114   2.278   3.279   0.480 -0.0064  0.3489  0.1292
 3075ntf    cn119115   2.342   3.109   0.464 -0.4350  0.1734  0.2423
 3075ntf    fn419116   2.315   3.515   0.164 -0.2221 -0.4425 -0.3611
 3075ntf    fn419117   2.456   3.663   0.188  0.1144 -0.6820  0.1243
 3075ntf    fn419118   2.526   3.473   0.150  0.2995  0.3649 -0.2595
 3075ntf    on519119   2.591   3.500   0.430 -0.4069  0.6912  0.7312
 3075ntf    on519120   2.372   3.602   0.451 -0.5328  0.0679  0.0596
 3075ntf    on519121   2.149   3.282   0.416 -0.0303 -0.4109  0.1292
 3075ntf    on519122   2.280   3.297   0.623 -0.3661  0.4893  0.1191
 3075ntf    fn419123   2.278   3.023   0.541  0.0869 -0.3319  0.1179
 3075ntf    fn419124   2.327   3.071   0.338 -0.2830  0.0638  0.2572
 3075ntf    fn419125   2.470   3.103   0.497 -0.4261 -0.0574  0.1659
 3076ntf    cn119126   2.871   2.646   3.277  0.2155 -0.0589  0.1814
 3076ntf    sn219127   2.713   2.687   3.356  0.2405  0.0065  0.1966
 3076ntf    nn319128   2.680   2.834   3.312  0.3666 -0.0637 -0.1327
 3076ntf    sn219129   2.713   2.965   3.392 -0.1475  0.0027 -0.0240
 3076ntf    cn119130   2.563   2.987   3.493  0.1024  0.0512  0.3400
 3076ntf    fn419131   2.866   2.632   3.145 -0.2228 -0.0499  0.1955
 3076ntf    fn419132   2.969   2.730   3.310 -0.0329  0.3275 -0.0595
 3076ntf    fn419133   2.918   2.533   3.328  0.0491 -0.1336  0.1683
 3076ntf    on519134   2.622   2.595   3.295  0.2202 -0.0105  0.2535
 3076ntf    on519135   2.738   2.664   3.497  0.0102 -0.1189  0.2155
 3076ntf    on519136   2.710   3.067   3.290  0.7130 -0.1671 -0.2266
 3076ntf    on519137   2.823   2.969   3.485 -0.3777  0.1459  0.2446
 3076ntf    fn419138   2.456   2.972   3.416  0.2852 -0.1681  0.1272
 3076ntf    fn419139   2.555   2.888   3.581 -0.4245  0.1868  0.4478
 3076ntf    fn419140   2.557   3.100   3.562 -0.8603  0.0222  0.3137
 3077ntf    cn119141   2.691   6.320   2.463 -0.2813 -0.0181  0.0484
 3077ntf    sn219142   2.614   6.198   2.353 -0.3791  0.1313 -0.0502
 3077ntf    nn319143   2.720   6.189   2.237 -0.4061 -0.2443 -0.0490
 3077ntf    sn219144   2.865   6.129   2.247 -0.1835  0.3179  0.1706
 3077ntf    cn119145   2.838   5.969   2.165  0.0229  0.4111 -0.0819
 3077ntf    fn419146   2.787   6.267   2.537 -0.3392  0.1919  0.2767
 3077ntf    fn419147   2.734   6.433   2.408 -0.8508 -0.0505 -0.4675
 3077ntf    fn419148   2.600   6.357   2.552 -0.4074 -0.2491  0.0162
 3077ntf    on519149   2.598   6.077   2.429 -0.1224 -0.1602 -0.4554
 3077ntf    on519150   2.497   6.264   2.301 -0.1468  0.4114 -0.2208
 3077ntf    on519151   2.924   6.092   2.373 -0.0442  1.0647  0.3280
 3077ntf    on519152   2.954   6.189   2.151  0.3808 -0.1016  0.4240
 3077ntf    fn419153   2.778   5.992   2.050  0.2899  0.2388 -0.2542
 3077ntf    fn419154   2.949   5.902   2.140 -0.3917 -0.2839 -0.1028
 3077ntf    fn419155   2.760   5.882   2.229 -0.2254  0.3644 -0.4468
 3078ntf    cn119156   3.523   0.619   4.560  0.0906  0.2760 -0.0931
 3078ntf    sn219157   3.476   0.704   4.713 -0.0773 -0.0408  0.0328
 3078ntf    nn319158   3.610   0.774   4.755 -0.1550  0.0310  0.1639
 3078ntf    sn219159   3.666   0.916   4.718 -0.1057 -0.0436 -0.0505
 3078ntf    cn119160   3.820   0.849   4.647  0.0901  0.1991  0.1429
 3078ntf    fn419161   3.637   0.551   4.559 -0.3519 -0.4705 -0.2884
 3078ntf    fn419162   3.432   0.529   4.527 -0.0451  0.1372  0.6444
 3078ntf    fn419163   3.541   0.703   4.459  0.6985  0.3560  0.0754
 3078ntf    on519164   3.366   0.788   4.671 -0.1794 -0.3320 -0.2801
 3078ntf    on519165   3.447   0.592   4.799  0.0061  0.0500  0.1802
 3078ntf    on519166   3.714   0.995   4.829  0.0261  0.0922 -0.2030
 3078ntf    on519167   3.600   0.980   4.607  0.2106  0.0271 -0.1999
 3078ntf    fn419168   3.913   0.943   4.637  0.4521 -0.1190  0.4919
 3078ntf    fn419169   3.867   0.747   4.717  0.5775  0.3110 -0.0233
 3078ntf    fn419170   3.796   0.803   4.525 -0.4788  0.3469  0.1965
 3079ntf    cn119171   4.712   5.256   4.315  0.0810 -0.0955 -0.0993
 3079ntf    sn219172   4.746   5.432   4.285  0.0635 -0.0593  0.0902
 3079ntf    nn319173   4.733   5.493   4.429  0.3181  0.0190  0.0815
 3079ntf    sn219174   4.619   5.573   4.502  0.2241 -0.1159  0.0838
 3079ntf    cn119175   4.650   5.512   4.671 -0.0608  0.1002  0.2136
 3079ntf    fn419176   4.589   5.237   4.360  0.0835  0.0618 -0.0247
 3079ntf    fn419177   4.722   5.187   4.202 -0.2932 -0.2482 -0.0417
 3079ntf    fn419178   4.797   5.204   4.402 -0.0846 -0.0138  0.1128
 3079ntf    on519179   4.883   5.430   4.240  0.0298  0.4495 -0.0425
 3079ntf    on519180   4.646   5.466   4.187 -0.0440  0.6586  0.4463
 3079ntf    on519181   4.490   5.517   4.471  0.1483  0.1241 -0.0303
 3079ntf    on519182   4.632   5.714   4.527  0.4414 -0.1804  0.3467
 3079ntf    fn419183   4.553   5.549   4.752 -0.3426  0.0848 -0.1125
 3079ntf    fn419184   4.653   5.380   4.666 -0.0655  0.1067  0.0089
 3079ntf    fn419185   4.766   5.552   4.720  0.1157 -0.1243 -0.0177
 3080ntf    cn119186   4.550   3.067   3.216  0.2896 -0.1003  0.1339
 3080ntf    sn219187   4.460   3.134   3.358 -0.2647 -0.3823 -0.0823
 3080ntf    nn319188   4.511   3.283   3.354 -0.5080 -0.3038 -0.3008
 3080ntf    sn219189   4.451   3.398   3.266 -0.6381  0.2229  0.4732
 3080ntf    cn119190   4.507   3.545   3.359  0.4060 -0.0521  0.2966
 3080ntf    fn419191   4.495   2.956   3.170  0.8005 -0.0547 -0.6070
 3080ntf    fn419192   4.555   3.158   3.120 -0.1317 -0.3006 -0.0791
 3080ntf    fn419193   4.675   3.035   3.246  0.2472 -0.1019  0.3107
 3080ntf    on519194   4.320   3.116   3.327 -0.3193  0.4171 -0.3292
 3080ntf    on519195   4.510   3.052   3.465 -0.3666 -0.3491 -0.0086
 3080ntf    on519196   4.308   3.408   3.272 -0.6306  0.3420  0.4797
 3080ntf    on519197   4.517   3.414   3.138 -0.5576  0.0681  0.4950
 3080ntf    fn419198   4.441   3.561   3.472 -0.3047 -0.3136 -0.0720
 3080ntf    fn419199   4.637   3.548   3.379  0.4290 -0.1339  0.1586
 3080ntf    fn419200   4.475   3.655   3.293 -0.8912 -0.3906  0.3169
 3081ntf    cn119201   2.596   1.701   6.838 -0.1127 -0.1076  0.1847
 3081ntf    sn219202   2.659   1.869   6.813 -0.2414 -0.0501  0.2516
 3081ntf    nn319203   2.672   1.926   6.959  0.0965 -0.1856  0.2746
 3081ntf    sn219204   2.590   2.040   7.028  0.1684 -0.0126  0.0739
 3081ntf    cn119205   2.530   1.950   7.174  0.5039 -0.2392  0.0722
 3081ntf    fn419206   2.471   1.700   6.880 -0.1236 -0.2254  0.1498
 3081ntf    fn419207   2.613   1.636   6.724  0.0171  0.0645  0.1055
 3081ntf    fn419208   2.677   1.644   6.926 -0.3620 -0.2027  0.3534
 3081ntf    on519209   2.787   1.849   6.751 -0.5425  0.5236 -0.5861
 3081ntf    on519210   2.549   1.924   6.736  0.1051  0.3525  0.0393
 3081ntf    on519211   2.466   2.081   6.967  0.5983  0.8029 -0.2814
 3081ntf    on519212   2.667   2.145   7.090  0.0883  0.2398 -0.2520
 3081ntf    fn419213   2.470   2.033   7.258 -0.0392 -0.0582 -0.4932
 3081ntf    fn419214   2.436   1.864   7.138  0.1203  0.1534  0.1214
 3081ntf    fn419215   2.621   1.877   7.237  0.2790 -0.2572  0.3808
 3082ntf    cn119216   6.491   4.507   5.712 -0.1569  0.2312 -0.1973
 3082ntf    sn219217   6.472   4.557   5.886  0.0724 -0.2676 -0.0268
 3082ntf    nn319218   6.399   4.695   5.876 -0.4242 -0.5633 -0.5708
 3082ntf    sn219219   6.248   4.724   5.909 -0.1935 -0.1041  0.0953
 3082ntf    cn119220   6.245   4.727   6.091  0.0470  0.0498  0.0980
 3082ntf    fn419221   6.548   4.603   5.641  0.7881  0.1017  0.3713
 3082ntf    fn419222   6.561   4.395   5.700 -0.6263 -0.1182  0.2878
 3082ntf    fn419223   6.369   4.479   5.669 -0.1983 -0.5217  0.3858
 3082ntf    on519224   6.389   4.454   5.945  0.4175 -0.4418  0.1573
 3082ntf    on519225   6.605   4.566   5.941 -0.2489  0.1215  0.6980
 3082ntf    on519226   6.157   4.621   5.866 -0.2922  0.1570 -0.3188
 3082ntf    on519227   6.219   4.862   5.877  0.0572 -0.1308 -0.2483
 3082ntf    fn419228   6.303   4.832   6.147  0.0651 -0.0728  0.3115
 3082ntf    fn419229   6.122   4.739   6.139 -0.2330  0.2512 -0.6592
 3082ntf    fn419230   6.303   4.624   6.150  0.6219  0.1280 -0.3350
 3083ntf    cn119231   6.382   1.419   5.617  0.0708  0.4162 -0.1354
 3083ntf    sn219232   6.487   1.487   5.484  0.1704 -0.0600 -0.3042
 3083ntf    nn319233   6.381   1.499   5.368 -0.6933 -0.0836  0.4664
 3083ntf    sn219234   6.326   1.395   5.264 -0.1655  0.2331 -0.1365
 3083ntf    cn119235   6.440   1.431   5.127 -0.1673 -0.1045 -0.2276
 3083ntf    fn419236   6.453   1.393   5.725  0.1648  0.1847 -0.2502
 3083ntf    fn419237   6.277   1.495   5.641  0.1711  0.3308  0.5791
 3083ntf    fn419238   6.329   1.305   5.576  0.2199  0.2060  0.2569
 3083ntf    on519239   6.514   1.616   5.542  0.2794 -0.0566 -0.3642
 3083ntf    on519240   6.598   1.398   5.464  0.0574 -0.1682 -0.4599
 3083ntf    on519241   6.200   1.439   5.210 -0.2965  0.3184  0.2305
 3083ntf    on519242   6.348   1.255   5.294 -0.1241  0.2554 -0.0620
 3083ntf    fn419243   6.421   1.549   5.071 -0.2548  0.0545  0.1370
 3083ntf    fn419244   6.568   1.435   5.157 -0.2292 -0.4275  0.0916
 3083ntf    fn419245   6.423   1.347   5.026  0.3123 -0.0115 -0.3847
 3084ntf    cn119246   3.886   6.848   6.866  0.2598 -0.2280  0.0719
 3084ntf    sn219247   4.007   6.753   6.770  0.1369 -0.1487 -0.1662
 3084ntf    nn319248   4.143   6.795   6.838  0.0573  0.3357 -0.3061
 3084ntf    sn219249   4.220   6.730   6.958 -0.0173  0.2330 -0.3130
 3084ntf    cn119250   4.330   6.616   6.867 -0.1518 -0.1153 -0.0411
 3084ntf    fn419251   3.890   6.974   6.824 -0.0075 -0.2344  0.0235
 3084ntf    fn419252   3.758   6.818   6.847  0.1438  0.0808  0.3500
 3084ntf    fn419253   3.911   6.856   6.995  0.0609  0.2681  0.0845
 3084ntf    on519254   3.977   6.612   6.776 -0.1275 -0.0916 -0.1492
 3084ntf    on519255   4.000   6.819   6.643  0.1834  0.1663 -0.0056
 3084ntf    on519256   4.140   6.649   7.046  0.2059 -0.0424 -0.3603
 3084ntf    on519257   4.299   6.834   7.017  0.6308  0.1009 -0.9271
 3084ntf    fn419258   4.258   6.544   6.782  0.1353 -0.0359 -0.3523
 3084ntf    fn419259   4.428   6.676   6.801  0.2990 -0.4205  0.3454
 3084ntf    fn419260   4.393   6.536   6.952  0.5985  0.1704 -0.3179
 3085ntf    cn119261   2.583   4.092   2.707  0.0638  0.2626  0.1073
 3085ntf    sn219262   2.759   4.134   2.726  0.1088  0.0206  0.2243
 3085ntf    nn319263   2.802   4.124   2.575 -0.4616  0.6636  0.0144
 3085ntf    sn219264   2.945   4.150   2.515 -0.2329 -0.3162  0.1220
 3085ntf    cn119265   3.005   3.980   2.492  0.1346 -0.1341 -0.2638
 3085ntf    fn419266   2.519   4.104   2.822 -0.4297  0.0923 -0.1422
 3085ntf    fn419267   2.518   4.165   2.617  0.2274  0.1081 -0.1395
 3085ntf    fn419268   2.574   3.967   2.665  0.2761  0.2551  0.0854
 3085ntf    on519269   2.761   4.269   2.774 -0.2761 -0.0188  0.3574
 3085ntf    on519270   2.809   4.026   2.807 -0.2225  0.1651  0.6242
 3085ntf    on519271   3.039   4.205   2.610  0.2078 -1.0063  0.0934
 3085ntf    on519272   2.947   4.206   2.382  0.1606 -0.1071  0.2124
 3085ntf    fn419273   3.123   3.973   2.432  0.3524  0.4779  0.0909
 3085ntf    fn419274   3.018   3.919   2.608 -0.7305 -0.4591 -0.3375
 3085ntf    fn419275   2.927   3.902   2.419 -0.0332 -0.1105 -0.1092
 3086ntf    cn119276   4.306   4.734   6.633 -0.0306 -0.0340 -0.2725
 3086ntf    sn219277   4.259   4.888   6.549  0.0759 -0.0149 -0.2967
 3086ntf    nn319278   4.276   4.847   6.399 -0.1770  0.2704 -0.4047
 3086ntf    sn219279   4.416   4.829   6.330 -0.0428 -0.0742 -0.0442
 3086ntf    cn119280   4.468   4.997   6.287 -0.1824 -0.0582 -0.1487
 3086ntf    fn419281   4.216   4.690   6.720  0.1159  0.0009 -0.1018
 3086ntf    fn419282   4.325   4.632   6.551 -0.3077  0.5806 -1.1116
 3086ntf    fn419283   4.420   4.752   6.697 -0.2189 -0.2336  0.1259
 3086ntf    on519284   4.116   4.903   6.566  0.0043 -0.5191 -0.4505
 3086ntf    on519285   4.337   5.000   6.596 -0.2446  0.1876 -0.2425
 3086ntf    on519286   4.403   4.774   6.198 -0.0270 -0.3689  0.0752
 3086ntf    on519287   4.517   4.780   6.421  0.0911 -0.0470 -0.1765
 3086ntf    fn419288   4.370   5.063   6.227 -0.3735 -0.1233  0.0930
 3086ntf    fn419289   4.507   5.081   6.382  0.3599  0.1171 -0.5210
 3086ntf    fn419290   4.557   4.985   6.190  0.6188 -0.1479  0.5888
 3087ntf    cn119291   6.041   1.323   0.435 -0.1290  0.0754  0.0894
 3087ntf    sn219292   5.917   1.367   0.560 -0.3385  0.3794 -0.2218
 3087ntf    nn319293   5.988   1.305   0.686 -0.7595  0.1350 -0.0996
 3087ntf    sn219294   5.975   1.343   0.837  0.0398  0.1332 -0.0259
 3087ntf    cn119295   6.134   1.429   0.859  0.1493 -0.1653  0.3884
 3087ntf    fn419296   6.156   1.386   0.450 -0.1887  0.2314 -0.0994
 3087ntf    fn419297   6.074   1.195   0.427 -0.3301  0.0283 -0.0023
 3087ntf    fn419298   5.999   1.366   0.317  0.0317 -0.1929 -0.0653
 3087ntf    on519299   5.915   1.511   0.563 -0.0566  0.3802 -0.0507
 3087ntf    on519300   5.801   1.292   0.519 -0.0210 -0.3247  0.1530
 3087ntf    on519301   5.999   1.232   0.927 -0.4891  0.3408  0.3777
 3087ntf    on519302   5.881   1.447   0.868  0.1723  0.2703 -0.0859
 3087ntf    fn419303   6.131   1.493   0.975  0.2602  0.2987  0.1386
 3087ntf    fn419304   6.248   1.363   0.850 -0.1316 -0.5384 -0.5572
 3087ntf    fn419305   6.137   1.535   0.779 -0.4380 -0.2291  0.2709
 3088ntf    cn119306   3.316   4.652   0.297 -0.0287 -0.3019  0.1219
 3088ntf    sn219307   3.433   4.514   0.288  0.2407 -0.0674  0.0064
 3088ntf    nn319308   3.456   4.486   0.135  0.1755  0.3573 -0.0807
 3088ntf    sn219309   3.369   4.394   0.042  0.0063  0.2625  0.1706
 3088ntf    cn119310   3.402   4.482  -0.114  0.1988  0.0383  0.0845
 3088ntf    fn419311   3.201   4.617   0.239 -0.0885  0.2222 -0.0818
 3088ntf    fn419312   3.299   4.688   0.423 -0.0232 -0.1299  0.0731
 3088ntf    fn419313   3.364   4.757   0.233 -0.4909 -0.0342  0.2092
 3088ntf    on519314   3.555   4.565   0.345  0.0530  0.2053  0.1637
 3088ntf    on519315   3.354   4.413   0.354  0.2086  0.0359  0.1253
 3088ntf    on519316   3.227   4.400   0.067 -0.0740 -0.1913 -0.1628
 3088ntf    on519317   3.429   4.266   0.016 -0.2270  0.1551  0.1546
 3088ntf    fn419318   3.324   4.426  -0.205  0.2771 -0.6119  0.4099
 3088ntf    fn419319   3.370   4.611  -0.108  0.0393  0.0017  0.0522
 3088ntf    fn419320   3.523   4.470  -0.164  0.0160  0.2197 -0.4119
 3089ntf    cn119321   6.293   1.739   2.085 -0.2567 -0.3118  0.3781
 3089ntf    sn219322   6.162   1.863   2.058 -0.1164 -0.3334 -0.4401
 3089ntf    nn319323   6.245   1.966   1.973 -0.1640  0.0225 -0.0605
 3089ntf    sn219324   6.275   1.966   1.819 -0.1043  0.1055 -0.0490
 3089ntf    cn119325   6.133   2.069   1.774 -0.1639  0.1869  0.3246
 3089ntf    fn419326   6.405   1.795   2.127 -0.0446 -0.1476 -0.3919
 3089ntf    fn419327   6.260   1.639   2.164  0.8302 -0.8258  0.1887
 3089ntf    fn419328   6.327   1.687   1.968  0.0014  0.1446  0.2492
 3089ntf    on519329   6.057   1.798   1.984 -0.1097  0.3256 -1.0370
 3089ntf    on519330   6.138   1.921   2.188  0.4342 -0.4755 -0.2701
 3089ntf    on519331   6.251   1.839   1.755  0.1216 -0.2830  0.6206
 3089ntf    on519332   6.381   2.051   1.772  0.2246 -0.2614  0.0243
 3089ntf    fn419333   6.020   2.004   1.796 -0.1496  0.1023  0.1540
 3089ntf    fn419334   6.134   2.189   1.831  1.2431  0.2412  0.2177
 3089ntf    fn419335   6.136   2.094   1.644 -0.2440 -0.0871  0.2700
 3090ntf    cn119336   1.038   0.029   1.360 -0.2780 -0.1013 -0.2122
 3090ntf    sn219337   1.169  -0.094   1.330  0.1011  0.2904 -0.1791
 3090ntf    nn319338   1.187  -0.067   1.177  0.1868 -0.1679 -0.2531
 3090ntf    sn219339   1.320  -0.054   1.096  0.3321  0.1221  0.0271
 3090ntf    cn119340   1.324   0.127   1.082 -0.2833  0.1043 -0.4267
 3090ntf    fn419341   0.936   0.015   1.277 -0.5562 -0.3018  0.1643
 3090ntf    fn419342   0.984   0.019   1.480 -0.0112  0.2422 -0.0621
 3090ntf    fn419343   1.086   0.152   1.359 -0.4962 -0.0141  0.1055
 3090ntf    on519344   1.276  -0.050   1.417  0.3733 -0.5139 -0.0958
 3090ntf    on519345   1.108  -0.224   1.342 -0.0118  0.3412 -0.2037
 3090ntf    on519346   1.299  -0.113   0.966 -0.1079  0.4917 -0.0681
 3090ntf    on519347   1.439  -0.099   1.164  0.2084 -0.2890 -0.0262
 3090ntf    fn419348   1.216   0.181   1.029 -0.4806 -0.1722 -0.3063
 3090ntf    fn419349   1.337   0.176   1.204  0.1102 -0.4468 -0.2433
 3090ntf    fn419350   1.421   0.175   1.006 -0.6584  0.2078 -0.8446
 3091ntf    cn119351   3.562   1.422   0.791 -0.0245 -0.0989  0.6496
 3091ntf    sn219352   3.596   1.563   0.901 -0.0434  0.1510  0.3361
 3091ntf    nn319353   3.465   1.564   0.986 -0.3171 -0.3116 -0.0726
 3091ntf    sn219354   3.431   1.485   1.118 -0.2947 -0.2421 -0.0252
 3091ntf    cn119355   3.532   1.582   1.234 -0.4940  0.1079 -0.1426
 3091ntf    fn419356   3.659   1.426   0.701 -0.3081  0.3689  0.3586
 3091ntf    fn419357   3.575   1.303   0.847  0.4112 -0.4611 -0.2035
 3091ntf    fn419358   3.444   1.416   0.731  0.0945 -0.0664  0.4095
 3091ntf    on519359   3.724   1.534   0.962 -0.0455  0.1943  0.3603
 3091ntf    on519360   3.595   1.679   0.815 -0.0335  0.3695  0.6315
 3091ntf    on519361   3.494   1.356   1.127  0.8150  0.2793 -0.1243
 3091ntf    on519362   3.295   1.494   1.165 -0.1625  0.0678  0.3028
 3091ntf    fn419363   3.528   1.543   1.360 -0.5024 -0.1303 -0.2152
 3091ntf    fn419364   3.657   1.571   1.191 -0.3555  0.0026  0.2794
 3091ntf    fn419365   3.501   1.710   1.239  0.1933  0.2729 -0.0203
 3092ntf    cn119366   2.969   2.493   1.233  0.3151  0.1983 -0.1544
 3092ntf    sn219367   3.102   2.371   1.222  0.1552 -0.0046  0.1750
 3092ntf    nn319368   3.218   2.448   1.150 -0.0764  0.3711  0.2070
 3092ntf    sn219369   3.347   2.498   1.224  0.1031  0.4153 -0.1312
 3092ntf    cn119370   3.430   2.337   1.211 -0.2255  0.2164  0.2029
 3092ntf    fn419371   2.998   2.594   1.314 -0.3500 -0.0425  0.3957
 3092ntf    fn419372   2.938   2.547   1.116 -0.1047  0.3380  0.0188
 3092ntf    fn419373   2.863   2.431   1.282  0.1088  0.4358 -0.2938
 3092ntf    on519374   3.114   2.318   1.356 -0.4568 -0.0032  0.2313
 3092ntf    on519375   3.034   2.279   1.135 -0.1846  0.0767  0.3546
 3092ntf    on519376   3.339   2.525   1.366  0.4461 -0.1612  0.0037
 3092ntf    on519377   3.432   2.585   1.148  0.2160  0.2946 -0.1440
 3092ntf    fn419378   3.463   2.307   1.086 -0.4441  0.4130  0.0974
 3092ntf    fn419379   3.543   2.336   1.279  0.0638 -0.3963 -0.2710
 3092ntf    fn419380   3.361   2.233   1.255  0.4928 -0.1575  0.4528
 3093ntf    cn119381   6.342   5.304   6.775 -0.0064 -0.5179  0.4441
 3093ntf    sn219382   6.443   5.156   6.747  0.4527 -0.1175 -0.0338
 3093ntf    nn319383   6.343   5.048   6.800 -0.2744  0.5269 -0.0752
 3093ntf    sn219384   6.226   4.977   6.723 -0.0022 -0.1068  0.0892
 3093ntf    cn119385   6.312   4.822   6.683  0.0894  0.0001 -0.1314
 3093ntf    fn419386   6.409   5.410   6.732 -0.1577 -0.4152  0.4579
 3093ntf    fn419387   6.223   5.300   6.718  0.0504 -0.0541  0.2885
 3093ntf    fn419388   6.314   5.327   6.902 -0.2916 -0.1180  0.3140
 3093ntf    on519389   6.470   5.146   6.605  0.1207  0.8141 -0.1698
 3093ntf    on519390   6.551   5.173   6.841  0.5850 -0.5033 -0.1149
 3093ntf    on519391   6.190   5.030   6.594  0.8827  0.1934 -0.0389
 3093ntf    on519392   6.125   4.935   6.817  0.0058  0.5082  0.3719
 3093ntf    fn419393   6.425   4.843   6.618  0.2001  0.3197  0.1594
 3093ntf    fn419394   6.334   4.749   6.792  0.5907 -0.1768 -0.3493
 3093ntf    fn419395   6.240   4.744   6.604  0.0787  0.1208 -0.2397
 3094ntf    cn119396   3.881   4.269   1.748 -0.1527  0.1449 -0.0004
 3094ntf    sn219397   3.787   4.145   1.843 -0.0723  0.0819 -0.0026
 3094ntf    nn319398   3.762   4.225   1.975  0.1885 -0.1382  0.1818
 3094ntf    sn219399   3.632   4.241   2.062  0.1350 -0.0301  0.0823
 3094ntf    cn119400   3.679   4.159   2.217 -0.2703  0.0090  0.2281
 3094ntf    fn419401   3.993   4.292   1.814 -0.1852 -0.5475  0.3074
 3094ntf    fn419402   3.914   4.219   1.630 -0.4889 -0.5552  0.1952
 3094ntf    fn419403   3.818   4.383   1.726 -0.0082  0.0300 -1.0734
 3094ntf    on519404   3.671   4.111   1.764 -0.0295  0.5584 -0.2739
 3094ntf    on519405   3.889   4.044   1.851 -0.4125 -0.2520  0.1275
 3094ntf    on519406   3.524   4.152   2.026  0.2951  0.0495 -0.6046
 3094ntf    on519407   3.600   4.377   2.098  0.3325  0.0732 -0.1245
 3094ntf    fn419408   3.795   4.204   2.263 -0.1820  0.0474 -0.0274
 3094ntf    fn419409   3.583   4.162   2.308 -0.3300  0.0037  0.1657
 3094ntf    fn419410   3.699   4.030   2.198 -0.4822 -0.1444  1.0184
 3095ntf    cn119411   0.028   6.795   1.614 -0.2739 -0.0255 -0.3706
 3095ntf    sn219412  -0.121   6.695   1.585 -0.2379 -0.0310 -0.5396
 3095ntf    nn319413  -0.093   6.622   1.449  0.3802  0.3260 -0.6091
 3095ntf    sn219414  -0.130   6.479   1.396  0.1708  0.1550 -0.0179
 3095ntf    cn119415   0.025   6.393   1.433  0.0328  0.0232  0.2545
 3095ntf    fn419416   0.012   6.892   1.702  0.6200 -0.0583 -0.1602
 3095ntf    fn419417   0.130   6.723   1.659 -0.7057 -0.2636  0.2466
 3095ntf    fn419418   0.082   6.851   1.507 -0.3655 -0.0436 -0.4265
 3095ntf    on519419  -0.120   6.605   1.697 -0.3806  0.0673 -0.4589
 3095ntf    on519420  -0.223   6.798   1.585  0.1053  0.3120 -0.1177
 3095ntf    on519421  -0.148   6.469   1.253 -0.2749  0.3928  0.0192
 3095ntf    on519422  -0.225   6.412   1.480  0.2577  0.3060  0.1997
 3095ntf    fn419423   0.035   6.354   1.559  0.0664  0.0879  0.2719
 3095ntf    fn419424   0.053   6.292   1.351 -0.0130  0.0766  0.1735
 3095ntf    fn419425   0.121   6.480   1.408  0.1974 -0.3153 -0.3232
 3096ntf    cn119426   0.300   1.042   6.852  0.2267  0.0287  0.0027
 3096ntf    sn219427   0.427   1.037   6.722 -0.0822 -0.0157 -0.2988
 3096ntf    nn319428   0.408   0.890   6.670 -0.1155 -0.2569  0.3900
 3096ntf    sn219429   0.507   0.768   6.663 -0.2930 -0.3781 -0.0693
 3096ntf    cn119430   0.410   0.643   6.752 -0.2403 -0.0744  0.4198
 3096ntf    fn419431   0.321   0.949   6.944  0.7411  0.1807  0.0454
 3096ntf    fn419432   0.307   1.156   6.917  0.1675 -0.0668  0.1777
 3096ntf    fn419433   0.179   1.022   6.802  0.4677 -0.4567 -0.3981
 3096ntf    on519434   0.377   1.127   6.621  0.0388 -0.0354 -0.3769
 3096ntf    on519435   0.551   1.067   6.790 -0.0147  0.1425 -0.4879
 3096ntf    on519436   0.633   0.773   6.734 -0.5385 -0.5203  0.3815
 3096ntf    on519437   0.516   0.720   6.528 -0.1223 -0.6897  0.0512
 3096ntf    fn419438   0.368   0.689   6.869 -0.3059 -0.2329  0.4598
 3096ntf    fn419439   0.303   0.594   6.692  0.0182 -0.1234  0.0015
 3096ntf    fn419440   0.491   0.541   6.775 -0.0848 -0.1791 -0.5579
 3097ntf    cn119441   2.662   4.222   6.293 -0.2407  0.1194  0.3193
 3097ntf    sn219442   2.565   4.337   6.191 -0.1503 -0.1248 -0.0474
 3097ntf    nn319443   2.679   4.389   6.097 -0.5488  0.1052 -0.4107
 3097ntf    sn219444   2.710   4.534   6.045 -0.3100  0.1432 -0.1650
 3097ntf    cn119445   2.679   4.506   5.868  0.3207 -0.1604 -0.2321
 3097ntf    fn419446   2.784   4.269   6.312 -0.1681  0.0970 -0.0800
 3097ntf    fn419447   2.609   4.196   6.411 -0.1953 -0.3405  0.2398
 3097ntf    fn419448   2.679   4.108   6.227  0.1294  0.5344 -0.3176
 3097ntf    on519449   2.473   4.250   6.123 -0.2288  0.0145 -0.1221
 3097ntf    on519450   2.515   4.434   6.287  0.1780 -0.0800  0.0774
 3097ntf    on519451   2.849   4.571   6.046 -0.1819 -0.3300 -0.1511
 3097ntf    on519452   2.610   4.633   6.073 -0.3000  0.1673 -0.2155
 3097ntf    fn419453   2.755   4.409   5.819  0.3758 -0.3116  0.1503
 3097ntf    fn419454   2.553   4.473   5.844  0.2794  0.1530 -0.4482
 3097ntf    fn419455   2.713   4.613   5.798 -0.1076  0.0417 -0.1368
 3098ntf    cn119456   5.319   6.871   5.433 -0.1850 -0.1135  0.2265
 3098ntf    sn219457   5.227   6.714   5.447  0.0545 -0.2779 -0.0223
 3098ntf    nn319458   5.231   6.675   5.599 -0.4519  0.1351  0.0997
 3098ntf    sn219459   5.219   6.765   5.727 -0.0730 -0.1817  0.3618
 3098ntf    cn119460   5.247   6.643   5.859 -0.3963 -0.2603  0.3560
 3098ntf    fn419461   5.258   6.974   5.489  0.2783  0.3971 -0.2009
 3098ntf    fn419462   5.441   6.868   5.484 -0.3337 -0.3114  0.5783
 3098ntf    fn419463   5.336   6.902   5.305  0.6356 -0.2389  0.3017
 3098ntf    on519464   5.096   6.747   5.398  0.4214  1.2548 -0.0168
 3098ntf    on519465   5.304   6.627   5.362  0.3820 -0.1181  0.1072
 3098ntf    on519466   5.084   6.808   5.754 -0.1230 -0.1382  0.0494
 3098ntf    on519467   5.325   6.859   5.755 -0.3617  0.3798 -0.4030
 3098ntf    fn419468   5.166   6.540   5.838 -0.2899 -0.3137  0.2056
 3098ntf    fn419469   5.371   6.599   5.872 -0.2405  0.1150  0.1555
 3098ntf    fn419470   5.214   6.689   5.978 -0.3521  0.5555  0.0589
 3099ntf    cn119471   4.636   3.140   0.513 -0.0353  0.3703  0.0180
 3099ntf    sn219472   4.781   3.031   0.507 -0.0628  0.3190  0.2574
 3099ntf    nn319473   4.782   3.000   0.661 -0.6500 -0.2515  0.1494
 3099ntf    sn219474   4.847   3.079   0.781 -0.3319 -0.0370 -0.1631
 3099ntf    cn119475   5.001   2.982   0.782 -0.4945 -0.2964 -0.0890
 3099ntf    fn419476   4.616   3.189   0.392 -0.1928 -0.7496 -0.4257
 3099ntf    fn419477   4.531   3.074   0.560  0.3357  0.0042  0.3465
 3099ntf    fn419478   4.659   3.240   0.596  0.2569  0.4289 -0.1321
 3099ntf    on519479   4.743   2.916   0.429  0.3217  0.4057 -0.0654
 3099ntf    on519480   4.891   3.107   0.452 -0.2326  0.2573 -0.1649
 3099ntf    on519481   4.785   3.048   0.907  0.4900  0.0001  0.2528
 3099ntf    on519482   4.892   3.213   0.755  0.0802 -0.0297  0.5817
 3099ntf    fn419483   5.093   3.037   0.859 -0.4725 -0.9231  0.3366
 3099ntf    fn419484   4.979   2.864   0.837 -0.2126 -0.0448  0.5771
 3099ntf    fn419485   5.063   2.958   0.668 -0.3831 -0.0437 -0.0809
 3100ntf    cn119486   5.994   4.344   0.637 -0.1402  0.1372 -0.1494
 3100ntf    sn219487   5.910   4.498   0.684  0.0310  0.0805  0.3414
 3100ntf    nn319488   5.794   4.436   0.769 -0.1562  0.1055  0.1038
 3100ntf    sn219489   5.639   4.462   0.779 -0.1536  0.1187  0.1109
 3100ntf    cn119490   5.617   4.480   0.959  0.2681 -0.1933  0.1952
 3100ntf    fn419491   5.900   4.262   0.591 -0.0561  0.2026 -0.4389
 3100ntf    fn419492   6.088   4.358   0.545 -0.1656 -0.1072 -0.2142
 3100ntf    fn419493   6.053   4.283   0.739  0.1568 -0.5689 -0.7318
 3100ntf    on519494   6.012   4.560   0.764  0.4260  0.2236 -0.2660
 3100ntf    on519495   5.875   4.564   0.561 -0.3448 -1.1284 -0.2129
 3100ntf    on519496   5.562   4.343   0.752  0.2734 -0.1215 -0.0561
 3100ntf    on519497   5.595   4.589   0.727  0.0983  0.1033 -0.1409
 3100ntf    fn419498   5.494   4.452   0.997  0.0016  0.7455  0.0502
 3100ntf    fn419499   5.703   4.408   1.029  0.1569 -0.4344  0.0819
 3100ntf    fn419500   5.629   4.610   0.986 -0.2160 -0.1726  0.3103
 3101ntf    cn119501   1.351   5.134   0.008  0.4184 -0.2435  0.0372
 3101ntf    sn219502   1.363   5.296   0.091 -0.0532  0.0281 -0.4192
 3101ntf    nn319503   1.518   5.301   0.116 -0.0794 -0.1225 -0.2211
 3101ntf    sn219504   1.634   5.404   0.089  0.1794 -0.3931 -0.1461
 3101ntf    cn119505   1.741   5.316  -0.029  0.3265 -0.2161 -0.1447
 3101ntf    fn419506   1.410   5.148  -0.109  0.2183 -0.3636 -0.0778
 3101ntf    fn419507   1.414   5.034   0.067  0.0698 -0.5404 -0.0934
 3101ntf    fn419508   1.226   5.099  -0.018  0.2307  0.4038  0.0485
 3101ntf    on519509   1.315   5.373  -0.021  0.0270 -0.0216 -0.4888
 3101ntf    on519510   1.288   5.274   0.212  0.2580 -0.2502 -0.2731
 3101ntf    on519511   1.714   5.432   0.205  0.5917  0.3700 -0.6100
 3101ntf    on519512   1.586   5.516   0.012  0.3935 -0.2026 -0.0036
 3101ntf    fn419513   1.836   5.253   0.040  0.0918 -0.1170  0.2731
 3101ntf    fn419514   1.677   5.220  -0.094  0.1936  0.0079 -0.3459
 3101ntf    fn419515   1.803   5.390  -0.120 -0.0375  0.2617 -0.0077
 3102ntf    cn119516   6.389   3.287   5.440 -0.0221  0.2266  0.1880
 3102ntf    sn219517   6.234   3.212   5.382  0.2176 -0.2961  0.2203
 3102ntf    nn319518   6.276   3.061   5.388 -0.0094 -0.3969 -0.5358
 3102ntf    sn219519   6.187   2.943   5.440 -0.1841 -0.1073 -0.1760
 3102ntf    cn119520   6.298   2.885   5.571 -0.2266  0.3675  0.0762
 3102ntf    fn419521   6.447   3.226   5.542  0.1066 -0.3463 -0.2254
 3102ntf    fn419522   6.483   3.289   5.348  0.0077  0.4284  0.2213
 3102ntf    fn419523   6.386   3.417   5.468  0.4372  0.3405 -0.2754
 3102ntf    on519524   6.137   3.256   5.480 -0.6654 -0.6066 -0.4942
 3102ntf    on519525   6.217   3.275   5.253 -0.4021  0.8480  0.8375
 3102ntf    on519526   6.183   2.831   5.350  0.4222 -0.3431  0.0911
 3102ntf    on519527   6.065   2.965   5.514 -0.0987 -0.1935 -0.0084
 3102ntf    fn419528   6.283   2.759   5.608 -0.2728  0.0508 -0.9750
 3102ntf    fn419529   6.425   2.884   5.534 -0.1854  0.0628  0.2142
 3102ntf    fn419530   6.289   2.958   5.680 -0.5333  0.2537  0.1262
 3103ntf    cn119531   6.843   0.071   2.340  0.1531 -0.0379  0.0653
 3103ntf    sn219532   6.727  -0.066   2.372  0.0434 -0.0071 -0.2052
 3103ntf    nn319533   6.805  -0.172   2.286 -0.3242 -0.6789  0.2786
 3103ntf    sn219534   6.778  -0.210   2.136 -0.2992  0.3190  0.0146
 3103ntf    cn119535   6.719  -0.380   2.154 -0.3932  0.3975  0.4579
 3103ntf    fn419536   6.966   0.024   2.343 -0.0894 -0.7416 -0.5810
 3103ntf    fn419537   6.824   0.127   2.222  0.1719 -0.5201 -0.1689
 3103ntf    fn419538   6.829   0.168   2.429  0.1458 -0.1439  0.1797
 3103ntf    on519539   6.742  -0.093   2.512  0.0259  0.2679 -0.1501
 3103ntf    on519540   6.599  -0.021   2.323  0.1174  0.0021 -0.3948
 3103ntf    on519541   6.900  -0.229   2.061 -0.6696 -0.2518 -0.4544
 3103ntf    on519542   6.666  -0.148   2.069  0.0250  0.4274 -0.4314
 3103ntf    fn419543   6.811  -0.471   2.182 -0.3412  0.0931 -0.6698
 3103ntf    fn419544   6.617  -0.400   2.236 -0.2535  0.3296  0.6158
 3103ntf    fn419545   6.674  -0.431   2.040  0.2020  0.4471  0.1929
 3104ntf    cn119546   3.903   4.179   4.579  0.2710  0.0638  0.6251
 3104ntf    sn219547   4.018   4.232   4.709  0.5810  0.0693  0.3495
 3104ntf    nn319548   4.008   4.115   4.812 -0.1207  0.3458  0.6014
 3104ntf    sn219549   4.123   4.068   4.909  0.1601 -0.3260 -0.0515
 3104ntf    cn119550   4.183   4.223   4.981 -0.6141  0.1149 -0.3433
 3104ntf    fn419551   3.936   4.078   4.500  0.1401  0.7100 -0.2801
 3104ntf    fn419552   3.789   4.144   4.637  0.0257 -0.4274 -0.1383
 3104ntf    fn419553   3.865   4.273   4.493  0.2004 -0.4119  0.1317
 3104ntf    on519554   4.140   4.246   4.632  0.0122 -0.3983 -0.6500
 3104ntf    on519555   3.956   4.352   4.759 -0.5254 -0.5462  0.4768
 3104ntf    on519556   4.237   3.999   4.853  0.2856 -0.0912 -0.0847
 3104ntf    on519557   4.059   3.997   5.017 -0.3696  0.1005 -0.0850
 3104ntf    fn419558   4.234   4.306   4.890  0.3623 -0.0969  0.0037
 3104ntf    fn419559   4.084   4.286   5.043  0.1542  0.2016  0.8327
 3104ntf    fn419560   4.279   4.206   5.070 -0.8192  0.2079 -0.1025
 3105ntf    cn119561   2.113   2.467   2.368 -0.3209 -0.1409 -0.0133
 3105ntf    sn219562   2.021   2.370   2.246 -0.1984  0.0765 -0.2784
 3105ntf    nn319563   2.005   2.240   2.332 -0.0573  0.0293 -0.3243
 3105ntf    sn219564   2.094   2.110   2.332 -0.1763 -0.0545  0.4746
 3105ntf    cn119565   1.984   1.993   2.248  0.2511 -0.2784  0.2246
 3105ntf    fn419566   2.233   2.413   2.382 -0.3522 -0.2198 -0.0517
 3105ntf    fn419567   2.133   2.592   2.329 -0.5703 -0.1029 -0.0183
 3105ntf    fn419568   2.056   2.470   2.488 -0.0398  0.8281  0.1052
 3105ntf    on519569   1.898   2.445   2.237 -0.3357 -0.1120 -0.0007
 3105ntf    on519570   2.110   2.364   2.132  0.6123  1.0063  0.2937
 3105ntf    on519571   2.103   2.048   2.462 -0.5257  0.0002  0.5255
 3105ntf    on519572   2.215   2.113   2.254 -0.1294  0.0696  0.5515
 3105ntf    fn419573   1.931   2.040   2.137 -0.0675  0.0750  0.5237
 3105ntf    fn419574   2.046   1.882   2.213 -0.0752 -0.3131 -0.2511
 3105ntf    fn419575   1.876   1.965   2.319  0.1561 -0.1112  0.1458
 3106ntf    cn119576   2.713   0.971   3.533 -0.0657  0.1294 -0.5521
 3106ntf    sn219577   2.893   0.947   3.531 -0.0218  0.3794  0.1857
 3106ntf    nn319578   2.909   0.798   3.579  0.3007  0.4323  0.2401
 3106ntf    sn219579   2.953   0.741   3.718 -0.1663 -0.2480  0.1116
 3106ntf    cn119580   2.999   0.569   3.681 -0.1099 -0.2703  0.2810
 3106ntf    fn419581   2.662   0.894   3.438 -0.2476 -0.5023  0.0558
 3106ntf    fn419582   2.643   0.942   3.641  0.1033  0.2295 -0.4151
 3106ntf    fn419583   2.681   1.095   3.496 -0.3812  0.1274 -0.2890
 3106ntf    on519584   2.924   0.958   3.391  0.1675  0.2510  0.2166
 3106ntf    on519585   2.951   1.046   3.618  0.8060  0.5191 -0.5169
 3106ntf    on519586   2.839   0.722   3.806 -0.3083  0.2345  0.0318
 3106ntf    on519587   3.075   0.798   3.770 -0.0864  0.0561 -0.4093
 3106ntf    fn419588   2.899   0.502   3.627 -0.1491 -0.0955  0.1364
 3106ntf    fn419589   3.099   0.559   3.595 -0.1788  0.2596  0.1357
 3106ntf    fn419590   3.048   0.510   3.788 -0.2715 -0.3946  0.2863
 3107ntf    cn119591   2.512   4.570   3.618 -0.2802  0.2019  0.0545
 3107ntf    sn219592   2.503   4.389   3.639 -0.2186  0.2114  0.1664
 3107ntf    nn319593   2.393   4.388   3.751 -0.3482 -0.0401  0.0363
 3107ntf    sn219594   2.418   4.374   3.905  0.5394 -0.0140 -0.0987
 3107ntf    cn119595   2.406   4.195   3.930  0.2154  0.0013 -0.1355
 3107ntf    fn419596   2.402   4.640   3.597 -0.1486  0.3375 -0.1886
 3107ntf    fn419597   2.563   4.627   3.727 -0.2283  0.3336 -0.0382
 3107ntf    fn419598   2.599   4.602   3.524  0.1100 -0.0247  0.3295
 3107ntf    on519599   2.454   4.338   3.514 -0.2175  0.0991  0.2121
 3107ntf    on519600   2.635   4.344   3.675 -0.0904  0.4578  0.0088
 3107ntf    on519601   2.307   4.418   3.987  0.1868 -0.1050 -0.5268
 3107ntf    on519602   2.548   4.416   3.952  0.2555  0.5312  0.2196
 3107ntf    fn419603   2.401   4.168   4.059 -0.0740 -0.0742 -0.1628
 3107ntf    fn419604   2.299   4.150   3.867 -0.1420  0.5301  0.0926
 3107ntf    fn419605   2.510   4.137   3.871  0.1682 -0.2521  0.0295
 3108ntf    cn119606   4.531   5.723   2.852  0.3428 -0.0056 -0.2649
 3108ntf    sn219607   4.584   5.811   3.002 -0.2120 -0.1772  0.0366
 3108ntf    nn319608   4.655   5.935   2.938 -0.1101  0.0889  0.6630
 3108ntf    sn219609   4.622   6.089   2.934 -0.0925  0.0769  0.0127
 3108ntf    cn119610   4.686   6.141   3.096  0.2607 -0.0864 -0.0727
 3108ntf    fn419611   4.635   5.702   2.773  0.1717 -0.5816 -0.3412
 3108ntf    fn419612   4.477   5.605   2.876  0.3443  0.0890  0.2018
 3108ntf    fn419613   4.445   5.799   2.785 -0.3388 -0.1985  0.3791
 3108ntf    on519614   4.464   5.838   3.076 -0.2645 -0.0378 -0.0986
 3108ntf    on519615   4.679   5.719   3.060  0.0482 -0.1474 -0.3366
 3108ntf    on519616   4.484   6.131   2.929 -0.1587 -0.0952  0.3724
 3108ntf    on519617   4.716   6.159   2.850  0.2739 -0.0389  0.3216
 3108ntf    fn419618   4.620   6.089   3.199  0.3673 -0.1711 -0.0466
 3108ntf    fn419619   4.813   6.110   3.112  0.0952 -0.4055  0.6838
 3108ntf    fn419620   4.676   6.272   3.109 -0.1403 -0.1177 -0.0596
 3109ntf    cn119621   1.585   3.921   3.366 -0.1823  0.2485 -0.3410
 3109ntf    sn219622   1.454   4.015   3.282 -0.4358 -0.1334 -0.3749
 3109ntf    nn319623   1.425   3.916   3.163  0.0570  0.0160 -0.6181
 3109ntf    sn219624   1.301   3.821   3.153  0.4018 -0.4883 -0.1746
 3109ntf    cn119625   1.172   3.942   3.112  0.2939 -0.4255  0.3399
 3109ntf    fn419626   1.698   3.916   3.298 -0.2988  0.1703 -0.5319
 3109ntf    fn419627   1.615   3.977   3.482 -0.4243 -0.1532 -0.0813
 3109ntf    fn419628   1.555   3.798   3.404  0.5226  0.2048  0.0881
 3109ntf    on519629   1.355   4.013   3.387 -0.0241 -0.0049  0.0181
 3109ntf    on519630   1.520   4.138   3.247 -0.1981 -0.1558 -0.0077
 3109ntf    on519631   1.259   3.760   3.276  0.4933  0.2657  0.2375
 3109ntf    on519632   1.314   3.735   3.038  0.3174  0.3544 -0.8194
 3109ntf    fn419633   1.050   3.893   3.097 -0.0443  0.4097  0.3201
 3109ntf    fn419634   1.166   4.052   3.185  0.0453 -0.2358  0.0367
 3109ntf    fn419635   1.203   3.993   2.993 -0.0161 -0.6970  0.1390
 3110ntf    cn119636   3.877   0.874   6.303 -0.3550 -0.5907 -0.2249
 3110ntf    sn219637   3.716   0.935   6.244 -0.1093  0.3070  0.0183
 3110ntf    nn319638   3.762   1.031   6.128  0.0203 -0.2038 -0.3566
 3110ntf    sn219639   3.805   0.988   5.983  0.3006  0.0045 -0.3375
 3110ntf    cn119640   3.673   1.058   5.880  0.0020 -0.5122 -0.3113
 3110ntf    fn419641   3.959   0.971   6.341 -0.3187 -0.7318  0.0564
 3110ntf    fn419642   3.873   0.795   6.409  0.1053  0.0204  0.2565
 3110ntf    fn419643   3.947   0.807   6.213  0.4765 -0.3104  0.2053
 3110ntf    on519644   3.643   0.826   6.184 -0.2991  0.1720  0.4920
 3110ntf    on519645   3.665   1.011   6.355  0.5628  0.0443  0.5190
 3110ntf    on519646   3.816   0.849   5.946 -0.0811 -0.1155 -0.0167
 3110ntf    on519647   3.914   1.071   5.942  0.6385  0.0356  0.5872
 3110ntf    fn419648   3.560   0.990   5.891 -0.3270 -0.0693 -0.8741
 3110ntf    fn419649   3.634   1.181   5.909  0.7125 -0.3655  0.0359
 3110ntf    fn419650   3.699   1.054   5.750  0.1492 -0.5681 -0.2801
 3111ntf    cn119651   2.776   6.124   3.175 -0.5353  0.0712 -0.0964
 3111ntf    sn219652   2.876   5.974   3.199 -0.1496  0.3429  0.0033
 3111ntf    nn319653   2.950   5.956   3.062 -0.1184  0.2654  0.0302
 3111ntf    sn219654   3.091   6.003   3.014 -0.1509  0.1802 -0.1487
 3111ntf    cn119655   3.186   5.848   3.014  0.0532  0.3031 -0.0072
 3111ntf    fn419656   2.721   6.167   3.287  0.2992 -0.7028  0.6253
 3111ntf    fn419657   2.856   6.220   3.132 -0.5077 -0.0931 -0.4169
 3111ntf    fn419658   2.678   6.116   3.086 -0.1742  0.1154 -0.5055
 3111ntf    on519659   2.964   6.017   3.305 -0.2022  0.2130  0.1000
 3111ntf    on519660   2.780   5.867   3.216 -0.1812  0.3012 -0.4285
 3111ntf    on519661   3.173   6.093   3.092  0.2768 -0.0292 -0.3526
 3111ntf    on519662   3.074   6.030   2.873 -0.0558 -0.7388 -0.3434
 3111ntf    fn419663   3.124   5.765   2.930 -0.0421 -0.4147  0.7604
 3111ntf    fn419664   3.315   5.862   2.988  0.0366  0.2405 -0.1270
 3111ntf    fn419665   3.192   5.783   3.129 -0.4039  0.0286 -0.1332
 3112ntf    cn119666   5.591   6.102   4.933  0.2688 -0.2881  0.3212
 3112ntf    sn219667   5.619   6.259   5.021  0.1345  0.1272 -0.3751
 3112ntf    nn319668   5.695   6.203   5.146  0.2907 -0.0869 -0.5642
 3112ntf    sn219669   5.818   6.265   5.220  0.0431 -0.2455 -0.0151
 3112ntf    cn119670   5.937   6.180   5.113 -0.2303 -0.2479 -0.3173
 3112ntf    fn419671   5.575   6.000   5.017 -0.0442 -0.5672 -0.0739
 3112ntf    fn419672   5.479   6.105   4.863  0.2805 -0.0893  0.3113
 3112ntf    fn419673   5.690   6.079   4.848 -0.2655  0.6137 -0.5663
 3112ntf    on519674   5.687   6.330   4.916  0.1896  0.2545 -0.2527
 3112ntf    on519675   5.484   6.298   5.053  0.3755  0.1560  0.6307
 3112ntf    on519676   5.838   6.211   5.353  0.5420  0.1195  0.0629
 3112ntf    on519677   5.853   6.404   5.200  0.5103 -0.3378  0.1495
 3112ntf    fn419678   5.907   6.051   5.103 -0.3126 -0.2365 -0.2191
 3112ntf    fn419679   5.936   6.244   4.998 -0.0818  0.1952 -0.0729
 3112ntf    fn419680   6.061   6.182   5.161 -0.2436 -0.8346 -0.2506
 3113ntf    cn119681   0.638   5.516   5.700  0.1291 -0.2039 -0.1654
 3113ntf    sn219682   0.756   5.652   5.723 -0.2583  0.1234 -0.1237
 3113ntf    nn319683   0.706   5.763   5.624  0.3085  0.1104 -0.4252
 3113ntf    sn219684   0.607   5.881   5.655  0.3873  0.1391 -0.2831
 3113ntf    cn119685   0.482   5.832   5.532 -0.1591 -0.0605  0.3456
 3113ntf    fn419686   0.672   5.400   5.754  0.0692 -0.2015 -0.1227
 3113ntf    fn419687   0.515   5.546   5.739  0.3425  0.8209 -0.2494
 3113ntf    fn419688   0.625   5.489   5.571  0.0273 -0.1535 -0.1656
 3113ntf    on519689   0.753   5.678   5.865 -0.3113  0.0766 -0.1158
 3113ntf    on519690   0.881   5.605   5.671 -0.2920 -0.6267  0.4648
 3113ntf    on519691   0.659   6.004   5.601 -0.4035  0.3799 -0.5047
 3113ntf    on519692   0.543   5.882   5.784  0.2640  0.4164 -0.3451
 3113ntf    fn419693   0.535   5.802   5.414 -0.3207 -0.4513  0.3693
 3113ntf    fn419694   0.424   5.717   5.563  0.2609 -0.3056  0.2325
 3113ntf    fn419695   0.389   5.922   5.506 -0.1810 -0.0862  0.3361
 3114ntf    cn119696   5.888   6.858   1.248  0.1007 -0.0630  0.1213
 3114ntf    sn219697   6.054   6.896   1.184  0.0026  0.0697 -0.0523
 3114ntf    nn319698   6.025   7.018   1.089  0.5773  0.1618 -0.1136
 3114ntf    sn219699   6.019   7.031   0.932  0.2500 -0.2239 -0.1368
 3114ntf    cn119700   6.175   7.122   0.909  0.0915  0.1630  0.2864
 3114ntf    fn419701   5.900   6.751   1.325  0.0809  0.5698  1.0135
 3114ntf    fn419702   5.850   6.955   1.330 -0.2638  0.2583 -0.4164
 3114ntf    fn419703   5.797   6.830   1.156 -0.0479  0.0709  0.2261
 3114ntf    on519704   6.116   6.936   1.308  0.1584 -0.3005 -0.0104
 3114ntf    on519705   6.096   6.774   1.120 -0.1746 -0.1681  0.2833
 3114ntf    on519706   5.923   7.129   0.886  0.4627 -0.0092 -0.1291
 3114ntf    on519707   6.050   6.914   0.855 -0.5925 -0.4748 -0.0960
 3114ntf    fn419708   6.279   7.055   0.956 -0.1526 -0.3313  0.1210
 3114ntf    fn419709   6.210   7.138   0.782  0.3647  0.2213  0.3678
 3114ntf    fn419710   6.179   7.241   0.967 -0.5482  0.1951  0.2723
 3115ntf    cn119711   3.658   3.392   4.929  0.0829 -0.1448 -0.2565
 3115ntf    sn219712   3.665   3.307   4.768  0.0618 -0.6052 -0.0178
 3115ntf    nn319713   3.783   3.209   4.799  0.0433 -0.3681  0.8187
 3115ntf    sn219714   3.792   3.052   4.795  0.0175 -0.3608  0.4212
 3115ntf    cn119715   3.886   3.022   4.643 -0.2047  0.2553  0.1563
 3115ntf    fn419716   3.551   3.468   4.939 -0.0166 -0.2990 -0.1482
 3115ntf    fn419717   3.637   3.302   5.024  0.1939  0.1569  0.0534
 3115ntf    fn419718   3.765   3.461   4.963 -0.0209 -0.0387 -0.1454
 3115ntf    on519719   3.531   3.254   4.759 -0.2363  0.0807  0.2572
 3115ntf    on519720   3.687   3.417   4.677 -0.4047 -0.5155 -0.0248
 3115ntf    on519721   3.671   2.977   4.771  0.0938 -0.3300 -0.0682
 3115ntf    on519722   3.881   3.001   4.897  0.6581 -0.5206 -0.2153
 3115ntf    fn419723   4.007   3.074   4.637  0.0411 -0.3163  0.1066
 3115ntf    fn419724   3.880   2.893   4.613 -0.0206  0.3233 -0.1835
 3115ntf    fn419725   3.829   3.080   4.539  0.2930  0.5402  0.0382
 3116ntf    cn119726   4.355   2.188   3.434 -0.4575  0.1431 -0.0568
 3116ntf    sn219727   4.221   2.255   3.331 -0.1389  0.0958 -0.5080
 3116ntf    nn319728   4.303   2.353   3.241  0.4890  0.2864  0.2577
 3116ntf    sn219729   4.343   2.349   3.089  0.5865  0.1204  0.2876
 3116ntf    cn119730   4.400   2.521   3.068 -0.0033  0.2644 -0.1576
 3116ntf    fn419731   4.314   2.092   3.515  0.1694 -0.3044 -0.2629
 3116ntf    fn419732   4.451   2.136   3.359  0.1685  0.3183  0.6222
 3116ntf    fn419733   4.409   2.283   3.509  0.0746 -0.1383 -0.0753
 3116ntf    on519734   4.169   2.136   3.267 -0.4049  0.0251 -0.1678
 3116ntf    on519735   4.135   2.325   3.424  0.0426 -0.2346 -0.0861
 3116ntf    on519736   4.230   2.332   3.001  0.8329 -0.3225  0.0523
 3116ntf    on519737   4.462   2.272   3.061  0.2983  0.0174 -0.6865
 3116ntf    fn419738   4.509   2.546   3.138  0.2172  0.3280 -0.5194
 3116ntf    fn419739   4.428   2.550   2.942  0.6441 -0.6505 -0.2347
 3116ntf    fn419740   4.302   2.603   3.102  0.1990  0.3257  0.2836
 3117ntf    cn119741   2.729   3.386   3.882 -0.0876 -0.0462  0.5224
 3117ntf    sn219742   2.799   3.554   3.889 -0.0904 -0.0187 -0.0722
 3117ntf    nn319743   2.670   3.641   3.865 -0.5331 -0.6151  0.0956
 3117ntf    sn219744   2.599   3.683   3.731 -0.4017 -0.0689  0.1929
 3117ntf    cn119745   2.613   3.864   3.739  0.2131 -0.1095  0.1293
 3117ntf    fn419746   2.620   3.385   3.957 -0.1823  0.4377  0.3970
 3117ntf    fn419747   2.689   3.346   3.762  0.3432 -0.3596  0.4840
 3117ntf    fn419748   2.814   3.295   3.926 -0.2133 -0.2801  0.2794
 3117ntf    on519749   2.843   3.573   4.024  0.3330 -0.3895 -0.1569
 3117ntf    on519750   2.903   3.560   3.790 -0.8366  0.5133 -0.8413
 3117ntf    on519751   2.457   3.657   3.733 -0.4972  0.4018 -0.2160
 3117ntf    on519752   2.672   3.655   3.610  0.0225  0.2910  0.3629
 3117ntf    fn419753   2.739   3.903   3.738  0.0754  0.3351 -0.0016
 3117ntf    fn419754   2.553   3.932   3.643 -0.0506  0.0636  0.4145
 3117ntf    fn419755   2.545   3.908   3.844  0.2791 -0.2449  0.2286
 3118ntf    cn119756   1.217   3.719   1.831  0.0477  0.1003 -0.3906
 3118ntf    sn219757   1.384   3.649   1.821  0.0510  0.0445  0.0062
 3118ntf    nn319758   1.403   3.601   1.969  0.4512 -0.4567 -0.2044
 3118ntf    sn219759   1.330   3.479   2.034  0.1933 -0.1660  0.0516
 3118ntf    cn119760   1.451   3.344   2.045  0.4218  0.0317 -0.0477
 3118ntf    fn419761   1.120   3.629   1.836  0.0819  0.0916  0.2095
 3118ntf    fn419762   1.196   3.802   1.932  0.0090 -0.7801  0.3473
 3118ntf    fn419763   1.190   3.789   1.723 -0.3583  0.1118 -0.2839
 3118ntf    on519764   1.376   3.544   1.722 -0.5233  0.0002  0.0995
 3118ntf    on519765   1.464   3.764   1.787  0.1413  0.0634  0.2825
 3118ntf    on519766   1.215   3.439   1.956  0.2216 -0.2456  0.0505
 3118ntf    on519767   1.303   3.513   2.171 -0.5581  0.3698 -0.2229
 3118ntf    fn419768   1.390   3.236   2.091  0.1141 -0.0181 -0.5671
 3118ntf    fn419769   1.504   3.303   1.931  0.2106  0.2441 -0.2217
 3118ntf    fn419770   1.555   3.374   2.121  0.5569  0.1614 -0.2818
 3119ntf    cn119771   3.043   3.053   0.517 -0.0911 -0.0828 -0.1318
 3119ntf    sn219772   3.127   3.185   0.423 -0.0325 -0.3274 -0.4229
 3119ntf    nn319773   3.204   3.255   0.541 -0.4133 -0.2667 -0.2075
 3119ntf    sn219774   3.200   3.410   0.567  0.0714 -0.2245 -0.3695
 3119ntf    cn119775   3.075   3.415   0.699  0.3876  0.0449 -0.0811
 3119ntf    fn419776   3.142   2.984   0.573 -0.0486  0.1533  0.0902
 3119ntf    fn419777   2.960   3.091   0.613 -0.3821 -0.5750 -0.1878
 3119ntf    fn419778   2.971   2.971   0.443 -0.3004 -0.7112  0.7536
 3119ntf    on519779   3.219   3.126   0.329  0.3896 -0.0717 -0.1719
 3119ntf    on519780   3.013   3.259   0.376  0.4447  1.1133  0.6003
 3119ntf    on519781   3.142   3.494   0.465 -0.0727 -0.2725 -0.3280
 3119ntf    on519782   3.315   3.465   0.633  0.1711 -0.7145 -0.1342
 3119ntf    fn419783   3.094   3.329   0.797 -0.5194  0.0125  0.0701
 3119ntf    fn419784   3.083   3.536   0.754 -0.3180  0.1429 -0.1885
 3119ntf    fn419785   2.953   3.389   0.656  0.3931 -0.5191  0.2347
 3120ntf    cn119786   3.034   5.886   4.114 -0.1230  0.1899 -0.0509
 3120ntf    sn219787   3.140   6.029   4.152  0.1365  0.0289 -0.1637
 3120ntf    nn319788   3.042   6.147   4.116  0.0785  0.0526  0.0702
 3120ntf    sn219789   2.995   6.187   3.971 -0.0004  0.1995  0.1363
 3120ntf    cn119790   3.133   6.291   3.915  0.1885 -0.1687 -0.0871
 3120ntf    fn419791   2.929   5.912   4.038 -0.0147 -0.1020 -0.3033
 3120ntf    fn419792   3.093   5.781   4.058  0.0828  0.1125  0.3100
 3120ntf    fn419793   2.980   5.840   4.225 -0.0435 -0.0500 -0.1098
 3120ntf    on519794   3.152   6.023   4.295 -0.0885 -0.2343 -0.1547
 3120ntf    on519795   3.259   6.016   4.071 -0.2241 -0.1135 -0.6749
 3120ntf    on519796   2.885   6.279   3.977 -0.0126  0.2446 -0.6886
 3120ntf    on519797   2.993   6.078   3.877 -0.4364 -0.1212  0.5127
 3120ntf    fn419798   3.141   6.398   3.993 -0.5186 -0.4628  0.3975
 3120ntf    fn419799   3.252   6.234   3.915  0.1234 -0.3066  0.3842
 3120ntf    fn419800   3.104   6.337   3.794 -0.2742  0.5580  0.2931
 3121ntf    cn119801   0.323   4.415   0.634  0.2490  0.1500  0.0166
 3121ntf    sn219802   0.435   4.480   0.761  0.3676  0.0952 -0.0595
 3121ntf    nn319803   0.351   4.603   0.812  0.5103  0.1538  0.0337
 3121ntf    sn219804   0.395   4.753   0.827  0.0559  0.3027 -0.1119
 3121ntf    cn119805   0.349   4.826   0.667  0.1231  0.4860 -0.0475
 3121ntf    fn419806   0.358   4.292   0.598  0.1763  0.1117  0.0741
 3121ntf    fn419807   0.198   4.406   0.677  0.2724 -0.0970  0.0373
 3121ntf    fn419808   0.317   4.490   0.526  0.0184  0.1046 -0.0024
 3121ntf    on519809   0.430   4.370   0.854 -0.2314  0.4435  0.3306
 3121ntf    on519810   0.560   4.508   0.694  0.0810  0.6012 -0.3858
 3121ntf    on519811   0.537   4.766   0.853  0.0617  0.0598 -0.0124
 3121ntf    on519812   0.310   4.821   0.921  0.3221  0.0609  0.3068
 3121ntf    fn419813   0.220   4.840   0.643  0.0806  0.1649 -0.0080
 3121ntf    fn419814   0.407   4.942   0.640  0.8685  0.1102 -0.0913
 3121ntf    fn419815   0.395   4.750   0.569  0.0291  0.4454 -0.0604
 3122ntf    cn119816   5.634   2.351   2.892  0.0369  0.4375 -0.1590
 3122ntf    sn219817   5.501   2.390   2.775 -0.0672 -0.1552 -0.2444
 3122ntf    nn319818   5.385   2.345   2.871  0.1589 -0.3928 -0.0812
 3122ntf    sn219819   5.254   2.264   2.843  0.0225 -0.2391  0.1120
 3122ntf    cn119820   5.297   2.102   2.914  0.0068 -0.2632  0.0661
 3122ntf    fn419821   5.753   2.366   2.836  0.0071 -0.1736 -0.4009
 3122ntf    fn419822   5.639   2.420   3.005 -0.2895  0.1949  0.0081
 3122ntf    fn419823   5.633   2.224   2.932 -0.2813  0.3559 -0.4211
 3122ntf    on519824   5.516   2.533   2.762 -0.2057 -0.1162  0.0407
 3122ntf    on519825   5.540   2.306   2.664  0.3394 -0.0018 -0.2189
 3122ntf    on519826   5.214   2.245   2.706 -0.3820 -0.0085  0.1970
 3122ntf    on519827   5.149   2.305   2.932  0.2190  0.3331  0.0874
 3122ntf    fn419828   5.423   2.077   2.880  0.0618  0.4914 -0.3137
 3122ntf    fn419829   5.297   2.095   3.046  0.3063 -0.0578  0.0782
 3122ntf    fn419830   5.219   2.007   2.867  0.1585 -0.3675  0.0240
 3123ntf    cn119831   4.479   2.065   0.106 -0.0279  0.0844  0.1044
 3123ntf    sn219832   4.580   1.957  -0.000 -0.0012  0.0376  0.1777
 3123ntf    nn319833   4.711   2.043  -0.007 -0.4498  0.7352  0.2421
 3123ntf    sn219834   4.765   2.147  -0.111  0.2387  0.3027  0.1577
 3123ntf    cn119835   4.833   2.273   0.001  0.2113  0.3038  0.1728
 3123ntf    fn419836   4.531   2.088   0.225  0.0488  0.5848 -0.0206
 3123ntf    fn419837   4.464   2.184   0.049 -0.2663 -0.1459 -0.3165
 3123ntf    fn419838   4.359   2.014   0.124  0.0086 -0.3389 -0.7947
 3123ntf    on519839   4.607   1.844   0.085  0.3841  0.2989  0.4056
 3123ntf    on519840   4.502   1.936  -0.120  0.1588 -0.0232  0.0846
 3123ntf    on519841   4.660   2.210  -0.187 -0.4670 -0.5315  0.4238
 3123ntf    on519842   4.876   2.092  -0.185 -0.2100  0.1378 -0.4001
 3123ntf    fn419843   4.895   2.369  -0.065 -0.3739  0.5074 -0.0895
 3123ntf    fn419844   4.738   2.330   0.073 -0.0480 -0.1784  0.2158
 3123ntf    fn419845   4.918   2.222   0.089  0.3691  0.0199 -0.1450
 3124ntf    cn119846   5.237   1.261   1.345 -0.0111 -0.1549  0.2066
 3124ntf    sn219847   5.081   1.303   1.429  0.0357  0.0550  0.1881
 3124ntf    nn319848   4.990   1.297   1.301  0.0142 -0.1578  0.2149
 3124ntf    sn219849   4.936   1.168   1.229  0.0062 -0.0303 -0.0089
 3124ntf    cn119850   4.755   1.183   1.237  0.0046  0.0151 -0.1376
 3124ntf    fn419851   5.245   1.131   1.321  0.0801 -0.1231  0.0641
 3124ntf    fn419852   5.254   1.330   1.234 -0.2206 -0.0854  0.2164
 3124ntf    fn419853   5.338   1.290   1.425  0.2093  0.2829 -0.2334
 3124ntf    on519854   5.066   1.206   1.534  0.0721 -0.4012 -0.2221
 3124ntf    on519855   5.095   1.443   1.462 -0.2808  0.1117  0.0863
 3124ntf    on519856   4.959   1.046   1.303  0.2674  0.2707  0.4120
 3124ntf    on519857   4.961   1.169   1.087 -0.4897  0.1760 -0.0961
 3124ntf    fn419858   4.714   1.290   1.170 -0.3799 -0.1688 -0.1990
 3124ntf    fn419859   4.697   1.076   1.186 -0.2623 -0.2254  0.6679
 3124ntf    fn419860   4.704   1.196   1.358 -0.3048  0.4820 -0.3118
 3125ntf    cn119861   2.737   1.259   6.476 -0.2646  0.1929  0.1463
 3125ntf    sn219862   2.884   1.347   6.537 -0.1718  0.0505  0.1306
 3125ntf    nn319863   2.928   1.270   6.667  0.2022 -0.0353 -0.0458
 3125ntf    sn219864   2.984   1.324   6.803 -0.2822  0.3631 -0.0026
 3125ntf    cn119865   2.839   1.319   6.912 -0.2236 -0.3125  0.0484
 3125ntf    fn419866   2.678   1.329   6.380 -0.0916 -0.4854 -0.4698
 3125ntf    fn419867   2.768   1.140   6.427  0.3900  0.4657 -0.1240
 3125ntf    fn419868   2.647   1.250   6.572 -0.3450 -0.0726  0.0471
 3125ntf    on519869   2.986   1.348   6.435 -0.0471 -0.0092  0.2541
 3125ntf    on519870   2.827   1.476   6.567  0.1755  0.2223  0.0544
 3125ntf    on519871   3.028   1.462   6.796 -0.0853  0.3277  0.4949
 3125ntf    on519872   3.083   1.235   6.858  0.2064  0.6354 -0.4325
 3125ntf    fn419873   2.841   1.205   6.978 -0.4290 -0.2363  0.1890
 3125ntf    fn419874   2.842   1.416   7.002  0.4741 -0.2780 -0.0038
 3125ntf    fn419875   2.726   1.334   6.845 -0.1925  0.7536  0.2043
 3126ntf    cn119876   5.758   0.555   5.434  0.1090  0.0930  0.5767
 3126ntf    sn219877   5.644   0.626   5.557 -0.6182  0.0049 -0.0399
 3126ntf    nn319878   5.740   0.607   5.679 -0.0188  0.3576 -0.4537
 3126ntf    sn219879   5.824   0.717   5.753 -0.3351  0.1010  0.2954
 3126ntf    cn119880   5.975   0.619   5.779 -0.2837  0.1503  0.1827
 3126ntf    fn419881   5.793   0.428   5.440 -0.2382 -0.0377 -0.1163
 3126ntf    fn419882   5.707   0.566   5.313 -0.0312  0.1719  0.6424
 3126ntf    fn419883   5.870   0.625   5.436  0.0590  0.1901 -0.0019
 3126ntf    on519884   5.612   0.756   5.503  0.5185  0.1091 -0.4823
 3126ntf    on519885   5.533   0.534   5.568 -0.8085  0.2578  0.1542
 3126ntf    on519886   5.792   0.744   5.891 -0.5162  0.5129  0.1755
 3126ntf    on519887   5.868   0.828   5.671 -0.0774 -0.2017  0.0231
 3126ntf    fn419888   6.075   0.687   5.832  0.2156 -0.5864  0.1865
 3126ntf    fn419889   5.957   0.521   5.866  0.2412 -0.3241 -0.2397
 3126ntf    fn419890   6.011   0.566   5.664 -0.0282  0.8638 -0.0736
 3127ntf    cn119891   3.656   0.237   1.719  0.0615  0.0340 -0.0774
 3127ntf    sn219892   3.828   0.262   1.665  0.1282 -0.1778  0.0358
 3127ntf    nn319893   3.877   0.326   1.800 -0.0639  0.0865 -0.0180
 3127ntf    sn219894   4.006   0.407   1.837  0.1584 -0.0995 -0.3800
 3127ntf    cn119895   4.045   0.337   2.000 -0.1488  0.1633 -0.1920
 3127ntf    fn419896   3.578   0.193   1.622  0.2927 -0.2989 -0.1130
 3127ntf    fn419897   3.652   0.144   1.813  0.3251  0.3125  0.2156
 3127ntf    fn419898   3.599   0.342   1.776  0.2973  0.0883  0.0602
 3127ntf    on519899   3.878   0.129   1.642  0.5960  0.0236 -0.1384
 3127ntf    on519900   3.806   0.351   1.553 -0.1231 -0.4985 -0.1741
 3127ntf    on519901   3.977   0.545   1.867  0.1129 -0.1445 -0.2176
 3127ntf    on519902   4.117   0.376   1.750  0.5138 -0.0547  0.0537
 3127ntf    fn419903   3.940   0.281   2.058 -0.0117  0.0056 -0.0963
 3127ntf    fn419904   4.137   0.242   1.996  0.4232  0.6845  0.4834
 3127ntf    fn419905   4.100   0.428   2.078  0.1199  0.3207 -0.5630
 3128ntf    cn119906   4.117   3.036   0.364  0.1226  0.5825  0.1475
 3128ntf    sn219907   3.995   2.953   0.256  0.2682  0.0694  0.3725
 3128ntf    nn319908   4.080   2.931   0.126 -0.3209  0.1845 -0.0368
 3128ntf    sn219909   4.047   2.850  -0.004 -0.1489  0.2780 -0.1390
 3128ntf    cn119910   4.031   2.972  -0.139  0.3250  0.2294 -0.2437
 3128ntf    fn419911   4.219   2.956   0.390  0.2010  0.6118 -0.0653
 3128ntf    fn419912   4.173   3.136   0.298  0.1612  0.4885  0.0380
 3128ntf    fn419913   4.064   3.074   0.479 -0.2270 -0.7464  0.4450
 3128ntf    on519914   3.963   2.835   0.332  0.4028  0.0503  0.4007
 3128ntf    on519915   3.890   3.051   0.242  0.2476  0.0359  0.2943
 3128ntf    on519916   3.918   2.787  -0.002 -0.0636  0.1049 -0.0965
 3128ntf    on519917   4.159   2.768  -0.046 -0.1193  0.3965 -0.2943
 3128ntf    fn419918   4.133   3.055  -0.140  0.5558 -0.0549 -0.4840
 3128ntf    fn419919   4.032   2.907  -0.254 -0.0263 -0.1921 -0.0137
 3128ntf    fn419920   3.924   3.049  -0.130 -0.0365 -0.3296  0.4673
 3129ntf    cn119921   4.456   3.891   4.159 -0.1226 -0.1432  0.0766
 3129ntf    sn219922   4.537   3.861   4.319 -0.0790 -0.3320  0.0190
 3129ntf    nn319923   4.571   3.711   4.287  0.1208 -0.1258 -0.7576
 3129ntf    sn219924   4.494   3.576   4.308 -0.0673  0.0947 -0.0117
 3129ntf    cn119925   4.497   3.515   4.137  0.1772 -0.2657  0.1218
 3129ntf    fn419926   4.353   3.810   4.143  0.2193 -0.5751  0.0616
 3129ntf    fn419927   4.406   4.014   4.160  0.1010 -0.0460 -0.4190
 3129ntf    fn419928   4.531   3.878   4.051  0.2550  0.1753  0.2956
 3129ntf    on519929   4.652   3.948   4.327 -0.1407 -0.2587  0.0966
 3129ntf    on519930   4.429   3.882   4.412 -0.2487  0.2195 -0.2991
 3129ntf    on519931   4.356   3.583   4.349 -0.0797 -1.1233  0.1810
 3129ntf    on519932   4.571   3.485   4.388  0.6060  0.5592 -0.1178
 3129ntf    fn419933   4.440   3.396   4.125  0.3612 -0.4548  1.0403
 3129ntf    fn419934   4.436   3.601   4.057  0.1904 -0.3592  0.0112
 3129ntf    fn419935   4.616   3.500   4.081 -0.0973 -0.0502 -0.5214
 3130ntf    cn119936   1.185   4.912   5.354 -0.0964 -0.0676  0.3395
 3130ntf    sn219937   1.052   4.830   5.446 -0.0715  0.0775  0.5042
 3130ntf    nn319938   0.994   4.958   5.517 -0.5218 -0.2513  0.7378
 3130ntf    sn219939   1.047   5.035   5.643  0.1413  0.4163  0.0647
 3130ntf    cn119940   0.894   5.128   5.672 -0.0884  0.1408 -0.2563
 3130ntf    fn419941   1.286   4.965   5.420  0.2506 -0.1307 -0.1328
 3130ntf    fn419942   1.242   4.822   5.275 -0.2895  0.0316  0.0833
 3130ntf    fn419943   1.136   5.009   5.277  0.0730  0.3737  0.7882
 3130ntf    on519944   0.966   4.782   5.340 -0.1717  0.1778  0.5399
 3130ntf    on519945   1.120   4.733   5.528  0.3848 -0.0521 -0.0257
 3130ntf    on519946   1.142   5.140   5.618 -0.1391  0.8351  0.7183
 3130ntf    on519947   1.064   4.953   5.761  0.1515  0.0191 -0.2083
 3130ntf    fn419948   0.790   5.046   5.677  0.1785 -0.2087 -0.3828
 3130ntf    fn419949   0.898   5.207   5.778 -0.1906 -0.2503  0.0413
 3130ntf    fn419950   0.873   5.209   5.569 -0.1186  0.6391  0.1430
 3131ntf    cn119951   0.806   3.619   1.440 -0.1530  0.1461 -0.0929
 3131ntf    sn219952   0.842   3.441   1.444 -0.3693  0.1117  0.3512
 3131ntf    nn319953   0.882   3.423   1.294 -0.0004 -0.6478  0.5344
 3131ntf    sn219954   1.030   3.412   1.244  0.0101  0.0199  0.4093
 3131ntf    cn119955   1.017   3.461   1.069 -0.2400 -0.1718  0.3745
 3131ntf    fn419956   0.916   3.689   1.416  0.0477 -0.3071 -0.5084
 3131ntf    fn419957   0.713   3.653   1.353 -0.1859 -0.1121 -0.1584
 3131ntf    fn419958   0.762   3.667   1.556  0.0806  0.4622 -0.1324
 3131ntf    on519959   0.954   3.426   1.534  0.0970  0.2114 -0.2128
 3131ntf    on519960   0.718   3.374   1.477 -0.2447 -0.1434  0.2993
 3131ntf    on519961   1.074   3.275   1.228 -0.3292  0.0326 -0.7657
 3131ntf    on519962   1.123   3.517   1.279  0.4296 -0.1582 -0.1468
 3131ntf    fn419963   0.973   3.586   1.068  0.4687  0.0760  0.1550
 3131ntf    fn419964   1.135   3.458   1.010 -0.2310  0.2209  0.3673
 3131ntf    fn419965   0.932   3.393   0.994  0.2905 -0.0780 -0.3106
 3132ntf    cn119966   1.058   0.915   4.498  0.2856 -0.0702 -0.4157
 3132ntf    sn219967   1.207   0.887   4.599 -0.0999  0.0357  0.1852
 3132ntf    nn319968   1.133   0.890   4.737 -0.3801  0.2853  0.0321
 3132ntf    sn219969   1.098   1.017   4.823 -0.3672  0.0892  0.3291
 3132ntf    cn119970   1.244   1.018   4.931 -0.1387 -0.2216  0.0237
 3132ntf    fn419971   1.003   0.802   4.458 -0.1750  0.1448 -0.4003
 3132ntf    fn419972   0.963   0.983   4.559  0.5136 -0.3310  0.2320
 3132ntf    fn419973   1.087   0.985   4.389  0.2895 -0.0374 -0.3937
 3132ntf    on519974   1.248   0.754   4.562 -0.2639  0.0934 -0.2172
 3132ntf    on519975   1.290   0.996   4.554 -0.1694  0.1229  0.2665
 3132ntf    on519976   0.994   0.992   4.920 -0.8285  0.3895 -0.0803
 3132ntf    on519977   1.097   1.148   4.762 -0.5063  0.0142  0.1680
 3132ntf    fn419978   1.247   0.909   5.006  0.2577  0.1190  0.5082
 3132ntf    fn419979   1.361   1.021   4.868 -0.2041  0.1400 -0.0842
 3132ntf    fn419980   1.242   1.115   5.021 -0.5945 -0.0032 -0.2209
 3133ntf    cn119981   1.636   3.323   4.277  0.4972  0.6272 -0.3041
 3133ntf    sn219982   1.568   3.490   4.253  0.0208  0.5048  0.1558
 3133ntf    nn319983   1.579   3.547   4.398  0.5938 -0.5277  0.5284
 3133ntf    sn219984   1.689   3.645   4.454  0.0643  0.2535  0.2100
 3133ntf    cn119985   1.713   3.566   4.615 -0.2190 -0.1985  0.0321
 3133ntf    fn419986   1.585   3.266   4.386  0.3954  1.0174 -0.1458
 3133ntf    fn419987   1.621   3.243   4.173 -0.1332  0.3775 -0.0285
 3133ntf    fn419988   1.765   3.331   4.303  0.3633  0.4247  0.4734
 3133ntf    on519989   1.639   3.556   4.146 -0.0809 -0.1975 -0.3525
 3133ntf    on519990   1.428   3.462   4.234  0.1592  0.0283 -0.1875
 3133ntf    on519991   1.641   3.777   4.488 -0.4710  0.1066  0.0476
 3133ntf    on519992   1.819   3.627   4.395  0.0318 -0.0032  0.2174
 3133ntf    fn419993   1.730   3.435   4.608 -0.5848 -0.2618  0.2588
 3133ntf    fn419994   1.812   3.609   4.692 -0.1899 -0.3692  0.0899
 3133ntf    fn419995   1.607   3.597   4.689  0.0224  0.2062  0.2142
 3134ntf    cn119996   5.833   3.911   5.518  0.0090  0.1701  0.1691
 3134ntf    sn219997   5.687   3.806   5.494  0.0690  0.1941 -0.3290
 3134ntf    nn319998   5.690   3.781   5.340 -0.1155 -0.3694 -0.2423
 3134ntf    sn219999   5.738   3.648   5.271 -0.1639 -0.3604 -0.2942
 3134ntf    cn120000   5.783   3.713   5.107  0.0081  0.2607 -0.0043
 3134ntf    fn420001   5.949   3.848   5.514  0.1853  0.5213 -0.5833
 3134ntf    fn420002   5.839   3.995   5.415  0.2463 -0.0653 -0.0118
 3134ntf    fn420003   5.835   3.975   5.634  0.1483  0.0740  0.2198
 3134ntf    on520004   5.697   3.687   5.575  0.9292 -0.0775 -0.8230
 3134ntf    on520005   5.578   3.894   5.530  0.0870  0.0366  0.1161
 3134ntf    on520006   5.640   3.543   5.258 -0.3764 -0.1606 -0.3039
 3134ntf    on520007   5.873   3.614   5.309 -0.0472  0.2293 -0.1723
 3134ntf    fn420008   5.861   3.626   5.044 -0.0366  0.4459 -0.3141
 3134ntf    fn420009   5.673   3.718   5.033 -0.1189 -0.1596  0.1525
 3134ntf    fn420010   5.841   3.832   5.099  0.0243  0.2608  0.1207
 3135ntf    cn120011   1.762   1.243   2.906  0.0605  0.2668  0.0527
 3135ntf    sn220012   1.587   1.270   2.944  0.0526 -0.1757  0.3407
 3135ntf    nn320013   1.527   1.181   2.829  0.2587  0.3265 -0.1603
 3135ntf    sn220014   1.441   1.241   2.712 -0.0398  0.2412  0.0141
 3135ntf    cn120015   1.391   1.088   2.629 -0.1121  0.1830  0.1647
 3135ntf    fn420016   1.797   1.292   2.788  0.6646  0.7288  0.4106
 3135ntf    fn420017   1.844   1.301   2.993  0.2532  0.4090 -0.2217
 3135ntf    fn420018   1.794   1.115   2.907  0.1825  0.2971  0.1591
 3135ntf    on520019   1.562   1.205   3.070  0.3144 -0.9360  0.0084
 3135ntf    on520020   1.575   1.413   2.928 -0.0391 -0.1877  0.2972
 3135ntf    on520021   1.515   1.317   2.615  0.1894  0.0414  0.0330
 3135ntf    on520022   1.307   1.279   2.752 -0.1561  0.1971 -0.3324
 3135ntf    fn420023   1.318   1.014   2.711 -0.4839 -0.2039 -0.5100
 3135ntf    fn420024   1.324   1.112   2.518 -0.3531  0.4643  0.3706
 3135ntf    fn420025   1.502   1.020   2.602 -0.0503  0.2425  0.2683
 3136ntf    cn120026   1.759   4.534   3.745 -0.3402 -0.0663 -0.1756
 3136ntf    sn220027   1.800   4.654   3.875  0.0357 -0.5373  0.1457
 3136ntf    nn320028   1.661   4.692   3.937  0.3367  0.2752  0.3324
 3136ntf    sn220029   1.614   4.676   4.086 -0.0495  0.1890  0.2044
 3136ntf    cn120030   1.517   4.829   4.101 -0.1542  0.1977 -0.5169
 3136ntf    fn420031   1.706   4.588   3.637 -0.2578  0.9264  0.2753
 3136ntf    fn420032   1.862   4.463   3.702  0.1838  0.5781  0.0005
 3136ntf    fn420033   1.676   4.440   3.788 -0.3384 -0.2071 -0.4697
 3136ntf    on520034   1.895   4.585   3.959  0.3661  0.2027  0.3887
 3136ntf    on520035   1.845   4.766   3.797 -0.0828 -0.7448 -0.2272
 3136ntf    on520036   1.715   4.699   4.187  0.2779 -0.2829 -0.0164
 3136ntf    on520037   1.512   4.576   4.107  0.0933  0.0204  0.0954
 3136ntf    fn420038   1.406   4.826   4.029 -0.1222 -0.4779 -0.5475
 3136ntf    fn420039   1.479   4.843   4.227 -0.0883 -0.2884 -0.4422
 3136ntf    fn420040   1.588   4.937   4.075  0.2896  0.0513  0.0699
 3137ntf    cn120041   0.662   2.255   5.551 -0.2470  0.1862  0.5713
 3137ntf    sn220042   0.506   2.162   5.543  0.1238 -0.3803 -0.1807
 3137ntf    nn320043   0.516   2.061   5.662 -0.9282 -0.4932 -0.1708
 3137ntf    sn220044   0.484   2.076   5.815 -0.1150 -0.1869 -0.0229
 3137ntf    cn120045   0.607   1.958   5.878  0.1982  0.0129 -0.2595
 3137ntf    fn420046   0.669   2.346   5.455  0.4873 -0.1007  0.3455
 3137ntf    fn420047   0.681   2.321   5.664  0.6956  0.5546  0.2057
 3137ntf    fn420048   0.770   2.179   5.543 -0.3512  0.0444  0.5132
 3137ntf    on520049   0.400   2.259   5.558  0.2989 -0.1857 -0.1992
 3137ntf    on520050   0.514   2.092   5.417  0.2353 -0.1064 -0.3260
 3137ntf    on520051   0.364   2.009   5.858 -0.2879 -0.0749 -0.3293
 3137ntf    on520052   0.521   2.203   5.872 -0.5798  0.0147 -0.1632
 3137ntf    fn420053   0.727   2.002   5.843  0.3370 -0.1293  0.0330
 3137ntf    fn420054   0.597   1.919   6.004  0.4831 -0.3617 -0.3533
 3137ntf    fn420055   0.598   1.848   5.805  0.2474  0.0287 -0.2899
 3138ntf    cn120056   5.432   2.814   6.720  0.0269 -0.1763 -0.2855
 3138ntf    sn220057   5.377   2.719   6.576 -0.3528 -0.1055 -0.1897
 3138ntf    nn320058   5.452   2.793   6.459 -0.5052  0.3866  0.0261
 3138ntf    sn220059   5.405   2.901   6.356 -0.1346  0.4710 -0.0573
 3138ntf    cn120060   5.517   3.037   6.402  0.0272  0.3229 -0.0174
 3138ntf    fn420061   5.380   2.751   6.824  0.2932  0.2956  0.1379
 3138ntf    fn420062   5.564   2.812   6.733  0.0520  0.3468 -0.4219
 3138ntf    fn420063   5.395   2.941   6.718  0.6511  0.0123 -0.2513
 3138ntf    on520064   5.445   2.594   6.604 -0.3558 -0.0374  0.1158
 3138ntf    on520065   5.233   2.724   6.579 -0.3186  0.5028  0.4106
 3138ntf    on520066   5.280   2.970   6.377 -0.3231  0.2248 -0.3728
 3138ntf    on520067   5.455   2.873   6.224  0.4513  0.9122  0.0697
 3138ntf    fn420068   5.486   3.156   6.355  0.2652  0.2704 -0.3164
 3138ntf    fn420069   5.504   3.056   6.532  0.3030 -0.1838  0.0891
 3138ntf    fn420070   5.645   3.019   6.372 -0.0753 -0.0728 -0.2275
 3139ntf    cn120071   6.889   6.272   3.520  0.1204  0.1156  0.1863
 3139ntf    sn220072   7.043   6.192   3.465 -0.0308  0.1908 -0.3456
 3139ntf    nn320073   7.142   6.249   3.574 -0.3063  0.0410 -0.0174
 3139ntf    sn220074   7.275   6.322   3.537 -0.1606 -0.1150  0.1960
 3139ntf    cn120075   7.327   6.380   3.701  0.1197 -0.1390  0.1163
 3139ntf    fn420076   6.875   6.250   3.650  0.1807 -0.1306  0.1513
 3139ntf    fn420077   6.887   6.402   3.498  0.0250  0.1953  0.6423
 3139ntf    fn420078   6.787   6.222   3.454 -0.0081  0.4222  0.1508
 3139ntf    on520079   7.012   6.053   3.486 -0.4402  0.3539  0.1590
 3139ntf    on520080   7.053   6.238   3.329 -0.7225  0.4909 -0.3006
 3139ntf    on520081   7.269   6.449   3.468  0.1208 -0.2582 -0.0957
 3139ntf    on520082   7.382   6.232   3.501 -0.0126 -0.0416  0.4498
 3139ntf    fn420083   7.424   6.470   3.704  0.1949 -0.2066 -0.2303
 3139ntf    fn420084   7.226   6.444   3.757 -0.0022 -0.3430  0.1315
 3139ntf    fn420085   7.361   6.277   3.777 -0.0837 -0.2912  0.0019
 3140ntf    cn120086   6.525   7.006   5.198  0.2792  0.2553  0.1732
 3140ntf    sn220087   6.664   7.018   5.081  0.2528  0.0962  0.1259
 3140ntf    nn320088   6.627   6.892   4.995 -0.1351  0.2422  0.0777
 3140ntf    sn220089   6.688   6.841   4.859 -0.1104 -0.0133  0.1847
 3140ntf    cn120090   6.792   6.701   4.912  0.0632  0.0417 -0.0099
 3140ntf    fn420091   6.523   7.087   5.302 -0.1146  0.1746  0.2302
 3140ntf    fn420092   6.411   7.019   5.132 -0.0765  0.0891  0.7509
 3140ntf    fn420093   6.513   6.886   5.253  0.2455  0.1642 -0.0331
 3140ntf    on520094   6.656   7.150   5.024  0.1197  0.1227  0.2037
 3140ntf    on520095   6.781   6.990   5.160  0.3598 -0.2573 -0.1551
 3140ntf    on520096   6.780   6.925   4.787  0.1482 -0.1944  0.3024
 3140ntf    on520097   6.587   6.777   4.778  0.3137 -0.3332 -0.0896
 3140ntf    fn420098   6.832   6.629   4.808 -0.0695  0.1630 -0.1464
 3140ntf    fn420099   6.900   6.745   4.973 -0.0865 -0.2162  0.4454
 3140ntf    fn420100   6.737   6.615   4.996 -0.1783  0.4805  0.2850
 3141ntf    cn120101   5.040   3.926   5.242 -0.2835 -0.2081 -0.5317
 3141ntf    sn220102   4.987   4.014   5.092 -0.2010  0.3533 -0.2334
 3141ntf    nn320103   4.850   4.069   5.147 -0.2735 -0.1158  0.0630
 3141ntf    sn220104   4.739   4.162   5.086  0.0239 -0.1639 -0.5681
 3141ntf    cn120105   4.737   4.282   5.223  0.0972 -0.6909 -0.1049
 3141ntf    fn420106   4.940   3.880   5.315 -0.1397  0.3287  0.0131
 3141ntf    fn420107   5.120   3.822   5.226 -0.0931 -0.1470 -0.0142
 3141ntf    fn420108   5.112   4.003   5.323 -0.7356 -0.0914 -0.2363
 3141ntf    on520109   5.089   4.115   5.079  0.3878 -0.1547  0.3739
 3141ntf    on520110   4.969   3.911   4.994 -0.1092 -0.1734  0.2981
 3141ntf    on520111   4.604   4.111   5.085 -0.0360 -0.0292  0.0782
 3141ntf    on520112   4.784   4.247   4.979  0.1117  0.0797 -0.3419
 3141ntf    fn420113   4.736   4.209   5.334 -0.2494 -0.3480  0.1220
 3141ntf    fn420114   4.842   4.362   5.229 -0.2292 -0.3015  0.5332
 3141ntf    fn420115   4.627   4.354   5.231  0.1567 -0.5867 -0.2232
 3142ntf    cn120116   4.718   4.233   3.795 -0.5013  0.3806  0.0325
 3142ntf    sn220117   4.721   4.088   3.905  0.4458  0.2677 -0.1351
 3142ntf    nn320118   4.666   3.982   3.803  0.1994 -0.1058  0.3810
 3142ntf    sn220119   4.733   3.868   3.718 -0.1548 -0.2338  0.2736
 3142ntf    cn120120   4.664   3.718   3.795 -0.6197 -0.1675 -0.0099
 3142ntf    fn420121   4.594   4.260   3.757 -0.7471  0.0560  0.5874
 3142ntf    fn420122   4.771   4.338   3.856  0.2619 -0.0082  0.0512
 3142ntf    fn420123   4.792   4.211   3.688  0.1997  0.4805  0.4934
 3142ntf    on520124   4.858   4.081   3.948  0.5137  0.9012 -0.2392
 3142ntf    on520125   4.627   4.118   4.010  0.4507 -0.1959  0.0048
 3142ntf    on520126   4.876   3.860   3.735 -0.1252  0.0221  0.1350
 3142ntf    on520127   4.683   3.873   3.583  0.6509  0.2525 -0.0118
 3142ntf    fn420128   4.692   3.708   3.924 -0.1778 -0.4432 -0.1262
 3142ntf    fn420129   4.532   3.723   3.803 -0.6343 -0.3987 -0.1010
 3142ntf    fn420130   4.688   3.605   3.731 -0.3532 -0.5373  0.7330
 3143ntf    cn120131   5.497   1.750   3.818  0.2959  0.0535  0.2451
 3143ntf    sn220132   5.576   1.626   3.711 -0.3512 -0.1033 -0.0572
 3143ntf    nn320133   5.637   1.532   3.821 -0.1562  0.0340 -0.0473
 3143ntf    sn220134   5.591   1.399   3.891 -0.3046 -0.0216 -0.2497
 3143ntf    cn120135   5.555   1.455   4.060  0.0908 -0.0438 -0.1564
 3143ntf    fn420136   5.440   1.852   3.755 -0.2526 -0.4077 -0.0208
 3143ntf    fn420137   5.403   1.694   3.892  0.4897  0.2975  0.6739
 3143ntf    fn420138   5.585   1.799   3.903  0.1460 -0.0763  0.4773
 3143ntf    on520139   5.471   1.566   3.632  0.0248 -0.6162 -0.1751
 3143ntf    on520140   5.687   1.691   3.646 -0.5002 -0.0107 -0.2179
 3143ntf    on520141   5.700   1.306   3.906 -0.5102 -0.2517 -0.1651
 3143ntf    on520142   5.467   1.344   3.842 -0.3656  0.0328 -0.1573
 3143ntf    fn420143   5.656   1.514   4.121 -0.0660 -0.1876  0.2457
 3143ntf    fn420144   5.457   1.544   4.057 -0.0535 -0.1991 -0.1067
 3143ntf    fn420145   5.523   1.354   4.140 -0.0072 -0.2363 -0.4391
 3144ntf    cn120146   0.563   5.009   4.405  0.0374 -0.0749  0.1232
 3144ntf    sn220147   0.689   4.984   4.277 -0.0805  0.0714 -0.0222
 3144ntf    nn320148   0.763   4.859   4.336  0.1314  0.1280 -0.1677
 3144ntf    sn220149   0.842   4.743   4.266  0.0190 -0.1344  0.1372
 3144ntf    cn120150   1.011   4.780   4.324  0.0867 -0.2992  0.0471
 3144ntf    fn420151   0.613   4.981   4.524  0.7843 -0.2182 -0.2225
 3144ntf    fn420152   0.512   5.131   4.413 -0.3442 -0.1949 -0.4150
 3144ntf    fn420153   0.461   4.924   4.402  0.5073 -0.6389 -0.1470
 3144ntf    on520154   0.610   4.964   4.158 -0.4530  0.5378  0.1444
 3144ntf    on520155   0.769   5.102   4.295  0.1134  0.0051 -0.4295
 3144ntf    on520156   0.846   4.739   4.122  0.6325  0.1774  0.1407
 3144ntf    on520157   0.813   4.615   4.327 -0.4175  0.0078  0.2288
 3144ntf    fn420158   1.101   4.707   4.260  0.1481  0.1829 -0.4165
 3144ntf    fn420159   1.046   4.906   4.312  0.0027 -0.3031 -0.2490
 3144ntf    fn420160   1.020   4.751   4.453 -0.6450 -0.1052  0.1512
 3145ntf    cn120161   6.967   3.464   1.580 -0.2275 -0.0969  0.1925
 3145ntf    sn220162   7.068   3.494   1.431 -0.2116  0.2506  0.2725
 3145ntf    nn320163   7.156   3.611   1.488  0.3499  0.0126 -0.0975
 3145ntf    sn220164   7.284   3.599   1.578  0.2866 -0.0027 -0.0089
 3145ntf    cn120165   7.258   3.750   1.676  0.1685  0.0021 -0.0477
 3145ntf    fn420166   6.905   3.578   1.602 -0.2771 -0.0603 -0.1337
 3145ntf    fn420167   6.873   3.372   1.565  0.1985 -0.4412 -0.4482
 3145ntf    fn420168   7.032   3.431   1.691 -0.1476 -0.1966  0.1163
 3145ntf    on520169   7.140   3.371   1.404 -0.1957  0.3840 -0.2927
 3145ntf    on520170   6.968   3.545   1.340 -0.1571  0.3045  0.2429
 3145ntf    on520171   7.402   3.627   1.499 -0.3418 -0.1520 -1.0314
 3145ntf    on520172   7.283   3.499   1.681 -0.4314 -0.3158 -0.3155
 3145ntf    fn420173   7.156   3.736   1.759 -0.0611 -0.1410 -0.3532
 3145ntf    fn420174   7.360   3.782   1.754 -0.1874  0.0850  0.3846
 3145ntf    fn420175   7.229   3.856   1.602  0.2482  0.0438 -0.0197
 3146ntf    cn120176   1.460   6.254   4.100  0.0282  0.0794 -0.0798
 3146ntf    sn220177   1.578   6.239   3.963 -0.0289  0.1627 -0.1392
 3146ntf    nn320178   1.535   6.102   3.899 -0.0511  0.0945  0.0197
 3146ntf    sn220179   1.419   6.080   3.795 -0.1197  0.0235  0.1109
 3146ntf    cn120180   1.505   6.107   3.637 -0.5264 -0.4678 -0.1958
 3146ntf    fn420181   1.505   6.190   4.206  0.1916  0.3293  0.0031
 3146ntf    fn420182   1.451   6.378   4.146 -0.1820  0.1231 -0.2316
 3146ntf    fn420183   1.336   6.213   4.078 -0.0667  0.2582  0.1140
 3146ntf    on520184   1.558   6.355   3.881  0.3206  0.1245 -0.2814
 3146ntf    on520185   1.705   6.226   4.032 -0.0123  0.2203 -0.1596
 3146ntf    on520186   1.314   6.179   3.797 -0.1184  0.0356 -0.3380
 3146ntf    on520187   1.375   5.943   3.787 -0.0605  0.0056  0.0851
 3146ntf    fn420188   1.600   6.016   3.623  0.0782  0.0680  0.3662
 3146ntf    fn420189   1.424   6.125   3.534 -0.0099  0.1428 -0.5003
 3146ntf    fn420190   1.576   6.218   3.651 -0.2464 -0.6824  0.0991
 3147ntf    cn120191   6.473   6.692   3.629  0.0865  0.1062  0.0896
 3147ntf    sn220192   6.585   6.749   3.761  0.1347 -0.1029  0.1390
 3147ntf    nn320193   6.516   6.885   3.798  0.1478 -0.1085  0.1842
 3147ntf    sn220194   6.515   6.960   3.936 -0.0701 -0.1433  0.2029
 3147ntf    cn120195   6.625   7.099   3.897 -0.0747 -0.0860  0.3936
 3147ntf    fn420196   6.487   6.565   3.595  0.3177 -0.0260  0.6572
 3147ntf    fn420197   6.346   6.714   3.659  0.1066  0.3151  0.0274
 3147ntf    fn420198   6.489   6.761   3.517 -0.1383 -0.3533 -0.2288
 3147ntf    on520199   6.568   6.643   3.858  0.0751 -0.1290  0.1002
 3147ntf    on520200   6.712   6.759   3.693  0.4043 -0.2611  0.6150
 3147ntf    on520201   6.582   6.891   4.044  0.5076 -0.0659 -0.0980
 3147ntf    on520202   6.391   7.023   3.973  0.0066 -0.1168  0.4187
 3147ntf    fn420203   6.660   7.175   3.999  0.4480  0.1291  0.0591
 3147ntf    fn420204   6.736   7.059   3.836 -0.0359  0.4786  0.0801
 3147ntf    fn420205   6.568   7.188   3.816  0.7685 -0.2739 -0.4320
 3148ntf    cn120206   2.738   5.070   3.688  0.1628  0.1120  0.1122
 3148ntf    sn220207   2.841   5.218   3.713 -0.3480  0.5117 -0.1485
 3148ntf    nn320208   2.963   5.161   3.793 -0.2655 -0.4806 -0.9588
 3148ntf    sn220209   3.116   5.193   3.777 -0.2076 -0.0937  0.3043
 3148ntf    cn120210   3.181   5.063   3.668 -0.0213  0.3689 -0.1366
 3148ntf    fn420211   2.804   4.969   3.634 -0.1956 -0.2114  0.2741
 3148ntf    fn420212   2.683   5.022   3.798 -0.3037  0.2470 -0.0607
 3148ntf    fn420213   2.641   5.102   3.604 -0.0377 -0.1135  0.2565
 3148ntf    on520214   2.865   5.264   3.578  0.9058  0.1824 -0.0502
 3148ntf    on520215   2.755   5.302   3.793 -0.6019  0.0850  0.0277
 3148ntf    on520216   3.179   5.166   3.904  0.3690 -0.1428  0.0112
 3148ntf    on520217   3.153   5.314   3.708 -0.6445 -0.2207 -0.1560
 3148ntf    fn420218   3.139   5.072   3.542  0.2799  0.0818 -0.2599
 3148ntf    fn420219   3.313   5.061   3.663 -0.0120  0.5470  0.0114
 3148ntf    fn420220   3.149   4.941   3.708  0.3699  0.3726  0.1972
 3149ntf    cn120221   6.754   0.477   3.894  0.1696 -0.0227  0.1286
 3149ntf    sn220222   6.661   0.496   4.049  0.0447 -0.1606  0.0707
 3149ntf    nn320223   6.674   0.651   4.073  0.2443 -0.1629 -0.0143
 3149ntf    sn220224   6.730   0.722   4.201  0.1295 -0.1816  0.0467
 3149ntf    cn120225   6.566   0.760   4.269  0.2317  0.2189  0.0744
 3149ntf    fn420226   6.731   0.578   3.812 -0.2483 -0.1591  0.0755
 3149ntf    fn420227   6.885   0.467   3.914  0.1966 -0.1949 -0.1297
 3149ntf    fn420228   6.718   0.367   3.831 -0.1358  0.1258  0.0458
 3149ntf    on520229   6.526   0.462   4.013 -0.1094  0.6458 -0.1420
 3149ntf    on520230   6.729   0.408   4.140  0.5085  0.1381  0.0211
 3149ntf    on520231   6.778   0.855   4.174 -0.0445 -0.1457 -0.0861
 3149ntf    on520232   6.800   0.646   4.302  0.0449  0.1682  0.3753
 3149ntf    fn420233   6.569   0.855   4.361  0.4124  0.0722  0.2188
 3149ntf    fn420234   6.487   0.807   4.174  0.0400 -0.9315 -0.3488
 3149ntf    fn420235   6.499   0.659   4.324  0.3500  0.2231  0.2276
 3150ntf    cn120236   0.930   4.041   2.342  0.2291  0.2078 -0.0975
 3150ntf    sn220237   0.787   4.006   2.448  0.2917 -0.1637 -0.1355
 3150ntf    nn320238   0.671   4.030   2.345  0.4814  0.1023 -0.2859
 3150ntf    sn220239   0.533   4.102   2.364  0.4504 -0.1235  0.3828
 3150ntf    cn120240   0.429   3.973   2.287  0.2147  0.0441  0.4183
 3150ntf    fn420241   1.039   4.027   2.415  0.0372  0.0163  0.1556
 3150ntf    fn420242   0.942   3.953   2.244 -0.2699  0.3731 -0.3107
 3150ntf    fn420243   0.929   4.164   2.292 -0.2090  0.2415 -0.0090
 3150ntf    on520244   0.806   3.865   2.474  0.6603 -0.0038  0.4935
 3150ntf    on520245   0.801   4.098   2.559 -0.4195  0.5121 -0.5992
 3150ntf    on520246   0.508   4.220   2.285 -0.0565 -0.5528 -0.1130
 3150ntf    on520247   0.479   4.101   2.498 -0.2835 -0.6453  0.0950
 3150ntf    fn420248   0.368   3.891   2.370  0.0825  0.2524  0.5291
 3150ntf    fn420249   0.340   4.033   2.210  0.4103  0.4251  0.4820
 3150ntf    fn420250   0.496   3.903   2.197 -0.8868 -0.5479  0.0453
 3151ntf    cn120251   2.166   4.267   2.301  0.0339 -0.0246  0.5553
 3151ntf    sn220252   2.002   4.340   2.327 -0.1381 -0.3449  0.3754
 3151ntf    nn320253   2.034   4.460   2.423 -0.4126  0.0330 -0.0005
 3151ntf    sn220254   1.956   4.515   2.548  0.0752 -0.1868  0.4037
 3151ntf    cn120255   1.822   4.603   2.463  0.1745 -0.0653  0.3732
 3151ntf    fn420256   2.225   4.216   2.409 -0.0466  0.0692  0.6433
 3151ntf    fn420257   2.163   4.166   2.215 -0.5613  0.2515  0.2446
 3151ntf    fn420258   2.251   4.352   2.246 -0.3982 -0.2518 -0.4801
 3151ntf    on520259   1.960   4.385   2.197  0.2857  0.2490  0.4454
 3151ntf    on520260   1.930   4.229   2.386 -0.1247 -0.0726  0.9108
 3151ntf    on520261   2.032   4.616   2.618 -0.3832  0.3083  0.1942
 3151ntf    on520262   1.884   4.419   2.627 -0.7606  0.1196  0.0253
 3151ntf    fn420263   1.745   4.519   2.395 -0.2202  0.3122  0.3439
 3151ntf    fn420264   1.734   4.658   2.547 -0.4045 -0.1669 -0.1615
 3151ntf    fn420265   1.873   4.689   2.377 -0.0723 -0.7854 -0.4989
 3152ntf    cn120266   3.851   5.475   4.180  0.1321  0.1721 -0.1665
 3152ntf    sn220267   3.866   5.429   4.005 -0.1035 -0.1581 -0.1022
 3152ntf    nn320268   4.015   5.463   3.970 -0.0573 -0.0489  0.1944
 3152ntf    sn220269   4.096   5.592   4.008 -0.1295 -0.0091  0.2121
 3152ntf    cn120270   4.230   5.590   3.886 -0.0558 -0.0134  0.2932
 3152ntf    fn420271   3.736   5.433   4.232  0.2649  0.2356  0.1820
 3152ntf    fn420272   3.942   5.410   4.251  0.1407  0.1613 -0.1881
 3152ntf    fn420273   3.863   5.604   4.205 -0.1702  0.1304  0.2141
 3152ntf    on520274   3.842   5.287   3.995 -0.0482 -0.1907  0.2185
 3152ntf    on520275   3.771   5.506   3.928 -0.0018  0.4283  0.3485
 3152ntf    on520276   4.165   5.597   4.135  0.2514 -0.0903  0.0092
 3152ntf    on520277   4.024   5.709   3.965  0.3310  0.0837 -0.3211
 3152ntf    fn420278   4.314   5.691   3.903  0.0943 -0.1003  0.0886
 3152ntf    fn420279   4.301   5.478   3.891 -0.3943 -0.2332  0.1555
 3152ntf    fn420280   4.194   5.600   3.759  0.0814 -0.5440  0.2072
 3153ntf    cn120281   0.028   0.986   5.805 -0.1310 -0.0695  0.0211
 3153ntf    sn220282   0.161   0.901   5.715 -0.2393  0.2392 -0.4406
 3153ntf    nn320283   0.247   1.026   5.677 -0.3250  0.3604 -0.2367
 3153ntf    sn220284   0.373   1.087   5.749 -0.3607  0.1639 -0.0059
 3153ntf    cn120285   0.507   1.049   5.633 -0.3582  0.0370  0.0380
 3153ntf    fn420286  -0.032   1.069   5.720 -0.0327  0.3911  0.3958
 3153ntf    fn420287  -0.069   0.908   5.849  0.2254 -0.4463  0.1331
 3153ntf    fn420288   0.072   1.057   5.907 -0.3372 -0.1376  0.1577
 3153ntf    on520289   0.214   0.810   5.814  0.0099  0.2875 -0.5312
 3153ntf    on520290   0.110   0.837   5.596  0.3099 -0.6754 -0.1950
 3153ntf    on520291   0.425   1.032   5.872  0.1754  0.6009 -0.0322
 3153ntf    on520292   0.365   1.230   5.754  0.3307  0.1898  0.5973
 3153ntf    fn420293   0.493   1.115   5.519  0.0235 -0.0726 -0.0744
 3153ntf    fn420294   0.615   1.105   5.685 -0.1254 -0.3451 -0.0276
 3153ntf    fn420295   0.531   0.922   5.602 -0.4147  0.0926 -0.2428
 3154ntf    cn120296   5.595   3.981   2.230  0.1225 -0.1209  0.0300
 3154ntf    sn220297   5.717   3.984   2.364 -0.2081 -0.0733  0.3344
 3154ntf    nn320298   5.823   4.078   2.296 -0.4465 -0.2959 -0.3469
 3154ntf    sn220299   5.822   4.234   2.283  0.0635 -0.2603 -0.0041
 3154ntf    cn120300   5.793   4.250   2.104 -0.1163  0.1282  0.0587
 3154ntf    fn420301   5.534   4.098   2.227 -0.0608 -0.1986  0.5382
 3154ntf    fn420302   5.658   3.957   2.117  0.5029 -0.2188  0.2614
 3154ntf    fn420303   5.505   3.883   2.227  0.6042 -0.5838  0.4288
 3154ntf    on520304   5.642   4.039   2.474  0.1821 -0.1012  0.6160
 3154ntf    on520305   5.749   3.844   2.376 -0.3417 -0.1394 -0.0909
 3154ntf    on520306   5.960   4.271   2.305  0.0611 -0.1184 -0.2165
 3154ntf    on520307   5.722   4.313   2.350 -0.0164 -0.2619 -0.1213
 3154ntf    fn420308   5.692   4.176   2.061 -0.0033  0.0702 -0.1085
 3154ntf    fn420309   5.774   4.374   2.063  0.0439  0.0945 -0.1187
 3154ntf    fn420310   5.900   4.207   2.040 -0.0389  0.3206  0.0602
 3155ntf    cn120311   2.995   3.253   1.979 -0.0497 -0.4823 -0.2680
 3155ntf    sn220312   2.852   3.263   2.091  0.3038 -0.1641  0.1613
 3155ntf    nn320313   2.928   3.329   2.211  0.5097 -0.2694  0.0877
 3155ntf    sn220314   2.880   3.440   2.310 -0.1003 -0.2196 -0.2595
 3155ntf    cn120315   2.960   3.582   2.230 -0.2620  0.0550  0.0644
 3155ntf    fn420316   3.102   3.206   2.040  0.0609  0.2298  0.1032
 3155ntf    fn420317   2.978   3.175   1.874 -0.8980 -0.2897 -0.2834
 3155ntf    fn420318   3.026   3.373   1.931 -0.1111 -0.1642  0.4664
 3155ntf    on520319   2.752   3.343   2.024  0.0285 -0.5802  0.0678
 3155ntf    on520320   2.816   3.126   2.119 -0.2036 -0.1215 -0.2447
 3155ntf    on520321   2.941   3.432   2.440 -0.1345 -0.1063 -0.2355
 3155ntf    on520322   2.740   3.474   2.306 -0.0747 -0.0974 -0.1422
 3155ntf    fn420323   3.092   3.583   2.242 -0.2791  0.8186  0.2414
 3155ntf    fn420324   2.949   3.589   2.099  0.2671  0.2064  0.0239
 3155ntf    fn420325   2.918   3.697   2.281 -0.0461  0.1253  0.0895
 3156ntf    cn120326   1.868   0.580   0.816  0.0204  0.1250 -0.2343
 3156ntf    sn220327   2.026   0.543   0.898 -0.1948  0.1865  0.2066
 3156ntf    nn320328   2.076   0.419   0.817 -0.4248 -0.0401  0.4080
 3156ntf    sn220329   2.083   0.265   0.850  0.1921 -0.1286 -0.1154
 3156ntf    cn120330   2.264   0.260   0.869  0.1915 -0.4315 -0.1829
 3156ntf    fn420331   1.763   0.507   0.852 -0.1745  0.3492 -0.3437
 3156ntf    fn420332   1.832   0.706   0.834 -0.3679 -0.0654  0.3548
 3156ntf    fn420333   1.876   0.569   0.684  0.4300  0.4837 -0.2415
 3156ntf    on520334   2.098   0.665   0.873 -0.0003  0.0781  0.2347
 3156ntf    on520335   1.998   0.516   1.037 -0.9454 -0.5621 -0.0789
 3156ntf    on520336   2.052   0.175   0.742 -0.1049 -0.0686 -0.0800
 3156ntf    on520337   2.038   0.224   0.981 -0.1497  0.1129 -0.1559
 3156ntf    fn420338   2.304   0.134   0.880  0.2841 -0.3807  0.0737
 3156ntf    fn420339   2.326   0.308   0.762  0.2025 -0.1017 -0.0295
 3156ntf    fn420340   2.307   0.329   0.973  0.1278  0.2309 -0.5879
 3157ntf    cn120341   0.038   2.394   1.223  0.0967  0.0962  0.3478
 3157ntf    sn220342  -0.137   2.402   1.272 -0.0586 -0.0389 -0.1823
 3157ntf    nn320343  -0.202   2.465   1.143  0.0182  0.1492 -0.1290
 3157ntf    sn220344  -0.266   2.389   1.022 -0.1727  0.2919 -0.1189
 3157ntf    cn120345  -0.200   2.492   0.887  0.0499  0.2870 -0.0145
 3157ntf    fn420346   0.111   2.314   1.298  0.2001 -0.2157 -0.0844
 3157ntf    fn420347   0.043   2.355   1.097 -0.1240 -0.3406  0.4744
 3157ntf    fn420348   0.092   2.514   1.207  0.0918  0.0407 -0.0841
 3157ntf    on520349  -0.174   2.267   1.307 -0.5440  0.0908 -0.1877
 3157ntf    on520350  -0.128   2.501   1.376  0.8483 -0.0320 -0.2594
 3157ntf    on520351  -0.408   2.414   1.019 -0.2160  0.0746  0.0713
 3157ntf    on520352  -0.226   2.254   0.989 -0.0244  0.4382 -0.5444
 3157ntf    fn420353  -0.244   2.451   0.769 -0.1092 -0.2748  0.2333
 3157ntf    fn420354  -0.241   2.617   0.891  0.3883  0.4091 -0.3312
 3157ntf    fn420355  -0.068   2.486   0.879  0.0266 -0.9018  0.2008
 3158ntf    cn120356   1.301   2.716   1.991  0.0767  0.0867 -0.0022
 3158ntf    sn220357   1.218   2.814   1.863  0.0438 -0.2301 -0.2259
 3158ntf    nn320358   1.069   2.793   1.910  0.1124  0.0177  0.1059
 3158ntf    sn220359   0.982   2.670   1.866  0.1732 -0.0604  0.2033
 3158ntf    cn120360   0.889   2.647   2.021 -0.2363  0.0780 -0.0216
 3158ntf    fn420361   1.429   2.743   2.004  0.2323 -0.7813  0.3531
 3158ntf    fn420362   1.243   2.724   2.110 -0.0931 -0.3411 -0.0552
 3158ntf    fn420363   1.305   2.588   1.957  0.1437  0.0689  0.0721
 3158ntf    on520364   1.267   2.944   1.902 -0.3007 -0.0089 -0.5208
 3158ntf    on520365   1.260   2.765   1.734  0.1646 -0.1894 -0.2023
 3158ntf    on520366   1.054   2.545   1.864  0.2094 -0.0451  0.4305
 3158ntf    on520367   0.878   2.691   1.769 -0.0047 -0.1848  0.3679
 3158ntf    fn420368   0.776   2.578   2.019 -0.3145  0.2071 -0.0032
 3158ntf    fn420369   0.967   2.578   2.102 -0.1806  0.3089  0.1205
 3158ntf    fn420370   0.862   2.757   2.088 -0.1459  0.0038  0.1367
 3159ntf    cn120371   5.067   0.305   3.651  0.1295 -0.8752 -0.1670
 3159ntf    sn220372   5.098   0.278   3.828  0.3265  0.0684 -0.0519
 3159ntf    nn320373   5.232   0.358   3.846  0.3812 -0.2739  1.1606
 3159ntf    sn220374   5.376   0.302   3.823  0.3603  0.0939  0.1059
 3159ntf    cn120375   5.435   0.277   3.993 -0.1508 -0.1798  0.2430
 3159ntf    fn420376   5.016   0.198   3.593 -0.0664 -0.5452 -0.6156
 3159ntf    fn420377   4.989   0.412   3.639  0.6803 -0.4515 -0.0022
 3159ntf    fn420378   5.172   0.328   3.575 -0.2085  0.3985 -0.2761
 3159ntf    on520379   4.984   0.348   3.884  0.2684  0.1598 -0.2825
 3159ntf    on520380   5.100   0.136   3.852  0.3045  0.0442 -0.1960
 3159ntf    on520381   5.458   0.407   3.767  0.4288 -0.2318 -0.4128
 3159ntf    on520382   5.388   0.171   3.762 -0.1626  0.5210 -0.9479
 3159ntf    fn420383   5.355   0.187   4.048  0.1497 -0.4167  0.2999
 3159ntf    fn420384   5.560   0.235   4.002  0.0304  0.2272 -0.3507
 3159ntf    fn420385   5.425   0.380   4.075 -0.7489  0.0285 -0.0883
 3160ntf    cn120386   1.841   2.369   4.844 -0.1269  0.2393 -0.3480
 3160ntf    sn220387   1.917   2.256   4.965 -0.3155  0.0183 -0.4356
 3160ntf    nn320388   2.006   2.349   5.054 -0.4922 -0.4083  0.1878
 3160ntf    sn220389   2.051   2.344   5.205 -0.1950 -0.1042  0.1107
 3160ntf    cn120390   2.227   2.383   5.183 -0.2728  0.3091  0.2256
 3160ntf    fn420391   1.821   2.488   4.898  0.2671  0.1119  0.0863
 3160ntf    fn420392   1.921   2.392   4.741 -0.1570  0.4391 -0.3270
 3160ntf    fn420393   1.726   2.330   4.791  0.2040 -0.7951 -0.3225
 3160ntf    on520394   1.802   2.200   5.030  0.0177  0.1529  0.2764
 3160ntf    on520395   1.997   2.172   4.879 -0.4156 -0.3159 -0.2039
 3160ntf    on520396   2.062   2.214   5.266 -0.2657 -0.1155  0.0988
 3160ntf    on520397   1.995   2.447   5.289 -0.2709  0.3197 -0.4545
 3160ntf    fn420398   2.284   2.325   5.078 -0.1114  0.5477  0.1783
 3160ntf    fn420399   2.258   2.512   5.174 -0.3746  0.3171 -0.0139
 3160ntf    fn420400   2.294   2.339   5.288 -0.1774 -0.3857 -0.1258
 3161ntf    cn120401   5.648   5.283   4.699  0.1727 -0.0264 -0.2512
 3161ntf    sn220402   5.588   5.131   4.778 -0.1963 -0.0223 -0.5160
 3161ntf    nn320403   5.655   5.038   4.672  0.4737  0.0556 -0.1665
 3161ntf    sn220404   5.583   4.916   4.603 -0.1614  0.2508  0.1481
 3161ntf    cn120405   5.736   4.843   4.538 -0.4205 -0.2582  0.1046
 3161ntf    fn420406   5.778   5.304   4.699  0.2366 -0.4268  0.3606
 3161ntf    fn420407   5.608   5.299   4.573  0.4302 -0.0725 -0.3381
 3161ntf    fn420408   5.598   5.388   4.762  0.5145  0.1015 -0.1910
 3161ntf    on520409   5.660   5.147   4.902 -0.3910  0.0777 -0.4157
 3161ntf    on520410   5.444   5.140   4.783 -0.1354  0.5415  0.6964
 3161ntf    on520411   5.508   4.953   4.486 -0.2675  0.4505  0.2766
 3161ntf    on520412   5.532   4.811   4.688  0.1727  0.2910  0.4033
 3161ntf    fn420413   5.788   4.757   4.624  0.4400 -0.0623 -0.1985
 3161ntf    fn420414   5.707   4.769   4.433 -0.3221 -0.8240  0.4698
 3161ntf    fn420415   5.834   4.929   4.512 -0.3099 -0.1983  0.6845
 3162ntf    cn120416   4.612   1.563   4.822 -0.3091  0.3133 -0.1091
 3162ntf    sn220417   4.670   1.488   4.977 -0.0819  0.1946 -0.2518
 3162ntf    nn320418   4.803   1.416   4.932 -0.0040 -0.1854  0.5653
 3162ntf    sn220419   4.829   1.265   4.899 -0.1910 -0.0807 -0.0784
 3162ntf    cn120420   4.874   1.209   5.066  0.0204  0.3595  0.0138
 3162ntf    fn420421   4.615   1.474   4.725 -0.3535  0.2664 -0.0675
 3162ntf    fn420422   4.488   1.606   4.828 -0.4381 -0.0197 -0.3881
 3162ntf    fn420423   4.690   1.664   4.786 -0.1886  0.3601  0.2685
 3162ntf    on520424   4.680   1.606   5.059  0.0165 -0.1426  0.2315
 3162ntf    on520425   4.570   1.394   5.020  0.2187  0.2496  0.6076
 3162ntf    on520426   4.943   1.237   4.815 -0.3851 -0.5209 -0.1994
 3162ntf    on520427   4.713   1.185   4.868 -0.1889 -0.0143 -0.2574
 3162ntf    fn420428   4.771   1.233   5.146 -0.0457  0.5259 -0.1213
 3162ntf    fn420429   4.909   1.082   5.079  0.0616  0.2644 -0.9816
 3162ntf    fn420430   4.972   1.284   5.112 -0.1510  0.3667  0.3706
 3163ntf    cn120431   6.980   2.710   3.744  0.0868  0.0040 -0.1380
 3163ntf    sn220432   6.931   2.869   3.816 -0.1609 -0.2317  0.2185
 3163ntf    nn320433   6.957   2.846   3.969  0.4270 -0.4805  0.0838
 3163ntf    sn220434   6.857   2.787   4.076 -0.0812  0.1189 -0.0590
 3163ntf    cn120435   6.777   2.943   4.125  0.0254  0.1878 -0.1034
 3163ntf    fn420436   7.105   2.670   3.756  0.1649  0.2402 -0.1757
 3163ntf    fn420437   6.907   2.615   3.801 -0.2596  0.4569  0.1854
 3163ntf    fn420438   6.948   2.714   3.616  0.6605  0.7367 -0.2602
 3163ntf    on520439   7.025   2.964   3.762 -0.3110  0.1698  0.6478
 3163ntf    on520440   6.797   2.892   3.768 -0.0855 -0.2236  0.0164
 3163ntf    on520441   6.919   2.746   4.199 -0.1670 -0.3758 -0.1797
 3163ntf    on520442   6.750   2.703   4.028  0.0901 -0.0525 -0.1412
 3163ntf    fn420443   6.684   2.926   4.217 -0.2407 -0.2780 -0.4531
 3163ntf    fn420444   6.863   3.027   4.179 -0.1094  0.2691 -0.0137
 3163ntf    fn420445   6.715   3.005   4.025  0.2850  0.2605 -0.2190
 3164ntf    cn120446   3.069   4.049   6.336 -0.2954 -0.0561 -0.2854
 3164ntf    sn220447   3.179   4.139   6.222  0.0940 -0.1658  0.0019
 3164ntf    nn320448   3.316   4.120   6.297  0.2701  0.4763 -0.1555
 3164ntf    sn220449   3.422   4.217   6.361  0.3305  0.0740  0.3557
 3164ntf    cn120450   3.556   4.195   6.240 -0.0930 -0.3325 -0.0442
 3164ntf    fn420451   2.944   4.052   6.294 -0.3963 -0.4262 -0.0133
 3164ntf    fn420452   3.100   3.921   6.345 -0.4887 -0.0723  0.1855
 3164ntf    fn420453   3.060   4.101   6.458  0.1055  0.0699 -0.3067
 3164ntf    on520454   3.160   4.068   6.098 -0.2779  0.2446 -0.1802
 3164ntf    on520455   3.130   4.274   6.227  0.5978  0.0147  0.1478
 3164ntf    on520456   3.471   4.168   6.487  0.7084 -0.3064  0.0639
 3164ntf    on520457   3.394   4.358   6.351  0.0390 -0.0343 -0.4673
 3164ntf    fn420458   3.598   4.071   6.222  0.8317 -0.0952  0.4433
 3164ntf    fn420459   3.518   4.245   6.123  0.0708 -0.3785 -0.1177
 3164ntf    fn420460   3.658   4.268   6.282 -0.2720 -0.0932 -0.0203
 3165ntf    cn120461   0.652   1.216   2.133  0.3169  0.1529 -0.2715
 3165ntf    sn220462   0.729   1.052   2.142  0.0419  0.0270 -0.2155
 3165ntf    nn320463   0.754   1.027   1.989  0.3081 -0.3982 -0.1050
 3165ntf    sn220464   0.884   1.051   1.904  0.1316 -0.2437 -0.3335
 3165ntf    cn120465   0.802   1.127   1.761  0.2295 -0.0077 -0.2654
 3165ntf    fn420466   0.655   1.271   2.253  0.0777 -0.6121  0.0908
 3165ntf    fn420467   0.721   1.296   2.053  0.2636  0.4453 -0.0240
 3165ntf    fn420468   0.525   1.227   2.098  0.1570  0.3993  0.3737
 3165ntf    on520469   0.846   1.067   2.224  0.1223 -0.0692 -0.3117
 3165ntf    on520470   0.629   0.968   2.203  0.2266 -0.2447 -0.2829
 3165ntf    on520471   0.943   0.932   1.849  0.2149 -0.1398 -0.4710
 3165ntf    on520472   0.973   1.156   1.949  0.1802 -0.5674  0.3486
 3165ntf    fn420473   0.884   1.203   1.690  0.1545  0.4800  0.1590
 3165ntf    fn420474   0.740   1.039   1.683  0.3721 -0.1906 -0.1719
 3165ntf    fn420475   0.707   1.211   1.800  0.0318 -0.4834  0.2998
 3166ntf    cn120476   6.417   3.873   0.132 -0.0395  0.3471 -0.2504
 3166ntf    sn220477   6.298   3.747   0.187  0.5345 -0.0001  0.2094
 3166ntf    nn320478   6.340   3.734   0.338  0.0895  0.0303  0.3388
 3166ntf    sn220479   6.278   3.771   0.477 -0.4546 -0.0671  0.1236
 3166ntf    cn120480   6.411   3.860   0.564 -0.2121 -0.2103 -0.0988
 3166ntf    fn420481   6.540   3.849   0.175 -0.1315  0.2761 -0.0235
 3166ntf    fn420482   6.430   3.880   0.001  0.3952  0.0496 -0.2244
 3166ntf    fn420483   6.384   3.994   0.175 -0.2087  0.2626 -0.1386
 3166ntf    on520484   6.170   3.803   0.152  0.3340 -0.5615  0.0319
 3166ntf    on520485   6.343   3.634   0.109 -0.0278  0.1276 -0.3076
 3166ntf    on520486   6.251   3.648   0.548  0.1238 -0.3078 -0.0642
 3166ntf    on520487   6.174   3.870   0.469 -0.6671 -0.2403  0.6901
 3166ntf    fn420488   6.450   3.977   0.516 -0.0925 -0.0670  0.3431
 3166ntf    fn420489   6.382   3.882   0.691 -0.0881 -0.2753 -0.0595
 3166ntf    fn420490   6.519   3.786   0.580 -0.0070  0.0748 -0.1602
 3167ntf    cn120491   1.070   1.626   6.510 -0.0878  0.3622  0.2336
 3167ntf    sn220492   1.087   1.546   6.348  0.0199  0.0501  0.3965
 3167ntf    nn320493   1.024   1.650   6.248  0.4939 -0.4453 -0.4282
 3167ntf    sn220494   0.931   1.619   6.125  0.0568  0.1374 -0.2490
 3167ntf    cn120495   0.767   1.633   6.202  0.0485 -0.0164 -0.2383
 3167ntf    fn420496   0.941   1.642   6.535 -0.0745  0.3599  0.3038
 3167ntf    fn420497   1.118   1.547   6.605 -0.0584  0.0801 -0.0128
 3167ntf    fn420498   1.123   1.746   6.527 -0.0913  0.3899  0.0510
 3167ntf    on520499   1.230   1.532   6.329 -0.0459 -0.4953  0.2958
 3167ntf    on520500   1.012   1.425   6.370  0.1400 -0.1512 -0.2778
 3167ntf    on520501   0.937   1.488   6.065  0.0581 -0.0894  0.2389
 3167ntf    on520502   0.930   1.732   6.035  0.4635  0.3275 -0.0154
 3167ntf    fn420503   0.723   1.521   6.258  0.3456 -0.0574 -0.0895
 3167ntf    fn420504   0.769   1.723   6.298  0.2249 -0.5517  0.2669
 3167ntf    fn420505   0.676   1.667   6.112  0.0472  0.9187  0.1069
 3168ntf    cn120506   5.514   3.131   2.300 -0.6534 -0.1611  0.0893
 3168ntf    sn220507   5.601   3.243   2.188 -0.0582 -0.2757  0.4340
 3168ntf    nn320508   5.506   3.223   2.065 -0.2610  0.0055  0.5445
 3168ntf    sn220509   5.385   3.310   2.013  0.0084  0.1279  0.1170
 3168ntf    cn120510   5.333   3.201   1.877 -0.2703  0.3351  0.0576
 3168ntf    fn420511   5.586   3.111   2.410 -0.4567  0.4216  0.0655
 3168ntf    fn420512   5.392   3.171   2.331 -0.5617 -0.3210  0.6691
 3168ntf    fn420513   5.496   3.010   2.249 -0.3219 -0.1275 -0.1090
 3168ntf    on520514   5.575   3.367   2.258 -0.7164  0.1921 -0.6164
 3168ntf    on520515   5.734   3.191   2.171 -0.3009 -0.7983  0.1131
 3168ntf    on520516   5.411   3.438   1.951  0.1867 -0.1854 -0.4649
 3168ntf    on520517   5.272   3.298   2.101  0.1426  0.5922  0.3546
 3168ntf    fn420518   5.221   3.249   1.826  0.0365  0.8102 -0.1760
 3168ntf    fn420519   5.435   3.206   1.793 -0.0210  0.4859  0.3657
 3168ntf    fn420520   5.320   3.075   1.915  0.1318  0.1595 -0.3719
 3169ntf    cn120521   0.216   3.229   1.901 -0.1803  0.1456  0.0731
 3169ntf    sn220522   0.219   3.154   2.067  0.0837  0.0864  0.0417
 3169ntf    nn320523   0.195   3.002   2.036  0.2790  0.1186 -0.2812
 3169ntf    sn220524   0.292   2.879   2.043 -0.0457 -0.1215  0.0559
 3169ntf    cn120525   0.286   2.828   2.218 -0.0154 -0.1451  0.0502
 3169ntf    fn420526   0.103   3.208   1.837  0.0567 -0.3106 -0.2054
 3169ntf    fn420527   0.233   3.360   1.910  0.3099  0.0611  0.4255
 3169ntf    fn420528   0.301   3.169   1.819 -0.2281 -0.3418  0.3793
 3169ntf    on520529   0.351   3.189   2.113  0.2098  0.5580 -0.6597
 3169ntf    on520530   0.105   3.209   2.135 -0.0982  0.0350 -0.2206
 3169ntf    on520531   0.432   2.907   2.022 -0.1574  0.1241 -0.3530
 3169ntf    on520532   0.241   2.760   1.979  0.2213 -0.0128 -0.3617
 3169ntf    fn420533   0.346   2.711   2.233  1.1281  0.3819 -0.3072
 3169ntf    fn420534   0.361   2.911   2.289  0.1066  0.1187 -0.3840
 3169ntf    fn420535   0.167   2.826   2.275 -0.0557 -0.4888 -0.0433
 3170ntf    cn120536   0.265   0.088   1.729  0.1599 -0.3931 -0.2755
 3170ntf    sn220537   0.353  -0.003   1.859  0.1491 -0.2846 -0.1924
 3170ntf    nn320538   0.496  -0.020   1.797  0.1012  0.2733 -0.4628
 3170ntf    sn220539   0.615   0.082   1.804  0.3080  0.0029  0.0606
 3170ntf    cn120540   0.673   0.069   1.632  0.0645 -0.2427 -0.0020
 3170ntf    fn420541   0.331   0.197   1.695 -0.2851  0.0362  0.2408
 3170ntf    fn420542   0.264   0.016   1.617  0.4150 -0.2649 -0.3608
 3170ntf    fn420543   0.144   0.125   1.770  0.4087  0.3395 -0.1936
 3170ntf    on520544   0.337   0.074   1.980  0.5684  0.6327 -0.7159
 3170ntf    on520545   0.279  -0.127   1.857 -0.2539 -0.0559  0.3502
 3170ntf    on520546   0.732   0.029   1.869 -0.2192 -0.7714  0.3898
 3170ntf    on520547   0.589   0.223   1.822 -0.5066 -0.0953 -0.2948
 3170ntf    fn420548   0.586   0.104   1.539 -0.2754 -0.0189  0.3975
 3170ntf    fn420549   0.766   0.160   1.615  0.1393 -0.2749  0.2281
 3170ntf    fn420550   0.717  -0.050   1.594 -0.1272 -0.1066 -0.6571
 3171ntf    cn120551   6.884   3.265   0.733 -0.0024  0.1195  0.3290
 3171ntf    sn220552   6.826   3.193   0.889 -0.0971 -0.2511  0.1242
 3171ntf    nn320553   6.895   3.053   0.869 -0.3765 -0.3212 -0.3728
 3171ntf    sn220554   7.044   3.018   0.904 -0.3485 -0.0268 -0.1963
 3171ntf    cn120555   7.019   2.839   0.890  0.1214 -0.1250  0.1908
 3171ntf    fn420556   7.016   3.274   0.737  0.0079 -0.0159  0.3122
 3171ntf    fn420557   6.860   3.180   0.634 -0.5166 -0.2491  0.7662
 3171ntf    fn420558   6.822   3.377   0.699  0.6255  0.2569 -0.3846
 3171ntf    on520559   6.887   3.268   0.995  0.1519  0.2566 -0.3786
 3171ntf    on520560   6.682   3.197   0.880 -0.0799  0.3092  0.0516
 3171ntf    on520561   7.087   3.035   1.041 -0.2470  0.1659 -0.2520
 3171ntf    on520562   7.139   3.054   0.802 -0.6707  0.2388 -0.4021
 3171ntf    fn420563   7.138   2.781   0.900  0.4039  0.2894 -0.6753
 3171ntf    fn420564   6.940   2.784   0.980  0.0323 -0.2620  0.0290
 3171ntf    fn420565   6.975   2.806   0.770  0.0708  0.7684 -0.0414
 3172ntf    cn120566   1.255   6.100   2.510 -0.0849 -0.4803  0.4760
 3172ntf    sn220567   1.121   6.016   2.421  0.1961 -0.3363 -0.0960
 3172ntf    nn320568   1.035   5.967   2.543 -0.0360 -0.2013 -0.2051
 3172ntf    sn220569   1.008   5.817   2.582  0.2749 -0.1915  0.0511
 3172ntf    cn120570   1.010   5.842   2.762  0.2054 -0.1640  0.0487
 3172ntf    fn420571   1.311   6.025   2.603  0.2718 -0.6987  0.0928
 3172ntf    fn420572   1.354   6.145   2.433 -0.4932 -0.3748  0.0028
 3172ntf    fn420573   1.219   6.214   2.567  0.1709  0.0068 -0.3118
 3172ntf    on520574   1.050   6.121   2.353 -0.8061 -0.6135  0.4960
 3172ntf    on520575   1.188   5.915   2.343 -0.0481 -0.1895 -0.4947
 3172ntf    on520576   1.110   5.716   2.570  0.3135 -0.1647  0.1501
 3172ntf    on520577   0.872   5.790   2.543  0.1653  0.2935  0.0897
 3172ntf    fn420578   0.915   5.926   2.799  0.5617  0.3214 -0.1279
 3172ntf    fn420579   0.978   5.734   2.832 -0.7506  0.2387  0.2492
 3172ntf    fn420580   1.130   5.880   2.803 -0.0693  0.5190  0.2285
 3173ntf    cn120581   1.512   5.691   1.178 -0.0157 -0.0645  0.0124
 3173ntf    sn220582   1.571   5.809   1.303  0.0469 -0.2387  0.1471
 3173ntf    nn320583   1.560   5.713   1.426 -0.1347 -0.0761  0.2588
 3173ntf    sn220584   1.468   5.731   1.552 -0.3459  0.0392  0.0882
 3173ntf    cn120585   1.322   5.634   1.504  0.0600 -0.5769  0.0917
 3173ntf    fn420586   1.473   5.752   1.066  0.2121 -0.2417 -0.1649
 3173ntf    fn420587   1.609   5.606   1.151 -0.2343 -0.2050 -0.3484
 3173ntf    fn420588   1.410   5.622   1.225  0.1137  0.0360  0.4455
 3173ntf    on520589   1.710   5.833   1.274 -0.1593  0.4391 -0.3272
 3173ntf    on520590   1.490   5.928   1.296  0.1684 -0.0998  0.9709
 3173ntf    on520591   1.407   5.860   1.575 -0.1948  0.1240  0.0191
 3173ntf    on520592   1.510   5.650   1.664  0.1195 -0.1470 -0.2192
 3173ntf    fn420593   1.243   5.603   1.606 -0.1452  0.1872  0.1704
 3173ntf    fn420594   1.244   5.704   1.424  0.2123 -0.2941  0.1905
 3173ntf    fn420595   1.358   5.520   1.448 -0.0640 -0.5363 -0.0719
 3174ntf    cn120596   0.100   6.374   0.445 -0.2898 -0.0628 -0.1145
 3174ntf    sn220597  -0.004   6.225   0.455 -0.1760 -0.1248  0.1488
 3174ntf    nn320598  -0.042   6.236   0.607  0.0644  0.1311  0.1927
 3174ntf    sn220599   0.039   6.183   0.730  0.0866 -0.1402  0.0625
 3174ntf    cn120600  -0.006   6.007   0.736 -0.4437 -0.0029  0.1103
 3174ntf    fn420601   0.163   6.404   0.557 -0.1503 -0.2866 -0.1298
 3174ntf    fn420602   0.193   6.366   0.351 -0.1353 -0.6969  0.0862
 3174ntf    fn420603   0.027   6.480   0.417  0.2793  0.2327 -0.5107
 3174ntf    on520604  -0.105   6.256   0.358 -0.0093  0.1893  0.0748
 3174ntf    on520605   0.081   6.112   0.427 -0.2216 -0.1920  0.2782
 3174ntf    on520606  -0.002   6.242   0.855 -0.1583 -0.4195  0.1147
 3174ntf    on520607   0.181   6.176   0.703  0.0296 -0.0287 -0.2652
 3174ntf    fn420608   0.049   5.948   0.840 -0.2216 -0.2601 -0.1507
 3174ntf    fn420609  -0.137   5.989   0.744 -0.4417  0.0041  0.1576
 3174ntf    fn420610   0.035   5.947   0.625 -0.8855  0.1820 -0.1573
 3175ntf    cn120611   6.299   5.819   5.876 -0.1568 -0.1282 -0.2813
 3175ntf    sn220612   6.352   5.719   5.734 -0.1016 -0.0339 -0.3272
 3175ntf    nn320613   6.332   5.573   5.788  0.1870  0.2831  0.6608
 3175ntf    sn220614   6.427   5.484   5.876 -0.1330 -0.5872  0.1455
 3175ntf    cn120615   6.534   5.406   5.752  0.4228  0.2244  0.1048
 3175ntf    fn420616   6.382   5.808   5.979 -0.0517 -0.0043 -0.3537
 3175ntf    fn420617   6.284   5.946   5.843  1.0586  0.1815  0.3079
 3175ntf    fn420618   6.176   5.786   5.912  0.0515 -0.5032  0.0980
 3175ntf    on520619   6.258   5.757   5.632 -0.1331  0.4070 -0.1331
 3175ntf    on520620   6.488   5.757   5.710 -0.0364 -0.0879 -0.0502
 3175ntf    on520621   6.365   5.368   5.935 -0.1613 -0.4586  0.3689
 3175ntf    on520622   6.513   5.561   5.962 -0.0346 -0.1486 -0.3469
 3175ntf    fn420623   6.635   5.343   5.809  0.1485 -0.0740  0.2684
 3175ntf    fn420624   6.466   5.304   5.703  0.3125  0.1968  0.3148
 3175ntf    fn420625   6.580   5.481   5.653 -0.2311  0.0905 -0.3081
 3176ntf    cn120626   5.390   0.448   1.552  0.1694 -0.1195  0.0238
 3176ntf    sn220627   5.529   0.564   1.568  0.0994 -0.0640  0.2174
 3176ntf    nn320628   5.503   0.645   1.436  0.1210  0.1327  0.3329
 3176ntf    sn220629   5.442   0.788   1.414  0.0817  0.0361 -0.1913
 3176ntf    cn120630   5.580   0.891   1.471 -0.1629  0.1311  0.2314
 3176ntf    fn420631   5.403   0.393   1.432  0.1510 -0.0467 -0.0120
 3176ntf    fn420632   5.390   0.351   1.642  0.0740 -0.1368  0.0043
 3176ntf    fn420633   5.270   0.504   1.559  0.0915 -0.2991  0.1179
 3176ntf    on520634   5.512   0.635   1.693 -0.9339  0.1599 -0.0393
 3176ntf    on520635   5.649   0.484   1.559 -0.0235 -0.1495 -0.6792
 3176ntf    on520636   5.320   0.822   1.484  0.3246 -0.0959  0.2986
 3176ntf    on520637   5.436   0.815   1.273 -0.0115  0.4688 -0.1047
 3176ntf    fn420638   5.590   0.909   1.602  0.0147 -0.6241  0.3283
 3176ntf    fn420639   5.695   0.839   1.433 -0.2492  0.3787 -0.3782
 3176ntf    fn420640   5.574   1.010   1.415  0.5157 -0.0698 -0.2714
 3177ntf    cn120641   4.106   6.992   3.269  0.1075  0.0214 -0.2582
 3177ntf    sn220642   3.994   7.089   3.164  0.1330 -0.0701 -0.3697
 3177ntf    nn320643   4.039   7.041   3.021 -0.5365  0.0204 -0.6155
 3177ntf    sn220644   4.138   7.117   2.926  0.1891 -0.2923 -0.1233
 3177ntf    cn120645   4.156   6.989   2.799  0.1311 -0.2912 -0.1331
 3177ntf    fn420646   4.230   7.010   3.225  0.0638  0.3309 -0.2591
 3177ntf    fn420647   4.106   7.040   3.392 -0.2678 -0.8520  0.0841
 3177ntf    fn420648   4.067   6.866   3.264  0.1937 -0.0127 -0.0712
 3177ntf    on520649   3.865   7.038   3.205  0.1569  0.1457 -0.0293
 3177ntf    on520650   4.023   7.227   3.195 -0.0843 -0.0622 -0.1942
 3177ntf    on520651   4.269   7.131   2.984  0.2150  1.2705 -0.4903
 3177ntf    on520652   4.077   7.224   2.850  0.3086  0.0888  0.3112
 3177ntf    fn420653   4.237   6.892   2.839  0.1477 -0.2661 -0.1077
 3177ntf    fn420654   4.043   6.937   2.754  0.1766  0.1699 -0.7933
 3177ntf    fn420655   4.217   7.039   2.693  0.0526 -0.4755 -0.2670
 3178ntf    cn120656   2.335   4.410   5.177 -0.1195 -0.4770 -0.2496
 3178ntf    sn220657   2.206   4.534   5.150  0.3530  0.0774  0.0231
 3178ntf    nn320658   2.221   4.600   5.292  0.0918  0.3001 -0.0525
 3178ntf    sn220659   2.329   4.706   5.335 -0.0330  0.3566  0.1227
 3178ntf    cn120660   2.228   4.857   5.349  0.1189  0.4698  0.0016
 3178ntf    fn420661   2.359   4.329   5.075  0.2481 -0.4272 -0.2074
 3178ntf    fn420662   2.452   4.456   5.219 -0.2103 -0.6150  0.1630
 3178ntf    fn420663   2.314   4.330   5.281  0.1344  0.1077  0.2538
 3178ntf    on520664   2.253   4.619   5.043  0.1764 -0.3259 -0.3776
 3178ntf    on520665   2.088   4.457   5.121  0.0460  0.3787  0.4616
 3178ntf    on520666   2.433   4.741   5.241  0.1048  0.0676  0.1677
 3178ntf    on520667   2.374   4.673   5.468 -0.1004  0.8727  0.2756
 3178ntf    fn420668   2.153   4.882   5.243 -0.1313  0.0501  0.0742
 3178ntf    fn420669   2.141   4.845   5.449  0.1254 -0.2850 -0.0737
 3178ntf    fn420670   2.303   4.960   5.383 -0.1124  0.7906 -0.4477
 3179ntf    cn120671   2.811   3.905   6.733  0.3775 -0.0646  0.0628
 3179ntf    sn220672   2.698   3.857   6.867 -0.1464 -0.1971 -0.4227
 3179ntf    nn320673   2.625   3.993   6.897 -0.0067 -0.2701  0.2546
 3179ntf    sn220674   2.651   4.100   7.009  0.2375  0.0703 -0.1259
 3179ntf    cn120675   2.552   4.019   7.138 -0.2591  0.3127 -0.3534
 3179ntf    fn420676   2.839   3.799   6.658 -0.1176  0.0822 -0.3335
 3179ntf    fn420677   2.762   3.998   6.653  0.4924 -0.1757 -0.1371
 3179ntf    fn420678   2.924   3.954   6.781  0.4959  0.0208 -0.3004
 3179ntf    on520679   2.614   3.754   6.811 -0.0134 -0.4077 -0.2358
 3179ntf    on520680   2.788   3.810   6.969 -0.0935  0.7420 -0.0302
 3179ntf    on520681   2.583   4.219   6.968 -0.2016 -0.1005  0.0981
 3179ntf    on520682   2.787   4.112   7.055  0.1452  0.1625  0.1227
 3179ntf    fn420683   2.573   4.062   7.261  0.0363 -0.1310 -0.2441
 3179ntf    fn420684   2.422   4.032   7.120 -0.4096 -0.3873  0.1429
 3179ntf    fn420685   2.561   3.887   7.136 -0.4331  0.2927  0.0374
 3180ntf    cn120686   1.074   3.270   3.009  0.2000 -0.0854  0.1318
 3180ntf    sn220687   1.060   3.142   2.880 -0.0031  0.1031 -0.0333
 3180ntf    nn320688   0.919   3.183   2.825 -0.0745  0.3659  0.3375
 3180ntf    sn220689   0.871   3.231   2.683  0.1219  0.0581  0.1653
 3180ntf    cn120690   0.706   3.155   2.675  0.1763 -0.0346 -0.0914
 3180ntf    fn420691   1.188   3.282   3.075  0.2888  0.0370 -0.0423
 3180ntf    fn420692   1.043   3.389   2.961 -0.4986 -0.2211  0.2389
 3180ntf    fn420693   0.983   3.255   3.104 -0.1837 -0.4299 -0.2833
 3180ntf    on520694   1.171   3.161   2.791  0.4096 -0.1355  0.4231
 3180ntf    on520695   1.057   3.016   2.951  0.1658  0.1758  0.1034
 3180ntf    on520696   0.939   3.175   2.569  0.3810  0.0448  0.3272
 3180ntf    on520697   0.848   3.373   2.679 -0.0943  0.0195  0.0414
 3180ntf    fn420698   0.619   3.214   2.756 -0.2656  0.2004 -0.7264
 3180ntf    fn420699   0.656   3.159   2.553 -0.1282 -0.4390  0.0165
 3180ntf    fn420700   0.715   3.030   2.717  0.1945  0.2239  0.6983
 3181ntf    cn120701   2.881   5.052   3.101  0.3116  0.2967 -0.1084
 3181ntf    sn220702   2.800   5.213   3.073 -0.0764  0.1394  0.1022
 3181ntf    nn320703   2.661   5.207   3.146 -0.1026 -0.0975  0.0358
 3181ntf    sn220704   2.528   5.136   3.103 -0.0232 -0.1330 -0.1510
 3181ntf    cn120705   2.434   5.258   3.007 -0.3559  0.0270  0.3770
 3181ntf    fn420706   2.796   4.955   3.072  0.0632  0.6074 -0.4385
 3181ntf    fn420707   2.992   5.023   3.036 -0.0608  0.1842 -0.7071
 3181ntf    fn420708   2.906   5.033   3.230 -0.7528 -0.3055  0.0201
 3181ntf    on520709   2.896   5.303   3.130  0.0874  0.3964 -0.5637
 3181ntf    on520710   2.793   5.221   2.929 -0.2216 -0.2058  0.0880
 3181ntf    on520711   2.445   5.112   3.218  0.5183 -0.0746  0.2565
 3181ntf    on520712   2.552   5.031   3.007 -0.3195 -0.1604 -0.1946
 3181ntf    fn420713   2.490   5.277   2.889 -0.3885  0.0970  0.3730
 3181ntf    fn420714   2.313   5.212   2.984 -0.2999 -0.0524  0.2409
 3181ntf    fn420715   2.424   5.374   3.070  0.2157  0.1614  0.2288
 3182ntf    cn120716   1.555   5.811   4.587  0.2600 -0.0687  0.3457
 3182ntf    sn220717   1.436   5.864   4.460  0.1896 -0.2882  0.3199
 3182ntf    nn320718   1.341   5.958   4.542  0.4432  0.0070  0.2772
 3182ntf    sn220719   1.330   6.115   4.542 -0.0792 -0.0262  0.1697
 3182ntf    cn120720   1.223   6.150   4.400 -0.0664  0.1617  0.2058
 3182ntf    fn420721   1.502   5.730   4.677  0.1385 -0.3476  0.0246
 3182ntf    fn420722   1.649   5.738   4.529 -0.1853 -0.2441 -0.1686
 3182ntf    fn420723   1.618   5.909   4.650  0.1880  0.4060 -0.3019
 3182ntf    on520724   1.520   5.937   4.368 -0.1833  0.0129  0.2134
 3182ntf    on520725   1.371   5.747   4.407 -0.1211  0.1817 -0.3581
 3182ntf    on520726   1.455   6.182   4.513  0.0715 -0.1802  0.4522
 3182ntf    on520727   1.261   6.169   4.656 -0.0027  0.0669  0.1725
 3182ntf    fn420728   1.107   6.088   4.415 -0.1764  0.3731  0.2404
 3182ntf    fn420729   1.199   6.278   4.377  0.6446  0.2771  0.0991
 3182ntf    fn420730   1.277   6.108   4.286  0.4605 -0.0075  0.5154
 3183ntf    cn120731   3.597   0.454   2.956 -0.0989 -0.0173  0.4062
 3183ntf    sn220732   3.590   0.548   3.112  0.1913  0.0974  0.3515
 3183ntf    nn320733   3.640   0.690   3.066 -0.0316  0.1872  0.3839
 3183ntf    sn220734   3.786   0.738   3.034 -0.1606  0.3277  0.0063
 3183ntf    cn120735   3.774   0.736   2.853  0.1212  0.3451 -0.0134
 3183ntf    fn420736   3.558   0.329   2.973 -0.0561 -0.0722  0.1025
 3183ntf    fn420737   3.532   0.498   2.850  0.1424  0.1339  0.3210
 3183ntf    fn420738   3.723   0.451   2.915  0.0973  0.4736  0.9525
 3183ntf    on520739   3.449   0.544   3.141  0.1765 -0.0020  0.2677
 3183ntf    on520740   3.679   0.476   3.199  0.5087  0.2569  0.1613
 3183ntf    on520741   3.887   0.640   3.062 -0.0438  0.4939  0.1754
 3183ntf    on520742   3.806   0.879   3.062 -0.2929  0.3373  0.0548
 3183ntf    fn420743   3.699   0.638   2.806  0.2281 -0.0035  0.5336
 3183ntf    fn420744   3.718   0.847   2.807  0.0479  0.2179 -0.2341
 3183ntf    fn420745   3.888   0.734   2.787  0.0022 -0.2016 -0.2072
 3184ntf    cn120746   4.818   1.585   4.223 -0.2807  0.3118  0.0449
 3184ntf    sn220747   4.878   1.631   4.389 -0.1872 -0.1707  0.1461
 3184ntf    nn320748   4.997   1.725   4.348 -0.0310 -0.2972  0.3062
 3184ntf    sn220749   5.151   1.695   4.356  0.0695  0.0425 -0.2994
 3184ntf    cn120750   5.207   1.732   4.187  0.4002 -0.1937 -0.2423
 3184ntf    fn420751   4.781   1.690   4.151 -0.0050 -0.0305 -0.5996
 3184ntf    fn420752   4.911   1.517   4.159 -0.4707 -0.0892  0.1876
 3184ntf    fn420753   4.710   1.509   4.215 -0.3508  0.4248 -0.0926
 3184ntf    on520754   4.762   1.697   4.442  0.0054  0.4122 -0.1500
 3184ntf    on520755   4.909   1.501   4.442  0.6234  0.0905  0.3262
 3184ntf    on520756   5.191   1.557   4.368 -0.2910 -0.0322  0.0731
 3184ntf    on520757   5.226   1.782   4.442 -0.0451 -0.0617 -0.0921
 3184ntf    fn420758   5.206   1.863   4.171  0.0637 -0.1386  0.2008
 3184ntf    fn420759   5.324   1.682   4.152  0.4068 -0.5188  0.2445
 3184ntf    fn420760   5.126   1.666   4.106  0.2099 -0.4839  0.1813
 3185ntf    cn120761   3.773   3.297   6.525  0.1872 -0.2692 -0.2400
 3185ntf    sn220762   3.682   3.452   6.553  0.4548 -0.1571  0.0162
 3185ntf    nn320763   3.563   3.442   6.451 -0.1484 -0.3853  0.7426
 3185ntf    sn220764   3.419   3.383   6.472 -0.4145 -0.0201 -0.0346
 3185ntf    cn120765   3.328   3.462   6.336 -0.2103  0.0438 -0.1342
 3185ntf    fn420766   3.695   3.191   6.531 -0.1582  0.0174  0.4262
 3185ntf    fn420767   3.836   3.300   6.409  0.3777  0.6057 -0.1225
 3185ntf    fn420768   3.865   3.277   6.618 -0.0029  0.1868  0.0527
 3185ntf    on520769   3.649   3.460   6.693  0.1849 -0.4195 -0.0342
 3185ntf    on520770   3.778   3.552   6.509  0.1406  0.1626  0.0538
 3185ntf    on520771   3.348   3.427   6.590 -0.2163  0.3330 -0.0453
 3185ntf    on520772   3.394   3.245   6.441  0.0806 -0.0371 -0.3594
 3185ntf    fn420773   3.371   3.432   6.215  0.4259  0.7246 -0.0825
 3185ntf    fn420774   3.198   3.435   6.343 -0.2507  0.3983  0.6225
 3185ntf    fn420775   3.336   3.593   6.352 -0.2650  0.0716 -0.3341
 3186ntf    cn120776   4.223   0.495   4.534  0.1158  0.0353 -0.3160
 3186ntf    sn220777   4.296   0.652   4.589 -0.2684  0.0551  0.1504
 3186ntf    nn320778   4.308   0.643   4.745 -0.2014  0.2625  0.1576
 3186ntf    sn220779   4.427   0.580   4.826 -0.0590  0.0481 -0.2154
 3186ntf    cn120780   4.529   0.725   4.865  0.1940 -0.1823 -0.0189
 3186ntf    fn420781   4.099   0.478   4.577  0.2279  0.3351  0.1316
 3186ntf    fn420782   4.218   0.473   4.403  0.6759 -0.5548 -0.2368
 3186ntf    fn420783   4.297   0.400   4.587 -0.3020 -0.2869 -0.3031
 3186ntf    on520784   4.417   0.682   4.515 -0.2035  0.0911  0.2700
 3186ntf    on520785   4.189   0.742   4.554 -0.0011  0.0759 -0.6430
 3186ntf    on520786   4.515   0.499   4.746  0.1622  0.1027 -0.0269
 3186ntf    on520787   4.393   0.535   4.958 -1.0068  0.3638 -0.3427
 3186ntf    fn420788   4.596   0.759   4.756 -0.1397  0.0380 -0.1564
 3186ntf    fn420789   4.465   0.829   4.916  0.1100  0.0923 -0.6816
 3186ntf    fn420790   4.620   0.689   4.955 -0.1955  0.0058  0.4550
 3187ntf    cn120791   1.217   2.152   2.572 -0.2677 -0.1393  0.4063
 3187ntf    sn220792   1.305   2.019   2.658 -0.3576 -0.5285 -0.1001
 3187ntf    nn320793   1.447   2.081   2.632 -0.4387 -0.0876  0.4787
 3187ntf    sn220794   1.526   2.184   2.721 -0.6052  0.1444  0.3596
 3187ntf    cn120795   1.553   2.321   2.605 -0.1827 -0.0534  0.2191
 3187ntf    fn420796   1.231   2.274   2.622 -0.1449  0.0506 -0.0836
 3187ntf    fn420797   1.253   2.157   2.445 -0.4231  0.3309  0.3775
 3187ntf    fn420798   1.086   2.130   2.577 -0.2421 -0.4417 -0.2341
 3187ntf    on520799   1.259   2.023   2.795  0.1582 -0.6712  0.0816
 3187ntf    on520800   1.277   1.902   2.579 -0.2237 -0.4141 -0.3160
 3187ntf    on520801   1.662   2.140   2.742 -0.2972  0.6779 -0.4381
 3187ntf    on520802   1.460   2.254   2.828 -0.7552  0.3013  0.1650
 3187ntf    fn420803   1.616   2.421   2.665  0.7237 -0.3424 -0.2260
 3187ntf    fn420804   1.620   2.287   2.496 -0.4123 -0.0807  0.0867
 3187ntf    fn420805   1.441   2.381   2.566 -0.2609 -0.2477  0.1481
 3188ntf    cn120806   4.188   3.582   2.448  0.4641  0.1514  0.0108
 3188ntf    sn220807   4.287   3.703   2.541  0.1134  0.1563  0.3787
 3188ntf    nn320808   4.393   3.615   2.616  0.3012  0.0887  0.0357
 3188ntf    sn220809   4.543   3.589   2.579  0.2278 -0.1686 -0.0779
 3188ntf    cn120810   4.613   3.720   2.684 -0.1345 -0.3610  0.4056
 3188ntf    fn420811   4.269   3.488   2.402  0.1708 -0.3902  0.5914
 3188ntf    fn420812   4.085   3.525   2.508  0.3058  0.3291 -0.0904
 3188ntf    fn420813   4.143   3.638   2.337 -0.2819 -0.3270  0.0653
 3188ntf    on520814   4.344   3.792   2.443  0.7363 -0.0920  0.5112
 3188ntf    on520815   4.194   3.757   2.638 -0.0988  0.1211  0.1962
 3188ntf    on520816   4.588   3.615   2.445 -0.0864  0.2033 -0.1111
 3188ntf    on520817   4.597   3.467   2.636 -0.3107 -0.0821  0.6347
 3188ntf    fn420818   4.582   3.690   2.810  0.0308 -0.6349  0.3825
 3188ntf    fn420819   4.743   3.734   2.669 -0.0900 -0.4425  0.7024
 3188ntf    fn420820   4.568   3.840   2.652  0.0759 -0.4528 -0.2465
 3189ntf    cn120821   6.467   3.632   1.851  0.1723 -0.3868  0.0575
 3189ntf    sn220822   6.504   3.776   1.955 -0.3674 -0.1197 -0.1157
 3189ntf    nn320823   6.365   3.848   1.956 -0.2745  0.0608 -0.1792
 3189ntf    sn220824   6.265   3.893   2.069  0.0762  0.1649  0.0927
 3189ntf    cn120825   6.111   3.896   1.972  0.0974  0.0458  0.0550
 3189ntf    fn420826   6.574   3.558   1.828  0.1437 -0.3171 -0.2981
 3189ntf    fn420827   6.376   3.557   1.912  0.1883  0.0614  0.6425
 3189ntf    fn420828   6.422   3.671   1.733 -0.1698 -0.2155  0.2430
 3189ntf    on520829   6.539   3.725   2.085 -0.4263 -0.2561 -0.1530
 3189ntf    on520830   6.601   3.851   1.879 -0.0021 -0.2841  0.1864
 3189ntf    on520831   6.293   4.026   2.116  0.0050  0.4585 -0.6689
 3189ntf    on520832   6.234   3.795   2.170 -0.6428  0.4368  0.1444
 3189ntf    fn420833   6.104   3.820   1.864  0.1155  0.5618 -0.3147
 3189ntf    fn420834   6.011   3.869   2.055  0.1471 -0.0564  0.0815
 3189ntf    fn420835   6.079   4.020   1.938 -0.1207 -0.0697 -0.1653
 3190ntf    cn120836   1.505   0.925   0.030  0.3050 -0.1369 -0.0489
 3190ntf    sn220837   1.413   0.812   0.139 -0.2106  0.1497 -0.1850
 3190ntf    nn320838   1.384   0.686   0.051 -0.0417 -0.2908  0.3866
 3190ntf    sn220839   1.370   0.533   0.083  0.1306 -0.3261  0.2991
 3190ntf    cn120840   1.527   0.472   0.016  0.2630  0.2246  0.1069
 3190ntf    fn420841   1.626   0.875   0.007  0.4427  0.1902 -0.0383
 3190ntf    fn420842   1.448   0.937  -0.089  0.1151 -0.1074  0.0457
 3190ntf    fn420843   1.522   1.048   0.074  0.5440 -0.1133 -0.1998
 3190ntf    on520844   1.503   0.796   0.250 -0.5519  0.0823  0.0827
 3190ntf    on520845   1.292   0.884   0.169 -0.2556 -0.0515  0.1193
 3190ntf    on520846   1.278   0.455   0.004 -0.0281 -0.1011  0.2628
 3190ntf    on520847   1.380   0.492   0.221 -0.3436 -0.5766  0.2633
 3190ntf    fn420848   1.537   0.340   0.017  0.2080  0.2146 -0.3410
 3190ntf    fn420849   1.556   0.511  -0.107  0.1950 -0.3520 -0.0974
 3190ntf    fn420850   1.632   0.517   0.083  0.2219  0.4913 -0.0058
 3191ntf    cn120851   6.547   3.243   1.777 -0.1431  0.1010 -0.1094
 3191ntf    sn220852   6.448   3.116   1.861  0.1720 -0.0289  0.0682
 3191ntf    nn320853   6.394   3.023   1.747  0.1384 -0.3030  0.3046
 3191ntf    sn220854   6.425   2.873   1.711 -0.2905 -0.3123 -0.0310
 3191ntf    cn120855   6.262   2.803   1.749 -0.3307 -0.1333  0.1255
 3191ntf    fn420856   6.484   3.312   1.684  0.4242  0.7468 -0.0176
 3191ntf    fn420857   6.614   3.321   1.861 -0.0532 -0.0075 -0.0789
 3191ntf    fn420858   6.639   3.180   1.706 -0.3815 -0.0990 -0.2428
 3191ntf    on520859   6.540   3.050   1.950 -0.1772 -0.8501 -0.1714
 3191ntf    on520860   6.344   3.197   1.919  0.6310  0.1633  0.6291
 3191ntf    on520861   6.507   2.791   1.797  0.2442 -0.3401 -0.5625
 3191ntf    on520862   6.447   2.859   1.569 -0.1706 -0.2822 -0.0155
 3191ntf    fn420863   6.250   2.679   1.704 -0.1773 -0.0661 -0.0968
 3191ntf    fn420864   6.241   2.792   1.880  0.0504  0.0548  0.2034
 3191ntf    fn420865   6.161   2.868   1.693 -0.4777 -0.6894 -0.2713
 3192ntf    cn120866   4.654   0.261   3.530 -0.0062  0.4415  0.1816
 3192ntf    sn220867   4.473   0.261   3.510  0.0119  0.2151  0.0120
 3192ntf    nn320868   4.440   0.414   3.499 -0.0677  0.1770 -0.2859
 3192ntf    sn220869   4.456   0.507   3.624  0.2995 -0.1359 -0.0989
 3192ntf    cn120870   4.285   0.504   3.684  0.2919 -0.3501 -0.1310
 3192ntf    fn420871   4.702   0.333   3.629  0.3695  0.2220  0.1615
 3192ntf    fn420872   4.713   0.143   3.521 -0.4016  0.2330  0.3115
 3192ntf    fn420873   4.700   0.322   3.422 -0.2988 -0.4287 -0.4523
 3192ntf    on520874   4.455   0.194   3.384 -0.0271 -0.3728  0.3256
 3192ntf    on520875   4.426   0.187   3.625 -0.2383 -0.2976 -0.4145
 3192ntf    on520876   4.473   0.643   3.581  0.7949 -0.2342 -0.2199
 3192ntf    on520877   4.531   0.468   3.741 -0.0694 -1.0032 -0.1489
 3192ntf    fn420878   4.248   0.381   3.715  0.0466 -0.2925 -0.1899
 3192ntf    fn420879   4.267   0.578   3.792  0.4133  0.1326 -0.4344
 3192ntf    fn420880   4.194   0.526   3.590  0.0330  0.0040  0.2001
 3193ntf    cn120881   2.131   5.814   2.624  0.6103 -0.2064 -0.0782
 3193ntf    sn220882   2.114   5.646   2.691  0.1063 -0.0656  0.1511
 3193ntf    nn320883   2.186   5.582   2.567 -0.2716  0.1980 -0.2068
 3193ntf    sn220884   2.159   5.449   2.487 -0.0889  0.1024 -0.1087
 3193ntf    cn120885   2.033   5.501   2.368 -0.3632  0.2170  0.2288
 3193ntf    fn420886   2.252   5.851   2.585  0.5810  0.0541  0.0736
 3193ntf    fn420887   2.050   5.833   2.520 -0.0265 -0.4903  0.3559
 3193ntf    fn420888   2.111   5.908   2.714 -0.1145  0.2839 -0.7340
 3193ntf    on520889   2.198   5.644   2.808  0.1254 -0.0319  0.1378
 3193ntf    on520890   1.973   5.619   2.706  0.0785  0.2465  0.4867
 3193ntf    on520891   2.101   5.342   2.564  0.1085  0.1207  0.0673
 3193ntf    on520892   2.271   5.411   2.405 -0.3225  0.0257 -0.3924
 3193ntf    fn420893   2.059   5.623   2.323 -0.4384  0.1927  0.1184
 3193ntf    fn420894   2.023   5.415   2.268  0.1325  0.1559  0.2311
 3193ntf    fn420895   1.915   5.509   2.428 -0.3419  0.1321  0.2803
 3194ntf    cn120896   5.328   0.057   6.432  0.3487  0.1470 -0.3358
 3194ntf    sn220897   5.206   0.192   6.441  0.0377 -0.1431 -0.1698
 3194ntf    nn320898   5.093   0.131   6.351 -0.2399  0.1875 -0.0494
 3194ntf    sn220899   5.067   0.139   6.196  0.2831  0.1685 -0.1415
 3194ntf    cn120900   4.948   0.275   6.173  0.0351 -0.0097  0.0748
 3194ntf    fn420901   5.434   0.087   6.505  0.1413 -0.3906  0.1962
 3194ntf    fn420902   5.276  -0.055   6.480  0.3488  0.3464  0.1361
 3194ntf    fn420903   5.364   0.030   6.308  0.0526  0.2570 -0.4470
 3194ntf    on520904   5.160   0.194   6.578 -0.0105 -0.1922 -0.1852
 3194ntf    on520905   5.257   0.320   6.398  0.2715 -0.2881 -0.3235
 3194ntf    on520906   4.985   0.036   6.138  0.1465  0.2609 -0.1129
 3194ntf    on520907   5.182   0.181   6.120 -0.0817  1.1767 -0.1548
 3194ntf    fn420908   5.001   0.391   6.208  0.7306 -0.3210  0.0723
 3194ntf    fn420909   4.912   0.295   6.047 -0.0729 -0.1678  0.0805
 3194ntf    fn420910   4.834   0.251   6.235 -0.1632  0.3755 -0.1366
 3195ntf    cn120911   3.635   4.175   0.396 -0.0347 -0.1668 -0.2892
 3195ntf    sn220912   3.746   4.047   0.461 -0.1047  0.1350  0.4283
 3195ntf    nn320913   3.743   3.947   0.340 -0.2007  0.6221  0.0253
 3195ntf    sn220914   3.833   3.941   0.211 -0.2894  0.0251 -0.0110
 3195ntf    cn120915   3.944   3.800   0.242 -0.3469  0.0797  0.4468
 3195ntf    fn420916   3.668   4.204   0.271  0.0213 -0.3532 -0.3184
 3195ntf    fn420917   3.509   4.133   0.398 -0.1516  0.2166  0.3349
 3195ntf    fn420918   3.638   4.282   0.472 -0.2991 -0.1679 -0.2768
 3195ntf    on520919   3.866   4.122   0.491  0.1499 -0.0932 -0.0125
 3195ntf    on520920   3.674   3.997   0.576 -0.1108 -0.2623  0.2533
 3195ntf    on520921   3.918   4.056   0.201  0.1162 -0.2678  0.0352
 3195ntf    on520922   3.771   3.895   0.089  0.3843 -0.5732 -0.1328
 3195ntf    fn420923   4.012   3.774   0.132 -0.4203  0.5187  0.2954
 3195ntf    fn420924   4.034   3.815   0.338 -0.4292 -0.2348  0.5751
 3195ntf    fn420925   3.879   3.689   0.274 -0.2350 -0.0495  0.2245
 3196ntf    cn120926   5.461   1.260   2.840  0.2153  0.3309  0.3807
 3196ntf    sn220927   5.601   1.373   2.814  0.2693  0.1841  0.0271
 3196ntf    nn320928   5.721   1.273   2.812 -0.2266 -0.4227  0.4368
 3196ntf    sn220929   5.840   1.249   2.912 -0.0875 -0.1059  0.3452
 3196ntf    cn120930   5.970   1.323   2.808 -0.2132  0.0419  0.2931
 3196ntf    fn420931   5.349   1.331   2.845  0.1827  0.3251 -0.1661
 3196ntf    fn420932   5.451   1.170   2.743 -0.0470  0.5717  0.1831
 3196ntf    fn420933   5.472   1.193   2.953 -0.2910 -0.2982  0.0615
 3196ntf    on520934   5.563   1.427   2.685  0.3627 -0.2383 -0.1783
 3196ntf    on520935   5.608   1.461   2.928 -0.1333  0.4889 -0.1789
 3196ntf    on520936   5.885   1.113   2.922 -0.1826 -0.1528  0.1365
 3196ntf    on520937   5.851   1.328   3.032  0.6164 -0.2608  0.3902
 3196ntf    fn420938   6.090   1.339   2.861 -0.0832  0.3632 -0.0875
 3196ntf    fn420939   5.992   1.247   2.703 -0.6104 -0.0550  0.2787
 3196ntf    fn420940   5.940   1.443   2.761 -0.1212 -0.1518 -0.2681
 3197ntf    cn120941   6.617   2.286   3.714 -0.0123 -0.3332  0.2291
 3197ntf    sn220942   6.646   2.115   3.770 -0.1336 -0.3461  0.2524
 3197ntf    nn320943   6.742   2.067   3.656 -0.1787 -0.4662  0.2650
 3197ntf    sn220944   6.880   1.994   3.648  0.0697  0.0420 -0.1939
 3197ntf    cn120945   6.825   1.824   3.614  0.1261  0.0635 -0.3920
 3197ntf    fn420946   6.537   2.284   3.609  0.3182  0.2813 -0.0396
 3197ntf    fn420947   6.560   2.358   3.808  0.0557 -0.1738  0.1475
 3197ntf    fn420948   6.729   2.348   3.680 -0.2735  0.0388  0.0360
 3197ntf    on520949   6.702   2.113   3.903  0.6423 -0.0597 -0.0689
 3197ntf    on520950   6.514   2.057   3.759 -0.1469 -0.2689 -0.0115
 3197ntf    on520951   6.956   1.986   3.771 -0.1981 -0.0457 -0.0325
 3197ntf    on520952   6.956   2.035   3.533 -0.1006  0.2009 -0.2483
 3197ntf    fn420953   6.924   1.736   3.622  0.4797  0.5005  0.1707
 3197ntf    fn420954   6.739   1.785   3.707 -0.0029  0.3803 -0.3775
 3197ntf    fn420955   6.766   1.814   3.496 -0.0837  0.4332 -0.3196
 3198ntf    cn120956   5.360   0.466   2.164 -0.2701  0.2194  0.3835
 3198ntf    sn220957   5.456   0.381   2.293 -0.2643 -0.1552  0.1348
 3198ntf    nn320958   5.500   0.250   2.218  0.4534 -0.1219  0.4862
 3198ntf    sn220959   5.511   0.111   2.290  0.0484 -0.5329 -0.2392
 3198ntf    cn120960   5.531   0.008   2.141  0.3014 -0.3126 -0.3576
 3198ntf    fn420961   5.332   0.590   2.198 -0.7405  0.1603  0.2186
 3198ntf    fn420962   5.437   0.480   2.057  0.0725 -0.2019  0.5709
 3198ntf    fn420963   5.248   0.404   2.129  0.4246 -0.5469 -0.5489
 3198ntf    on520964   5.559   0.479   2.318 -0.4125 -0.0580  0.3632
 3198ntf    on520965   5.350   0.368   2.389 -0.1445 -0.4596  0.2259
 3198ntf    on520966   5.397   0.062   2.363  0.0195 -0.1837 -0.0523
 3198ntf    on520967   5.640   0.097   2.352  0.0131 -0.4371 -0.1448
 3198ntf    fn420968   5.524  -0.121   2.170 -0.0969 -0.1885  0.1175
 3198ntf    fn420969   5.439   0.037   2.050 -0.3130  0.5091  0.5067
 3198ntf    fn420970   5.650   0.024   2.085  0.3813  0.4576  0.0237
 3199ntf    cn120971   3.991   4.674   1.818  0.1560 -0.0739  0.1799
 3199ntf    sn220972   4.058   4.751   1.968  0.1539 -0.0060  0.1456
 3199ntf    nn320973   4.127   4.882   1.915  0.0535  0.0458  0.1424
 3199ntf    sn220974   4.085   5.033   1.925 -0.2630 -0.0455  0.1864
 3199ntf    cn120975   4.159   5.085   2.083  0.1213  0.0752 -0.0325
 3199ntf    fn420976   3.909   4.573   1.846  0.2306 -0.0651  0.4348
 3199ntf    fn420977   3.918   4.752   1.740  0.3588 -0.2734 -0.2115
 3199ntf    fn420978   4.089   4.622   1.747  0.2320  0.2458  0.0528
 3199ntf    on520979   3.933   4.765   2.039 -0.0887 -1.1129 -0.0493
 3199ntf    on520980   4.147   4.646   2.011  0.4262  0.0559 -0.2584
 3199ntf    on520981   3.944   5.057   1.947 -0.2019  0.3398  0.1596
 3199ntf    on520982   4.155   5.118   1.832 -0.4465 -0.0026  0.0851
 3199ntf    fn420983   4.258   5.169   2.058  0.1108 -0.0189 -0.4061
 3199ntf    fn420984   4.073   5.152   2.157 -0.0722 -0.1409 -0.0584
 3199ntf    fn420985   4.202   4.988   2.162  0.1025  0.1038  0.0122
 3200ntf    cn120986   3.690   1.839   6.205  0.1366  0.3217 -0.1605
 3200ntf    sn220987   3.675   1.679   6.121  0.4502  0.2615 -0.1002
 3200ntf    nn320988   3.521   1.672   6.094  0.5289 -0.3673 -0.4109
 3200ntf    sn220989   3.435   1.639   5.967 -0.0750  0.2238 -0.1649
 3200ntf    cn120990   3.440   1.795   5.873  0.0452  0.3209  0.0012
 3200ntf    fn420991   3.811   1.890   6.213  0.2113  0.1073  0.0742
 3200ntf    fn420992   3.621   1.931   6.139 -0.1799  0.1184 -0.1165
 3200ntf    fn420993   3.639   1.833   6.327  0.1404 -0.8464 -0.2100
 3200ntf    on520994   3.754   1.699   6.002 -0.2188 -0.0136 -0.5938
 3200ntf    on520995   3.722   1.588   6.223 -0.2986 -0.4188 -0.3486
 3200ntf    on520996   3.296   1.618   5.998 -0.0193 -0.0176 -0.0772
 3200ntf    on520997   3.501   1.542   5.883 -0.1318 -0.3549  0.4544
 3200ntf    fn420998   3.370   1.774   5.762 -0.4835 -0.1856  0.4223
 3200ntf    fn420999   3.387   1.896   5.939 -0.2437  0.0896  0.1287
 3200ntf    fn421000   3.560   1.835   5.834 -0.0207 -0.1014 -0.6546
 3201ntf    cn121001   5.659   2.173   1.616  0.0930 -0.2303  0.1606
 3201ntf    sn221002   5.496   2.171   1.698  0.0907 -0.3144  0.1549
 3201ntf    nn321003   5.530   2.172   1.851 -0.3048  0.1123  0.2431
 3201ntf    sn221004   5.545   2.293   1.950  0.3279  0.1458  0.1136
 3201ntf    cn121005   5.370   2.312   1.997  0.2684  0.0067 -0.0498
 3201ntf    fn421006   5.708   2.052   1.601  0.1900 -0.1172 -0.4312
 3201ntf    fn421007   5.664   2.241   1.503 -0.6099 -0.0106  0.2564
 3201ntf    fn421008   5.742   2.242   1.693  0.3541  0.4105 -0.6760
 3201ntf    on521009   5.442   2.296   1.651  0.0580 -0.2831  0.2772
 3201ntf    on521010   5.436   2.050   1.648  0.0685 -0.1311 -0.2680
 3201ntf    on521011   5.580   2.424   1.901 -0.6129  0.4313  0.1850
 3201ntf    on521012   5.601   2.254   2.077 -0.1226 -0.5499  0.1079
 3201ntf    fn421013   5.298   2.321   1.887  0.4100 -0.0872 -0.1517
 3201ntf    fn421014   5.323   2.214   2.072  0.1186 -0.1764 -0.3807
 3201ntf    fn421015   5.348   2.427   2.059  0.3878  0.0153 -0.0210
 3202ntf    cn121016   1.863   1.771   1.514 -0.1691 -0.0385  0.0609
 3202ntf    sn221017   1.718   1.693   1.437 -0.1607 -0.0547  0.0618
 3202ntf    nn321018   1.706   1.792   1.316 -0.1955 -0.5785 -0.3688
 3202ntf    sn221019   1.603   1.910   1.303  0.3798  0.0226  0.4056
 3202ntf    cn121020   1.466   1.832   1.213  0.6085 -0.0190  0.0941
 3202ntf    fn421021   1.860   1.903   1.523  0.2213 -0.0267  0.0288
 3202ntf    fn421022   1.894   1.726   1.635 -0.0271  0.2808  0.1450
 3202ntf    fn421023   1.976   1.760   1.447 -0.0100 -0.1546  0.3451
 3202ntf    on521024   1.766   1.563   1.397 -0.2004  0.1169 -0.5507
 3202ntf    on521025   1.609   1.695   1.531 -0.7411 -0.4392 -0.5978
 3202ntf    on521026   1.642   2.008   1.204 -0.0951  0.3471  0.5355
 3202ntf    on521027   1.553   1.966   1.426  0.5670  0.2701  0.3710
 3202ntf    fn421028   1.391   1.765   1.299 -0.1053  0.0246 -0.4870
 3202ntf    fn421029   1.382   1.919   1.161  0.4999  0.0487  0.3833
 3202ntf    fn421030   1.496   1.756   1.108  0.0163  0.5070 -0.4621
 3203ntf    cn121031   6.874   5.285   4.161 -0.1384 -0.3368 -0.4931
 3203ntf    sn221032   6.715   5.291   4.073 -0.3123 -0.3340 -0.1777
 3203ntf    nn321033   6.647   5.417   4.138 -0.1128 -0.3264  0.0182
 3203ntf    sn221034   6.635   5.565   4.088  0.1511 -0.1660  0.4290
 3203ntf    cn121035   6.499   5.573   3.968  0.1262 -0.3031  0.4493
 3203ntf    fn421036   6.948   5.389   4.128  0.2527 -0.5045 -0.1534
 3203ntf    fn421037   6.863   5.292   4.293  0.7453  0.4158 -0.4523
 3203ntf    fn421038   6.943   5.175   4.134 -0.0473 -0.3628 -0.1589
 3203ntf    on521039   6.743   5.302   3.933  0.1680 -0.3315 -0.0815
 3203ntf    on521040   6.655   5.168   4.119 -0.2998 -0.0699  0.5595
 3203ntf    on521041   6.748   5.608   4.009  0.0286  0.7878  0.7582
 3203ntf    on521042   6.597   5.653   4.196  0.5014  0.2330  0.2322
 3203ntf    fn421043   6.473   5.696   3.929  0.0857 -0.5396 -0.2800
 3203ntf    fn421044   6.526   5.508   3.856 -0.7741 -0.4706  0.3225
 3203ntf    fn421045   6.388   5.516   4.013 -0.1683 -0.0742  0.0210
 3204ntf    cn121046   1.122   5.213   3.371  0.5190  0.3249 -0.3307
 3204ntf    sn221047   1.142   5.051   3.450  0.4720  0.3515 -0.2641
 3204ntf    nn321048   0.995   5.004   3.423  0.6887 -0.3517 -0.2430
 3204ntf    sn221049   0.933   4.887   3.338 -0.1036 -0.1355  0.0333
 3204ntf    cn121050   0.880   4.772   3.469 -0.0994 -0.1056  0.0614
 3204ntf    fn421051   1.051   5.297   3.444  0.4478 -0.2030  0.2160
 3204ntf    fn421052   1.238   5.275   3.355  0.6560  0.3022  0.5407
 3204ntf    fn421053   1.061   5.196   3.255  0.4157  0.4141 -0.2897
 3204ntf    on521054   1.248   4.986   3.376  0.2795  0.4357 -0.6128
 3204ntf    on521055   1.169   5.094   3.585 -0.0981  0.7643 -0.2782
 3204ntf    on521056   1.022   4.808   3.258  0.3127  0.0780  0.2827
 3204ntf    on521057   0.809   4.933   3.280  0.2492  1.0691  0.2001
 3204ntf    fn421058   0.985   4.719   3.530 -0.1273  0.1146  0.3033
 3204ntf    fn421059   0.806   4.819   3.568  0.1851  0.5439 -0.0270
 3204ntf    fn421060   0.817   4.666   3.421 -0.3248  0.3366 -0.6353
 3205ntf    cn121061   2.319   6.562   0.585  0.4413  0.5862  0.1394
 3205ntf    sn221062   2.494   6.595   0.622  0.5462 -0.0551  0.2262
 3205ntf    nn321063   2.542   6.464   0.694 -0.0048 -0.4701 -0.1504
 3205ntf    sn221064   2.681   6.447   0.764  0.0051 -0.1061 -0.0804
 3205ntf    cn121065   2.640   6.521   0.925  0.0046 -0.5874  0.1432
 3205ntf    fn421066   2.272   6.652   0.501  0.1634  0.1274 -0.2001
 3205ntf    fn421067   2.307   6.441   0.534 -0.1287  0.6346  0.1510
 3205ntf    fn421068   2.236   6.575   0.688  0.1950 -0.1074  0.0316
 3205ntf    on521069   2.549   6.617   0.491  0.6531  0.3801  0.3416
 3205ntf    on521070   2.486   6.708   0.711 -0.6226 -0.0652  0.1504
 3205ntf    on521071   2.784   6.530   0.708 -0.1685  0.2381  0.1025
 3205ntf    on521072   2.707   6.308   0.789  0.9379  0.1373  0.3570
 3205ntf    fn421073   2.738   6.501   1.011 -0.1893  0.1585  0.5487
 3205ntf    fn421074   2.631   6.653   0.929  0.5156 -0.5320 -0.4315
 3205ntf    fn421075   2.522   6.480   0.970 -0.5366  0.4305 -0.3096
 3206ntf    cn121076   3.841   6.260   1.966  0.1359 -0.1426  0.5931
 3206ntf    sn221077   3.712   6.310   2.083 -0.2548 -0.0316  0.1172
 3206ntf    nn321078   3.801   6.285   2.210 -0.1961 -0.2412  0.0355
 3206ntf    sn221079   3.817   6.370   2.342 -0.0858 -0.2117  0.0041
 3206ntf    cn121080   3.935   6.496   2.287 -0.3239  0.0540  0.1046
 3206ntf    fn421081   3.791   6.248   1.845  0.2657  0.0191  0.5223
 3206ntf    fn421082   3.936   6.353   1.959 -0.1467  0.1085  0.0881
 3206ntf    fn421083   3.904   6.146   1.991  0.5190 -0.0434  0.1000
 3206ntf    on521084   3.684   6.447   2.050 -0.5327 -0.2029 -0.3578
 3206ntf    on521085   3.608   6.211   2.065 -0.5532  0.3625 -0.3434
 3206ntf    on521086   3.889   6.301   2.446 -0.3399 -0.6229 -0.0879
 3206ntf    on521087   3.699   6.439   2.388  0.3410  0.1719  0.5289
 3206ntf    fn421088   3.966   6.567   2.395 -0.5892  0.3190  0.0078
 3206ntf    fn421089   4.043   6.446   2.229 -0.2125  0.8951 -0.4269
 3206ntf    fn421090   3.891   6.584   2.199 -0.1192 -0.0164 -0.0685
 3207ntf    cn121091   3.007   2.804   4.884  0.1418  0.1698  0.0098
 3207ntf    sn221092   2.851   2.724   4.838  0.3461 -0.2632  0.0605
 3207ntf    nn321093   2.744   2.812   4.913  0.3975 -0.4084  0.3047
 3207ntf    sn221094   2.632   2.770   5.014  0.0106  0.0731  0.0754
 3207ntf    cn121095   2.729   2.805   5.163  0.0541 -0.0995  0.0876
 3207ntf    fn421096   3.113   2.738   4.839  0.3134  0.2975  0.2222
 3207ntf    fn421097   3.013   2.924   4.829 -0.5945 -0.0658 -0.6024
 3207ntf    fn421098   3.020   2.814   5.015  0.0339  1.0875 -0.0436
 3207ntf    on521099   2.838   2.734   4.694 -0.7871 -0.3298  0.1479
 3207ntf    on521100   2.865   2.590   4.889  0.0163 -0.3856 -0.1622
 3207ntf    on521101   2.596   2.631   5.028 -0.6316  0.1560 -0.6445
 3207ntf    on521102   2.532   2.874   5.027  0.1325  0.2419 -0.3189
 3207ntf    fn421103   2.663   2.776   5.274 -0.2973  0.4501  0.0250
 3207ntf    fn421104   2.843   2.738   5.160  0.2235  0.1922  0.0030
 3207ntf    fn421105   2.774   2.929   5.169  0.3190 -0.1770 -0.3185
 3208ntf    cn121106   6.628   4.543   4.145  0.2327  0.0744 -0.2713
 3208ntf    sn221107   6.696   4.708   4.110 -0.0916  0.2506 -0.0813
 3208ntf    nn321108   6.812   4.728   4.214  0.0000  0.4164 -0.2131
 3208ntf    sn221109   6.968   4.717   4.200  0.0130  0.0014  0.2200
 3208ntf    cn121110   6.982   4.887   4.138  0.4252 -0.1397 -0.0714
 3208ntf    fn421111   6.530   4.509   4.063  0.0575  0.3805 -0.1948
 3208ntf    fn421112   6.713   4.443   4.133 -0.0165 -0.0750 -0.8303
 3208ntf    fn421113   6.578   4.538   4.268 -0.4356  0.2482 -0.5291
 3208ntf    on521114   6.736   4.705   3.971 -0.4066 -0.6514 -0.1561
 3208ntf    on521115   6.585   4.793   4.145 -0.2651 -0.1949  0.4594
 3208ntf    on521116   7.017   4.631   4.095  0.0375  0.2897 -0.0053
 3208ntf    on521117   7.045   4.720   4.322  0.1355 -0.7059  0.1613
 3208ntf    fn421118   6.917   4.919   4.027 -0.4876 -0.7937  0.2716
 3208ntf    fn421119   6.956   4.984   4.223 -0.0447 -0.1827 -0.1609
 3208ntf    fn421120   7.110   4.904   4.108  0.5192 -0.3842  0.1920
 3209ntf    cn121121   0.740   4.808   2.156  0.4402 -0.1609  0.0046
 3209ntf    sn221122   0.568   4.806   2.099  0.4419  0.4748 -0.0373
 3209ntf    nn321123   0.511   4.938   2.161 -0.1607  0.0025  0.4345
 3209ntf    sn221124   0.392   4.959   2.261 -0.3495  0.1023  0.1913
 3209ntf    cn121125   0.484   4.987   2.416 -0.0149 -0.3646  0.0777
 3209ntf    fn421126   0.809   4.703   2.113  0.0528 -0.4832  0.1712
 3209ntf    fn421127   0.802   4.919   2.120  0.0330  0.0811  0.0469
 3209ntf    fn421128   0.737   4.805   2.288 -0.2272 -0.1776 -0.0068
 3209ntf    on521129   0.585   4.818   1.957 -0.0496 -0.0041 -0.1439
 3209ntf    on521130   0.519   4.682   2.156  0.1725  0.5178 -0.1735
 3209ntf    on521131   0.306   4.846   2.286 -0.1814 -0.0941 -0.1252
 3209ntf    on521132   0.325   5.083   2.230  0.7090  0.5140 -0.4900
 3209ntf    fn421133   0.398   4.999   2.516  0.4299  0.1567  0.4022
 3209ntf    fn421134   0.552   4.878   2.448  0.1853 -0.3127 -0.1710
 3209ntf    fn421135   0.565   5.091   2.412 -0.0314 -0.3583 -0.0862
 3210ntf    cn121136   1.785   3.559   5.083 -0.2402 -0.0637 -0.1240
 3210ntf    sn221137   1.695   3.718   5.074  0.0976  0.1223 -0.2228
 3210ntf    nn321138   1.808   3.808   5.012 -0.5997  0.8090 -0.5074
 3210ntf    sn221139   1.912   3.895   5.091 -0.3841  0.1384 -0.0384
 3210ntf    cn121140   2.051   3.897   4.975 -0.2022 -0.1557  0.1734
 3210ntf    fn421141   1.838   3.532   4.966 -0.1619 -0.3840 -0.0150
 3210ntf    fn421142   1.887   3.582   5.164 -0.3518  0.0963 -0.0259
 3210ntf    fn421143   1.730   3.445   5.121  0.0901 -0.1900 -0.0219
 3210ntf    on521144   1.588   3.689   4.982 -0.0883 -0.3175  0.1258
 3210ntf    on521145   1.649   3.749   5.207  0.3021  0.5362 -0.2482
 3210ntf    on521146   1.962   3.829   5.209 -0.2416  0.4256  0.0609
 3210ntf    on521147   1.881   4.036   5.095 -0.0171  0.2324 -0.4696
 3210ntf    fn421148   2.108   3.780   4.952 -0.3554 -0.0768 -0.6270
 3210ntf    fn421149   2.032   3.943   4.852  0.4076  0.3157  0.2475
 3210ntf    fn421150   2.143   3.979   5.024 -0.2789  0.2523 -0.3567
 3211ntf    cn121151   0.516   0.443   1.286  0.0356 -0.2597 -0.0947
 3211ntf    sn221152   0.336   0.451   1.312  0.0566  0.1990 -0.0766
 3211ntf    nn321153   0.299   0.574   1.222  0.6830  0.1621 -0.3880
 3211ntf    sn221154   0.242   0.580   1.076 -0.0201 -0.0577 -0.1268
 3211ntf    cn121155   0.075   0.513   1.097  0.0755 -0.2253  0.1062
 3211ntf    fn421156   0.579   0.342   1.344  0.1956  0.0627  0.2985
 3211ntf    fn421157   0.561   0.442   1.162  0.0868  0.5136 -0.0885
 3211ntf    fn421158   0.571   0.556   1.327  0.1577 -0.1421 -0.5767
 3211ntf    on521159   0.293   0.318   1.277  0.1850  0.1395 -0.0110
 3211ntf    on521160   0.320   0.496   1.448 -0.1672 -0.3743  0.0926
 3211ntf    on521161   0.313   0.493   0.985  0.4864 -0.0403  0.2420
 3211ntf    on521162   0.218   0.714   1.031 -0.2560 -0.1140 -0.1666
 3211ntf    fn421163   0.017   0.571   1.200 -0.1026  0.3302 -0.3024
 3211ntf    fn421164   0.009   0.530   0.984 -0.4158 -0.1417  0.4029
 3211ntf    fn421165   0.073   0.381   1.113 -0.4709 -0.2101  0.1721
 3212ntf    cn121166   5.387   5.618   4.749 -0.3774  0.3135 -0.4800
 3212ntf    sn221167   5.216   5.589   4.804 -0.1581  0.2071  0.1566
 3212ntf    nn321168   5.238   5.551   4.955 -0.0368  0.0761  0.1055
 3212ntf    sn221169   5.171   5.605   5.086 -0.0599  0.1486  0.0645
 3212ntf    cn121170   5.001   5.545   5.058 -0.0425 -0.0134  0.2979
 3212ntf    fn421171   5.414   5.572   4.628  0.1297 -0.2408 -0.1640
 3212ntf    fn421172   5.433   5.742   4.747  0.0114  0.2029  0.7041
 3212ntf    fn421173   5.472   5.557   4.830 -0.5054  0.4178 -0.2684
 3212ntf    on521174   5.148   5.716   4.788 -0.1314  0.2527  0.4037
 3212ntf    on521175   5.167   5.480   4.724  0.0577  0.2092  0.0223
 3212ntf    on521176   5.164   5.748   5.100 -0.3783  0.1230  0.1899
 3212ntf    on521177   5.223   5.538   5.203  0.1094  0.1351 -0.0186
 3212ntf    fn421178   4.939   5.623   4.970  0.0063 -0.0057  0.2704
 3212ntf    fn421179   5.010   5.419   5.019  0.0984  0.0392  0.1569
 3212ntf    fn421180   4.934   5.549   5.172  0.1164  0.1483  0.3872
 3213ntf    cn121181   2.069   3.128   3.569 -0.1283  0.2932  0.3837
 3213ntf    sn221182   2.076   2.992   3.690 -0.3135 -0.0105  0.0535
 3213ntf    nn321183   2.017   3.061   3.818  0.0190  0.4425 -0.0338
 3213ntf    sn221184   1.875   3.128   3.833 -0.1136  0.1442  0.0446
 3213ntf    cn121185   1.774   2.996   3.907 -0.2364  0.1175 -0.1672
 3213ntf    fn421186   1.949   3.150   3.516 -0.2912  0.3208  0.7595
 3213ntf    fn421187   2.118   3.238   3.624  0.0186  0.4669 -0.0934
 3213ntf    fn421188   2.145   3.095   3.467 -0.5652  0.3616  0.0342
 3213ntf    on521189   1.989   2.895   3.629 -0.3415  0.0003  0.0758
 3213ntf    on521190   2.218   2.974   3.703 -0.4000 -0.4959  0.3352
 3213ntf    on521191   1.801   3.164   3.715  0.3135  0.2520 -0.1923
 3213ntf    on521192   1.876   3.223   3.941 -0.7886 -0.3525  0.4943
 3213ntf    fn421193   1.757   2.901   3.817 -0.7640 -0.1272  0.1851
 3213ntf    fn421194   1.834   2.945   4.014 -0.2560  0.4393 -0.0030
 3213ntf    fn421195   1.656   3.041   3.946 -0.2268  0.3847 -0.4435
 3214ntf    cn121196   0.133   1.485   2.698  0.0045  0.6223 -0.5776
 3214ntf    sn221197   0.119   1.544   2.869 -0.4986 -0.2330 -0.3177
 3214ntf    nn321198   0.150   1.416   2.954  0.0054  0.1074  0.0191
 3214ntf    sn221199   0.294   1.382   3.008  0.0186  0.3035  0.1079
 3214ntf    cn121200   0.311   1.496   3.148  0.1042  0.3021  0.0989
 3214ntf    fn421201   0.038   1.398   2.667  0.2853  0.0031  0.2689
 3214ntf    fn421202   0.106   1.588   2.620  0.1253  0.9722 -0.1601
 3214ntf    fn421203   0.252   1.444   2.658 -0.2411 -0.4743 -0.2027
 3214ntf    on521204   0.216   1.650   2.884 -0.3636 -0.4229  0.1706
 3214ntf    on521205  -0.018   1.587   2.877 -0.3718  0.0039  0.8777
 3214ntf    on521206   0.394   1.407   2.908  0.1312 -0.2440  0.0805
 3214ntf    on521207   0.295   1.250   3.066 -0.5125 -0.0632 -0.6877
 3214ntf    fn421208   0.342   1.621   3.115  0.1045  0.1339 -0.5461
 3214ntf    fn421209   0.201   1.515   3.219  0.1036 -0.0959  0.2039
 3214ntf    fn421210   0.407   1.464   3.233  0.0117 -0.2039  0.0152
 3215ntf    cn121211   0.725   2.382   3.682 -0.1268  0.0689  0.1096
 3215ntf    sn221212   0.613   2.323   3.551  0.3919 -0.0508 -0.2835
 3215ntf    nn321213   0.480   2.394   3.595  0.6090  0.1973 -0.0228
 3215ntf    sn221214   0.394   2.504   3.523  0.0843 -0.0972  0.1463
 3215ntf    cn121215   0.238   2.418   3.489  0.0154  0.2221 -0.3613
 3215ntf    fn421216   0.766   2.503   3.649 -0.3582  0.2326  0.4219
 3215ntf    fn421217   0.677   2.380   3.805  0.4129  0.4929  0.3293
 3215ntf    fn421218   0.830   2.304   3.702 -0.3670 -0.1542  0.5227
 3215ntf    on521219   0.685   2.362   3.433  0.4481 -0.3950 -0.3628
 3215ntf    on521220   0.605   2.181   3.573 -0.0511  0.0859  0.5116
 3215ntf    on521221   0.446   2.541   3.394 -0.0031  0.2205  0.2002
 3215ntf    on521222   0.355   2.609   3.614 -1.0643 -0.0797 -0.3464
 3215ntf    fn421223   0.186   2.368   3.601  0.0924 -0.0848 -0.4615
 3215ntf    fn421224   0.149   2.496   3.431 -0.4574 -0.3229 -0.3778
 3215ntf    fn421225   0.256   2.316   3.407  0.5880  0.3521 -0.3981
 3216ntf    cn121226   0.520   6.500   3.106  0.0809 -0.1423  0.4305
 3216ntf    sn221227   0.368   6.524   3.008  0.4230 -0.0622 -0.0839
 3216ntf    nn321228   0.422   6.617   2.894 -0.0039 -0.0357 -0.2632
 3216ntf    sn221229   0.416   6.774   2.887  0.0185 -0.0264 -0.0701
 3216ntf    cn121230   0.348   6.792   2.719 -0.1074 -0.4428 -0.0657
 3216ntf    fn421231   0.539   6.376   3.150  0.2230 -0.2710  0.0180
 3216ntf    fn421232   0.637   6.537   3.056  0.0237 -0.6497 -0.1047
 3216ntf    fn421233   0.505   6.583   3.208 -0.1308  0.5375 -0.1458
 3216ntf    on521234   0.335   6.389   2.973 -0.0580  0.1292 -0.3643
 3216ntf    on521235   0.277   6.588   3.100  0.2977 -0.7313  0.2619
 3216ntf    on521236   0.548   6.828   2.866 -0.1000  0.2150 -0.1987
 3216ntf    on521237   0.322   6.851   2.965  0.1058  0.4762 -0.4616
 3216ntf    fn421238   0.366   6.915   2.673 -0.3918 -0.4016 -0.0710
 3216ntf    fn421239   0.404   6.712   2.630 -0.5063 -0.4781 -0.2856
 3216ntf    fn421240   0.220   6.760   2.716 -0.0914 -0.4851 -0.2828
 3217ntf    cn121241   6.884   0.394   0.604  0.1176  0.0768 -0.4397
 3217ntf    sn221242   6.995   0.520   0.535  0.2083  0.1172 -0.2190
 3217ntf    nn321243   7.114   0.430   0.486  0.3860  0.2132  0.0305
 3217ntf    sn221244   7.135   0.367   0.343 -0.3477  0.0323 -0.0046
 3217ntf    cn121245   7.245   0.493   0.271  0.2333 -0.5319 -0.1114
 3217ntf    fn421246   6.863   0.285   0.530  0.2160 -0.0356 -0.3016
 3217ntf    fn421247   6.921   0.350   0.723  0.0946 -0.0693 -0.4858
 3217ntf    fn421248   6.763   0.445   0.615 -0.1561 -0.5382 -0.5125
 3217ntf    on521249   6.915   0.588   0.436  0.1498  0.3625 -0.0047
 3217ntf    on521250   7.036   0.599   0.649 -0.2159  0.0616 -0.0270
 3217ntf    on521251   7.017   0.360   0.260 -0.4775 -0.0776  0.1869
 3217ntf    on521252   7.215   0.248   0.356 -0.5745 -0.1700 -0.4600
 3217ntf    fn421253   7.333   0.531   0.362 -0.0226  0.5754 -0.3096
 3217ntf    fn421254   7.307   0.451   0.162  0.5042 -0.6892  0.1020
 3217ntf    fn421255   7.177   0.602   0.239  0.5108 -0.3096  0.0547
 3218ntf    cn121256   5.095   3.632   0.755 -0.0871  0.1715  0.0717
 3218ntf    sn221257   5.100   3.814   0.760 -0.1301  0.1830 -0.2567
 3218ntf    nn321258   5.017   3.850   0.632  0.0496  0.3443 -0.3273
 3218ntf    sn221259   4.862   3.865   0.614 -0.0111  0.2971  0.1238
 3218ntf    cn121260   4.846   4.044   0.582  0.0598  0.2023 -0.4536
 3218ntf    fn421261   4.972   3.588   0.733  0.1625 -0.2491 -0.5118
 3218ntf    fn421262   5.165   3.574   0.659 -0.1938 -0.3187  0.2864
 3218ntf    fn421263   5.136   3.581   0.870 -0.0968 -0.0811 -0.0368
 3218ntf    on521264   5.045   3.854   0.887 -0.0964 -0.5754  0.0059
 3218ntf    on521265   5.240   3.836   0.734 -0.0886  0.1104 -0.0994
 3218ntf    on521266   4.777   3.852   0.730 -0.1551  0.1395  0.0006
 3218ntf    on521267   4.817   3.814   0.486 -1.0518  0.4962  0.3949
 3218ntf    fn421268   4.926   4.083   0.485 -0.1150  0.7002 -0.3969
 3218ntf    fn421269   4.719   4.069   0.556 -0.1921 -0.4536  0.1088
 3218ntf    fn421270   4.882   4.103   0.695  0.1920 -0.5733 -0.0791
 3219ntf    cn121271   5.588   1.083   1.014  0.1630 -0.2558  0.2582
 3219ntf    sn221272   5.463   1.207   0.969  0.4112 -0.0669  0.0887
 3219ntf    nn321273   5.473   1.208   0.812 -0.1855  0.1884  0.0494
 3219ntf    sn221274   5.364   1.178   0.703 -0.1935  0.4354 -0.0110
 3219ntf    cn121275   5.448   1.041   0.619 -0.3072  0.2200  0.2251
 3219ntf    fn421276   5.546   0.962   0.982 -0.2429  0.0701 -0.4863
 3219ntf    fn421277   5.699   1.095   0.943 -0.4041 -0.0665 -0.6106
 3219ntf    fn421278   5.621   1.083   1.142  0.2449  0.0290  0.2393
 3219ntf    on521279   5.338   1.158   1.022  0.3708 -0.6197 -0.5111
 3219ntf    on521280   5.516   1.326   1.030  0.1336  0.2732 -0.3233
 3219ntf    on521281   5.362   1.281   0.601  0.1679  0.3075 -0.1488
 3219ntf    on521282   5.235   1.124   0.739 -0.0948  0.3791  0.2558
 3219ntf    fn421283   5.456   0.938   0.701 -0.0605  0.0735  0.0198
 3219ntf    fn421284   5.389   0.999   0.508  0.0633 -0.4162  0.2642
 3219ntf    fn421285   5.574   1.073   0.593 -0.1176 -0.2370  0.5622
 3220ntf    cn121286   1.922   6.737   6.964 -0.5323  0.1989  0.7914
 3220ntf    sn221287   1.769   6.715   6.869  0.0172  0.0247 -0.0693
 3220ntf    nn321288   1.668   6.805   6.948  0.1652 -0.1277  0.2947
 3220ntf    sn221289   1.575   6.756   7.064 -0.2948 -0.0541 -0.0411
 3220ntf    cn121290   1.413   6.811   7.002 -0.3738  0.2664  0.4372
 3220ntf    fn421291   2.000   6.632   6.944 -0.2350  0.4595  0.5600
 3220ntf    fn421292   1.991   6.843   6.923  0.1899 -0.4760  0.2310
 3220ntf    fn421293   1.908   6.743   7.095 -0.1203  0.1866  0.8373
 3220ntf    on521294   1.802   6.769   6.739 -0.0898 -0.0389 -0.1229
 3220ntf    on521295   1.743   6.573   6.872  0.4806 -0.0718 -0.4655
 3220ntf    on521296   1.597   6.840   7.179  0.4340  0.0862 -0.2770
 3220ntf    on521297   1.557   6.614   7.083  0.9267 -0.2978 -0.6381
 3220ntf    fn421298   1.316   6.787   7.088 -0.3796 -0.0046  0.3566
 3220ntf    fn421299   1.418   6.940   6.972 -0.2839  0.0187 -0.6544
 3220ntf    fn421300   1.387   6.752   6.886 -0.0810  0.1689  0.4189
 3221ntf    cn121301   3.780   3.677   2.426  0.2254  0.3159  0.2063
 3221ntf    sn221302   3.730   3.654   2.600  0.3414  0.0445  0.2053
 3221ntf    nn321303   3.621   3.766   2.612 -0.1709 -0.3377 -0.7442
 3221ntf    sn221304   3.464   3.769   2.620 -0.1474  0.0332 -0.3765
 3221ntf    cn121305   3.424   3.769   2.442 -0.0714  0.0488 -0.3940
 3221ntf    fn421306   3.855   3.578   2.379  0.2214  0.4390 -0.0547
 3221ntf    fn421307   3.666   3.670   2.360  0.0063  0.2670  0.5867
 3221ntf    fn421308   3.841   3.791   2.399  0.1067  0.3757  0.1948
 3221ntf    on521309   3.684   3.517   2.602  0.0972  0.1159 -0.2286
 3221ntf    on521310   3.842   3.680   2.686  0.1034 -0.1327  0.5669
 3221ntf    on521311   3.417   3.898   2.664 -0.3121 -0.0550 -0.2925
 3221ntf    on521312   3.401   3.649   2.669  0.1967  0.0179  0.0375
 3221ntf    fn421313   3.456   3.876   2.372 -0.3298 -0.1169 -0.7687
 3221ntf    fn421314   3.471   3.664   2.378  0.4577 -0.0196  0.1006
 3221ntf    fn421315   3.293   3.757   2.424 -0.0619 -0.4548 -0.1508
 3222ntf    cn121316   0.717   5.063   2.699 -0.0491  0.1431  0.3883
 3222ntf    sn221317   0.792   5.224   2.739  0.2050  0.1317 -0.0279
 3222ntf    nn321318   0.946   5.200   2.751  0.2495  0.2887 -0.2945
 3222ntf    sn221319   1.022   5.159   2.882 -0.0126  0.0259 -0.2234
 3222ntf    cn121320   1.165   5.088   2.795  0.1822  0.0123  0.1077
 3222ntf    fn421321   0.756   5.009   2.585 -0.8419  0.0851  0.1394
 3222ntf    fn421322   0.743   4.977   2.795  0.3860  0.0763  0.2153
 3222ntf    fn421323   0.585   5.065   2.692 -0.0577  0.4089  0.5864
 3222ntf    on521324   0.764   5.301   2.620  0.7405 -0.1382 -0.3278
 3222ntf    on521325   0.739   5.275   2.864 -0.8262 -0.1307 -0.3447
 3222ntf    on521326   0.963   5.039   2.936 -0.1827  0.1260 -0.1870
 3222ntf    on521327   1.071   5.264   2.969 -0.2300 -0.0173 -0.0500
 3222ntf    fn421328   1.139   5.007   2.694 -0.3404  0.4633 -0.1246
 3222ntf    fn421329   1.243   5.183   2.744  0.0780  0.2542  0.3954
 3222ntf    fn421330   1.238   5.021   2.883 -0.4237 -0.3076  0.3701
 3223ntf    cn121331   0.822   3.103   5.654 -0.1750 -0.3612 -0.0876
 3223ntf    sn221332   0.859   3.056   5.482  0.1273 -0.0137 -0.1207
 3223ntf    nn321333   1.015   3.039   5.480  0.1052 -0.2778  0.1743
 3223ntf    sn221334   1.099   2.908   5.469  0.1061 -0.2721  0.1109
 3223ntf    cn121335   1.235   2.981   5.373  0.1648  0.1288  0.4956
 3223ntf    fn421336   0.733   3.017   5.700 -0.0691 -0.2683  0.2959
 3223ntf    fn421337   0.934   3.093   5.724 -0.0524 -0.3685 -0.2819
 3223ntf    fn421338   0.773   3.226   5.662 -0.1521 -0.3499 -0.1195
 3223ntf    on521339   0.785   2.933   5.463 -0.1744  0.0705  0.4600
 3223ntf    on521340   0.813   3.172   5.410  0.3912 -0.2231 -0.6314
 3223ntf    on521341   1.060   2.803   5.378  0.0417 -0.1638  0.0149
 3223ntf    on521342   1.156   2.853   5.591  0.0646 -0.2783  0.1274
 3223ntf    fn421343   1.277   3.087   5.440 -0.4863  0.0209  1.0897
 3223ntf    fn421344   1.338   2.898   5.361 -0.1453 -0.2009  0.0654
 3223ntf    fn421345   1.195   3.021   5.253  0.1622  0.8051  0.7207
 3224ntf    cn121346   3.888   6.364   4.963  0.1542  0.0444 -0.1008
 3224ntf    sn221347   3.871   6.530   4.891  0.3912  0.2388  0.2896
 3224ntf    nn321348   3.843   6.502   4.739  0.2521 -0.2245  0.3976
 3224ntf    sn221349   3.756   6.588   4.640  0.3552 -0.3439  0.2031
 3224ntf    cn121350   3.892   6.638   4.531  0.0635 -0.3402 -0.1581
 3224ntf    fn421351   3.913   6.370   5.093  0.8105  0.0038 -0.2238
 3224ntf    fn421352   3.779   6.289   4.957  0.3252 -0.1800 -0.3773
 3224ntf    fn421353   3.988   6.298   4.907  0.4221  0.0926  0.3171
 3224ntf    on521354   3.761   6.575   4.973  0.0074 -0.3312  0.0934
 3224ntf    on521355   3.999   6.590   4.918  0.5475  0.0520 -0.0320
 3224ntf    on521356   3.706   6.713   4.691  0.5200 -0.2602  0.1608
 3224ntf    on521357   3.662   6.509   4.565  0.1505 -0.0406  0.1385
 3224ntf    fn421358   3.967   6.538   4.487  0.0307 -0.2282 -0.4725
 3224ntf    fn421359   3.839   6.689   4.421 -0.0360  0.0395  0.0683
 3224ntf    fn421360   3.975   6.723   4.589  0.2140 -0.2936 -0.4380
 3225ntf    cn121361   4.649   2.869   2.956  0.0826  0.1338 -0.2813
 3225ntf    sn221362   4.759   2.821   2.819  0.1374 -0.0854 -0.1597
 3225ntf    nn321363   4.681   2.893   2.703 -0.2293 -0.0873  0.0834
 3225ntf    sn221364   4.605   2.835   2.579 -0.3872  0.2566  0.0175
 3225ntf    cn121365   4.462   2.748   2.648 -0.2043  0.1518  0.2663
 3225ntf    fn421366   4.538   2.798   2.966  0.0688  0.2616  0.4963
 3225ntf    fn421367   4.711   2.850   3.071  0.1155  0.5931 -0.2232
 3225ntf    fn421368   4.611   2.994   2.934  0.5586  0.3178 -0.0630
 3225ntf    on521369   4.886   2.884   2.845  0.1195 -0.1761  0.1457
 3225ntf    on521370   4.752   2.678   2.836 -0.6177 -0.0862 -0.4460
 3225ntf    on521371   4.679   2.730   2.513 -0.7117  0.2649 -0.3613
 3225ntf    on521372   4.540   2.938   2.503 -0.2674  0.4025  0.1134
 3225ntf    fn421373   4.500   2.651   2.731  0.0386  0.0630  0.0512
 3225ntf    fn421374   4.379   2.824   2.719 -0.3018  0.0884  0.2212
 3225ntf    fn421375   4.397   2.691   2.548 -0.0170 -0.1539  0.3169
 3226ntf    cn121376   4.399   2.306   5.454 -0.1886  0.0655  0.2125
 3226ntf    sn221377   4.561   2.376   5.411 -0.1917 -0.0858 -0.0477
 3226ntf    nn321378   4.558   2.508   5.496 -0.2293  0.0206 -0.2140
 3226ntf    sn221379   4.572   2.660   5.460 -0.1471  0.0057 -0.2444
 3226ntf    cn121380   4.625   2.724   5.622  0.3158  0.1167 -0.4378
 3226ntf    fn421381   4.394   2.250   5.574 -0.4378  0.1764  0.2558
 3226ntf    fn421382   4.302   2.395   5.449 -0.1586  0.1178  0.5298
 3226ntf    fn421383   4.356   2.211   5.373  0.3517 -0.0727  0.0823
 3226ntf    on521384   4.648   2.273   5.461  0.0071 -0.1152 -0.4483
 3226ntf    on521385   4.560   2.389   5.267  0.3329 -0.1945 -0.0622
 3226ntf    on521386   4.445   2.723   5.433 -0.3062 -0.2318 -0.0483
 3226ntf    on521387   4.684   2.695   5.377 -0.4102  0.5922 -0.3609
 3226ntf    fn421388   4.695   2.836   5.626 -0.4686  0.5870  0.1772
 3226ntf    fn421389   4.522   2.736   5.703  0.3674  0.7083 -0.4580
 3226ntf    fn421390   4.705   2.638   5.683 -0.3319 -0.2593 -0.1023
 3227ntf    cn121391   6.386   3.514   5.931  0.1669 -0.0583  0.1888
 3227ntf    sn221392   6.486   3.628   6.031 -0.1483  0.1679  0.2481
 3227ntf    nn321393   6.450   3.561   6.169  0.2886 -0.5014  0.0436
 3227ntf    sn221394   6.539   3.480   6.270  0.0848 -0.2332  0.4399
 3227ntf    cn121395   6.484   3.311   6.234 -0.4791 -0.0804  0.5658
 3227ntf    fn421396   6.400   3.538   5.802 -0.5775 -0.6327 -0.0105
 3227ntf    fn421397   6.419   3.386   5.939 -0.3616 -0.2041  0.0692
 3227ntf    fn421398   6.257   3.514   5.961  0.0200 -0.1575 -0.4338
 3227ntf    on521399   6.621   3.609   5.985 -0.2549 -0.3119  0.1260
 3227ntf    on521400   6.419   3.754   6.008 -0.5265 -0.0585  0.0935
 3227ntf    on521401   6.487   3.509   6.402 -0.1525  0.3709  0.2178
 3227ntf    on521402   6.680   3.482   6.244  0.0934  0.3706  0.5246
 3227ntf    fn421403   6.533   3.262   6.121 -0.6368 -0.0432  0.4811
 3227ntf    fn421404   6.526   3.233   6.333  0.2508 -0.2497  0.1248
 3227ntf    fn421405   6.353   3.293   6.234 -0.4629 -0.2283 -0.3474
 3228ntf    cn121406   2.879   0.329   2.633 -0.1317 -0.3065 -0.0481
 3228ntf    sn221407   2.717   0.397   2.677  0.1025  0.1221  0.1583
 3228ntf    nn321408   2.625   0.299   2.596 -0.1067  0.4797 -0.0393
 3228ntf    sn221409   2.498   0.310   2.504 -0.1620  0.0296 -0.0149
 3228ntf    cn121410   2.581   0.275   2.347 -0.1837 -0.0348 -0.0123
 3228ntf    fn421411   2.911   0.328   2.505 -0.2081 -0.3049 -0.0672
 3228ntf    fn421412   2.972   0.401   2.695 -0.1666 -0.3456  0.0501
 3228ntf    fn421413   2.894   0.204   2.675  0.4441 -0.1276  0.2941
 3228ntf    on521414   2.706   0.381   2.820  0.2679  0.1353  0.1718
 3228ntf    on521415   2.718   0.534   2.631 -0.2269  0.1394  0.1942
 3228ntf    on521416   2.433   0.437   2.488 -0.8444 -0.2365  0.5625
 3228ntf    on521417   2.415   0.193   2.525  0.1902 -0.1756  0.2581
 3228ntf    fn421418   2.496   0.290   2.247 -0.0709  0.4150 -0.0456
 3228ntf    fn421419   2.677   0.365   2.331 -0.1807 -0.0701 -0.1991
 3228ntf    fn421420   2.629   0.153   2.334  0.1747  0.1717 -0.7178
 3229ntf    cn121421   2.770   3.035   5.662 -0.2991 -0.0389  0.0574
 3229ntf    sn221422   2.808   3.150   5.798 -0.2889  0.0777 -0.0446
 3229ntf    nn321423   2.689   3.252   5.788  0.1495  0.6023  0.0157
 3229ntf    sn221424   2.554   3.257   5.869  0.1146 -0.2142  0.0157
 3229ntf    cn121425   2.593   3.356   6.016 -0.5250  0.1144 -0.0343
 3229ntf    fn421426   2.837   2.922   5.675  0.1241  0.2887  0.7967
 3229ntf    fn421427   2.642   3.003   5.654 -0.2697 -0.2340  0.3426
 3229ntf    fn421428   2.797   3.100   5.550  0.2790  0.1090  0.2781
 3229ntf    on521429   2.804   3.075   5.921 -0.8431 -0.2802 -0.2742
 3229ntf    on521430   2.930   3.211   5.752 -0.2864 -0.1062 -0.2831
 3229ntf    on521431   2.512   3.130   5.922  0.4381 -0.4140 -0.2031
 3229ntf    on521432   2.456   3.335   5.798  0.3007 -0.1836 -0.2093
 3229ntf    fn421433   2.673   3.282   6.091 -0.0682  0.1273 -0.5014
 3229ntf    fn421434   2.655   3.467   5.979 -0.3730 -0.0216 -0.1867
 3229ntf    fn421435   2.486   3.384   6.090 -0.2005 -0.5392  0.6969
 3230ntf    cn121436   2.581   1.743   1.871 -0.2891  0.2079  0.3581
 3230ntf    sn221437   2.742   1.787   1.944  0.2275 -0.4550 -0.3606
 3230ntf    nn321438   2.785   1.914   1.863  0.1007  0.1245  0.4638
 3230ntf    sn221439   2.923   1.939   1.793 -0.3532  0.2005 -0.4200
 3230ntf    cn121440   2.910   1.871   1.625 -0.1181 -0.2558 -0.2582
 3230ntf    fn421441   2.487   1.835   1.883 -0.7642 -0.2609  0.2914
 3230ntf    fn421442   2.594   1.726   1.741  0.1762  0.4303  0.3751
 3230ntf    fn421443   2.545   1.629   1.929 -0.2311 -0.0220 -0.0581
 3230ntf    on521444   2.716   1.813   2.084 -0.4332  0.1274 -0.5844
 3230ntf    on521445   2.823   1.670   1.921  0.1416 -0.5964  0.0413
 3230ntf    on521446   3.042   1.874   1.842  0.1452  1.2272 -0.2433
 3230ntf    on521447   2.948   2.078   1.766  0.2915  0.2281  0.2784
 3230ntf    fn421448   2.892   1.740   1.626 -0.2114 -0.2419 -0.1388
 3230ntf    fn421449   2.813   1.925   1.553  0.3116  0.3313 -0.4062
 3230ntf    fn421450   3.019   1.885   1.551  0.2136 -0.3341  0.2120
 3231ntf    cn121451   2.586   1.422   3.386  0.0026  0.0988  0.1007
 3231ntf    sn221452   2.582   1.447   3.566 -0.0430  0.1040  0.0990
 3231ntf    nn321453   2.647   1.589   3.587  0.5008 -0.0135 -0.7271
 3231ntf    sn221454   2.564   1.722   3.594  0.2757 -0.2079  0.4312
 3231ntf    cn121455   2.508   1.710   3.767  0.0131  0.0371  0.3634
 3231ntf    fn421456   2.709   1.439   3.340 -0.2647  0.6842 -0.4193
 3231ntf    fn421457   2.547   1.305   3.339 -0.1944  0.2712 -0.1706
 3231ntf    fn421458   2.510   1.510   3.323 -0.3449 -0.0842  0.2645
 3231ntf    on521459   2.444   1.434   3.604  0.0923  0.4051  0.6994
 3231ntf    on521460   2.670   1.349   3.624  0.3203  0.1157 -0.4220
 3231ntf    on521461   2.439   1.726   3.523  0.6974  0.4149 -0.2908
 3231ntf    on521462   2.648   1.839   3.587 -0.2482  0.1574  0.2595
 3231ntf    fn421463   2.464   1.827   3.809  0.0358  0.0434  0.3695
 3231ntf    fn421464   2.421   1.614   3.795  0.0451 -0.1346 -0.1052
 3231ntf    fn421465   2.607   1.702   3.854  0.4844  0.4843 -0.1200
 3232ntf    cn121466   1.662   4.788   3.319  0.0915 -0.9665  0.2235
 3232ntf    sn221467   1.731   4.783   3.150 -0.1344 -0.1073  0.1049
 3232ntf    nn321468   1.816   4.651   3.159  0.5485  0.2842 -0.5497
 3232ntf    sn221469   1.801   4.515   3.082  0.1229  0.1531 -0.2364
 3232ntf    cn121470   1.972   4.502   3.023  0.2162  0.2714  0.0042
 3232ntf    fn421471   1.587   4.894   3.340  0.5394 -0.4877 -0.5208
 3232ntf    fn421472   1.590   4.682   3.351 -0.4329 -0.7169 -0.1272
 3232ntf    fn421473   1.761   4.796   3.406 -0.1123  0.2621  0.3553
 3232ntf    on521474   1.615   4.777   3.064  0.2186 -1.0105 -0.3176
 3232ntf    on521475   1.813   4.901   3.145 -0.2488 -0.0178  0.2842
 3232ntf    on521476   1.724   4.509   2.960 -0.0279  0.2617 -0.1473
 3232ntf    on521477   1.786   4.407   3.177 -0.0510 -0.1643 -0.6196
 3232ntf    fn421478   1.989   4.380   2.974 -0.4592  0.2736 -0.2448
 3232ntf    fn421479   2.002   4.596   2.934 -0.1501  0.2586 -0.1324
 3232ntf    fn421480   2.060   4.502   3.122  0.2900 -0.3380 -0.0530
 3233ntf    cn121481   5.256   6.076   5.942  0.0297  0.4677  0.1373
 3233ntf    sn221482   5.246   5.961   6.083  0.4518  0.1648 -0.0775
 3233ntf    nn321483   5.364   5.867   6.038  0.3546  0.1585 -0.3239
 3233ntf    sn221484   5.364   5.715   5.996  0.2060  0.1601 -0.3329
 3233ntf    cn121485   5.495   5.662   6.110 -0.3359 -0.1302  0.1601
 3233ntf    fn421486   5.214   6.031   5.824 -0.2742  0.1993  0.3465
 3233ntf    fn421487   5.189   6.187   5.967 -0.1268  0.3787  0.1181
 3233ntf    fn421488   5.384   6.105   5.933  0.1854 -0.2944 -0.2282
 3233ntf    on521489   5.283   6.048   6.192 -0.1296  0.3692 -0.0427
 3233ntf    on521490   5.113   5.906   6.084  0.4276  0.2270  0.2685
 3233ntf    on521491   5.425   5.694   5.867  0.0742 -0.3083 -0.3209
 3233ntf    on521492   5.247   5.635   6.021  0.0634  0.1078 -1.1648
 3233ntf    fn421493   5.532   5.537   6.086 -0.1504 -0.0908  0.2390
 3233ntf    fn421494   5.606   5.734   6.101 -0.4425  0.0690  0.4239
 3233ntf    fn421495   5.455   5.675   6.236 -0.3594  0.1832  0.1210
 3234ntf    cn121496   3.780   0.854   1.652  0.2721 -0.4754  0.3214
 3234ntf    sn221497   3.831   0.975   1.778  0.1779  0.0227 -0.1133
 3234ntf    nn321498   3.899   1.082   1.687  0.3025 -0.4300 -0.5575
 3234ntf    sn221499   4.051   1.106   1.653  0.3803 -0.0872  0.0258
 3234ntf    cn121500   4.070   1.274   1.721 -0.0760  0.1014 -0.3101
 3234ntf    fn421501   3.872   0.827   1.561  0.2143  0.2381  0.0396
 3234ntf    fn421502   3.743   0.741   1.710 -0.0472 -0.2640  0.5380
 3234ntf    fn421503   3.673   0.897   1.587  0.6266 -0.1025 -0.0214
 3234ntf    on521504   3.707   1.026   1.831  0.3449  0.0552  0.2477
 3234ntf    on521505   3.917   0.906   1.871  0.1826  0.1119 -0.0513
 3234ntf    on521506   4.073   1.118   1.511 -0.4016  0.5313 -0.0501
 3234ntf    on521507   4.141   1.027   1.733  0.2418 -0.4354 -0.1607
 3234ntf    fn421508   4.037   1.284   1.848 -0.0435 -0.3859 -0.2629
 3234ntf    fn421509   4.196   1.313   1.707 -0.0743  0.3241  0.3004
 3234ntf    fn421510   3.995   1.357   1.650  0.1862  0.1034 -0.5859
 3235ntf    cn121511   3.175   2.800   6.390  0.0753 -0.0901  0.3822
 3235ntf    sn221512   3.023   2.814   6.489 -0.2225 -0.2390 -0.0516
 3235ntf    nn321513   2.978   2.949   6.423 -0.2509 -0.1016  0.2512
 3235ntf    sn221514   2.920   3.068   6.508 -0.4181 -0.2298  0.3171
 3235ntf    cn121515   3.061   3.183   6.511 -0.3567 -0.2988  0.1071
 3235ntf    fn421516   3.224   2.678   6.377  0.4649  0.0601  0.4345
 3235ntf    fn421517   3.146   2.842   6.268 -0.3127  0.1685  0.5608
 3235ntf    fn421518   3.272   2.878   6.434 -0.1101  0.4133 -0.0876
 3235ntf    on521519   2.939   2.706   6.442 -0.6692 -0.0814  0.3790
 3235ntf    on521520   3.078   2.828   6.621  0.2534  0.1781 -0.2875
 3235ntf    on521521   2.897   3.043   6.648  0.6534 -0.5246  0.4478
 3235ntf    on521522   2.814   3.135   6.436 -0.2025 -0.2697 -0.0379
 3235ntf    fn421523   3.163   3.148   6.586  0.1286  0.6455 -0.0962
 3235ntf    fn421524   3.116   3.198   6.392  0.7570  0.1445  0.6613
 3235ntf    fn421525   3.019   3.302   6.551  0.2866 -0.1256  0.2730
 3236ntf    cn121526   1.876   4.139   3.875 -0.1651 -0.2703 -0.0712
 3236ntf    sn221527   1.777   3.990   3.909 -0.3193 -0.0981  0.2424
 3236ntf    nn321528   1.648   4.049   3.975 -0.2432 -0.0150  0.3168
 3236ntf    sn221529   1.629   4.079   4.128 -0.2108  0.0459  0.3092
 3236ntf    cn121530   1.533   3.934   4.183 -0.1172  0.0298  0.4330
 3236ntf    fn421531   1.963   4.117   3.779  0.2211  0.1589  0.1771
 3236ntf    fn421532   1.807   4.243   3.830 -0.3877 -0.1701  0.4942
 3236ntf    fn421533   1.949   4.168   3.981 -0.0117 -0.8970 -0.0043
 3236ntf    on521534   1.742   3.952   3.775  0.1599 -0.3383  0.1831
 3236ntf    on521535   1.872   3.910   3.983  0.2958 -0.4148 -0.8756
 3236ntf    on521536   1.533   4.186   4.143  0.0056  0.3121 -0.1939
 3236ntf    on521537   1.741   4.082   4.219  0.1120  0.1296 -0.0897
 3236ntf    fn421538   1.492   3.942   4.309 -0.1089 -0.2282  0.4521
 3236ntf    fn421539   1.424   3.916   4.109  0.2221 -0.1314 -0.0309
 3236ntf    fn421540   1.601   3.822   4.171 -0.6944 -0.3070  0.2850
 3237ntf    cn121541   3.073   3.800   5.079  0.0214 -0.1160  0.1213
 3237ntf    sn221542   3.156   3.941   5.159 -0.2951  0.1464 -0.0129
 3237ntf    nn321543   3.287   3.862   5.195 -0.4242  0.1202  0.3976
 3237ntf    sn221544   3.337   3.833   5.341 -0.3128 -0.4151  0.2513
 3237ntf    cn121545   3.516   3.816   5.318 -0.3534 -0.1701 -0.2661
 3237ntf    fn421546   3.148   3.746   4.984  0.6483  0.3740  0.3277
 3237ntf    fn421547   3.046   3.699   5.160 -0.4472 -0.1103 -0.0246
 3237ntf    fn421548   2.959   3.833   5.020  0.2190 -0.4937 -0.4916
 3237ntf    on521549   3.189   4.031   5.051  0.0725  0.2501  0.1857
 3237ntf    on521550   3.064   3.978   5.264 -0.1798 -0.0941  0.1723
 3237ntf    on521551   3.297   3.700   5.380 -0.7279 -0.1171  0.8577
 3237ntf    on521552   3.317   3.940   5.435 -0.2144 -0.1122 -0.0749
 3237ntf    fn421553   3.579   3.927   5.285  0.2712 -0.6281 -0.6507
 3237ntf    fn421554   3.578   3.783   5.431 -0.4276  0.3445 -0.0748
 3237ntf    fn421555   3.539   3.712   5.239  0.1691 -0.1047 -0.2078
 3238ntf    cn121556   6.468   2.407   2.849 -0.0548 -0.0830 -0.2623
 3238ntf    sn221557   6.309   2.417   2.762 -0.2771  0.0244  0.1520
 3238ntf    nn321558   6.227   2.334   2.867  0.4211  0.0069  0.6889
 3238ntf    sn221559   6.224   2.180   2.895  0.2822 -0.1136  0.0363
 3238ntf    cn121560   6.066   2.145   2.811  0.3319 -0.0411 -0.0888
 3238ntf    fn421561   6.467   2.469   2.966  0.5586 -0.5061 -0.0309
 3238ntf    fn421562   6.506   2.283   2.874  0.1136 -0.0037 -0.1203
 3238ntf    fn421563   6.569   2.455   2.778  0.4480  0.0418  0.5180
 3238ntf    on521564   6.285   2.559   2.757  0.8233  0.2006 -0.5449
 3238ntf    on521565   6.334   2.355   2.634  0.2679 -0.4800  0.4991
 3238ntf    on521566   6.197   2.152   3.034  0.3525 -0.4665 -0.0197
 3238ntf    on521567   6.324   2.095   2.835  0.1282 -0.4532  0.2547
 3238ntf    fn421568   6.048   2.014   2.802  0.1793 -0.0139 -0.1786
 3238ntf    fn421569   5.964   2.190   2.882 -0.3672 -0.3884 -0.8609
 3238ntf    fn421570   6.058   2.187   2.686  0.7454 -0.1332 -0.1499
 3239ntf    cn121571   1.330   0.839   5.695  0.2170 -0.4870  0.0136
 3239ntf    sn221572   1.192   0.769   5.791  0.1077 -0.2947 -0.0023
 3239ntf    nn321573   1.070   0.819   5.707 -0.2936 -0.8810  0.2311
 3239ntf    sn221574   0.964   0.930   5.742  0.4159 -0.2060  0.2528
 3239ntf    cn121575   0.810   0.833   5.746  0.2663  0.0138 -0.1045
 3239ntf    fn421576   1.334   0.807   5.567  0.3563  0.3780 -0.2069
 3239ntf    fn421577   1.324   0.971   5.698 -0.7771 -0.5294  0.2884
 3239ntf    fn421578   1.453   0.814   5.736  0.4455  0.3624 -0.1419
 3239ntf    on521579   1.203   0.626   5.777 -0.0155 -0.2579 -0.4804
 3239ntf    on521580   1.216   0.831   5.919 -0.1472  0.3247 -0.2517
 3239ntf    on521581   0.935   1.005   5.622  0.2367 -0.3439  0.2100
 3239ntf    on521582   0.969   0.991   5.872 -0.4413 -0.3480  0.3542
 3239ntf    fn421583   0.778   0.797   5.622  0.7509  0.3798 -0.3378
 3239ntf    fn421584   0.824   0.724   5.819  0.0323 -0.3218 -0.5543
 3239ntf    fn421585   0.707   0.901   5.793 -0.0382 -0.8462  0.4956
 3240ntf    cn121586   6.113   2.894   6.219 -0.0580 -0.1949  0.1564
 3240ntf    sn221587   6.187   2.982   6.360 -0.1522 -0.2924  0.2664
 3240ntf    nn321588   6.128   2.906   6.484 -0.2510 -0.2301  0.2583
 3240ntf    sn221589   6.052   2.957   6.612 -0.1559 -0.2424  0.3198
 3240ntf    cn121590   5.878   2.970   6.561 -0.1477  0.0641  0.3672
 3240ntf    fn421591   6.187   2.902   6.110  0.0506  0.0237  0.2459
 3240ntf    fn421592   6.103   2.765   6.242  0.2285 -0.2669 -0.1145
 3240ntf    fn421593   5.993   2.940   6.186  0.0687  0.0055 -0.0299
 3240ntf    on521594   6.329   2.963   6.351 -0.1323 -0.1531  0.2907
 3240ntf    on521595   6.130   3.114   6.346  0.0629 -0.3104 -0.8606
 3240ntf    on521596   6.092   3.084   6.666  0.4246 -0.1129 -0.4002
 3240ntf    on521597   6.044   2.850   6.709 -0.2633 -0.1581  0.4037
 3240ntf    fn421598   5.809   3.024   6.661 -0.2558 -0.0023  0.3288
 3240ntf    fn421599   5.862   3.043   6.452 -0.0931 -0.3022  0.1123
 3240ntf    fn421600   5.825   2.854   6.526  0.0042  0.2030 -0.3364
   7.01215   7.01215   7.01215
