Converted from moscito
25920
    1SOL     ow    1   3.670   5.553   3.205 -0.7523  0.2969  0.4152
    1SOL     hw    2   3.632   5.467   3.225 -0.8805  0.0771 -0.6695
    1SOL     hw    3   3.594   5.608   3.185 -0.6818  0.7242  1.3155
    1SOL     vw    4   3.655   5.549   3.205 -0.7598  0.3240  0.3909
    2SOL     ow    5   5.512   1.909   4.145 -0.0771  0.0189  0.1033
    2SOL     hw    6   5.487   1.983   4.089  3.1748  2.8089  1.8917
    2SOL     hw    7   5.445   1.906   4.213 -1.0094  0.3853 -0.7853
    2SOL     vw    8   5.500   1.919   4.147  0.2289  0.4352  0.2217
    3SOL     ow    9   5.326   1.066   6.269 -0.0524 -0.2560  0.3040
    3SOL     hw   10   5.419   1.047   6.281 -0.3294 -2.4042 -0.4841
    3SOL     hw   11   5.284   1.038   6.350 -0.2649 -1.5730 -0.2359
    3SOL     vw   12   5.332   1.060   6.281 -0.1173 -0.7132  0.1290
    4SOL     ow   13   6.096   3.173   4.662 -0.3646 -0.0921 -0.3194
    4SOL     hw   14   6.114   3.081   4.682 -0.6899 -0.1007 -0.0641
    4SOL     hw   15   6.010   3.172   4.619 -0.2201  0.0580 -0.6145
    4SOL     vw   16   6.087   3.161   4.659 -0.3884 -0.0734 -0.3247
    5SOL     ow   17   6.419   4.223   2.163 -0.1333  0.3837 -0.2553
    5SOL     hw   18   6.338   4.173   2.158  0.1741 -0.3795  1.5028
    5SOL     hw   19   6.447   4.213   2.254  1.2628  1.6981 -0.5031
    5SOL     vw   20   6.412   4.215   2.174  0.0916  0.4563 -0.0560
    6SOL     ow   21   5.139   0.862   6.980  0.6333  0.5455 -0.3299
    6SOL     hw   22   5.097   0.936   6.935 -1.6668 -0.2169  0.4400
    6SOL     hw   23   5.186   0.816   6.910  1.1212  2.0375 -1.0365
    6SOL     vw   24   5.140   0.866   6.965  0.3941  0.6417 -0.3216
    7SOL     ow   25   6.491   0.338   3.485 -0.5805  0.3593 -0.3877
    7SOL     hw   26   6.519   0.419   3.444 -3.3446  1.0305 -1.1446
    7SOL     hw   27   6.486   0.359   3.578  1.7921  0.0097 -0.0974
    7SOL     vw   28   6.494   0.351   3.492 -0.6320  0.4017 -0.4493
    8SOL     ow   29   2.973   2.153   5.944  0.7401  0.4455 -0.1212
    8SOL     hw   30   2.898   2.095   5.959  0.9494  0.5778  1.6891
    8SOL     hw   31   2.962   2.184   5.855 -1.1467  0.1414 -0.0357
    8SOL     vw   32   2.962   2.149   5.934  0.5188  0.4230  0.1290
    9SOL     ow   33   6.896   0.083   1.100 -0.9750  0.0021 -0.3740
    9SOL     hw   34   6.988   0.067   1.119 -0.9950 -0.3369 -0.5494
    9SOL     hw   35   6.849   0.037   1.170 -1.0643 -1.7429 -1.5192
    9SOL     vw   36   6.902   0.075   1.112 -0.9897 -0.2728 -0.5483
   10SOL     ow   37   6.929   5.602   2.038  0.2793  0.1282  0.0359
   10SOL     hw   38   6.866   5.663   1.999 -1.2698 -0.3321  1.6834
   10SOL     hw   39   7.014   5.630   2.005 -0.7206  1.0668 -1.9124
   10SOL     vw   40   6.932   5.613   2.028 -0.0572  0.1912 -0.0038
   11SOL     ow   41   6.641   5.644   5.824 -0.4397 -0.1440 -0.0992
   11SOL     hw   42   6.582   5.586   5.776 -0.4272 -1.6992  1.6571
   11SOL     hw   43   6.599   5.730   5.821 -0.7596 -0.3311 -2.2417
   11SOL     vw   44   6.628   5.648   5.818 -0.4802 -0.3741 -0.1502
   12SOL     ow   45   7.117   6.570   1.844  0.0799  0.9071  0.2709
   12SOL     hw   46   7.048   6.635   1.826 -0.3027  0.9127  1.6877
   12SOL     hw   47   7.114   6.557   1.938  2.8532  1.8277  0.5807
   12SOL     vw   48   7.107   6.577   1.854  0.3958  1.0295  0.4987
   13SOL     ow   49   0.303   1.780   6.691 -0.4792  0.2438 -0.5172
   13SOL     hw   50   0.356   1.700   6.690 -0.3252  0.3244  0.3008
   13SOL     hw   51   0.360   1.846   6.652 -0.9796 -0.2511 -2.1564
   13SOL     vw   52   0.318   1.778   6.686 -0.5249  0.1891 -0.6256
   14SOL     ow   53   2.050   6.261   5.584 -0.4303 -0.6388  0.2865
   14SOL     hw   54   2.068   6.171   5.611 -0.3362 -0.2765  1.4815
   14SOL     hw   55   2.038   6.309   5.666 -0.5284  0.4296 -0.3330
   14SOL     vw   56   2.051   6.256   5.598 -0.4307 -0.4499  0.3624
   15SOL     ow   57   4.709   1.714   4.184 -0.4208 -0.4244 -0.0391
   15SOL     hw   58   4.750   1.770   4.118 -0.1136  0.9205  1.2416
   15SOL     hw   59   4.623   1.753   4.199 -1.3177 -1.8813 -1.0166
   15SOL     vw   60   4.703   1.726   4.177 -0.4985 -0.4392  0.0007
   16SOL     ow   61   7.173   2.709   6.189 -0.4495 -0.1994 -0.0963
   16SOL     hw   62   7.144   2.796   6.217  0.4979 -0.0865  0.5824
   16SOL     hw   63   7.152   2.705   6.096  0.4848  1.1964 -0.3980
   16SOL     vw   64   7.167   2.720   6.180 -0.2012 -0.0004 -0.0465
   17SOL     ow   65   2.758   1.153   5.301  0.2017 -0.3289 -0.2424
   17SOL     hw   66   2.665   1.173   5.290  0.3689 -0.0584 -1.3452
   17SOL     hw   67   2.762   1.098   5.379 -0.6533  1.2293  0.9447
   17SOL     vw   68   2.746   1.148   5.310  0.1110 -0.0876 -0.2313
   18SOL     ow   69   1.804   3.401   4.526  0.0498 -0.1196 -0.2019
   18SOL     hw   70   1.834   3.373   4.612  1.1020  1.0466 -0.1654
   18SOL     hw   71   1.711   3.420   4.538 -0.1232 -1.2318  0.3403
   18SOL     vw   72   1.796   3.400   4.539  0.1658 -0.1125 -0.1256
   19SOL     ow   73   5.675   1.436   4.119  0.3611 -0.1773  0.4766
   19SOL     hw   74   5.611   1.365   4.110  1.4427 -0.8825 -2.9817
   19SOL     hw   75   5.623   1.516   4.111 -0.4869 -0.6275  1.2722
   19SOL     vw   76   5.660   1.437   4.117  0.3920 -0.3297  0.1249
   20SOL     ow   77   2.035   3.689   5.820  0.4082  0.2963 -0.4515
   20SOL     hw   78   2.027   3.600   5.785 -1.8836  0.2848 -0.0271
   20SOL     hw   79   2.058   3.742   5.743  1.2480 -0.5588 -0.8132
   20SOL     vw   80   2.037   3.684   5.805  0.2166  0.1820 -0.4432
   21SOL     ow   81   2.853   4.872   2.942 -0.3532  0.4760 -0.0802
   21SOL     hw   82   2.829   4.783   2.915 -1.0755  0.6420 -0.0076
   21SOL     hw   83   2.839   4.925   2.864 -1.0473  0.7128  0.1953
   21SOL     vw   84   2.848   4.867   2.928 -0.5400  0.5293 -0.0342
   22SOL     ow   85   0.360   3.605   5.159  0.3288  0.4668 -0.1299
   22SOL     hw   86   0.290   3.652   5.113  1.1851  2.8047  0.8059
   22SOL     hw   87   0.325   3.588   5.246  0.3176  0.0976 -0.2059
   22SOL     vw   88   0.346   3.609   5.164  0.4403  0.7266 -0.0165
   23SOL     ow   89   5.325   4.797   4.194  0.6673 -0.2554  0.5624
   23SOL     hw   90   5.268   4.861   4.151  0.3511  0.1886  1.6038
   23SOL     hw   91   5.351   4.737   4.124 -0.8781 -0.3226 -0.0063
   23SOL     vw   92   5.321   4.797   4.179  0.4218 -0.2055  0.6244
   24SOL     ow   93   4.273   3.009   2.607 -0.1392 -0.3706 -0.3007
   24SOL     hw   94   4.303   2.937   2.662  0.4921  0.2191  0.1443
   24SOL     hw   95   4.233   3.071   2.668  1.7823  0.9279 -0.2744
   24SOL     vw   96   4.272   3.008   2.622  0.1976 -0.1215 -0.2384
   25SOL     ow   97   7.125   2.573   0.109  0.4165 -0.3536  0.0732
   25SOL     hw   98   7.142   2.546   0.019 -0.3196  2.3038 -0.9715
   25SOL     hw   99   7.036   2.543   0.127  1.0280 -2.0321  0.4417
   25SOL     vw  100   7.115   2.566   0.100  0.3998 -0.2245 -0.0160
   26SOL     ow  101   0.383   0.452   3.219 -0.2442  0.6916  0.1783
   26SOL     hw  102   0.388   0.396   3.142  0.5214 -0.8017  1.2553
   26SOL     hw  103   0.470   0.492   3.225 -0.4663  1.2151 -0.0084
   26SOL     vw  104   0.395   0.450   3.210 -0.1725  0.5637  0.2956
   27SOL     ow  105   1.836   4.271   2.531 -0.0077 -0.8613 -0.2476
   27SOL     hw  106   1.775   4.249   2.601 -0.7473 -1.0823 -0.9385
   27SOL     hw  107   1.781   4.313   2.464  0.3553 -2.1587 -1.4182
   27SOL     vw  108   1.821   4.274   2.531 -0.0573 -1.0617 -0.4933
   28SOL     ow  109   0.927   6.300   3.880  0.2726  0.4491 -0.2943
   28SOL     hw  110   0.858   6.277   3.817 -0.1903  1.5875 -0.2293
   28SOL     hw  111   0.899   6.260   3.962  1.0050 -1.2589 -0.8460
   28SOL     vw  112   0.914   6.292   3.882  0.3082  0.3738 -0.3586
   29SOL     ow  113   1.946   2.769   5.990  0.0968  0.4360  0.0649
   29SOL     hw  114   1.908   2.832   5.928  1.0532  0.6123 -0.3627
   29SOL     hw  115   1.983   2.823   6.059  1.4924  0.4072 -0.6262
   29SOL     vw  116   1.946   2.784   5.991  0.4070  0.4555 -0.0827
   30SOL     ow  117   5.379   1.565   3.758 -0.2534 -0.0045 -0.2207
   30SOL     hw  118   5.354   1.474   3.774 -0.9751  0.0693 -0.8849
   30SOL     hw  119   5.303   1.617   3.785 -0.4748  0.2841 -1.3286
   30SOL     vw  120   5.366   1.560   3.764 -0.3781  0.0433 -0.4545
   31SOL     ow  121   4.870   7.068   6.422 -0.1519 -0.4224  0.4155
   31SOL     hw  122   4.794   7.096   6.472  0.5265  1.0889  0.6622
   31SOL     hw  123   4.933   7.039   6.488  0.7374  1.5558  0.4899
   31SOL     vw  124   4.869   7.068   6.437  0.0551  0.0381  0.4580
   32SOL     ow  125   0.681   1.475   5.000  0.5267 -0.3353 -0.1536
   32SOL     hw  126   0.683   1.459   5.094 -0.5833 -2.3708 -0.4272
   32SOL     hw  127   0.724   1.560   4.989  1.8061 -0.6252  2.0549
   32SOL     vw  128   0.687   1.484   5.011  0.5490 -0.6421  0.1013
   33SOL     ow  129   0.691   5.385   6.743  0.2184 -0.2739  0.4376
   33SOL     hw  130   0.726   5.318   6.802  2.8706  0.5607 -0.0157
   33SOL     hw  131   0.680   5.341   6.659  1.5804 -0.2740  0.2394
   33SOL     vw  132   0.694   5.371   6.740  0.7480 -0.1638  0.3517
   34SOL     ow  133   1.142   2.613   1.630  0.6692  0.7448 -0.0447
   34SOL     hw  134   1.174   2.649   1.547  0.9409 -0.0435 -0.2884
   34SOL     hw  135   1.051   2.588   1.611  1.0275 -0.3434 -0.4051
   34SOL     vw  136   1.134   2.614   1.616  0.7523  0.4973 -0.1245
   35SOL     ow  137   2.660   2.807   5.843  0.0477  0.7425  0.1356
   35SOL     hw  138   2.688   2.791   5.753 -1.2219 -0.3554 -0.0741
   35SOL     hw  139   2.740   2.794   5.895  0.2030 -1.3568 -0.5506
   35SOL     vw  140   2.674   2.803   5.838 -0.0992  0.3207  0.0174
   36SOL     ow  141   2.328   1.088   3.901  0.4777  0.2630 -0.5254
   36SOL     hw  142   2.329   0.996   3.874  0.2935  0.1277 -0.0714
   36SOL     hw  143   2.419   1.116   3.892  0.6695 -0.1613  0.0015
   36SOL     vw  144   2.340   1.079   3.896  0.4786  0.1892 -0.3958
   37SOL     ow  145   2.274   3.884   1.114 -0.2200 -0.0882 -0.5390
   37SOL     hw  146   2.217   3.911   1.042  0.4156  0.2017 -0.9430
   37SOL     hw  147   2.360   3.916   1.090  0.2055 -0.8919 -0.1400
   37SOL     vw  148   2.278   3.892   1.101 -0.0801 -0.1560 -0.5397
   38SOL     ow  149   3.305   2.514   6.062 -0.6574 -0.2516 -0.2450
   38SOL     hw  150   3.238   2.541   6.000  0.5063 -0.5629 -1.7088
   38SOL     hw  151   3.343   2.596   6.094  0.3859 -0.0501 -1.8698
   38SOL     vw  152   3.301   2.528   6.058 -0.3661 -0.2660 -0.6526
   39SOL     ow  153   6.657   4.241   6.554 -0.7249  0.2571 -0.5474
   39SOL     hw  154   6.578   4.196   6.583  0.1430  0.1049  1.7676
   39SOL     hw  155   6.646   4.331   6.586  0.2449  0.0946  0.3025
   39SOL     vw  156   6.645   4.247   6.562 -0.4823  0.2155 -0.1297
   40SOL     ow  157   3.586   0.563   6.257  0.0364  0.5862 -0.1974
   40SOL     hw  158   3.581   0.549   6.352 -1.2015  2.5747  0.1057
   40SOL     hw  159   3.507   0.521   6.223  0.3039  0.1714 -0.3121
   40SOL     vw  160   3.575   0.556   6.265 -0.0917  0.7938 -0.1724
   41SOL     ow  161   2.460   3.404   5.440  0.4755  0.2130 -0.1489
   41SOL     hw  162   2.439   3.313   5.422  0.3859  0.1118  0.4406
   41SOL     hw  163   2.433   3.417   5.531  2.4455  0.2127  0.4799
   41SOL     vw  164   2.454   3.394   5.450  0.7236  0.1997  0.0117
   42SOL     ow  165   5.966   5.072   2.697  0.0686  0.1715 -0.2745
   42SOL     hw  166   5.871   5.069   2.709  0.0685  0.6578 -0.1209
   42SOL     hw  167   5.995   4.981   2.706 -0.1914  0.2215  1.3151
   42SOL     vw  168   5.958   5.060   2.700  0.0343  0.2422 -0.0445
   43SOL     ow  169   5.018   4.665   1.287  0.0492 -0.5746 -0.0077
   43SOL     hw  170   4.987   4.721   1.358 -2.6798 -0.4187 -1.1864
   43SOL     hw  171   4.977   4.580   1.303 -0.4792 -0.5808 -1.2468
   43SOL     vw  172   5.008   4.661   1.298 -0.3805 -0.5546 -0.3267
   44SOL     ow  173   4.763   1.942   4.873  0.1213 -0.9028 -0.4471
   44SOL     hw  174   4.767   1.947   4.968 -0.4693 -1.0266 -0.4119
   44SOL     hw  175   4.677   1.903   4.855  0.1316 -0.6592 -1.0362
   44SOL     vw  176   4.752   1.937   4.883  0.0451 -0.8870 -0.5202
   45SOL     ow  177   6.966   3.007   0.458 -0.3087 -0.1647 -0.0310
   45SOL     hw  178   6.921   2.983   0.539 -1.3224  0.0102 -0.5341
   45SOL     hw  179   6.931   2.949   0.391  0.7993 -0.5640 -0.2872
   45SOL     vw  180   6.955   2.996   0.460 -0.2961 -0.1944 -0.1312
   46SOL     ow  181   3.446   4.225   5.024 -0.3303 -0.0098 -0.0585
   46SOL     hw  182   3.386   4.152   5.009 -0.8200  0.3021  0.3725
   46SOL     hw  183   3.497   4.231   4.943 -2.3572  1.1201 -1.3021
   46SOL     vw  184   3.445   4.216   5.011 -0.6623  0.1802 -0.1657
   47SOL     ow  185   1.113   6.957   3.078 -0.3581 -0.4952  0.9493
   47SOL     hw  186   1.061   6.897   3.130  0.1234 -0.7151  1.1813
   47SOL     hw  187   1.051   7.024   3.049 -1.0430 -1.4486  0.1444
   47SOL     vw  188   1.098   6.958   3.081 -0.3849 -0.6502  0.8738
   48SOL     ow  189   3.606   0.382   5.458  0.0958  0.7575  0.3318
   48SOL     hw  190   3.696   0.414   5.453  0.4750  0.0510  1.8823
   48SOL     hw  191   3.552   0.461   5.461  0.5000  1.2027 -2.2271
   48SOL     vw  192   3.611   0.396   5.458  0.1992  0.7230  0.1988
   49SOL     ow  193   5.988   1.185   2.265  0.0289 -0.1020 -0.4606
   49SOL     hw  194   6.063   1.150   2.217  0.6948  0.3333  0.2504
   49SOL     hw  195   5.972   1.270   2.223  1.5917  0.9914  1.0352
   49SOL     vw  196   5.996   1.192   2.253  0.3231  0.0997 -0.1693
   50SOL     ow  197   4.374   1.345   1.556  0.8782  0.1120 -0.3546
   50SOL     hw  198   4.425   1.422   1.583  1.5293 -0.1785 -0.7219
   50SOL     hw  199   4.284   1.377   1.549  0.6754  0.2119  2.0704
   50SOL     vw  200   4.369   1.359   1.558  0.9377  0.0868 -0.0831
   51SOL     ow  201   2.386   7.028   6.498 -0.2438 -0.0273  0.0618
   51SOL     hw  202   2.359   7.048   6.588 -0.2022  2.2144 -0.3547
   51SOL     hw  203   2.446   6.954   6.507 -4.2942 -3.6252  1.2871
   51SOL     vw  204   2.390   7.021   6.511 -0.7727 -0.2062  0.1686
   52SOL     ow  205   0.764   3.982   6.315  0.0306 -1.0307 -0.7427
   52SOL     hw  206   0.806   4.064   6.290  0.9315 -0.7322  1.5179
   52SOL     hw  207   0.674   4.008   6.338  0.0193 -0.8531 -0.9825
   52SOL     vw  208   0.758   3.996   6.315  0.1480 -0.9680 -0.4759
   53SOL     ow  209   5.483   3.587   0.412 -0.3079  1.1279 -0.2444
   53SOL     hw  210   5.446   3.632   0.336  0.9896  0.2808 -1.4292
   53SOL     hw  211   5.534   3.655   0.457 -1.0354  1.6208 -0.1436
   53SOL     vw  212   5.485   3.602   0.408 -0.2325  1.0813 -0.3874
   54SOL     ow  213   6.956   2.699   0.727 -0.0840 -0.6439 -0.6221
   54SOL     hw  214   7.024   2.668   0.786  0.4114  1.8780  0.2812
   54SOL     hw  215   6.879   2.646   0.747  0.4421 -0.7018  1.4185
   54SOL     vw  216   6.955   2.688   0.737  0.0508 -0.3188 -0.2337
   55SOL     ow  217   6.832   4.288   6.348  0.0448  0.2142 -0.1777
   55SOL     hw  218   6.783   4.279   6.430 -0.4660 -0.3077 -0.5290
   55SOL     hw  219   6.921   4.308   6.376  0.1074 -0.9360  0.5590
   55SOL     vw  220   6.837   4.289   6.363 -0.0143 -0.0064 -0.1266
   56SOL     ow  221   6.046   6.778   5.350  0.4001 -0.3844  0.0517
   56SOL     hw  222   6.129   6.825   5.356  0.1685  0.1288 -0.6328
   56SOL     hw  223   5.984   6.831   5.399  0.4325 -0.6794  0.4179
   56SOL     vw  224   6.049   6.791   5.357  0.3738 -0.3555  0.0100
   57SOL     ow  225   6.460   4.086   1.866 -1.1396 -0.2151  0.2065
   57SOL     hw  226   6.504   4.061   1.785 -1.0787  3.7072 -1.1796
   57SOL     hw  227   6.395   4.017   1.881  0.3634 -2.2256 -1.8288
   57SOL     vw  228   6.457   4.073   1.858 -0.9334  0.0372 -0.2450
   58SOL     ow  229   0.036   3.081   2.851 -0.4812 -0.1010 -0.5849
   58SOL     hw  230  -0.041   3.101   2.798 -1.7575  0.4214  1.3483
   58SOL     hw  231   0.026   2.989   2.875 -2.1999  0.6964  2.1345
   58SOL     vw  232   0.025   3.072   2.847 -0.8764  0.0731  0.0288
   59SOL     ow  233   2.349   5.122   3.240 -0.1601  0.3145  0.0843
   59SOL     hw  234   2.398   5.199   3.269 -1.7751  0.3655  3.0499
   59SOL     hw  235   2.292   5.154   3.171  1.2017  1.0942 -0.7145
   59SOL     vw  236   2.348   5.136   3.235 -0.1934  0.4241  0.3701
   60SOL     ow  237   4.461   1.340   4.252 -0.7736 -0.7162 -0.3186
   60SOL     hw  238   4.471   1.247   4.233 -0.1875 -0.5386 -0.9048
   60SOL     hw  239   4.448   1.344   4.347  0.9441 -1.2859 -0.0178
   60SOL     vw  240   4.461   1.328   4.262 -0.4697 -0.7679 -0.3564
   61SOL     ow  241   5.795   1.420   5.086  0.5484  0.0387  0.0386
   61SOL     hw  242   5.861   1.487   5.106 -0.0003  0.4965  0.3344
   61SOL     hw  243   5.714   1.454   5.124  0.6961 -1.8271  2.2053
   61SOL     vw  244   5.793   1.434   5.093  0.4957 -0.1471  0.3636
   62SOL     ow  245   2.673   4.862   4.622  0.5251 -0.1810  0.1041
   62SOL     hw  246   2.647   4.817   4.702  1.5908 -0.4516  0.3237
   62SOL     hw  247   2.766   4.840   4.612  0.2960 -0.5005 -1.4423
   62SOL     vw  248   2.682   4.853   4.631  0.6356 -0.2587 -0.0710
   63SOL     ow  249   4.726   1.362   0.702  0.2967  0.0028  0.0156
   63SOL     hw  250   4.804   1.306   0.701 -0.4481 -1.0628 -0.4542
   63SOL     hw  251   4.655   1.303   0.726 -1.0116  0.0035 -3.3875
   63SOL     vw  252   4.727   1.347   0.705  0.0257 -0.1376 -0.4953
   64SOL     ow  253   6.302   1.913   5.933 -0.0890  0.6822  0.0649
   64SOL     hw  254   6.384   1.944   5.971 -0.0574 -1.0750  1.5743
   64SOL     hw  255   6.237   1.926   6.003 -0.6221 -0.0393 -0.2823
   64SOL     vw  256   6.304   1.919   5.947 -0.1550  0.3551  0.2179
   65SOL     ow  257   0.714   4.774   4.440  0.6561 -0.2676  0.6575
   65SOL     hw  258   0.786   4.836   4.426 -0.0522  0.7978  1.5352
   65SOL     hw  259   0.744   4.720   4.513  1.2195 -0.8894 -0.0201
   65SOL     vw  260   0.728   4.775   4.448  0.6370 -0.2091  0.6840
   66SOL     ow  261   5.670   4.744   2.152  0.1527  0.3161  0.4984
   66SOL     hw  262   5.581   4.727   2.120 -0.3102  0.9581  1.3635
   66SOL     hw  263   5.699   4.660   2.188  0.1758 -0.0732 -0.4205
   66SOL     vw  264   5.662   4.731   2.153  0.0947  0.3498  0.4914
   67SOL     ow  265   3.806   1.368   6.549 -0.2894 -0.4001  0.3109
   67SOL     hw  266   3.839   1.297   6.604 -0.0541 -0.3489  0.2374
   67SOL     hw  267   3.851   1.356   6.466  1.5191  1.1598  0.9806
   67SOL     vw  268   3.817   1.357   6.546 -0.0197 -0.1876  0.3896
   68SOL     ow  269   2.006   3.205   4.351  0.1004  0.2718 -0.1317
   68SOL     hw  270   2.016   3.152   4.429 -1.0276  0.0631 -0.1122
   68SOL     hw  271   2.088   3.194   4.303  0.1857 -0.8506  0.2581
   68SOL     vw  272   2.018   3.197   4.355 -0.0372  0.0961 -0.0780
   69SOL     ow  273   2.201   2.628   2.710 -0.0741  0.1037 -0.2868
   69SOL     hw  274   2.191   2.681   2.789 -0.0814 -0.6724  0.2483
   69SOL     hw  275   2.291   2.644   2.681  0.6040 -1.0959  1.0127
   69SOL     vw  276   2.211   2.637   2.717  0.0144 -0.1569 -0.0447
   70SOL     ow  277   3.132   1.767   6.500 -0.4133  0.6724  0.1497
   70SOL     hw  278   3.081   1.831   6.449 -1.5469 -0.4032 -0.1256
   70SOL     hw  279   3.080   1.687   6.495  0.8983 -0.2323  0.6181
   70SOL     vw  280   3.119   1.765   6.492 -0.3898  0.4112  0.1750
   71SOL     ow  281   4.486   1.541   5.441 -0.0378  0.2109  0.0499
   71SOL     hw  282   4.418   1.477   5.463 -2.2952  1.9360 -1.3822
   71SOL     hw  283   4.464   1.619   5.493  0.2608  1.0898 -1.0860
   71SOL     vw  284   4.474   1.543   5.451 -0.2961  0.5545 -0.2890
   72SOL     ow  285   0.928   2.653   5.508  0.4728 -0.3034 -0.1428
   72SOL     hw  286   0.853   2.654   5.567  0.0528  0.3767 -0.6817
   72SOL     hw  287   0.986   2.722   5.541  0.7074 -0.6021  0.0730
   72SOL     vw  288   0.926   2.662   5.520  0.4484 -0.2532 -0.1855
   73SOL     ow  289   4.665   6.421   6.043 -0.2469  0.1833 -0.1340
   73SOL     hw  290   4.618   6.438   5.961  1.4038  2.3333 -0.7458
   73SOL     hw  291   4.683   6.327   6.041 -2.1089 -0.2070 -1.1485
   73SOL     vw  292   4.661   6.411   6.032 -0.2749  0.4153 -0.3483
   74SOL     ow  293   4.233   6.895   0.100  0.4326 -0.5517  0.2687
   74SOL     hw  294   4.324   6.921   0.115  0.2499  0.0266  0.3993
   74SOL     hw  295   4.183   6.946   0.164  0.0092 -0.8004  0.1366
   74SOL     vw  296   4.238   6.905   0.111  0.3529 -0.5085  0.2685
   75SOL     ow  297   0.100   5.912   2.242 -0.1107 -0.4155 -0.1673
   75SOL     hw  298   0.110   5.818   2.225 -0.4749 -0.4513 -0.1909
   75SOL     hw  299   0.057   5.917   2.327  0.0291 -0.2661 -0.1055
   75SOL     vw  300   0.096   5.900   2.251 -0.1403 -0.4003 -0.1624
   76SOL     ow  301   5.380   4.625   6.316  0.7397  0.2305  0.9554
   76SOL     hw  302   5.353   4.686   6.248  1.0988 -1.1230 -0.4465
   76SOL     hw  303   5.300   4.606   6.365  0.1132 -0.0779 -0.1689
   76SOL     vw  304   5.366   4.630   6.314  0.7043  0.0112  0.6220
   77SOL     ow  305   5.863   4.515   0.141 -0.4138 -0.4589 -0.0921
   77SOL     hw  306   5.907   4.431   0.129 -2.2513 -1.4710 -0.1286
   77SOL     hw  307   5.825   4.510   0.229 -0.8245  0.1875 -0.2287
   77SOL     vw  308   5.864   4.503   0.151 -0.7105 -0.5071 -0.1149
   78SOL     ow  309   3.796   0.462   5.996  0.9028 -0.3280 -0.2639
   78SOL     hw  310   3.859   0.391   6.007 -0.9375 -1.9195  0.6766
   78SOL     hw  311   3.783   0.468   5.901  1.9282 -0.4364 -0.4228
   78SOL     vw  312   3.803   0.453   5.985  0.7952 -0.5523 -0.1609
   79SOL     ow  313   2.779   2.906   3.335  0.4115  0.0443  0.3818
   79SOL     hw  314   2.686   2.925   3.326  0.8621  2.0109 -0.8130
   79SOL     hw  315   2.806   2.878   3.248  0.5918 -2.6058  1.1934
   79SOL     vw  316   2.770   2.904   3.322  0.4946 -0.0459  0.3313
   80SOL     ow  317   6.999   5.672   6.939 -0.2523  0.2167  0.5700
   80SOL     hw  318   7.088   5.684   6.908  0.5941  0.9082  3.0187
   80SOL     hw  319   6.951   5.748   6.905  0.6785  1.0598  1.0759
   80SOL     vw  320   7.004   5.684   6.931 -0.0179  0.4191  0.9599
   81SOL     ow  321   4.754   1.040   1.467  0.6223  0.4834 -0.5060
   81SOL     hw  322   4.751   1.136   1.463  0.9066  0.4825 -0.8828
   81SOL     hw  323   4.812   1.016   1.394  1.5109  0.0799  0.3174
   81SOL     vw  324   4.761   1.050   1.457  0.7770  0.4300 -0.4471
   82SOL     ow  325   3.139   2.916   6.504 -0.2332  0.3438  0.1981
   82SOL     hw  326   3.159   2.991   6.448  0.7263  0.7205  1.0106
   82SOL     hw  327   3.206   2.851   6.481  0.2705  0.5620  0.9923
   82SOL     vw  328   3.151   2.917   6.494 -0.0403  0.4225  0.4101
   83SOL     ow  329   0.819   0.701   1.931  0.1908 -0.4834  0.3659
   83SOL     hw  330   0.724   0.711   1.932  0.2381  0.2685 -0.7241
   83SOL     hw  331   0.833   0.607   1.920 -0.4390 -0.5317 -0.1015
   83SOL     vw  332   0.808   0.690   1.929  0.1139 -0.3905  0.1605
   84SOL     ow  333   1.816   1.032   3.267 -0.1082 -0.3892  0.0450
   84SOL     hw  334   1.762   1.110   3.281  0.4452 -0.0574  0.3608
   84SOL     hw  335   1.872   1.055   3.193  1.4885  0.3088  1.4017
   84SOL     vw  336   1.816   1.046   3.259  0.1756 -0.2534  0.2657
   85SOL     ow  337   4.339   3.015   2.330  0.8574  0.0593  0.3801
   85SOL     hw  338   4.334   3.011   2.234  0.9154  3.3808  0.1178
   85SOL     hw  339   4.375   3.102   2.349  0.5549 -0.3625  3.4458
   85SOL     vw  340   4.343   3.026   2.320  0.8252  0.4418  0.7501
   86SOL     ow  341   5.660   2.209   4.878 -0.3533 -0.4151  0.1631
   86SOL     hw  342   5.739   2.206   4.824 -0.9795  0.9567 -0.8885
   86SOL     hw  343   5.637   2.117   4.892  1.8724 -0.8727  1.2154
   86SOL     vw  344   5.667   2.197   4.873 -0.1428 -0.2944  0.1631
   87SOL     ow  345   2.919   0.709   0.015 -0.0778 -0.0164 -0.3843
   87SOL     hw  346   2.896   0.798   0.040  0.1393  0.1742 -0.8602
   87SOL     hw  347   2.854   0.685  -0.050 -0.6974 -0.5464  0.4074
   87SOL     vw  348   2.908   0.717   0.010 -0.1310 -0.0612 -0.3427
   88SOL     ow  349   6.226   6.298   6.195 -0.3194  0.1146 -0.1656
   88SOL     hw  350   6.148   6.253   6.226 -0.4577 -1.3221 -2.3816
   88SOL     hw  351   6.299   6.249   6.232 -0.4388  0.6444  0.8084
   88SOL     vw  352   6.225   6.286   6.204 -0.3531 -0.0052 -0.3293
   89SOL     ow  353   5.167   6.654   4.504 -0.1013  0.4340 -0.4241
   89SOL     hw  354   5.160   6.629   4.596  2.5818 -2.9872 -0.9397
   89SOL     hw  355   5.242   6.714   4.501 -0.6627  1.1611 -0.3534
   89SOL     vw  356   5.176   6.659   4.516  0.1788  0.0784 -0.4828
   90SOL     ow  357   5.336   6.661   1.346 -0.6093 -0.2865 -0.1382
   90SOL     hw  358   5.376   6.689   1.429 -0.1618  0.9456 -0.7543
   90SOL     hw  359   5.254   6.618   1.373 -0.1232 -0.5699  0.9782
   90SOL     vw  360   5.330   6.659   1.361 -0.4859 -0.1614 -0.0722
   91SOL     ow  361   0.141   0.533   5.163  0.8810 -0.1122 -1.2724
   91SOL     hw  362   0.221   0.521   5.214  1.9115 -0.0305 -2.8315
   91SOL     hw  363   0.148   0.622   5.128 -1.4819  1.2272  1.1857
   91SOL     vw  364   0.152   0.543   5.165  0.7052  0.0753 -1.1539
   92SOL     ow  365   4.890   2.332   1.184  0.1036 -0.0391  0.1280
   92SOL     hw  366   4.795   2.335   1.184  0.0868 -0.4254  0.7840
   92SOL     hw  367   4.912   2.260   1.125 -0.0816 -1.3310  1.5648
   92SOL     vw  368   4.881   2.323   1.176  0.0768 -0.2606  0.4041
   93SOL     ow  369   6.811   1.510   2.267 -0.2522  0.0804 -0.4323
   93SOL     hw  370   6.884   1.474   2.217 -1.2045 -0.1329 -1.7162
   93SOL     hw  371   6.834   1.601   2.281  0.0115  0.1637 -1.3398
   93SOL     vw  372   6.824   1.517   2.262 -0.3431  0.0632 -0.7213
   94SOL     ow  373   5.213   4.228   6.312  0.2247  0.3472  0.3593
   94SOL     hw  374   5.147   4.274   6.365  0.2519  0.1489  0.5656
   94SOL     hw  375   5.194   4.135   6.326 -0.2249  0.2836 -0.5385
   94SOL     vw  376   5.202   4.222   6.321  0.1690  0.3128  0.2682
   95SOL     ow  377   3.699   6.010   7.046 -0.4785 -0.1214 -0.4703
   95SOL     hw  378   3.689   5.978   7.136 -1.5662  1.7881  0.1328
   95SOL     hw  379   3.655   6.095   7.045  0.6655  0.5248 -2.4676
   95SOL     vw  380   3.692   6.017   7.058 -0.4710  0.2158 -0.6542
   96SOL     ow  381   6.448   1.777   5.707 -0.2638  0.2936 -0.2560
   96SOL     hw  382   6.492   1.862   5.705 -0.5075  0.4475  0.5946
   96SOL     hw  383   6.519   1.713   5.705 -0.0055  0.5369  0.6878
   96SOL     vw  384   6.463   1.779   5.707 -0.2620  0.3460 -0.0193
   97SOL     ow  385   2.861   3.628   4.070 -0.1367  0.3256 -0.2699
   97SOL     hw  386   2.905   3.545   4.055 -0.4637  0.1963 -0.5315
   97SOL     hw  387   2.867   3.674   3.986  0.4727  0.7776  0.0096
   97SOL     vw  388   2.867   3.623   4.057 -0.0994  0.3682 -0.2675
   98SOL     ow  389   3.359   1.735   6.696  0.0364  0.1197 -0.2142
   98SOL     hw  390   3.400   1.813   6.733 -0.9447  0.6318 -0.1699
   98SOL     hw  391   3.291   1.769   6.638 -0.2525 -0.7022 -0.3720
   98SOL     vw  392   3.355   1.749   6.693 -0.1312  0.0789 -0.2289
   99SOL     ow  393   2.042   0.646   1.628  0.0810  0.0758  0.2662
   99SOL     hw  394   1.977   0.576   1.622  1.3010 -1.1611  0.8276
   99SOL     hw  395   2.066   0.664   1.537  0.4155 -0.8950  0.1516
   99SOL     vw  396   2.036   0.639   1.615  0.2860 -0.2155  0.3251
  100SOL     ow  397   1.445   4.797   4.658 -0.3809 -0.0682  0.1361
  100SOL     hw  398   1.432   4.885   4.622 -0.2871  0.3187  1.0341
  100SOL     hw  399   1.540   4.784   4.655 -0.4044 -0.1875 -0.1057
  100SOL     vw  400   1.456   4.807   4.653 -0.3716 -0.0329  0.2224
  101SOL     ow  401   2.356   2.763   1.475 -0.1675 -0.2031 -0.2044
  101SOL     hw  402   2.306   2.841   1.498  0.5767  0.3368 -0.3737
  101SOL     hw  403   2.444   2.780   1.511  0.4193 -0.2931 -1.5412
  101SOL     vw  404   2.361   2.775   1.483  0.0080 -0.1438 -0.4030
  102SOL     ow  405   2.047   2.334   0.236 -0.7469 -0.1885 -0.1812
  102SOL     hw  406   1.984   2.326   0.308 -0.3542 -0.6128  0.1207
  102SOL     hw  407   2.018   2.270   0.171 -1.0699  0.1571 -0.3886
  102SOL     vw  408   2.035   2.325   0.237 -0.7378 -0.1990 -0.1688
  103SOL     ow  409   4.409   1.330   3.643 -0.3451  0.4195 -0.1320
  103SOL     hw  410   4.343   1.382   3.688 -1.3282 -1.0158  0.1697
  103SOL     hw  411   4.400   1.353   3.551  0.5848  2.1946  0.1918
  103SOL     vw  412   4.399   1.340   3.637 -0.3521  0.4643 -0.0495
  104SOL     ow  413   4.773   4.443   1.089 -0.0358  0.4557  0.5752
  104SOL     hw  414   4.806   4.463   1.176 -1.9232 -1.3512  1.8129
  104SOL     hw  415   4.848   4.454   1.031  1.8609 -0.3909  2.7405
  104SOL     vw  416   4.787   4.447   1.093 -0.0346  0.1054  1.0242
  105SOL     ow  417   2.689   1.572   6.146 -0.2777 -0.0554  0.6399
  105SOL     hw  418   2.703   1.629   6.222 -1.9859  0.7538  0.4112
  105SOL     hw  419   2.678   1.633   6.073 -1.9408 -0.6262  0.3565
  105SOL     vw  420   2.689   1.588   6.147 -0.7225 -0.0240  0.5724
  106SOL     ow  421   6.126   5.679   6.434  0.6027 -0.1279 -0.4784
  106SOL     hw  422   6.088   5.692   6.347  2.7519 -2.6225 -1.9498
  106SOL     hw  423   6.058   5.634   6.483 -0.3855  0.6510 -1.0842
  106SOL     vw  424   6.112   5.674   6.429  0.7558 -0.3541 -0.7524
  107SOL     ow  425   0.251   0.272   3.364  0.1987 -0.2223 -0.3579
  107SOL     hw  426   0.311   0.335   3.323  1.9104 -0.8944  1.0079
  107SOL     hw  427   0.289   0.186   3.345 -1.0268 -0.7587 -0.5084
  107SOL     vw  428   0.264   0.269   3.356  0.2628 -0.3817 -0.1975
  108SOL     ow  429   2.659   1.965   6.258  0.1135  0.0988 -0.1404
  108SOL     hw  430   2.699   1.881   6.284  1.0519  0.3182 -0.8237
  108SOL     hw  431   2.566   1.954   6.278 -0.1816 -1.9104 -2.1229
  108SOL     vw  432   2.652   1.952   6.264  0.1982 -0.1374 -0.4923
  109SOL     ow  433   0.558   3.389   5.169 -0.0056  0.0399  0.0321
  109SOL     hw  434   0.557   3.297   5.143  0.0008 -0.2362  0.9575
  109SOL     hw  435   0.643   3.402   5.210 -0.2893  0.2579  0.5728
  109SOL     vw  436   0.569   3.379   5.171 -0.0422  0.0321  0.2255
  110SOL     ow  437   6.842   2.520   0.176 -0.4642  0.1831  0.1254
  110SOL     hw  438   6.778   2.590   0.164  0.4816  0.6384 -3.1393
  110SOL     hw  439   6.790   2.440   0.176 -1.2131  0.6556 -0.5415
  110SOL     vw  440   6.827   2.519   0.175 -0.4385  0.3055 -0.3933
  111SOL     ow  441   0.467   1.592   4.185  0.7637 -0.0023  0.0034
  111SOL     hw  442   0.471   1.673   4.132  1.7982 -1.0469 -1.6118
  111SOL     hw  443   0.397   1.541   4.144  3.2931 -1.9786 -2.2731
  111SOL     vw  444   0.459   1.596   4.172  1.2339 -0.4008 -0.5100
  112SOL     ow  445   4.778   0.813   5.113 -0.0828 -0.1873 -0.6776
  112SOL     hw  446   4.754   0.781   5.026  0.1839 -0.2279 -0.7377
  112SOL     hw  447   4.826   0.894   5.096 -0.8294  0.3032 -0.5245
  112SOL     vw  448   4.781   0.820   5.099 -0.1459 -0.1279 -0.6654
  113SOL     ow  449   3.165   0.693   7.133 -0.1832 -0.2345  0.3633
  113SOL     hw  450   3.080   0.699   7.176 -0.8103 -0.2884 -0.8228
  113SOL     hw  451   3.228   0.688   7.204 -1.2388 -1.1099  1.2545
  113SOL     vw  452   3.162   0.693   7.148 -0.4053 -0.3571  0.3242
  114SOL     ow  453   5.993   0.145   6.328  0.6027 -0.0256  0.1593
  114SOL     hw  454   5.900   0.126   6.321  0.9209 -2.1259  0.8127
  114SOL     hw  455   6.027   0.134   6.239  0.2100  0.9612 -0.1212
  114SOL     vw  456   5.985   0.141   6.316  0.5927 -0.1725  0.2086
  115SOL     ow  457   2.569   5.355   2.595  0.1056 -0.1311  0.5462
  115SOL     hw  458   2.540   5.443   2.619  1.8673  0.3463  1.1047
  115SOL     hw  459   2.490   5.301   2.598 -0.5687  0.8928  2.8175
  115SOL     vw  460   2.555   5.359   2.598  0.2490  0.0668  0.9196
  116SOL     ow  461   3.604   3.577   2.554  0.0001  0.6670  0.7282
  116SOL     hw  462   3.532   3.513   2.554  1.2822 -0.8449  0.7707
  116SOL     hw  463   3.673   3.534   2.603  1.3537  1.5913 -0.3040
  116SOL     vw  464   3.603   3.563   2.560  0.3477  0.5894  0.5976
  117SOL     ow  465   6.645   5.342   2.435 -0.1565 -0.0705 -0.0601
  117SOL     hw  466   6.589   5.280   2.389 -1.0651 -1.0489  2.2756
  117SOL     hw  467   6.617   5.428   2.403 -1.7228 -0.6452 -0.2926
  117SOL     vw  468   6.634   5.345   2.424 -0.4830 -0.2751  0.2174
  118SOL     ow  469   4.891   3.488   5.512  0.4116 -0.8460 -0.6426
  118SOL     hw  470   4.845   3.405   5.516 -1.1895 -0.0372 -1.1367
  118SOL     hw  471   4.955   3.478   5.442 -0.4263 -1.3572 -1.3427
  118SOL     vw  472   4.893   3.476   5.503  0.0896 -0.8067 -0.8001
  119SOL     ow  473   3.966   5.977   6.821  0.3118  0.4854 -0.0521
  119SOL     hw  474   4.039   6.031   6.850  0.3813  0.7115 -0.6364
  119SOL     hw  475   3.989   5.951   6.732  0.0837 -0.1624  0.0741
  119SOL     vw  476   3.979   5.981   6.813  0.2909  0.4296 -0.1125
  120SOL     ow  477   4.658   3.915   0.997 -0.2738  0.1046  0.2304
  120SOL     hw  478   4.620   3.850   1.058 -0.9941 -0.0014 -0.3112
  120SOL     hw  479   4.751   3.895   0.996 -0.5175 -1.1396 -0.1510
  120SOL     vw  480   4.665   3.903   1.005 -0.4013 -0.0734  0.1086
  121SOL     ow  481   6.421   0.636   3.812 -0.6518  0.3753  0.1896
  121SOL     hw  482   6.353   0.678   3.758 -0.8015 -0.9715 -0.7186
  121SOL     hw  483   6.500   0.687   3.796 -1.1260  1.1185  0.1689
  121SOL     vw  484   6.422   0.648   3.803 -0.7339  0.2957  0.0671
  122SOL     ow  485   6.882   5.640   1.401 -0.6285 -0.3727  0.1022
  122SOL     hw  486   6.880   5.644   1.497  0.4846 -3.1425  0.3539
  122SOL     hw  487   6.808   5.584   1.379  1.1184 -2.7014 -0.2677
  122SOL     vw  488   6.872   5.633   1.411 -0.2511 -1.0455  0.0866
  123SOL     ow  489   2.834   6.664   5.434  0.0857 -0.4277 -0.3291
  123SOL     hw  490   2.829   6.759   5.443  1.1521 -0.5274  1.9504
  123SOL     hw  491   2.908   6.649   5.376 -0.1211  0.1323 -0.7429
  123SOL     vw  492   2.843   6.675   5.428  0.1991 -0.3667 -0.0827
  124SOL     ow  493   0.314   1.515   4.485  0.2488  0.0757  0.0987
  124SOL     hw  494   0.337   1.423   4.491 -1.0503 -0.4469 -1.9600
  124SOL     hw  495   0.226   1.516   4.449  0.3706  2.1400 -0.2889
  124SOL     vw  496   0.306   1.503   4.481  0.0935  0.2790 -0.2241
  125SOL     ow  497   2.332   5.988   4.574 -0.4423 -0.4355  0.5493
  125SOL     hw  498   2.308   5.896   4.564 -1.3080 -0.2207  0.5369
  125SOL     hw  499   2.301   6.031   4.494  1.0433 -0.3264  0.0048
  125SOL     vw  500   2.325   5.982   4.562 -0.3606 -0.3929  0.4756
  126SOL     ow  501   6.455   2.282   2.407  0.2782  0.4238 -0.1479
  126SOL     hw  502   6.540   2.291   2.451 -1.0642  1.7667  2.4042
  126SOL     hw  503   6.404   2.227   2.466 -0.6586 -0.3562 -1.6431
  126SOL     vw  504   6.460   2.276   2.421 -0.0222  0.4981 -0.0083
  127SOL     ow  505   6.287   2.752   5.700  0.1948 -0.0384  0.2711
  127SOL     hw  506   6.230   2.770   5.775  2.7375  1.1380  2.0960
  127SOL     hw  507   6.305   2.658   5.705 -0.5179 -0.1637  0.4815
  127SOL     vw  508   6.282   2.742   5.711  0.4365  0.1003  0.5395
  128SOL     ow  509   0.158   2.941   0.378 -0.3419 -0.1501 -0.0741
  128SOL     hw  510   0.152   2.845   0.374 -1.3189 -0.0820 -0.2622
  128SOL     hw  511   0.129   2.971   0.293  3.0908  0.2264 -1.2977
  128SOL     vw  512   0.154   2.932   0.366 -0.0179 -0.0914 -0.2603
  129SOL     ow  513   3.050   2.316   4.417  0.0755 -0.1493 -0.0427
  129SOL     hw  514   3.059   2.250   4.486  1.5632  0.6803  0.6201
  129SOL     hw  515   2.992   2.382   4.454  2.2487  1.1811  1.2284
  129SOL     vw  516   3.044   2.316   4.431  0.5586  0.1357  0.2122
  130SOL     ow  517   1.656   1.340   5.114 -0.0494 -0.3678 -0.6930
  130SOL     hw  518   1.718   1.288   5.166 -0.4472 -1.4050 -1.2309
  130SOL     hw  519   1.711   1.382   5.048  0.2874 -0.0268 -0.2044
  130SOL     vw  520   1.672   1.338   5.112 -0.0575 -0.4596 -0.6990
  131SOL     ow  521   4.764   1.349   6.746  0.4009 -0.1204 -0.6515
  131SOL     hw  522   4.754   1.432   6.791  0.1306  0.8255 -2.3783
  131SOL     hw  523   4.859   1.337   6.737  0.4321  0.4606 -1.1762
  131SOL     vw  524   4.775   1.358   6.751  0.3693  0.0811 -0.9487
  132SOL     ow  525   6.273   7.135   1.220 -0.5371 -0.0333  0.2526
  132SOL     hw  526   6.281   7.160   1.312 -0.2907  0.7475  0.0266
  132SOL     hw  527   6.180   7.116   1.209 -1.1071  2.5670  0.0143
  132SOL     vw  528   6.262   7.136   1.231 -0.5801  0.4129  0.1914
  133SOL     ow  529   6.642   1.821   3.867  0.1143  0.2264 -0.0880
  133SOL     hw  530   6.732   1.789   3.863 -0.5747 -2.2054  1.7075
  133SOL     hw  531   6.610   1.793   3.952 -2.3944  0.9434 -0.7061
  133SOL     vw  532   6.650   1.813   3.877 -0.3076  0.0002  0.0675
  134SOL     ow  533   6.781   1.896   1.832  0.0701  0.1187 -0.0463
  134SOL     hw  534   6.758   1.889   1.739 -1.1432 -0.3262  0.2799
  134SOL     hw  535   6.723   1.835   1.877  0.0400  0.9547  1.1080
  134SOL     vw  536   6.771   1.887   1.826 -0.0937  0.1704  0.1491
  135SOL     ow  537   1.552   0.935   2.471 -0.2985  0.1864 -0.4847
  135SOL     hw  538   1.474   0.977   2.435 -1.4010  0.0445  1.5590
  135SOL     hw  539   1.536   0.841   2.459  0.2867  0.2019 -1.4358
  135SOL     vw  540   1.540   0.928   2.465 -0.3669  0.1697 -0.3407
  136SOL     ow  541   1.951   6.846   2.950 -0.1137 -0.0949  0.6872
  136SOL     hw  542   1.984   6.854   3.040 -0.5011 -1.4263  0.9729
  136SOL     hw  543   1.935   6.936   2.923 -1.6967  0.2798  2.6154
  136SOL     vw  544   1.953   6.859   2.958 -0.3737 -0.2210  0.9793
  137SOL     ow  545   2.263   3.277   6.084 -0.3023 -0.0850  0.1993
  137SOL     hw  546   2.172   3.262   6.058 -1.2338  3.3481  0.9004
  137SOL     hw  547   2.268   3.244   6.174 -0.6618 -0.8401 -0.0490
  137SOL     vw  548   2.251   3.271   6.093 -0.4725  0.2681  0.2592
  138SOL     ow  549   2.202   5.906   1.946 -0.2252 -0.4919  0.7296
  138SOL     hw  550   2.272   5.904   2.012  0.0632  1.7196  0.5587
  138SOL     hw  551   2.128   5.945   1.991 -0.6312 -0.7259  0.2706
  138SOL     vw  552   2.202   5.911   1.961 -0.2407 -0.2308  0.6465
  139SOL     ow  553   0.545   4.449   3.806  0.1303 -0.1830 -0.3162
  139SOL     hw  554   0.482   4.380   3.827  0.4147 -0.7234 -1.1718
  139SOL     hw  555   0.627   4.419   3.844 -0.3733  1.1455  1.9409
  139SOL     vw  556   0.548   4.436   3.814  0.1014 -0.0789 -0.1312
  140SOL     ow  557   5.993   3.841   3.598 -0.2696 -0.6279 -0.0705
  140SOL     hw  558   5.951   3.869   3.680  0.2146 -0.9251  0.2802
  140SOL     hw  559   5.942   3.885   3.530  0.8391  1.6441  0.4772
  140SOL     vw  560   5.981   3.851   3.600 -0.0594 -0.3674  0.0480
  141SOL     ow  561   3.303   3.198   6.625 -0.1005  0.2013 -0.1175
  141SOL     hw  562   3.295   3.282   6.581  0.4238  0.4304  0.2212
  141SOL     hw  563   3.397   3.185   6.637 -0.1838 -0.3637 -0.0340
  141SOL     vw  564   3.314   3.207   6.621 -0.0422  0.1571 -0.0618
  142SOL     ow  565   0.694   1.860   1.850  0.4416  0.0727  0.2371
  142SOL     hw  566   0.711   1.769   1.826 -0.8245  0.3855 -2.1279
  142SOL     hw  567   0.760   1.910   1.802 -0.1288  0.5289 -0.0826
  142SOL     vw  568   0.705   1.855   1.841  0.1993  0.1741 -0.1171
  143SOL     ow  569   6.376   3.285   4.625 -0.1151 -0.0714 -0.1189
  143SOL     hw  570   6.428   3.327   4.556  0.7557 -0.6731  0.1553
  143SOL     hw  571   6.425   3.206   4.647 -1.6814 -1.2118 -0.5631
  143SOL     vw  572   6.389   3.280   4.618 -0.2069 -0.3012 -0.1411
  144SOL     ow  573   0.950   1.711   2.434  0.0075 -0.1366 -0.0300
  144SOL     hw  574   0.984   1.622   2.445  0.3265  0.0013  0.1177
  144SOL     hw  575   1.028   1.766   2.425 -0.1607  0.2427  0.7540
  144SOL     vw  576   0.965   1.707   2.434  0.0274 -0.0684  0.0929
  145SOL     ow  577   6.591   0.048   3.185  0.0176 -0.3857 -0.0294
  145SOL     hw  578   6.585   0.122   3.124  1.1724  0.4924  0.8890
  145SOL     hw  579   6.601  -0.028   3.128 -2.1626 -0.0028 -1.0367
  145SOL     vw  580   6.591   0.048   3.169 -0.1178 -0.2193 -0.0411
  146SOL     ow  581   5.843   0.881   2.075 -0.3528  0.4647  0.0350
  146SOL     hw  582   5.800   0.880   1.989  0.5337  1.0823 -0.4273
  146SOL     hw  583   5.814   0.962   2.115 -1.6752 -0.3587  0.8149
  146SOL     vw  584   5.834   0.891   2.069 -0.4101  0.4376  0.0769
  147SOL     ow  585   5.075   3.071   6.130  0.2660  0.4135 -0.0587
  147SOL     hw  586   5.049   3.001   6.071 -0.1044  0.0081  0.5728
  147SOL     hw  587   5.131   3.028   6.195 -0.3679  0.6008  0.6204
  147SOL     vw  588   5.079   3.056   6.131  0.1333  0.3847  0.1140
  148SOL     ow  589   5.094   1.880   2.495 -0.3968 -0.5535 -0.8863
  148SOL     hw  590   5.068   1.788   2.492 -0.2160 -0.6132 -0.7006
  148SOL     hw  591   5.185   1.880   2.465  0.1049 -0.6405  0.5372
  148SOL     vw  592   5.103   1.868   2.491 -0.3066 -0.5729 -0.6740
  149SOL     ow  593   5.515   5.643   1.675  0.0418  0.0735  0.0542
  149SOL     hw  594   5.538   5.709   1.610 -0.0899 -0.2030 -0.2755
  149SOL     hw  595   5.599   5.607   1.704  0.2126  1.4641  1.3852
  149SOL     vw  596   5.529   5.647   1.671  0.0470  0.2205  0.1863
  150SOL     ow  597   0.153   6.259   5.312  0.7486  0.6645 -0.6081
  150SOL     hw  598   0.160   6.247   5.407 -2.4681 -3.7655 -0.5794
  150SOL     hw  599   0.078   6.318   5.301  0.1258 -0.0505 -0.3107
  150SOL     vw  600   0.144   6.265   5.323  0.2420 -0.0145 -0.5653
  151SOL     ow  601   4.759   0.031   4.685 -0.2800  0.3941  0.2003
  151SOL     hw  602   4.706  -0.013   4.752 -0.1949  0.3030  0.2084
  151SOL     hw  603   4.695   0.075   4.629 -0.5179 -1.1829 -0.8592
  151SOL     vw  604   4.744   0.031   4.686 -0.3002  0.1740  0.0615
  152SOL     ow  605   3.627   1.966   6.087 -0.9242 -0.7379  0.1529
  152SOL     hw  606   3.633   2.008   6.001 -0.8181 -1.5882 -0.2656
  152SOL     hw  607   3.541   1.992   6.121 -1.1675 -0.7887 -0.4194
  152SOL     vw  608   3.617   1.975   6.080 -0.9422 -0.8568  0.0224
  153SOL     ow  609   1.979   4.073   6.913 -0.2963 -0.1310 -0.1393
  153SOL     hw  610   1.925   4.065   6.992  1.2328 -1.8743  0.7952
  153SOL     hw  611   1.925   4.037   6.843 -0.7794 -0.8011  0.5671
  153SOL     vw  612   1.965   4.067   6.914 -0.1583 -0.4492  0.0770
  154SOL     ow  613   4.387   2.334   3.297  0.0704  0.3365  0.1128
  154SOL     hw  614   4.470   2.339   3.346  0.2870 -0.5473 -0.1484
  154SOL     hw  615   4.409   2.285   3.218 -0.8788 -0.6540  0.4378
  154SOL     vw  616   4.401   2.328   3.293 -0.0262  0.0892  0.1212
  155SOL     ow  617   6.689   2.198   2.221 -0.0727  0.6451 -0.6122
  155SOL     hw  618   6.720   2.285   2.248  0.6801  0.8486 -2.0490
  155SOL     hw  619   6.738   2.179   2.141  0.4570 -1.5114  0.1638
  155SOL     vw  620   6.700   2.207   2.214  0.0966  0.3874 -0.6994
  156SOL     ow  621   0.017   5.639   1.949 -0.1732 -0.3901 -0.1209
  156SOL     hw  622   0.061   5.605   1.871  1.9279  0.5808  0.5537
  156SOL     hw  623   0.015   5.734   1.936 -1.2182 -0.3348  0.3318
  156SOL     vw  624   0.023   5.647   1.937 -0.0343 -0.2549  0.0278
  157SOL     ow  625   3.399   5.588   1.524  0.1247 -0.0090 -0.0676
  157SOL     hw  626   3.485   5.629   1.524  0.0453  0.2858  1.8035
  157SOL     hw  627   3.351   5.633   1.455  1.2312  0.3584 -0.6195
  157SOL     vw  628   3.404   5.599   1.515  0.2602  0.0782  0.1065
  158SOL     ow  629   1.717   3.270   4.243 -0.1872  0.2955 -0.0679
  158SOL     hw  630   1.624   3.280   4.259 -0.2161  1.2036 -0.7080
  158SOL     hw  631   1.722   3.223   4.159 -0.0890  1.4177 -0.7050
  158SOL     vw  632   1.705   3.265   4.234 -0.1781  0.5635 -0.2365
  159SOL     ow  633   6.308   5.028   1.873  0.1077 -0.2241  0.4032
  159SOL     hw  634   6.309   4.935   1.896  1.2883 -0.0164  1.2892
  159SOL     hw  635   6.363   5.070   1.939  0.0836  1.0303 -0.3306
  159SOL     vw  636   6.315   5.022   1.885  0.2601 -0.0312  0.4233
  160SOL     ow  637   3.726   4.966   6.399 -0.1299  0.1782  0.2153
  160SOL     hw  638   3.750   4.875   6.380  2.1388  0.6506  0.5326
  160SOL     hw  639   3.801   5.001   6.447 -1.8018  1.6758  1.8914
  160SOL     vw  640   3.739   4.959   6.403 -0.0513  0.4382  0.4783
  161SOL     ow  641   0.021   6.517   0.449  0.6944  0.0188 -0.0213
  161SOL     hw  642  -0.018   6.604   0.463  1.3264  0.1145  1.3336
  161SOL     hw  643  -0.050   6.466   0.410 -0.2964  0.6331  0.9036
  161SOL     vw  644   0.006   6.522   0.446  0.6468  0.1125  0.2795
  162SOL     ow  645   1.469   6.638   0.242 -0.2247  0.8615  0.4207
  162SOL     hw  646   1.462   6.708   0.177  0.2876  2.6004  2.1173
  162SOL     hw  647   1.563   6.618   0.245 -0.0159  1.8820  1.6371
  162SOL     vw  648   1.481   6.645   0.234 -0.1296  1.2257  0.8050
  163SOL     ow  649   6.159   7.048   3.688  0.4310 -0.4197 -0.5073
  163SOL     hw  650   6.183   6.979   3.627  2.9879 -0.1686  0.0714
  163SOL     hw  651   6.085   7.013   3.738 -0.7445 -1.1882 -2.6919
  163SOL     vw  652   6.152   7.034   3.687  0.6132 -0.4878 -0.7191
  164SOL     ow  653   0.083   6.631   3.082  0.1647  0.0596 -0.8152
  164SOL     hw  654  -0.004   6.618   3.043  0.2828  1.5729 -1.6646
  164SOL     hw  655   0.139   6.652   3.007  1.4858 -1.7227 -0.3971
  164SOL     vw  656   0.079   6.632   3.067  0.3547  0.0241 -0.8721
  165SOL     ow  657   2.445   6.471   5.803  0.5523  0.1345 -0.4187
  165SOL     hw  658   2.440   6.375   5.810  2.4653  0.0420  0.3376
  165SOL     hw  659   2.406   6.502   5.885  1.9264 -0.1018  0.3455
  165SOL     vw  660   2.439   6.462   5.815  0.9860  0.0913 -0.2179
  166SOL     ow  661   5.455   3.069   3.601 -0.0238  0.1151 -0.2766
  166SOL     hw  662   5.382   3.040   3.546 -0.9472 -1.5576  1.6911
  166SOL     hw  663   5.519   2.999   3.596  0.9620  1.0322 -1.0308
  166SOL     vw  664   5.454   3.056   3.593 -0.0157  0.0155 -0.1166
  167SOL     ow  665   0.959   1.832   5.603  0.0970 -0.4207  0.7585
  167SOL     hw  666   0.968   1.750   5.651  0.8511 -1.0657 -0.4402
  167SOL     hw  667   0.866   1.839   5.582  0.1025 -1.2199  0.4511
  167SOL     vw  668   0.948   1.822   5.606  0.1972 -0.6112  0.5598
  168SOL     ow  669   2.663   3.468   5.749 -0.2464  0.1646 -0.3871
  168SOL     hw  670   2.710   3.467   5.832  0.6766 -2.0890 -0.8500
  168SOL     hw  671   2.676   3.380   5.713 -1.7203  0.6524 -2.3093
  168SOL     vw  672   2.671   3.456   5.755 -0.3190 -0.0684 -0.7019
  169SOL     ow  673   3.026   4.237   3.231 -0.6220  0.0909  0.2403
  169SOL     hw  674   2.942   4.237   3.185 -0.9749 -0.1162  0.8721
  169SOL     hw  675   3.055   4.146   3.230 -0.4041  0.1623  0.0222
  169SOL     vw  676   3.019   4.225   3.225 -0.6398  0.0732  0.2949
  170SOL     ow  677   2.944   0.508   0.819  0.3745 -0.2622  0.0705
  170SOL     hw  678   3.016   0.467   0.772  1.0986  1.3210 -0.2557
  170SOL     hw  679   2.976   0.521   0.908 -0.4199 -1.7704  0.6237
  170SOL     vw  680   2.958   0.505   0.825  0.3651 -0.2523  0.1004
  171SOL     ow  681   7.170   5.103   5.890  0.2670  0.0309  0.1602
  171SOL     hw  682   7.146   5.185   5.847  0.9559 -1.1114 -2.6546
  171SOL     hw  683   7.160   5.036   5.822  0.8876 -2.0582  1.9836
  171SOL     vw  684   7.166   5.105   5.875  0.4399 -0.3955  0.0293
  172SOL     ow  685   2.856   6.134   0.003 -0.2365 -0.4792 -0.3491
  172SOL     hw  686   2.857   6.219   0.048  0.0888  0.0613 -1.3458
  172SOL     hw  687   2.813   6.075   0.064  2.1318 -0.3157  1.6466
  172SOL     vw  688   2.851   6.138   0.017  0.1189 -0.3862 -0.2173
  173SOL     ow  689   2.894   4.342   6.007 -0.1546  0.0997 -0.4541
  173SOL     hw  690   2.867   4.381   6.090 -0.6424 -2.3485  0.6296
  173SOL     hw  691   2.814   4.303   5.972  0.3114 -0.0089 -1.4302
  173SOL     vw  692   2.880   4.342   6.014 -0.1576 -0.2377 -0.4401
  174SOL     ow  693   3.443   4.770   6.448  0.3174  0.2766  0.1598
  174SOL     hw  694   3.353   4.777   6.416 -0.1979 -0.8373  1.2525
  174SOL     hw  695   3.479   4.696   6.399  1.6197  2.4222 -2.3279
  174SOL     vw  696   3.436   4.761   6.438  0.4212  0.4129 -0.0241
  175SOL     ow  697   4.660   3.551   3.945 -0.2016 -0.0068  0.3201
  175SOL     hw  698   4.635   3.511   3.862 -0.0880  0.1934  0.1899
  175SOL     hw  699   4.580   3.550   3.997 -0.9807  2.1975 -0.6993
  175SOL     vw  700   4.647   3.546   3.941 -0.2892  0.3104  0.1684
  176SOL     ow  701   7.127   1.862   5.549  0.1377  0.4693 -0.0488
  176SOL     hw  702   7.129   1.892   5.639 -0.0303  1.5611 -0.3885
  176SOL     hw  703   7.042   1.893   5.516  0.6963  1.1362 -0.9080
  176SOL     vw  704   7.116   1.870   5.556  0.1891  0.7013 -0.2072
  177SOL     ow  705   3.461   2.460   2.231 -0.2223  0.1765  0.7699
  177SOL     hw  706   3.514   2.501   2.299 -0.0595  0.3699  0.5282
  177SOL     hw  707   3.504   2.484   2.149  1.9332 -3.2978  0.6951
  177SOL     vw  708   3.474   2.469   2.229  0.0836 -0.2563  0.7281
  178SOL     ow  709   5.005   1.639   2.493  0.4670 -0.0589 -0.4396
  178SOL     hw  710   4.922   1.630   2.539  0.7875 -0.0632  0.1569
  178SOL     hw  711   5.046   1.552   2.502  0.4851 -0.0876 -0.8183
  178SOL     vw  712   5.000   1.626   2.501  0.5116 -0.0632 -0.4109
  179SOL     ow  713   0.645   0.773   4.239  0.7885 -0.0936  0.0297
  179SOL     hw  714   0.738   0.789   4.253  0.5227  0.1782  1.6981
  179SOL     hw  715   0.612   0.855   4.201  1.1302 -0.0235 -0.1195
  179SOL     vw  716   0.653   0.786   4.236  0.7985 -0.0485  0.2298
  180SOL     ow  717   5.656   6.596   4.130 -0.0599  0.1893  0.2059
  180SOL     hw  718   5.743   6.620   4.163  0.9123 -0.4287 -1.7260
  180SOL     hw  719   5.636   6.663   4.065 -0.1628 -0.6802 -0.6920
  180SOL     vw  720   5.665   6.608   4.126  0.0548 -0.0069 -0.1676
  181SOL     ow  721   3.069   2.396   6.493  0.1010  0.4103 -0.4551
  181SOL     hw  722   3.127   2.402   6.569  1.4500 -0.1548 -1.3936
  181SOL     hw  723   2.992   2.350   6.525  0.2437  1.0063  0.7870
  181SOL     vw  724   3.067   2.391   6.507  0.2978  0.4145 -0.4153
  182SOL     ow  725   5.904   2.029   4.153  0.2050  0.2548 -0.8358
  182SOL     hw  726   5.829   2.073   4.195 -0.2848 -0.4853 -0.9090
  182SOL     hw  727   5.864   1.961   4.100  0.9090  0.2706 -1.3943
  182SOL     vw  728   5.888   2.026   4.152  0.2332  0.1593 -0.9191
  183SOL     ow  729   6.847   5.439   5.822  0.3615 -0.5924 -0.1370
  183SOL     hw  730   6.883   5.401   5.742  1.0467  0.7651 -0.5026
  183SOL     hw  731   6.777   5.379   5.847 -0.1240 -0.8480 -1.9579
  183SOL     vw  732   6.843   5.426   5.815  0.3879 -0.4470 -0.4258
  184SOL     ow  733   0.131   3.762   5.057  0.7852  0.1493  0.2537
  184SOL     hw  734   0.055   3.782   5.111 -0.6279  3.2613 -2.5419
  184SOL     hw  735   0.169   3.847   5.036  1.7742 -0.9042 -2.7932
  184SOL     vw  736   0.126   3.776   5.062  0.7292  0.4210 -0.5169
  185SOL     ow  737   6.821   6.878   2.104 -0.0023  0.3496 -0.3662
  185SOL     hw  738   6.744   6.918   2.063  0.2811  1.2300 -0.0521
  185SOL     hw  739   6.880   6.951   2.121  0.6518 -0.2451 -0.0455
  185SOL     vw  740   6.818   6.893   2.101  0.1216  0.3874 -0.2825
  186SOL     ow  741   1.441   1.454   4.889 -0.4233  0.1801  0.6501
  186SOL     hw  742   1.431   1.540   4.849 -0.1670 -0.0400  0.1109
  186SOL     hw  743   1.418   1.392   4.820 -2.1941 -0.1652  1.4911
  186SOL     vw  744   1.436   1.457   4.875 -0.6231  0.1054  0.6902
  187SOL     ow  745   3.027   3.200   0.278  0.1820  0.0002  0.3757
  187SOL     hw  746   2.969   3.134   0.240 -0.1140  0.5633 -0.1525
  187SOL     hw  747   3.097   3.149   0.319 -0.3695 -0.6631  0.5068
  187SOL     vw  748   3.029   3.184   0.278  0.0701 -0.0129  0.3233
  188SOL     ow  749   2.305   2.510   4.547 -0.6375 -0.5902  0.3289
  188SOL     hw  750   2.397   2.511   4.573 -0.3306  0.9276 -0.6513
  188SOL     hw  751   2.271   2.594   4.578 -0.8318  0.2765 -2.0258
  188SOL     vw  752   2.313   2.521   4.555 -0.6227 -0.2756 -0.1109
  189SOL     ow  753   4.551   6.163   1.609 -0.2980  0.0316  0.2764
  189SOL     hw  754   4.570   6.181   1.517  0.6275  0.1873  0.4955
  189SOL     hw  755   4.466   6.118   1.607  0.1832 -0.8806 -0.7366
  189SOL     vw  756   4.542   6.159   1.597 -0.1123 -0.0682  0.1717
  190SOL     ow  757   3.631   0.218   6.251  0.1944  0.0764 -0.2211
  190SOL     hw  758   3.543   0.256   6.240  1.0162  2.1152 -0.2431
  190SOL     hw  759   3.651   0.233   6.343  0.1436 -1.3152  0.0328
  190SOL     vw  760   3.622   0.225   6.262  0.2960  0.1618 -0.1905
  191SOL     ow  761   7.085   5.537   0.807  0.3918 -0.0183 -0.2510
  191SOL     hw  762   7.119   5.465   0.860 -0.6064 -1.5830 -1.6078
  191SOL     hw  763   7.058   5.495   0.725 -0.3435  1.9033 -1.0560
  191SOL     vw  764   7.086   5.522   0.803  0.1628  0.0286 -0.5362
  192SOL     ow  765   2.737   1.697   0.141  0.0015 -0.1535  0.2871
  192SOL     hw  766   2.665   1.707   0.203 -1.6618  1.6386 -1.7649
  192SOL     hw  767   2.774   1.786   0.133  1.0127 -0.6096 -0.3294
  192SOL     vw  768   2.732   1.710   0.148 -0.0846  0.0228 -0.0649
  193SOL     ow  769   2.234   1.644   5.059  0.3343 -0.1562 -0.1107
  193SOL     hw  770   2.206   1.722   5.011  2.9803 -0.2224 -1.9446
  193SOL     hw  771   2.159   1.585   5.055 -0.3620  0.7922 -2.0995
  193SOL     vw  772   2.220   1.646   5.052  0.5916 -0.0399 -0.6149
  194SOL     ow  773   1.618   2.303   2.832  0.1231 -0.0070  0.4630
  194SOL     hw  774   1.659   2.384   2.803 -2.4165  1.3053  0.2688
  194SOL     hw  775   1.559   2.330   2.903 -0.2083 -1.8031  0.9119
  194SOL     vw  776   1.615   2.317   2.838 -0.2557 -0.0708  0.4966
  195SOL     ow  777   4.125   2.893   4.502 -0.2622  0.2761  0.2721
  195SOL     hw  778   4.214   2.866   4.522 -0.6268  0.0330  1.6578
  195SOL     hw  779   4.126   2.988   4.517 -0.0467  0.4007 -0.4899
  195SOL     vw  780   4.137   2.902   4.507 -0.2816  0.2605  0.3543
  196SOL     ow  781   5.540   6.591   0.647 -0.0552  0.6183  0.3326
  196SOL     hw  782   5.574   6.539   0.574 -1.2933 -0.3634  0.4123
  196SOL     hw  783   5.592   6.565   0.722 -0.3622 -0.2039  0.2745
  196SOL     vw  784   5.551   6.580   0.647 -0.2589  0.3805  0.3355
  197SOL     ow  785   5.021   1.295   6.733  0.3687 -0.2326 -0.4520
  197SOL     hw  786   5.074   1.374   6.727 -1.3219  1.0909  0.8802
  197SOL     hw  787   5.047   1.242   6.657  0.6085  2.1853 -2.1683
  197SOL     vw  788   5.031   1.299   6.722  0.1771  0.2611 -0.5028
  198SOL     ow  789   1.740   7.092   3.719 -0.5438  0.3783 -0.9322
  198SOL     hw  790   1.652   7.096   3.681 -0.7719 -0.5423 -0.5411
  198SOL     hw  791   1.779   7.177   3.700 -2.1800  1.5234  0.4583
  198SOL     vw  792   1.733   7.104   3.712 -0.7898  0.4082 -0.6971
  199SOL     ow  793   5.985   1.848   4.333  0.0958  0.0794  0.2114
  199SOL     hw  794   5.954   1.873   4.420 -0.7403  0.2860 -0.1366
  199SOL     hw  795   5.941   1.908   4.274  0.6938 -0.0340 -0.3554
  199SOL     vw  796   5.975   1.859   4.337  0.0646  0.0917  0.0906
  200SOL     ow  797   0.024   1.828   6.861  0.1956  0.1639  0.4060
  200SOL     hw  798  -0.049   1.771   6.886 -0.3062  0.8118  0.4194
  200SOL     hw  799   0.004   1.912   6.901 -0.2677  1.0391 -1.5481
  200SOL     vw  800   0.012   1.831   6.869  0.0684  0.3648  0.1500
  201SOL     ow  801   6.040   5.186   2.450 -0.1309  0.0572 -0.5656
  201SOL     hw  802   6.037   5.141   2.535 -0.1225 -0.5440 -0.8758
  201SOL     hw  803   6.132   5.212   2.440  0.6686 -2.8076 -1.8474
  201SOL     vw  804   6.052   5.184   2.460 -0.0246 -0.4003 -0.7757
  202SOL     ow  805   0.647   5.585   1.071 -0.1551  0.3712 -0.1228
  202SOL     hw  806   0.640   5.572   1.165  2.0591  1.9034  0.3360
  202SOL     hw  807   0.601   5.510   1.033  0.0500 -1.0156  2.1653
  202SOL     vw  808   0.640   5.573   1.078  0.1641  0.3905  0.2397
  203SOL     ow  809   0.006   0.124   3.412 -0.5823  0.0955  0.5062
  203SOL     hw  810  -0.079   0.111   3.456 -0.2099 -0.1462  1.1698
  203SOL     hw  811   0.041   0.035   3.402 -1.1647  0.0404 -1.3324
  203SOL     vw  812  -0.001   0.110   3.417 -0.6101  0.0563  0.3512
  204SOL     ow  813   4.650   1.052   6.671  0.0656  0.2308 -0.6173
  204SOL     hw  814   4.650   0.974   6.727  3.0094 -0.6002 -1.6377
  204SOL     hw  815   4.651   1.018   6.582  0.6990  1.4403 -1.0930
  204SOL     vw  816   4.650   1.038   6.667  0.5379  0.2807 -0.8147
  205SOL     ow  817   3.506   1.013   2.609 -0.3608  0.3671 -0.0461
  205SOL     hw  818   3.442   1.072   2.571 -0.4614  0.7257  0.6562
  205SOL     hw  819   3.467   0.926   2.599 -0.7873  0.5449  0.0330
  205SOL     vw  820   3.492   1.009   2.603 -0.4303  0.4379  0.0570
  206SOL     ow  821   5.828   3.418   3.335  0.0845 -0.6855 -0.7901
  206SOL     hw  822   5.833   3.499   3.284 -1.6522  0.2765  0.4205
  206SOL     hw  823   5.845   3.348   3.272 -0.7362  0.5074 -2.4207
  206SOL     vw  824   5.831   3.420   3.320 -0.2530 -0.4011 -0.8456
  207SOL     ow  825   6.885   5.842   3.668  0.1228  0.7381 -0.4478
  207SOL     hw  826   6.951   5.801   3.612 -0.5580  3.0878 -3.2238
  207SOL     hw  827   6.810   5.783   3.663  1.0020 -0.5075  0.3862
  207SOL     vw  828   6.884   5.829   3.660  0.1490  0.8836 -0.7041
  208SOL     ow  829   2.455   3.938   1.529 -0.6277  0.4920 -0.0174
  208SOL     hw  830   2.529   3.922   1.470 -1.6121 -1.1164 -0.8966
  208SOL     hw  831   2.490   3.996   1.596  0.8905  1.3523 -1.4748
  208SOL     vw  832   2.470   3.943   1.530 -0.5573  0.3933 -0.3257
  209SOL     ow  833   1.165   0.908   3.149 -0.5752 -1.1802  0.3771
  209SOL     hw  834   1.091   0.966   3.169  0.6678 -0.3178  3.0323
  209SOL     hw  835   1.126   0.832   3.107 -2.3403  1.3222 -2.9135
  209SOL     vw  836   1.150   0.906   3.146 -0.6440 -0.7362  0.2934
  210SOL     ow  837   0.888   2.527   1.593 -0.1220  0.5164  0.2772
  210SOL     hw  838   0.858   2.575   1.670 -1.8846  1.0164 -0.6729
  210SOL     hw  839   0.845   2.570   1.519 -0.4508 -1.4770 -0.7640
  210SOL     vw  840   0.879   2.539   1.593 -0.3979  0.3192  0.0145
  211SOL     ow  841   5.969   4.956   0.327 -0.7203  0.0781 -0.3347
  211SOL     hw  842   5.975   5.043   0.367 -0.6498 -0.8736  1.8571
  211SOL     hw  843   5.876   4.941   0.314 -0.9420 -0.4045  1.5013
  211SOL     vw  844   5.958   4.965   0.331 -0.7403 -0.1109  0.1968
  212SOL     ow  845   3.591   4.755   0.274  0.7333  0.0644  0.2208
  212SOL     hw  846   3.596   4.822   0.206  0.6275  0.0712  0.2203
  212SOL     hw  847   3.681   4.726   0.286  0.6095 -0.8119 -0.8060
  212SOL     vw  848   3.603   4.760   0.267  0.7031 -0.0503  0.0852
  213SOL     ow  849   1.364   6.600   0.539  0.1727  0.2758 -0.5752
  213SOL     hw  850   1.441   6.630   0.587 -0.4925  0.6746  0.2809
  213SOL     hw  851   1.336   6.521   0.586 -1.2011  1.3499  0.4975
  213SOL     vw  852   1.370   6.593   0.552 -0.0963  0.4699 -0.3207
  214SOL     ow  853   4.747   4.155   2.349  0.3849 -0.9196 -0.2809
  214SOL     hw  854   4.815   4.138   2.284  0.1513 -0.2665 -0.7143
  214SOL     hw  855   4.793   4.156   2.433  1.2276  1.0497 -0.6934
  214SOL     vw  856   4.762   4.153   2.352  0.4654 -0.5734 -0.3924
  215SOL     ow  857   3.159   6.847   3.457 -0.4518  0.4070 -0.5129
  215SOL     hw  858   3.127   6.805   3.537 -1.7316 -0.3827 -1.3952
  215SOL     hw  859   3.118   6.934   3.457 -1.3141  0.0178 -0.8036
  215SOL     vw  860   3.149   6.853   3.468 -0.7344  0.2515 -0.6677
  216SOL     ow  861   0.663   1.393   3.734  0.0231 -0.0314 -0.3276
  216SOL     hw  862   0.598   1.406   3.666  1.0091 -1.0656 -1.5218
  216SOL     hw  863   0.646   1.305   3.767  0.8971 -0.3682 -0.7551
  216SOL     vw  864   0.652   1.383   3.729  0.2685 -0.2123 -0.5417
  217SOL     ow  865   1.275   5.968   6.350  0.3229 -1.0009  0.3086
  217SOL     hw  866   1.347   5.924   6.396  0.2803 -0.5306  0.8364
  217SOL     hw  867   1.250   5.907   6.280  1.5421 -0.9671 -0.1789
  217SOL     vw  868   1.281   5.954   6.347  0.4781 -0.9344  0.3138
  218SOL     ow  869   0.331   6.967   7.051  0.0859  0.0979 -0.1655
  218SOL     hw  870   0.312   6.997   6.962  0.3122 -0.6229 -0.4656
  218SOL     hw  871   0.426   6.962   7.055  0.0965  0.5277  0.2608
  218SOL     vw  872   0.341   6.970   7.040  0.1171  0.0596 -0.1488
  219SOL     ow  873   3.156   6.534   1.930  0.7109  0.5978  0.3132
  219SOL     hw  874   3.227   6.573   1.880  0.8868 -1.2496 -0.9839
  219SOL     hw  875   3.150   6.444   1.897 -0.0489 -0.3115  2.7251
  219SOL     vw  876   3.164   6.527   1.919  0.6338  0.2344  0.4603
  220SOL     ow  877   1.940   5.241   5.164 -0.2922 -0.6373  0.0308
  220SOL     hw  878   1.959   5.166   5.220 -0.7284 -0.6488  0.1680
  220SOL     hw  879   1.973   5.216   5.078  0.0131 -0.7853  0.1890
  220SOL     vw  880   1.947   5.228   5.160 -0.3095 -0.6580  0.0699
  221SOL     ow  881   1.808   6.103   5.459  0.0504  0.1094  0.3452
  221SOL     hw  882   1.717   6.098   5.432 -0.6935 -0.0445  2.6481
  221SOL     hw  883   1.832   6.012   5.479  0.5438  0.2226  0.2906
  221SOL     vw  884   1.799   6.090   5.458  0.0174  0.1040  0.6416
  222SOL     ow  885   2.140   1.266   3.734  0.4301  0.2048 -0.0220
  222SOL     hw  886   2.075   1.335   3.719  0.5868  0.6727  1.3429
  222SOL     hw  887   2.129   1.207   3.659 -0.0258  1.4527 -0.9794
  222SOL     vw  888   2.130   1.267   3.722  0.3906  0.4311  0.0317
  223SOL     ow  889   1.007   1.450   2.468 -0.2100  0.2834 -0.1053
  223SOL     hw  890   0.963   1.377   2.512  0.7773 -0.5465 -0.4404
  223SOL     hw  891   1.013   1.423   2.377  0.4763  0.6249 -0.1680
  223SOL     vw  892   1.002   1.436   2.462  0.0107  0.2190 -0.1580
  224SOL     ow  893   0.438   4.386   3.122  0.2196  0.0048  0.6929
  224SOL     hw  894   0.441   4.446   3.196  0.5527 -0.4745  1.0756
  224SOL     hw  895   0.505   4.419   3.061  1.1044 -0.5369  1.3462
  224SOL     vw  896   0.448   4.398   3.123  0.3803 -0.1302  0.8297
  225SOL     ow  897   3.831   2.762   4.603 -0.5062 -0.5613 -0.6297
  225SOL     hw  898   3.748   2.739   4.560 -2.2841 -2.3476  3.2822
  225SOL     hw  899   3.805   2.817   4.677  1.8689 -0.7668  0.4304
  225SOL     vw  900   3.817   2.766   4.607 -0.4272 -0.8241  0.0262
  226SOL     ow  901   6.234   0.194   1.079  0.0214 -0.1609  0.0347
  226SOL     hw  902   6.189   0.127   1.131  0.8989  0.5844  1.8399
  226SOL     hw  903   6.293   0.145   1.022  0.5975 -0.9603  1.2799
  226SOL     vw  904   6.236   0.179   1.078  0.2129 -0.1680  0.4372
  227SOL     ow  905   1.524   6.444   2.298  0.0242 -0.0154  0.4018
  227SOL     hw  906   1.539   6.401   2.382 -2.0849  0.0823  0.8913
  227SOL     hw  907   1.477   6.379   2.246  0.7399  0.1558 -0.4764
  227SOL     vw  908   1.520   6.430   2.302 -0.1596  0.0200  0.3506
  228SOL     ow  909   0.780   1.956   2.269 -0.2492  0.1674 -0.4956
  228SOL     hw  910   0.718   1.966   2.197 -1.2755  0.1106  0.3498
  228SOL     hw  911   0.846   2.024   2.254 -0.4352  0.1383 -1.4891
  228SOL     vw  912   0.781   1.966   2.258 -0.4092  0.1560 -0.5151
  229SOL     ow  913   0.213   2.832   6.116  0.7540  0.2483  0.1996
  229SOL     hw  914   0.156   2.761   6.144 -0.1496  1.3160  1.1451
  229SOL     hw  915   0.300   2.806   6.146  0.4965 -0.5870  0.2499
  229SOL     vw  916   0.217   2.819   6.123  0.6008  0.2789  0.3309
  230SOL     ow  917   5.815   7.052   3.517  0.5089 -0.3362 -0.8570
  230SOL     hw  918   5.776   7.037   3.431  0.9235  0.2593 -1.1599
  230SOL     hw  919   5.837   6.964   3.549 -0.0018 -0.5879 -1.1893
  230SOL     vw  920   5.813   7.038   3.510  0.4961 -0.2906 -0.9409
  231SOL     ow  921   2.873   1.717   2.123  0.0740  0.3009  0.7124
  231SOL     hw  922   2.854   1.672   2.205  0.9960  1.4301  1.5804
  231SOL     hw  923   2.788   1.751   2.094 -0.6008 -1.7206  0.1527
  231SOL     vw  924   2.859   1.716   2.130  0.1066  0.1832  0.7532
  232SOL     ow  925   1.605   6.788   6.354 -0.0387 -0.0544 -0.5674
  232SOL     hw  926   1.593   6.878   6.323 -0.5531 -0.3187 -1.1583
  232SOL     hw  927   1.563   6.734   6.287  2.7704 -0.9371 -1.7638
  232SOL     vw  928   1.598   6.793   6.341  0.2640 -0.2055 -0.8032
  233SOL     ow  929   2.584   2.526   4.631 -0.0479 -0.2836 -0.1292
  233SOL     hw  930   2.555   2.572   4.709  3.8478  1.1229  0.7263
  233SOL     hw  931   2.631   2.449   4.664 -0.8930 -1.3220 -1.2563
  233SOL     vw  932   2.587   2.522   4.646  0.3545 -0.2351 -0.1650
  234SOL     ow  933   2.962   3.599   3.477  0.2213 -0.5666 -0.3855
  234SOL     hw  934   2.883   3.640   3.442  1.2173 -0.5321 -2.8293
  234SOL     hw  935   2.930   3.542   3.547 -1.8125  0.2943 -0.5307
  234SOL     vw  936   2.947   3.597   3.482  0.0843 -0.4485 -0.7269
  235SOL     ow  937   5.839   6.032   1.053 -0.1118  0.8533  0.0268
  235SOL     hw  938   5.766   6.052   1.110 -0.9282  1.1036 -1.0665
  235SOL     hw  939   5.876   5.950   1.087 -2.1820 -0.4047 -0.5831
  235SOL     vw  940   5.835   6.024   1.065 -0.4928  0.7203 -0.1979
  236SOL     ow  941   2.991   4.458   1.019 -0.0589  0.5713 -0.1241
  236SOL     hw  942   3.041   4.396   1.072  0.2862  0.1935 -0.8690
  236SOL     hw  943   2.907   4.415   1.003  0.2067  0.2487 -0.6999
  236SOL     vw  944   2.987   4.444   1.024  0.0218  0.4792 -0.2984
  237SOL     ow  945   1.799   3.976   6.717 -0.1877  0.3427 -0.1069
  237SOL     hw  946   1.756   3.902   6.760  0.5537 -1.3914 -2.1556
  237SOL     hw  947   1.825   3.942   6.631  2.1136  2.3480 -0.3108
  237SOL     vw  948   1.797   3.962   6.711  0.2137  0.3784 -0.4041
  238SOL     ow  949   2.238   5.353   2.529  0.1781  0.0263 -0.0383
  238SOL     hw  950   2.293   5.302   2.470 -0.9500 -2.0956  0.6206
  238SOL     hw  951   2.294   5.424   2.561  1.2722  0.2883 -2.3868
  238SOL     vw  952   2.252   5.356   2.526  0.1736 -0.2191 -0.2612
  239SOL     ow  953   0.523   6.601   7.035  0.5705 -0.1712  0.8344
  239SOL     hw  954   0.469   6.526   7.012  1.2544  0.0358 -1.8278
  239SOL     hw  955   0.540   6.644   6.951  0.9563  2.4545  2.1506
  239SOL     vw  956   0.518   6.597   7.021  0.7116  0.2022  0.6571
  240SOL     ow  957   3.186   0.237   5.625 -0.0276  0.1680 -1.0416
  240SOL     hw  958   3.095   0.215   5.602 -0.4367  0.8791 -0.1268
  240SOL     hw  959   3.209   0.174   5.693 -0.4594  1.1049  0.0069
  240SOL     vw  960   3.177   0.226   5.631 -0.1385  0.3854 -0.7825
  241SOL     ow  961   3.794   2.446   0.713  0.4780  0.0920  0.2118
  241SOL     hw  962   3.792   2.413   0.803  1.0900 -0.4584  0.0349
  241SOL     hw  963   3.773   2.370   0.659  0.9805  0.2051 -0.1533
  241SOL     vw  964   3.791   2.432   0.718  0.6249  0.0343  0.1403
  242SOL     ow  965   0.372   0.468   0.642 -0.0180  0.0279  0.5302
  242SOL     hw  966   0.368   0.444   0.735  1.1111  0.3657  0.6840
  242SOL     hw  967   0.449   0.524   0.635  0.4266 -0.7018 -0.7786
  242SOL     vw  968   0.381   0.472   0.653  0.1896 -0.0238  0.3778
  243SOL     ow  969   2.691   3.522   5.212 -0.0143  0.6323 -0.5575
  243SOL     hw  970   2.739   3.592   5.168  3.1481 -0.2245  1.2258
  243SOL     hw  971   2.725   3.441   5.175  0.8975 -0.0280  1.5353
  243SOL     vw  972   2.702   3.521   5.202  0.5232  0.4321 -0.0460
  244SOL     ow  973   6.937   4.263   0.589  0.3860 -0.4153 -0.4967
  244SOL     hw  974   6.849   4.273   0.626  0.8834 -1.3541  0.9813
  244SOL     hw  975   6.922   4.253   0.495 -1.3205 -3.0406 -0.0425
  244SOL     vw  976   6.923   4.263   0.581  0.2267 -0.8852 -0.2418
  245SOL     ow  977   0.437   5.525   4.222  0.2692  0.7434 -0.3479
  245SOL     hw  978   0.493   5.593   4.185  0.4854  0.8032  0.0844
  245SOL     hw  979   0.354   5.534   4.175 -0.4209  2.6549  1.1075
  245SOL     vw  980   0.433   5.535   4.211  0.2067  1.0037 -0.0987
  246SOL     ow  981   4.622   2.349   1.196 -0.4010  0.4302 -0.6410
  246SOL     hw  982   4.566   2.316   1.127  1.4244 -0.1641 -1.9244
  246SOL     hw  983   4.562   2.377   1.265 -2.1873 -1.4923 -1.3236
  246SOL     vw  984   4.607   2.348   1.196 -0.3958  0.0981 -0.9003
  247SOL     ow  985   7.076   0.395   5.504 -0.0956 -0.4576 -0.5783
  247SOL     hw  986   6.991   0.358   5.478 -0.0043  0.8032 -2.9164
  247SOL     hw  987   7.056   0.454   5.577 -1.1606 -0.4582 -0.8625
  247SOL     vw  988   7.062   0.398   5.510 -0.2244 -0.2913 -0.9243
  248SOL     ow  989   0.676   6.084   6.584  0.0964  0.2575 -0.8010
  248SOL     hw  990   0.661   5.995   6.552 -0.2380 -0.1357  0.3815
  248SOL     hw  991   0.654   6.079   6.678  0.0247  1.5966 -0.7363
  248SOL     vw  992   0.671   6.072   6.592  0.0428  0.3824 -0.6366
  249SOL     ow  993   2.662   6.888   0.221  0.0403 -0.0215  0.0951
  249SOL     hw  994   2.684   6.831   0.295  0.2572 -0.1722 -0.0837
  249SOL     hw  995   2.677   6.977   0.253  1.9178 -0.1456 -0.3381
  249SOL     vw  996   2.667   6.892   0.235  0.3167 -0.0579  0.0144
  250SOL     ow  997   5.978   0.875   6.063  0.3159 -0.9009  0.4009
  250SOL     hw  998   5.984   0.780   6.067  1.1107 -0.8843 -0.1548
  250SOL     hw  999   6.008   0.905   6.149 -0.7358 -1.1686  0.8771
  250SOL     vw 1000   5.982   0.867   6.075  0.2818 -0.9340  0.3903
  251SOL     ow 1001   7.116   5.832   1.405  0.2409  0.0620  0.2191
  251SOL     hw 1002   7.105   5.835   1.500  0.5120  0.8161  0.2307
  251SOL     hw 1003   7.180   5.900   1.386  1.1646 -0.9504 -0.3698
  251SOL     vw 1004   7.123   5.841   1.415  0.3986  0.0279  0.1429
  252SOL     ow 1005   3.548   1.923   1.277 -0.3294 -0.2382 -0.7351
  252SOL     hw 1006   3.512   1.868   1.208  1.3008 -0.8879 -1.1242
  252SOL     hw 1007   3.643   1.913   1.269  0.1979  3.8068 -1.7708
  252SOL     vw 1008   3.556   1.914   1.267 -0.0446  0.2098 -0.9231
  253SOL     ow 1009   5.199   1.174   2.141 -0.0741 -0.6954  0.7406
  253SOL     hw 1010   5.140   1.105   2.171 -0.3460 -0.6110  0.3966
  253SOL     hw 1011   5.266   1.178   2.209 -1.5158  0.5630  2.1644
  253SOL     vw 1012   5.200   1.165   2.154 -0.3002 -0.5183  0.8831
  254SOL     ow 1013   1.302   3.811   4.904  0.7509  0.0710  0.1668
  254SOL     hw 1014   1.335   3.861   4.978 -1.8972 -0.0588  1.5337
  254SOL     hw 1015   1.291   3.722   4.938 -0.1657 -0.0756 -0.4725
  254SOL     vw 1016   1.305   3.806   4.918  0.2806  0.0345  0.2630
  255SOL     ow 1017   4.871   0.451   1.428  0.2503 -0.1110  0.3535
  255SOL     hw 1018   4.791   0.486   1.390 -0.4354 -0.8142  1.1180
  255SOL     hw 1019   4.868   0.477   1.520  0.0327 -1.6077  0.7931
  255SOL     vw 1020   4.860   0.459   1.435  0.1311 -0.4013  0.5124
  256SOL     ow 1021   3.105   3.058   3.871  0.6473  0.4370 -0.0454
  256SOL     hw 1022   3.177   3.020   3.821 -0.5301 -1.6134 -0.3050
  256SOL     hw 1023   3.062   3.118   3.810 -0.2283 -1.3573 -1.3141
  256SOL     vw 1024   3.109   3.061   3.856  0.3763 -0.0703 -0.2470
  257SOL     ow 1025   1.386   1.257   0.908  0.0807 -0.4233  0.3307
  257SOL     hw 1026   1.390   1.292   0.819 -0.6988  1.3558  0.9554
  257SOL     hw 1027   1.469   1.211   0.920 -0.1094 -1.3823 -1.5552
  257SOL     vw 1028   1.397   1.255   0.898 -0.0473 -0.3151  0.1643
  258SOL     ow 1029   5.134   6.303   3.214 -0.2837  0.2067  0.3465
  258SOL     hw 1030   5.207   6.276   3.159 -0.6625 -0.0335 -0.0379
  258SOL     hw 1031   5.174   6.319   3.300  0.0701 -0.8243  0.3801
  258SOL     vw 1032   5.149   6.302   3.218 -0.2866  0.0391  0.3000
  259SOL     ow 1033   6.811   0.135   2.509 -0.0581 -0.2576 -0.0446
  259SOL     hw 1034   6.845   0.172   2.428 -0.5181  2.6900  0.9753
  259SOL     hw 1035   6.868   0.169   2.578 -1.2543 -0.4687  1.1041
  259SOL     vw 1036   6.823   0.144   2.507 -0.2766  0.1034  0.2415
  260SOL     ow 1037   5.274   0.135   0.208  0.0461  0.0560  0.1743
  260SOL     hw 1038   5.272   0.230   0.220  2.6514  0.0044  1.5793
  260SOL     hw 1039   5.206   0.118   0.142 -0.8597  2.8022  0.2824
  260SOL     vw 1040   5.265   0.145   0.201  0.2704  0.4115  0.3739
  261SOL     ow 1041   6.129   0.792   6.590 -0.5561 -0.3669 -0.5164
  261SOL     hw 1042   6.195   0.734   6.627 -0.4021 -1.5664 -2.4944
  261SOL     hw 1043   6.150   0.879   6.624  0.3307 -1.1680  1.0761
  261SOL     vw 1044   6.140   0.796   6.599 -0.4187 -0.6309 -0.5670
  262SOL     ow 1045   2.428   1.011   4.478  0.5716  0.0413 -0.0124
  262SOL     hw 1046   2.482   0.965   4.542  0.8079 -1.4163 -1.2078
  262SOL     hw 1047   2.489   1.036   4.409 -0.0718 -0.7413 -0.8980
  262SOL     vw 1048   2.443   1.008   4.477  0.5177 -0.2543 -0.2871
  263SOL     ow 1049   0.031   0.171   5.524  0.4253 -0.0445  0.1481
  263SOL     hw 1050  -0.026   0.248   5.528  0.4483  0.0607 -1.0598
  263SOL     hw 1051  -0.030   0.098   5.512  0.5187  0.2637 -3.2829
  263SOL     vw 1052   0.015   0.172   5.523  0.4406  0.0101 -0.4640
  264SOL     ow 1053   3.309   4.832   2.315  0.4820  0.2644  0.2504
  264SOL     hw 1054   3.231   4.787   2.283  0.3012  1.9514 -2.0057
  264SOL     hw 1055   3.382   4.777   2.286  0.2300  0.7675 -1.4433
  264SOL     vw 1056   3.309   4.819   2.307  0.4249  0.5529 -0.2707
  265SOL     ow 1057   1.606   0.924   5.298  0.4987 -0.2413  0.3024
  265SOL     hw 1058   1.518   0.908   5.263 -0.0838 -2.0132  2.3368
  265SOL     hw 1059   1.643   0.992   5.242 -2.6701  1.5708  0.1832
  265SOL     vw 1060   1.599   0.931   5.286  0.0037 -0.2360  0.5553
  266SOL     ow 1061   3.239   5.643   0.346 -0.2688  0.2153  1.0933
  266SOL     hw 1062   3.243   5.634   0.251 -0.2137 -0.5046  1.1606
  266SOL     hw 1063   3.191   5.725   0.360 -0.7920  0.0284  0.4508
  266SOL     vw 1064   3.233   5.653   0.335 -0.3307  0.0954  1.0174
  267SOL     ow 1065   5.662   5.166   3.974  0.2328  0.0781  0.2138
  267SOL     hw 1066   5.642   5.259   3.980 -1.6089 -0.2461 -0.3596
  267SOL     hw 1067   5.642   5.142   3.884  0.3499 -0.9500  0.4383
  267SOL     vw 1068   5.657   5.175   3.963  0.0052 -0.1001  0.1677
  268SOL     ow 1069   4.142   6.160   6.526 -0.1416 -0.4818  0.2745
  268SOL     hw 1070   4.084   6.105   6.474 -1.5113  0.2395  0.9893
  268SOL     hw 1071   4.183   6.218   6.462 -1.6559  0.2685 -0.0575
  268SOL     vw 1072   4.140   6.160   6.511 -0.5221 -0.2875  0.3250
  269SOL     ow 1073   6.839   5.147   1.824 -0.2625  0.4933 -0.4020
  269SOL     hw 1074   6.907   5.081   1.817  0.7221  1.1112  2.2564
  269SOL     hw 1075   6.778   5.113   1.890 -0.4364  1.6398  0.0590
  269SOL     vw 1076   6.840   5.134   1.832 -0.1557  0.7260  0.0095
  270SOL     ow 1077   4.146   1.892   1.242  0.0247  0.6589  0.6172
  270SOL     hw 1078   4.207   1.880   1.170 -2.9425 -0.5953 -1.9571
  270SOL     hw 1079   4.175   1.972   1.286  2.8430  0.6409 -0.9863
  270SOL     vw 1080   4.158   1.901   1.238  0.0050  0.4911  0.0660
  271SOL     ow 1081   6.592   4.886   3.752 -0.4930 -0.1812  0.0393
  271SOL     hw 1082   6.534   4.897   3.828 -0.7021 -1.2136  0.0451
  271SOL     hw 1083   6.540   4.835   3.689 -0.2497  0.4834 -0.7197
  271SOL     vw 1084   6.577   4.881   3.754 -0.4888 -0.2298 -0.0601
  272SOL     ow 1085   2.742   3.287   2.193 -0.2530 -0.2495  0.5015
  272SOL     hw 1086   2.798   3.364   2.183  1.0499 -0.7182  3.2866
  272SOL     hw 1087   2.803   3.213   2.200 -1.3582 -1.1962  0.5125
  272SOL     vw 1088   2.758   3.287   2.193 -0.2269 -0.4363  0.8703
  273SOL     ow 1089   3.329   4.612   3.914 -0.0151  0.4263  0.3126
  273SOL     hw 1090   3.310   4.518   3.909 -0.7545  0.5938 -0.1868
  273SOL     hw 1091   3.318   4.633   4.007  0.7507 -0.0886  0.5366
  273SOL     vw 1092   3.325   4.602   3.926 -0.0117  0.3805  0.2764
  274SOL     ow 1093   6.479   5.474   6.690 -0.2333  0.2626 -0.2295
  274SOL     hw 1094   6.492   5.414   6.763 -0.6193 -1.0270 -1.1727
  274SOL     hw 1095   6.559   5.526   6.686  0.8211 -1.3038 -0.3602
  274SOL     vw 1096   6.491   5.473   6.699 -0.1454 -0.1142 -0.3712
  275SOL     ow 1097   2.448   1.167   1.741  0.0543 -0.3956  0.0003
  275SOL     hw 1098   2.448   1.219   1.661 -1.0155 -0.8017 -0.2805
  275SOL     hw 1099   2.498   1.219   1.803  0.8579 -0.0459 -0.9099
  275SOL     vw 1100   2.454   1.180   1.738  0.0191 -0.4030 -0.1569
  276SOL     ow 1101   1.765   6.458   2.427 -0.7730 -0.4653  0.3192
  276SOL     hw 1102   1.763   6.363   2.438 -1.0153 -0.3616  1.2775
  276SOL     hw 1103   1.836   6.488   2.485  0.8321 -0.2497 -1.6733
  276SOL     vw 1104   1.774   6.450   2.436 -0.5933 -0.4232  0.1829
  277SOL     ow 1105   2.072   6.018   4.719  1.1842  0.2474  0.1696
  277SOL     hw 1106   2.015   6.048   4.649  1.1443 -0.0806  0.0592
  277SOL     hw 1107   2.028   6.044   4.800  0.9064  0.0491  0.0834
  277SOL     vw 1108   2.059   6.025   4.721  1.1423  0.1781  0.1435
  278SOL     ow 1109   3.381   1.650   5.855 -0.4277 -0.4861  0.1609
  278SOL     hw 1110   3.474   1.653   5.833 -0.3638  1.6660  0.4766
  278SOL     hw 1111   3.337   1.626   5.774  0.2477  1.1883 -0.7465
  278SOL     vw 1112   3.387   1.647   5.842 -0.3301  0.0188  0.0827
  279SOL     ow 1113   4.305   5.100   5.941  0.1111 -1.0053 -0.4037
  279SOL     hw 1114   4.336   5.082   5.853  0.9460 -3.7106  0.3504
  279SOL     hw 1115   4.218   5.137   5.929  0.7992  0.0937 -2.3686
  279SOL     vw 1116   4.298   5.103   5.928  0.3121 -1.2171 -0.5636
  280SOL     ow 1117   4.631   3.361   0.248 -0.4550  0.5807 -0.1969
  280SOL     hw 1118   4.614   3.448   0.285 -0.4367 -0.1580  1.7070
  280SOL     hw 1119   4.726   3.356   0.240 -0.4024  0.5088  0.3800
  280SOL     vw 1120   4.641   3.372   0.252 -0.4458  0.4737  0.1305
  281SOL     ow 1121   3.023   3.427   3.982  0.0230  0.5955 -0.0290
  281SOL     hw 1122   2.975   3.456   3.905  0.0180  3.7030  1.0258
  281SOL     hw 1123   2.983   3.343   4.005  0.2280 -0.6252 -3.4801
  281SOL     vw 1124   3.012   3.419   3.975  0.0494  0.8445 -0.3452
  282SOL     ow 1125   2.798   0.591   6.986 -0.4790 -0.3993  0.5380
  282SOL     hw 1126   2.712   0.589   6.943  0.5124  0.0751 -1.5840
  282SOL     hw 1127   2.819   0.499   7.002 -0.0105 -0.8121 -1.9632
  282SOL     vw 1128   2.789   0.578   6.982 -0.2863 -0.3912 -0.0720
  283SOL     ow 1129   1.744   2.025   6.312 -0.1905 -0.1753 -0.2779
  283SOL     hw 1130   1.700   2.022   6.397 -1.5007 -0.0135 -0.9298
  283SOL     hw 1131   1.673   2.028   6.248  0.7764 -0.3535 -1.3891
  283SOL     vw 1132   1.729   2.025   6.315 -0.2358 -0.1775 -0.5105
  284SOL     ow 1133   0.719   5.588   5.453 -0.0228  0.4461  0.2770
  284SOL     hw 1134   0.701   5.545   5.370  2.8101 -0.5602  0.0638
  284SOL     hw 1135   0.735   5.679   5.430 -0.2728  0.3835 -0.1436
  284SOL     vw 1136   0.719   5.594   5.439  0.3180  0.3049  0.1936
  285SOL     ow 1137   0.789   3.546   2.191 -0.1263 -0.1998  0.2399
  285SOL     hw 1138   0.848   3.612   2.157 -0.2863 -1.3823 -2.5571
  285SOL     hw 1139   0.722   3.596   2.239  1.6490  1.3261  1.2681
  285SOL     vw 1140   0.788   3.561   2.193  0.0868 -0.1544  0.0066
  286SOL     ow 1141   0.371   1.427   6.229  0.1703  1.0520  1.0719
  286SOL     hw 1142   0.282   1.416   6.263  0.8963  1.6473  3.3895
  286SOL     hw 1143   0.359   1.459   6.140 -1.9002 -0.8359  0.5837
  286SOL     vw 1144   0.357   1.430   6.222 -0.0071  0.8816  1.3134
  287SOL     ow 1145   6.027   5.790   6.213  0.7260  0.1055  0.8125
  287SOL     hw 1146   5.950   5.841   6.188  0.7190 -0.6116 -0.7314
  287SOL     hw 1147   6.070   5.769   6.130  2.6198  0.5136  1.6385
  287SOL     vw 1148   6.022   5.794   6.199  0.9749  0.0646  0.7176
  288SOL     ow 1149   4.482   1.034   1.228  0.5637  0.5208 -0.1140
  288SOL     hw 1150   4.469   1.124   1.258 -1.9445 -0.1782  1.1671
  288SOL     hw 1151   4.453   1.035   1.137  0.6604  1.0112 -0.1455
  288SOL     vw 1152   4.477   1.046   1.220  0.2456  0.4933  0.0508
  289SOL     ow 1153   1.895   2.288   6.274 -0.3480 -0.6223 -0.0593
  289SOL     hw 1154   1.966   2.274   6.211  0.7095  0.8680  0.7401
  289SOL     hw 1155   1.854   2.202   6.284  1.3149 -1.5180 -0.5712
  289SOL     vw 1156   1.899   2.275   6.267  0.0108 -0.5438 -0.0212
  290SOL     ow 1157   4.474   0.480   4.980  0.4122 -0.3311 -0.7524
  290SOL     hw 1158   4.548   0.488   5.041 -1.3044 -0.5989  1.5007
  290SOL     hw 1159   4.458   0.570   4.950  0.2789  0.0932  0.5137
  290SOL     vw 1160   4.482   0.493   4.984  0.1681 -0.3104 -0.2878
  291SOL     ow 1161   2.739   6.267   2.317  0.1691  0.7193 -0.0004
  291SOL     hw 1162   2.715   6.351   2.355  3.3449  1.6666  0.1436
  291SOL     hw 1163   2.775   6.216   2.390  0.7967  0.2858 -0.5908
  291SOL     vw 1164   2.740   6.271   2.332  0.6708  0.7870 -0.0594
  292SOL     ow 1165   2.674   7.137   0.902  0.2712 -0.4062  0.1875
  292SOL     hw 1166   2.624   7.109   0.825  1.0114  0.0131 -0.4598
  292SOL     hw 1167   2.616   7.119   0.976  0.4120 -2.9464 -0.2335
  292SOL     vw 1168   2.660   7.131   0.901  0.3874 -0.6862  0.0465
  293SOL     ow 1169   0.696   6.818   1.100  0.4638  0.3329 -0.6323
  293SOL     hw 1170   0.678   6.800   1.007 -0.5275 -2.0371 -0.0337
  293SOL     hw 1171   0.611   6.815   1.142  0.8656  1.7180  0.3687
  293SOL     vw 1172   0.683   6.815   1.093  0.3860  0.2031 -0.4212
  294SOL     ow 1173   4.351   0.259   5.098 -0.0966  0.4337  0.5656
  294SOL     hw 1174   4.383   0.343   5.064  1.3495 -0.7846 -1.3161
  294SOL     hw 1175   4.415   0.235   5.165 -0.5107  0.8191  1.1043
  294SOL     vw 1176   4.364   0.267   5.103  0.0393  0.3238  0.3886
  295SOL     ow 1177   5.056   4.072   2.414  0.0426 -0.1606 -1.0245
  295SOL     hw 1178   5.023   4.130   2.483 -0.6434 -0.0837 -1.4057
  295SOL     hw 1179   5.135   4.115   2.383 -1.0869  1.2383 -2.1224
  295SOL     vw 1180   5.062   4.085   2.419 -0.1967  0.0339 -1.2196
  296SOL     ow 1181   3.456   5.225   6.306 -0.2290  0.5925  0.6386
  296SOL     hw 1182   3.456   5.129   6.313  1.1973  0.5836  0.9099
  296SOL     hw 1183   3.389   5.253   6.369  0.8383 -0.1700  2.1946
  296SOL     vw 1184   3.447   5.216   6.315  0.0999  0.4907  0.8795
  297SOL     ow 1185   0.070   6.055   1.634 -0.3186  0.2259 -0.4335
  297SOL     hw 1186   0.143   6.063   1.695 -0.7459 -0.5512  0.1961
  297SOL     hw 1187   0.112   6.049   1.548  0.2572  2.0198 -0.3195
  297SOL     vw 1188   0.085   6.055   1.631 -0.2990  0.3600 -0.3354
  298SOL     ow 1189   1.329   5.466   1.320  0.1559 -0.0166  0.0990
  298SOL     hw 1190   1.365   5.554   1.330 -0.7139  0.4730 -0.8499
  298SOL     hw 1191   1.404   5.408   1.331  0.9840  0.9030 -0.5081
  298SOL     vw 1192   1.343   5.470   1.323  0.1504  0.1695 -0.1063
  299SOL     ow 1193   0.620   0.365   4.082  0.2642 -0.8719  0.4109
  299SOL     hw 1194   0.604   0.271   4.084  0.0059 -0.8342  0.1708
  299SOL     hw 1195   0.582   0.398   4.163 -1.1160 -0.7492 -0.2554
  299SOL     vw 1196   0.613   0.357   4.093  0.0480 -0.8507  0.2913
  300SOL     ow 1197   3.165   3.415   3.346  0.3865  0.6828 -0.0714
  300SOL     hw 1198   3.248   3.400   3.302  1.4447  0.7019  1.8372
  300SOL     hw 1199   3.119   3.332   3.340  1.0049  0.3448 -0.1816
  300SOL     vw 1200   3.169   3.402   3.339  0.6076  0.6407  0.1658
  301SOL     ow 1201   3.862   0.222   6.096 -0.6394  0.2426  0.4113
  301SOL     hw 1202   3.896   0.255   6.179  0.8075  0.1905 -0.1413
  301SOL     hw 1203   3.777   0.184   6.119 -0.3694  0.4272  1.8220
  301SOL     vw 1204   3.855   0.222   6.110 -0.4127  0.2601  0.5245
  302SOL     ow 1205   5.119   0.071   1.859  0.1796 -0.1980 -0.0901
  302SOL     hw 1206   5.055   0.142   1.855  0.0997 -0.2977 -0.7185
  302SOL     hw 1207   5.090   0.017   1.933  0.3820  0.5438  0.5408
  302SOL     vw 1208   5.107   0.073   1.869  0.1957 -0.1133 -0.0898
  303SOL     ow 1209   2.982   5.853   5.925 -0.5008 -0.7685  0.4670
  303SOL     hw 1210   2.923   5.790   5.884 -0.1269 -1.6011  1.1690
  303SOL     hw 1211   3.068   5.831   5.889 -0.7102  1.1343 -1.3953
  303SOL     vw 1212   2.986   5.842   5.915 -0.4790 -0.6273  0.3140
  304SOL     ow 1213   1.434   0.873   3.125 -0.2100 -0.2815  0.7080
  304SOL     hw 1214   1.451   0.911   3.038 -1.1204 -1.5084 -0.0282
  304SOL     hw 1215   1.340   0.884   3.138 -0.2432 -0.9853  1.1106
  304SOL     vw 1216   1.424   0.880   3.115 -0.3345 -0.5362  0.6640
  305SOL     ow 1217   5.354   1.924   5.455 -0.3304 -0.1623 -0.0279
  305SOL     hw 1218   5.273   1.971   5.434 -1.4260 -1.7459  0.5199
  305SOL     hw 1219   5.392   1.972   5.528 -1.4227 -0.1061  0.5141
  305SOL     vw 1220   5.348   1.937   5.462 -0.6192 -0.3639  0.1159
  306SOL     ow 1221   0.434   1.653   4.932 -0.2298 -0.3214 -0.0520
  306SOL     hw 1222   0.510   1.708   4.953 -1.1308  0.6003  0.8915
  306SOL     hw 1223   0.461   1.564   4.956  0.4194  0.0456  0.6170
  306SOL     vw 1224   0.448   1.649   4.938 -0.2630 -0.1514  0.1607
  307SOL     ow 1225   0.646   6.572   2.773  0.1228  0.2208  0.2909
  307SOL     hw 1226   0.645   6.500   2.836 -0.7572 -0.3603 -0.3492
  307SOL     hw 1227   0.572   6.627   2.799  1.8792  1.9569  1.9022
  307SOL     vw 1228   0.636   6.570   2.785  0.2384  0.3731  0.4190
  308SOL     ow 1229   6.309   5.485   6.413 -0.4288  0.0385  0.1967
  308SOL     hw 1230   6.245   5.415   6.399 -0.8387  0.3792  0.3798
  308SOL     hw 1231   6.258   5.560   6.440  0.1134  0.1110  1.0567
  308SOL     vw 1232   6.294   5.485   6.414 -0.4113  0.0932  0.3343
  309SOL     ow 1233   1.216   5.347   0.501 -0.2124  0.0813 -0.4708
  309SOL     hw 1234   1.123   5.331   0.486 -0.5534  0.6007  0.9826
  309SOL     hw 1235   1.226   5.442   0.493 -0.4720  0.4508  2.5463
  309SOL     vw 1236   1.205   5.358   0.498 -0.2916  0.1986  0.1190
  310SOL     ow 1237   3.333   0.685   0.164  0.2523  0.3784 -0.1293
  310SOL     hw 1238   3.288   0.761   0.200 -0.2162  0.0303  0.0308
  310SOL     hw 1239   3.422   0.691   0.198 -0.1343  0.1546  0.9422
  310SOL     vw 1240   3.339   0.695   0.173  0.1396  0.3029  0.0332
  311SOL     ow 1241   2.134   0.948   4.491  0.7762  0.2860  0.4415
  311SOL     hw 1242   2.122   0.861   4.453  0.3663  0.4815  0.1190
  311SOL     hw 1243   2.084   0.944   4.573 -0.8706  0.8204 -0.4886
  311SOL     vw 1244   2.126   0.936   4.497  0.5049  0.3823  0.2761
  312SOL     ow 1245   5.981   0.208   1.996 -0.1832  0.2069 -0.0664
  312SOL     hw 1246   5.980   0.114   1.977 -0.6907 -0.1550  1.6089
  312SOL     hw 1247   5.945   0.215   2.085  1.5959  1.8096  0.5875
  312SOL     vw 1248   5.976   0.197   2.005 -0.0155  0.3706  0.2409
  313SOL     ow 1249   5.944   2.280   2.945 -0.2060  0.2116 -0.0012
  313SOL     hw 1250   5.939   2.375   2.950 -1.5002  0.2182 -0.7468
  313SOL     hw 1251   6.012   2.262   2.880 -0.5744  0.6610 -0.5198
  313SOL     vw 1252   5.952   2.290   2.937 -0.4253  0.2719 -0.1681
  314SOL     ow 1253   3.413   3.396   1.448 -0.3793  0.1998 -0.2879
  314SOL     hw 1254   3.356   3.326   1.416  0.0932 -0.4544  0.2856
  314SOL     hw 1255   3.500   3.357   1.448  0.2161  1.4062 -1.8422
  314SOL     vw 1256   3.417   3.382   1.444 -0.2384  0.2728 -0.4173
  315SOL     ow 1257   6.979   5.630   3.831 -0.3137 -0.5917  0.1982
  315SOL     hw 1258   6.949   5.694   3.767 -0.4064 -0.0001  0.8193
  315SOL     hw 1259   7.002   5.682   3.908  1.2812 -1.1389  0.1263
  315SOL     vw 1260   6.978   5.645   3.833 -0.1154 -0.5858  0.2705
  316SOL     ow 1261   5.440   7.022   1.797 -0.2423 -0.7676 -0.2084
  316SOL     hw 1262   5.519   7.075   1.801  0.6462 -2.1064  0.5900
  316SOL     hw 1263   5.381   7.072   1.740  1.1834  0.2266 -0.8743
  316SOL     vw 1264   5.442   7.036   1.790  0.0627 -0.8132 -0.1909
  317SOL     ow 1265   3.249   4.916   5.158 -0.3063  0.1770 -0.3519
  317SOL     hw 1266   3.220   4.853   5.092 -0.9348  0.5326 -0.4147
  317SOL     hw 1267   3.169   4.949   5.197 -0.0157  1.4962 -0.8316
  317SOL     vw 1268   3.235   4.912   5.154 -0.3510  0.3982 -0.4237
  318SOL     ow 1269   2.556   2.283   1.255  0.3995  0.2863  0.4281
  318SOL     hw 1270   2.499   2.206   1.252 -1.3001  1.5087 -0.0221
  318SOL     hw 1271   2.516   2.339   1.321  1.0003  1.2738 -0.0290
  318SOL     vw 1272   2.543   2.280   1.264  0.2544  0.5779  0.3083
  319SOL     ow 1273   3.449   6.123   0.565  0.2850 -0.3662  0.4698
  319SOL     hw 1274   3.515   6.161   0.623  0.7103 -0.3878  0.0078
  319SOL     hw 1275   3.498   6.060   0.512 -0.4667 -1.8903  1.5050
  319SOL     vw 1276   3.464   6.120   0.566  0.2420 -0.5703  0.5454
  320SOL     ow 1277   0.021   1.406   4.625 -0.3228 -0.7239  0.1710
  320SOL     hw 1278   0.061   1.319   4.631 -2.9040 -2.2082 -1.7244
  320SOL     hw 1279  -0.065   1.396   4.666 -0.2555  1.2870  0.9124
  320SOL     vw 1280   0.015   1.393   4.631 -0.6545 -0.6545  0.0191
  321SOL     ow 1281   5.298   5.898   5.963  0.5272 -0.3988  0.6331
  321SOL     hw 1282   5.354   5.893   5.886  0.1973 -0.2196  0.3771
  321SOL     hw 1283   5.327   5.978   6.008  0.1543 -0.0459  0.2452
  321SOL     vw 1284   5.309   5.908   5.959  0.4344 -0.3288  0.5484
  322SOL     ow 1285   6.762   0.021   3.393  0.2148  0.0943  0.7449
  322SOL     hw 1286   6.814   0.100   3.409 -0.3638  0.1414  2.6114
  322SOL     hw 1287   6.695   0.048   3.330  0.7185  0.7841  0.5019
  322SOL     vw 1288   6.760   0.035   3.387  0.2050  0.1915  0.9590
  323SOL     ow 1289   3.686   3.949   4.558  0.0876 -0.1954 -0.9085
  323SOL     hw 1290   3.721   3.984   4.640  1.5183  0.3741 -1.7301
  323SOL     hw 1291   3.712   4.012   4.491  1.8055 -2.1953 -2.2809
  323SOL     vw 1292   3.694   3.962   4.560  0.5029 -0.3840 -1.1981
  324SOL     ow 1293   4.718   3.563   1.846  0.2819  0.2850 -0.3053
  324SOL     hw 1294   4.723   3.657   1.863 -0.6469  0.1857  0.6742
  324SOL     hw 1295   4.632   3.537   1.881 -0.8486 -0.3883 -3.2521
  324SOL     vw 1296   4.707   3.572   1.853  0.0100  0.1832 -0.5648
  325SOL     ow 1297   0.293   4.456   3.637  0.5304 -0.1507  0.6739
  325SOL     hw 1298   0.246   4.457   3.554  0.6985  0.1003  0.5774
  325SOL     hw 1299   0.225   4.451   3.704  0.4467 -2.2839  0.4874
  325SOL     vw 1300   0.278   4.456   3.635  0.5415 -0.3989  0.6365
  326SOL     ow 1301   6.470   4.967   4.575  0.2101 -0.1375 -0.8282
  326SOL     hw 1302   6.425   4.994   4.495  0.5482  0.6610 -0.7583
  326SOL     hw 1303   6.408   4.911   4.620 -1.5492  2.5201  0.2586
  326SOL     vw 1304   6.456   4.963   4.570  0.0226  0.3188 -0.6754
  327SOL     ow 1305   6.108   0.945   3.527  0.2443 -0.8933 -0.0261
  327SOL     hw 1306   6.140   1.025   3.486 -0.7739 -0.2753  0.3640
  327SOL     hw 1307   6.188   0.896   3.549  0.8586 -0.2117 -0.6906
  327SOL     vw 1308   6.123   0.949   3.525  0.1907 -0.7218 -0.0623
  328SOL     ow 1309   4.874   3.270   6.449  0.4360 -0.3193 -0.1003
  328SOL     hw 1310   4.865   3.209   6.522 -0.4752  0.4564  0.4609
  328SOL     hw 1311   4.935   3.227   6.390  0.7704 -1.2149  0.8564
  328SOL     vw 1312   4.880   3.256   6.451  0.3600 -0.3350  0.1001
  329SOL     ow 1313   0.094   5.581   1.706  0.8985  0.0891  0.1798
  329SOL     hw 1314   0.166   5.532   1.744  0.4266  0.6802  1.9036
  329SOL     hw 1315   0.049   5.519   1.649  1.3566 -0.9589  0.9421
  329SOL     vw 1316   0.098   5.567   1.703  0.8967  0.0291  0.5078
  330SOL     ow 1317   3.839   2.662   4.151 -0.0228 -0.2991  0.0875
  330SOL     hw 1318   3.845   2.574   4.190 -0.6096 -0.2398  0.3287
  330SOL     hw 1319   3.812   2.646   4.061 -0.2315 -0.3672  0.1598
  330SOL     vw 1320   3.836   2.648   4.144 -0.1279 -0.3003  0.1287
  331SOL     ow 1321   6.666   4.305   3.453 -0.2148  0.2491 -0.2936
  331SOL     hw 1322   6.702   4.354   3.379 -0.4606  0.3313 -0.3625
  331SOL     hw 1323   6.580   4.275   3.422 -0.4197  0.4859  0.0365
  331SOL     vw 1324   6.659   4.308   3.439 -0.2744  0.2911 -0.2592
  332SOL     ow 1325   3.225   2.573   2.046 -0.4210 -0.4848 -0.5813
  332SOL     hw 1326   3.234   2.650   1.990 -0.4094 -0.3606 -0.4100
  332SOL     hw 1327   3.141   2.534   2.021  0.3031 -1.3371 -1.7990
  332SOL     vw 1328   3.215   2.578   2.036 -0.3240 -0.5810 -0.7193
  333SOL     ow 1329   5.044   1.642   5.991 -0.5201  0.3279 -0.4183
  333SOL     hw 1330   5.039   1.695   6.071 -0.6829  1.2848 -1.0422
  333SOL     hw 1331   4.990   1.565   6.009 -0.6421  0.5890  0.3512
  333SOL     vw 1332   5.037   1.639   6.004 -0.5577  0.4885 -0.3991
  334SOL     ow 1333   2.333   3.793   3.501 -0.1338  0.4084  0.1063
  334SOL     hw 1334   2.388   3.715   3.505  0.5633  0.7888 -1.4290
  334SOL     hw 1335   2.249   3.764   3.537  0.1464 -1.0202 -0.3013
  334SOL     vw 1336   2.329   3.779   3.507 -0.0049  0.2701 -0.1501
  335SOL     ow 1337   1.521   0.806   3.676 -0.1389 -0.4689  0.3655
  335SOL     hw 1338   1.525   0.784   3.769 -1.7774 -0.4090  0.4834
  335SOL     hw 1339   1.562   0.892   3.669 -0.2464 -0.3536  1.0878
  335SOL     vw 1340   1.527   0.814   3.687 -0.3692 -0.4458  0.4761
  336SOL     ow 1341   2.698   1.273   5.046  0.1963 -0.5278  0.8386
  336SOL     hw 1342   2.614   1.228   5.052 -0.0684 -0.1177  0.2829
  336SOL     hw 1343   2.696   1.316   4.961  1.3511 -1.2611  0.4195
  336SOL     vw 1344   2.687   1.273   5.036  0.3136 -0.5705  0.7100
  337SOL     ow 1345   0.069   0.209   1.666 -0.1637  0.4231 -0.5120
  337SOL     hw 1346   0.081   0.285   1.724 -0.5524  0.5735 -0.6285
  337SOL     hw 1347   0.154   0.200   1.622 -0.1599  0.8896 -0.6150
  337SOL     vw 1348   0.082   0.218   1.668 -0.2145  0.5045 -0.5410
  338SOL     ow 1349   1.842   6.418   5.431  0.5668 -0.0303 -0.0009
  338SOL     hw 1350   1.783   6.461   5.493 -1.0586 -0.7439 -1.0216
  338SOL     hw 1351   1.882   6.490   5.382 -0.4006  0.4152 -0.1436
  338SOL     vw 1352   1.840   6.433   5.433  0.2248 -0.0656 -0.1543
  339SOL     ow 1353   2.426   2.633   4.262  0.6185  0.3787  0.2654
  339SOL     hw 1354   2.390   2.721   4.252 -0.4168 -0.1244 -0.6498
  339SOL     hw 1355   2.354   2.582   4.299  1.5632  0.1466  1.8366
  339SOL     vw 1356   2.412   2.638   4.266  0.6065  0.2818  0.3521
  340SOL     ow 1357   3.354   1.421   6.003 -0.0518 -0.5725  0.3567
  340SOL     hw 1358   3.445   1.399   6.020 -0.0085 -1.2913 -0.7189
  340SOL     hw 1359   3.358   1.497   5.946 -0.1523 -0.0662  1.0078
  340SOL     vw 1360   3.367   1.428   5.998 -0.0594 -0.6005  0.3006
  341SOL     ow 1361   1.557   1.547   1.430 -0.3877 -0.5292  0.6800
  341SOL     hw 1362   1.549   1.495   1.510  0.8593  1.4108  2.1576
  341SOL     hw 1363   1.499   1.622   1.444  0.1960  0.0728 -0.0253
  341SOL     vw 1364   1.548   1.550   1.442 -0.1461 -0.1938  0.7819
  342SOL     ow 1365   6.973   6.283   5.698  0.1124  0.4994  1.0385
  342SOL     hw 1366   6.962   6.374   5.671  0.3288  0.5389  1.0810
  342SOL     hw 1367   7.064   6.278   5.727  0.2156  0.1763  0.6687
  342SOL     vw 1368   6.984   6.294   5.698  0.1545  0.4621  0.9954
  343SOL     ow 1369   0.340   3.852   0.765 -0.0271 -0.2543 -0.1400
  343SOL     hw 1370   0.261   3.801   0.751 -0.3105 -0.8856  3.0163
  343SOL     hw 1371   0.408   3.808   0.714 -0.4442 -3.4125  1.7816
  343SOL     vw 1372   0.339   3.840   0.756 -0.1195 -0.7542  0.5300
  344SOL     ow 1373   1.256   4.554   0.983  0.5647 -0.0259 -0.4633
  344SOL     hw 1374   1.176   4.540   1.033  1.1528 -1.4595  0.1443
  344SOL     hw 1375   1.265   4.649   0.977  0.9033  0.2654  2.8963
  344SOL     vw 1376   1.247   4.565   0.989  0.6870 -0.1767  0.0601
  345SOL     ow 1377   3.596   2.664   4.510 -0.3173  0.0210  0.0547
  345SOL     hw 1378   3.551   2.687   4.429  0.0582  1.3901  0.2123
  345SOL     hw 1379   3.538   2.695   4.580 -0.5655 -1.0069  0.3157
  345SOL     vw 1380   3.582   2.671   4.509 -0.3005  0.0660  0.1101
  346SOL     ow 1381   1.353   0.706   2.185 -0.4029  0.0636  0.1908
  346SOL     hw 1382   1.389   0.689   2.098 -3.1899  2.8433 -1.7273
  346SOL     hw 1383   1.266   0.666   2.183 -0.9547  1.1608  1.2383
  346SOL     vw 1384   1.346   0.699   2.173 -0.8435  0.5751  0.0759
  347SOL     ow 1385   6.101   3.267   2.383 -0.0872 -0.6034  0.2734
  347SOL     hw 1386   6.034   3.267   2.451 -1.0704 -0.9632 -0.6831
  347SOL     hw 1387   6.128   3.176   2.376 -0.6475 -0.7208 -0.4480
  347SOL     vw 1388   6.096   3.255   2.391 -0.2906 -0.6664  0.0519
  348SOL     ow 1389   4.616   5.901   0.327  0.2212  0.0691  0.0182
  348SOL     hw 1390   4.614   5.994   0.351 -1.2400 -0.0169  0.2764
  348SOL     hw 1391   4.524   5.876   0.320  0.6019 -1.1560 -0.8707
  348SOL     vw 1392   4.604   5.910   0.329  0.0787 -0.1037 -0.0650
  349SOL     ow 1393   4.073   0.369   3.253 -0.2246  0.0708 -0.1086
  349SOL     hw 1394   4.146   0.357   3.313 -0.9621 -0.8655  0.6252
  349SOL     hw 1395   4.073   0.291   3.198 -2.7022 -1.6835  2.1525
  349SOL     vw 1396   4.082   0.357   3.253 -0.6487 -0.2842  0.2866
  350SOL     ow 1397   4.798   3.202   1.104  0.1714  0.0705 -0.0103
  350SOL     hw 1398   4.757   3.119   1.129  1.3486 -0.3395  0.6459
  350SOL     hw 1399   4.875   3.176   1.053  1.6250  0.6376  1.7685
  350SOL     vw 1400   4.803   3.187   1.100  0.5183  0.0911  0.3110
  351SOL     ow 1401   2.670   4.911   4.311  0.8786  0.1758 -0.1639
  351SOL     hw 1402   2.758   4.896   4.277  1.2124  0.6239  0.4981
  351SOL     hw 1403   2.612   4.877   4.242  1.5259  1.5269 -1.4193
  351SOL     vw 1404   2.674   4.904   4.297  1.0079  0.4132 -0.2422
  352SOL     ow 1405   5.421   2.405   0.686  0.6893  0.4148  0.2148
  352SOL     hw 1406   5.465   2.487   0.663  1.9019 -0.4971 -0.8299
  352SOL     hw 1407   5.368   2.383   0.609  2.1061 -0.9013 -0.4175
  352SOL     vw 1408   5.420   2.413   0.673  1.0362  0.1208 -0.0064
  353SOL     ow 1409   5.278   1.450   2.003  0.1054 -0.4530 -0.3170
  353SOL     hw 1410   5.324   1.490   2.077 -1.3946  0.3235  0.2358
  353SOL     hw 1411   5.288   1.513   1.932  0.4554 -0.5974 -0.3970
  353SOL     vw 1412   5.286   1.464   2.003 -0.0465 -0.3695 -0.2546
  354SOL     ow 1413   4.930   5.793   0.352 -0.4812 -0.1557  0.0743
  354SOL     hw 1414   4.984   5.719   0.383  1.3739  0.8026 -0.7454
  354SOL     hw 1415   4.965   5.814   0.266 -1.9452  0.7755 -0.3219
  354SOL     vw 1416   4.942   5.786   0.345 -0.4296  0.0937 -0.0862
  355SOL     ow 1417   5.595   6.626   0.105 -0.2550 -0.1007  0.6921
  355SOL     hw 1418   5.651   6.666   0.172  1.8338 -1.6656 -0.0184
  355SOL     hw 1419   5.547   6.558   0.151  0.5126 -0.5820  0.8012
  355SOL     vw 1420   5.596   6.622   0.120  0.1221 -0.3705  0.6128
  356SOL     ow 1421   7.170   5.355   0.081  0.1712  0.3115 -0.9756
  356SOL     hw 1422   7.128   5.325   0.162  0.3377  1.5608 -0.4124
  356SOL     hw 1423   7.124   5.436   0.059  0.2563  0.0796 -2.0317
  356SOL     vw 1424   7.158   5.362   0.089  0.2043  0.4458 -1.0406
  357SOL     ow 1425   6.581   4.363   1.948 -0.0044 -0.2340  0.3774
  357SOL     hw 1426   6.561   4.388   1.858 -1.2417  0.7305  0.8924
  357SOL     hw 1427   6.618   4.442   1.987 -1.8409  0.1837  1.3973
  357SOL     vw 1428   6.584   4.377   1.941 -0.4098 -0.0517  0.5798
  358SOL     ow 1429   5.781   2.829   7.013  0.4242 -0.2972  0.1300
  358SOL     hw 1430   5.746   2.741   7.028  2.3664 -1.3273 -0.9677
  358SOL     hw 1431   5.860   2.832   7.066  2.1613 -0.4905 -2.2831
  358SOL     vw 1432   5.787   2.817   7.022  0.9096 -0.4586 -0.3331
  359SOL     ow 1433   5.702   6.959   2.023 -0.2372  0.5728  0.2693
  359SOL     hw 1434   5.688   6.865   2.028  0.4937  0.2744 -1.9113
  359SOL     hw 1435   5.754   6.980   2.100  0.3480 -0.9769  0.3373
  359SOL     vw 1436   5.707   6.950   2.034 -0.0634  0.3290 -0.0094
  360SOL     ow 1437   3.575   5.632   0.977  0.6743 -0.4159  0.5812
  360SOL     hw 1438   3.481   5.646   0.962  0.8063 -0.1476  0.0002
  360SOL     hw 1439   3.596   5.690   1.051  0.8309  1.2047 -0.6585
  360SOL     vw 1440   3.565   5.642   0.985  0.7124 -0.1667  0.3410
  361SOL     ow 1441   4.647   0.306   4.835 -0.1432  0.1368 -0.4134
  361SOL     hw 1442   4.596   0.380   4.865  0.4753 -0.5879  2.7361
  361SOL     hw 1443   4.737   0.327   4.860  0.2936 -0.9293 -1.0297
  361SOL     vw 1444   4.653   0.318   4.842 -0.0041 -0.0995 -0.0794
  362SOL     ow 1445   0.388   6.741   0.046  0.3246 -0.0749  0.3148
  362SOL     hw 1446   0.421   6.701  -0.035 -2.0549  0.8980 -1.2667
  362SOL     hw 1447   0.347   6.668   0.093  3.0012 -0.9414  1.4719
  362SOL     vw 1448   0.387   6.726   0.041  0.3638 -0.0608  0.2587
  363SOL     ow 1449   1.117   5.629   5.548 -0.1029  1.1170  0.1939
  363SOL     hw 1450   1.126   5.656   5.457  0.0937 -1.6204 -0.6835
  363SOL     hw 1451   1.054   5.691   5.586 -0.5492  2.0205 -1.9050
  363SOL     vw 1452   1.110   5.641   5.541 -0.1358  0.8750 -0.1988
  364SOL     ow 1453   1.198   4.636   6.598  0.6189 -0.0633  0.1028
  364SOL     hw 1454   1.254   4.647   6.522 -0.4980  1.4525 -0.5448
  364SOL     hw 1455   1.219   4.548   6.631  1.1154 -0.7585 -1.9432
  364SOL     vw 1456   1.208   4.626   6.593  0.5371  0.0453 -0.2527
  365SOL     ow 1457   6.004   4.690   0.429 -0.1066 -0.2331 -0.0095
  365SOL     hw 1458   5.984   4.717   0.519  1.5005 -1.1699  0.6682
  365SOL     hw 1459   5.972   4.600   0.423  1.7528 -0.9569  0.3790
  365SOL     vw 1460   5.997   4.682   0.440  0.3505 -0.4525  0.1312
  366SOL     ow 1461   0.882   1.076   0.780 -0.1049 -0.0862 -0.2771
  366SOL     hw 1462   0.905   1.130   0.705 -0.9762  2.1849  0.9627
  366SOL     hw 1463   0.786   1.072   0.779 -0.2249  1.0453  1.3060
  366SOL     vw 1464   0.872   1.083   0.770 -0.2357  0.3628  0.0953
  367SOL     ow 1465   0.524   4.660   3.539  0.0202  0.4335 -0.2782
  367SOL     hw 1466   0.607   4.693   3.504  0.3494 -0.7139 -0.6227
  367SOL     hw 1467   0.469   4.646   3.461 -0.3150  0.7023 -0.0926
  367SOL     vw 1468   0.528   4.662   3.524  0.0194  0.3176 -0.2992
  368SOL     ow 1469   0.213   3.710   6.856  0.3054  0.2460  0.1267
  368SOL     hw 1470   0.234   3.618   6.844  1.0041  0.4291 -0.1113
  368SOL     hw 1471   0.164   3.713   6.938  0.0580 -0.3651  0.0057
  368SOL     vw 1472   0.209   3.698   6.866  0.3650  0.1897  0.0794
  369SOL     ow 1473   2.192   7.004   0.231 -0.1069  0.3382  0.0858
  369SOL     hw 1474   2.176   6.989   0.137  0.3374 -0.8127  0.1739
  369SOL     hw 1475   2.112   7.046   0.262 -0.7630 -0.3689 -0.5751
  369SOL     vw 1476   2.179   7.007   0.222 -0.1349  0.0930  0.0102
  370SOL     ow 1477   1.845   4.973   4.723  0.3102  0.2159  0.4059
  370SOL     hw 1478   1.809   4.885   4.713  2.6686 -0.8646  0.6852
  370SOL     hw 1479   1.879   4.995   4.636  1.6926 -0.1243  0.8329
  370SOL     vw 1480   1.845   4.964   4.710  0.8038  0.0284  0.4990
  371SOL     ow 1481   2.084   5.727   1.306  0.0000  0.1854  0.1168
  371SOL     hw 1482   2.005   5.699   1.260 -1.1371  2.3634  0.6349
  371SOL     hw 1483   2.136   5.771   1.238 -0.1367  0.4578  0.1870
  371SOL     vw 1484   2.081   5.729   1.291 -0.1681  0.5090  0.1944
  372SOL     ow 1485   3.018   0.952   0.750 -0.7241  0.0137 -0.3764
  372SOL     hw 1486   3.008   1.044   0.727 -0.2051 -0.1414 -1.2670
  372SOL     hw 1487   2.935   0.928   0.790 -0.9722  0.7862 -0.4097
  372SOL     vw 1488   3.006   0.961   0.752 -0.6884  0.0951 -0.4983
  373SOL     ow 1489   1.153   2.587   5.318  0.4374 -0.1440 -0.5943
  373SOL     hw 1490   1.212   2.649   5.273  2.1978 -0.9294  0.5024
  373SOL     hw 1491   1.212   2.529   5.366 -1.2467 -1.4700 -0.0267
  373SOL     vw 1492   1.169   2.588   5.318  0.4475 -0.4226 -0.3748
  374SOL     ow 1493   2.001   5.415   2.429 -0.0468 -0.0375 -0.0789
  374SOL     hw 1494   2.006   5.465   2.347 -0.0419 -0.7255 -0.5041
  374SOL     hw 1495   2.092   5.402   2.454 -0.0485  0.1897  0.0489
  374SOL     vw 1496   2.013   5.420   2.421 -0.0464 -0.0985 -0.1180
  375SOL     ow 1497   4.132   2.341   2.922 -0.1204 -0.4863  0.0214
  375SOL     hw 1498   4.061   2.381   2.871 -0.8306 -2.2283 -0.4166
  375SOL     hw 1499   4.113   2.248   2.920  0.6751 -0.7495  2.2337
  375SOL     vw 1500   4.120   2.334   2.915 -0.1090 -0.7508  0.2553
  376SOL     ow 1501   0.201   1.429   2.652 -0.5075  0.1230 -0.5757
  376SOL     hw 1502   0.146   1.379   2.591 -1.8016  1.4029 -0.4923
  376SOL     hw 1503   0.157   1.513   2.661 -0.2080  0.0747  1.9185
  376SOL     vw 1504   0.188   1.433   2.645 -0.6387  0.2855 -0.2356
  377SOL     ow 1505   2.812   2.048   6.469 -0.1921 -0.1968 -0.2420
  377SOL     hw 1506   2.816   2.141   6.492 -1.1211 -0.4682  1.1297
  377SOL     hw 1507   2.728   2.037   6.426 -0.8385 -0.6865  1.0952
  377SOL     vw 1508   2.802   2.059   6.467 -0.3999 -0.2972  0.1154
  378SOL     ow 1509   6.683   3.965   0.678  0.1450 -0.2905  0.4683
  378SOL     hw 1510   6.643   3.911   0.746 -0.2244  1.0274  1.3566
  378SOL     hw 1511   6.637   3.942   0.598 -0.7572 -0.5017  1.0346
  378SOL     vw 1512   6.672   3.955   0.676 -0.0229 -0.1445  0.6602
  379SOL     ow 1513   4.766   6.629   0.870 -0.0009 -0.5084 -0.8377
  379SOL     hw 1514   4.792   6.718   0.893 -0.1115 -0.2012 -1.8400
  379SOL     hw 1515   4.670   6.629   0.878 -0.1365 -0.1035 -2.2161
  379SOL     vw 1516   4.757   6.640   0.874 -0.0336 -0.4141 -1.1518
  380SOL     ow 1517   6.463   4.167   5.364 -0.5761  0.2675 -0.1958
  380SOL     hw 1518   6.469   4.128   5.277 -0.1568  0.0431 -0.0673
  380SOL     hw 1519   6.517   4.246   5.359 -0.6681  0.3313 -0.1831
  380SOL     vw 1520   6.471   4.172   5.352 -0.5331  0.2465 -0.1774
  381SOL     ow 1521   4.092   7.139   4.716 -0.2838 -0.3344  0.0068
  381SOL     hw 1522   4.058   7.160   4.629  0.2073 -2.4034 -0.7446
  381SOL     hw 1523   4.026   7.080   4.754  0.1247 -0.4765  0.5079
  381SOL     vw 1524   4.079   7.134   4.709 -0.1652 -0.6261 -0.0262
  382SOL     ow 1525   6.690   2.152   6.005  0.0573  0.9087  0.0119
  382SOL     hw 1526   6.704   2.219   6.073  1.0091  1.4282 -0.6722
  382SOL     hw 1527   6.654   2.201   5.931 -3.2748  0.0087  0.8398
  382SOL     vw 1528   6.687   2.168   6.004 -0.2568  0.8585  0.0305
  383SOL     ow 1529   6.432   0.918   6.757  0.2048  0.5051  0.1111
  383SOL     hw 1530   6.366   0.913   6.826  0.5028 -1.0546  0.3219
  383SOL     hw 1531   6.492   0.847   6.776  1.4447  1.3158 -0.6175
  383SOL     vw 1532   6.431   0.908   6.768  0.4075  0.4063  0.0424
  384SOL     ow 1533   3.268   6.610   2.962  0.2961  0.3555  0.0135
  384SOL     hw 1534   3.364   6.611   2.958  0.2752  1.1665 -0.6600
  384SOL     hw 1535   3.240   6.658   2.884 -0.6246  1.3329  0.8992
  384SOL     vw 1536   3.277   6.617   2.951  0.1719  0.5915  0.0415
  385SOL     ow 1537   6.683   5.450   1.339 -0.0758  0.3445 -0.3206
  385SOL     hw 1538   6.694   5.428   1.246 -0.5430  2.1709 -0.8476
  385SOL     hw 1539   6.588   5.449   1.352 -0.0109  0.0766  0.1613
  385SOL     vw 1540   6.672   5.447   1.328 -0.1290  0.5500 -0.3265
  386SOL     ow 1541   3.603   2.323   4.300 -0.5000  0.0791  0.0962
  386SOL     hw 1542   3.561   2.373   4.230  1.6185 -0.4455 -1.6734
  386SOL     hw 1543   3.547   2.246   4.312 -1.5783  0.8226 -0.0771
  386SOL     vw 1544   3.590   2.320   4.292 -0.3629  0.1080 -0.1602
  387SOL     ow 1545   0.727   1.603   1.769  0.1231  0.0221  0.3977
  387SOL     hw 1546   0.800   1.595   1.829 -0.2018 -0.0865  0.7830
  387SOL     hw 1547   0.767   1.608   1.682  0.5381 -3.7064  0.2189
  387SOL     vw 1548   0.742   1.603   1.765  0.1349 -0.4841  0.4249
  388SOL     ow 1549   0.713   1.913   5.565  0.0069  0.2194 -0.0210
  388SOL     hw 1550   0.694   2.005   5.584 -1.2662 -0.2747  1.3056
  388SOL     hw 1551   0.644   1.865   5.610  1.1610 -1.4425  0.0626
  388SOL     vw 1552   0.701   1.919   5.573 -0.0088 -0.0651  0.1652
  389SOL     ow 1553   0.664   7.116   1.688 -0.8942  0.4066  0.1312
  389SOL     hw 1554   0.598   7.183   1.670 -1.5836 -0.9734 -3.1188
  389SOL     hw 1555   0.734   7.134   1.625 -0.1962 -0.8264  0.5123
  389SOL     vw 1556   0.665   7.127   1.678 -0.8931  0.0615 -0.2473
  390SOL     ow 1557   0.162   3.339   3.517  0.8513 -0.3052 -0.1244
  390SOL     hw 1558   0.235   3.314   3.460  0.2080  0.2722 -1.2539
  390SOL     hw 1559   0.149   3.432   3.498  0.8304 -0.0057  1.2491
  390SOL     vw 1560   0.170   3.348   3.507  0.7636 -0.1895 -0.0921
  391SOL     ow 1561   3.339   2.145   0.415  0.2130 -0.0588  0.1062
  391SOL     hw 1562   3.396   2.076   0.450 -0.7062 -1.4470 -0.9916
  391SOL     hw 1563   3.294   2.181   0.492 -0.2656 -1.6313  0.6025
  391SOL     vw 1564   3.341   2.140   0.430  0.0286 -0.4494  0.0269
  392SOL     ow 1565   1.964   1.894   3.191  0.5289 -0.3892  0.6300
  392SOL     hw 1566   1.987   1.853   3.107 -0.5720 -0.4570  0.3372
  392SOL     hw 1567   2.013   1.976   3.193  0.1141 -0.0994 -0.3692
  392SOL     vw 1568   1.974   1.899   3.180  0.3289 -0.3598  0.4596
  393SOL     ow 1569   5.638   4.445   5.760 -0.0080  0.3558 -0.1495
  393SOL     hw 1570   5.690   4.426   5.682  0.2684 -1.4723  0.4264
  393SOL     hw 1571   5.695   4.420   5.833 -0.4154  1.6441  0.6317
  393SOL     vw 1572   5.652   4.439   5.760 -0.0255  0.2847  0.0293
  394SOL     ow 1573   3.600   6.001   0.367  0.3441 -0.2598  0.5365
  394SOL     hw 1574   3.552   5.919   0.369 -0.9873  0.5067  0.9550
  394SOL     hw 1575   3.682   5.982   0.413  0.0133 -1.3138  0.7064
  394SOL     vw 1576   3.605   5.988   0.373  0.1248 -0.2980  0.6142
  395SOL     ow 1577   5.506   0.237   1.654 -0.0875  0.1780 -0.4990
  395SOL     hw 1578   5.560   0.225   1.732 -0.3818 -0.4841 -0.3912
  395SOL     hw 1579   5.551   0.305   1.604  0.5618  0.0096 -0.1528
  395SOL     vw 1580   5.519   0.244   1.658 -0.0408  0.0684 -0.4392
  396SOL     ow 1581   4.519   1.570   0.899  0.1123  0.5582  0.7236
  396SOL     hw 1582   4.428   1.543   0.893  0.0981  0.8628 -0.6152
  396SOL     hw 1583   4.518   1.664   0.883  1.0645 -0.0317 -4.4670
  396SOL     vw 1584   4.507   1.579   0.896  0.2358  0.5206 -0.1379
  397SOL     ow 1585   5.306   4.093   2.238  0.5005 -0.1423  0.0249
  397SOL     hw 1586   5.352   4.010   2.237  0.2256 -0.3165 -1.5594
  397SOL     hw 1587   5.254   4.092   2.158 -0.8436  0.8266  0.8372
  397SOL     vw 1588   5.305   4.082   2.227  0.2868 -0.0374 -0.0770
  398SOL     ow 1589   5.111   6.630   4.803  0.3679 -0.1269 -0.5693
  398SOL     hw 1590   5.113   6.542   4.843 -1.1961 -0.0076 -0.1902
  398SOL     hw 1591   5.200   6.664   4.818 -0.1560  0.0606  3.2705
  398SOL     vw 1592   5.123   6.623   4.810  0.0927 -0.0861 -0.0126
  399SOL     ow 1593   2.769   1.414   0.001  0.0168 -0.1565 -0.4234
  399SOL     hw 1594   2.748   1.327  -0.033 -3.0832 -0.4276  1.6796
  399SOL     hw 1595   2.781   1.401   0.095  2.6966  1.3161 -0.4586
  399SOL     vw 1596   2.768   1.401   0.009 -0.0386  0.0020 -0.1505
  400SOL     ow 1597   0.187   5.655   0.227  0.2154  0.2552 -0.1877
  400SOL     hw 1598   0.104   5.636   0.271 -0.4294  0.6275 -1.2163
  400SOL     hw 1599   0.168   5.731   0.171  1.2188  0.2823 -0.5070
  400SOL     vw 1600   0.173   5.662   0.225  0.2627  0.3078 -0.3656
  401SOL     ow 1601   5.275   1.875   2.923  0.0888  0.7092 -0.0011
  401SOL     hw 1602   5.199   1.873   2.981 -0.1053  1.3757 -0.2163
  401SOL     hw 1603   5.286   1.785   2.894 -0.4390  0.5568  0.2616
  401SOL     vw 1604   5.267   1.863   2.927 -0.0064  0.7771  0.0052
  402SOL     ow 1605   6.055   0.819   3.046  0.0504 -0.0626 -0.4240
  402SOL     hw 1606   6.051   0.809   2.951  2.0105  0.6515 -0.6227
  402SOL     hw 1607   6.145   0.848   3.063 -0.3985  0.2487  1.6078
  402SOL     vw 1608   6.066   0.822   3.036  0.2499  0.0727 -0.1820
  403SOL     ow 1609   2.230   0.778   7.055  0.1293 -0.3553 -0.2724
  403SOL     hw 1610   2.300   0.769   6.990  0.6110  1.1400  0.0049
  403SOL     hw 1611   2.259   0.725   7.129  0.6929 -0.2009 -0.3823
  403SOL     vw 1612   2.243   0.770   7.056  0.2673 -0.1377 -0.2501
  404SOL     ow 1613   3.291   5.684   1.792 -0.7385  0.0892 -0.5515
  404SOL     hw 1614   3.225   5.753   1.790 -0.4887  0.3458 -0.1309
  404SOL     hw 1615   3.334   5.695   1.877 -1.2512 -1.0957 -0.1227
  404SOL     vw 1616   3.288   5.695   1.803 -0.7732 -0.0331 -0.4395
  405SOL     ow 1617   7.165   6.054   6.044 -0.3512  0.0918 -0.0414
  405SOL     hw 1618   7.182   6.098   5.960 -2.3028 -0.7944 -0.9822
  405SOL     hw 1619   7.251   6.031   6.077  0.4946  0.7105 -1.6707
  405SOL     vw 1620   7.178   6.057   6.037 -0.4971  0.0567 -0.3808
  406SOL     ow 1621   0.451   0.326   0.093 -0.6095 -0.7140 -0.2002
  406SOL     hw 1622   0.519   0.389   0.114 -1.1787 -0.2398  0.2823
  406SOL     hw 1623   0.495   0.241   0.097 -0.2018 -0.4774  0.8450
  406SOL     vw 1624   0.466   0.323   0.096 -0.6308 -0.6202  0.0014
  407SOL     ow 1625   5.406   2.545   1.954  0.4496  0.2563  0.4884
  407SOL     hw 1626   5.498   2.545   1.980  0.4156 -1.9468  0.8882
  407SOL     hw 1627   5.359   2.561   2.036  0.4611 -1.9379  1.0000
  407SOL     vw 1628   5.412   2.547   1.968  0.4466 -0.3239  0.6086
  408SOL     ow 1629   5.725   4.955   0.205  0.2764 -0.0781  0.2858
  408SOL     hw 1630   5.741   4.934   0.112 -1.4424 -1.5721  0.2551
  408SOL     hw 1631   5.664   4.886   0.234 -0.9142  1.5897  1.9473
  408SOL     vw 1632   5.719   4.943   0.196 -0.1075 -0.0551  0.5010
  409SOL     ow 1633   7.105   5.858   0.872 -0.3632  0.2599 -0.1180
  409SOL     hw 1634   7.032   5.911   0.841  0.3252  0.6696 -1.1021
  409SOL     hw 1635   7.163   5.921   0.915 -0.3817  0.0044  0.2875
  409SOL     vw 1636   7.103   5.873   0.874 -0.2749  0.2804 -0.1943
  410SOL     ow 1637   6.069   4.663   6.151  0.3671  0.1728 -0.2871
  410SOL     hw 1638   6.117   4.584   6.175 -0.6178 -0.4765 -0.4068
  410SOL     hw 1639   6.123   4.734   6.186  0.9223 -0.5722  0.4395
  410SOL     vw 1640   6.083   4.662   6.159  0.3102 -0.0112 -0.2072
  411SOL     ow 1641   0.945   6.190   2.438  0.3498 -0.0960 -0.4533
  411SOL     hw 1642   0.977   6.190   2.528  0.7369 -2.3062 -0.5273
  411SOL     hw 1643   1.019   6.220   2.385  1.2074 -1.7916 -0.2848
  411SOL     vw 1644   0.959   6.194   2.443  0.5141 -0.6115 -0.4407
  412SOL     ow 1645   2.298   2.520   1.004  0.1923 -0.3723  0.5853
  412SOL     hw 1646   2.348   2.582   0.950 -0.7520 -0.6732 -0.6794
  412SOL     hw 1647   2.328   2.434   0.976  0.7523 -0.5146  1.6019
  412SOL     vw 1648   2.308   2.517   0.993  0.1415 -0.4307  0.5526
  413SOL     ow 1649   0.804   3.452   5.298  0.3109 -0.4535  0.0461
  413SOL     hw 1650   0.795   3.542   5.330 -0.4866 -0.2737 -0.6692
  413SOL     hw 1651   0.862   3.410   5.362  1.8996  0.9618 -0.4102
  413SOL     vw 1652   0.810   3.458   5.311  0.4153 -0.2429 -0.1082
  414SOL     ow 1653   3.472   6.948   5.846 -0.6456 -0.3111  0.5760
  414SOL     hw 1654   3.400   6.962   5.784  0.6093 -1.2809 -1.2315
  414SOL     hw 1655   3.507   6.862   5.822  1.0219  0.0732  1.4826
  414SOL     vw 1656   3.467   6.939   5.834 -0.2601 -0.3884  0.4573
  415SOL     ow 1657   4.294   5.037   4.150 -0.4191 -0.1577 -0.8410
  415SOL     hw 1658   4.213   5.082   4.177  0.8335  1.6023  0.2336
  415SOL     hw 1659   4.327   4.997   4.230 -1.6117 -3.3609 -1.8221
  415SOL     vw 1660   4.288   5.038   4.164 -0.4110 -0.3481 -0.8287
  416SOL     ow 1661   2.005   2.129   2.559  0.4772  0.0509  0.2001
  416SOL     hw 1662   1.925   2.175   2.537 -0.6625 -0.6410  2.5842
  416SOL     hw 1663   1.994   2.041   2.521  0.9148  0.4776 -0.9574
  416SOL     vw 1664   1.993   2.123   2.551  0.3847  0.0160  0.3619
  417SOL     ow 1665   1.437   2.828   0.027 -0.0595  0.0174  0.2186
  417SOL     hw 1666   1.420   2.902   0.085  0.7745  0.2589  0.1753
  417SOL     hw 1667   1.366   2.767   0.044 -0.5504  0.6627  0.5327
  417SOL     vw 1668   1.425   2.830   0.037 -0.0142  0.1343  0.2542
  418SOL     ow 1669   0.687   1.953   3.619 -0.1786  0.1646 -0.7864
  418SOL     hw 1670   0.645   1.902   3.549 -0.1099 -2.5286  0.9914
  418SOL     hw 1671   0.619   1.963   3.685  0.3402  0.8804 -0.3509
  418SOL     vw 1672   0.673   1.947   3.618 -0.1011 -0.0963 -0.4944
  419SOL     ow 1673   6.651   5.609   2.391 -0.1420 -1.2227  0.2903
  419SOL     hw 1674   6.582   5.646   2.335 -0.1597  1.6347  2.0177
  419SOL     hw 1675   6.717   5.577   2.329 -1.2758 -0.5383 -1.3632
  419SOL     vw 1676   6.650   5.609   2.375 -0.2940 -0.7555  0.3000
  420SOL     ow 1677   6.365   3.480   6.478  0.4197  0.2983 -0.1920
  420SOL     hw 1678   6.347   3.386   6.491 -0.3630  0.3914 -0.5089
  420SOL     hw 1679   6.315   3.503   6.400  1.0866  0.8532 -0.4571
  420SOL     vw 1680   6.356   3.471   6.470  0.4044  0.3839 -0.2689
  421SOL     ow 1681   6.950   3.704   4.960  0.1226  0.7514  0.1242
  421SOL     hw 1682   6.992   3.746   4.885 -0.1536  0.6752 -0.0774
  421SOL     hw 1683   6.999   3.735   5.036  2.7292 -1.9376 -0.3004
  421SOL     vw 1684   6.962   3.714   4.960  0.4301  0.3866  0.0417
  422SOL     ow 1685   4.201   1.915   4.242 -0.4546 -0.0096  0.0232
  422SOL     hw 1686   4.290   1.907   4.275 -0.1463 -1.0266 -0.9932
  422SOL     hw 1687   4.200   1.997   4.192 -0.6225  0.9632  1.5601
  422SOL     vw 1688   4.212   1.925   4.240 -0.4363 -0.0154  0.0920
  423SOL     ow 1689   1.348   6.755   3.034 -0.3091 -0.1669  0.6690
  423SOL     hw 1690   1.381   6.773   3.122  0.9700 -0.1337  0.2083
  423SOL     hw 1691   1.364   6.661   3.021 -0.4268 -0.1577  0.4539
  423SOL     vw 1692   1.355   6.745   3.044 -0.1559 -0.1612  0.5798
  424SOL     ow 1693   4.959   2.119   2.924  0.3818 -0.1654  0.2474
  424SOL     hw 1694   4.926   2.189   2.981  0.5020 -1.1847  1.6136
  424SOL     hw 1695   5.052   2.139   2.913  0.2575  0.2980  0.0008
  424SOL     vw 1696   4.967   2.131   2.930  0.3815 -0.2387  0.3951
  425SOL     ow 1697   1.338   5.265   0.244  0.1190 -0.0459  0.3308
  425SOL     hw 1698   1.390   5.216   0.181 -0.4383 -1.0849  0.6494
  425SOL     hw 1699   1.289   5.328   0.192 -1.6075 -1.9876 -0.5423
  425SOL     vw 1700   1.338   5.267   0.229 -0.1823 -0.4394  0.2576
  426SOL     ow 1701   4.495   0.954   1.552  0.1585  0.2307 -0.6656
  426SOL     hw 1702   4.460   1.009   1.621 -0.4258  1.1987 -1.6910
  426SOL     hw 1703   4.586   0.982   1.542 -0.1668  1.1219 -1.2552
  426SOL     vw 1704   4.503   0.965   1.560  0.0386  0.4760 -0.8786
  427SOL     ow 1705   2.998   7.071   3.537  0.2527 -0.0474  0.0463
  427SOL     hw 1706   3.035   7.159   3.527 -1.5033  0.9142  1.3883
  427SOL     hw 1707   2.905   7.086   3.553 -0.0853 -2.1577  0.3367
  427SOL     vw 1708   2.991   7.084   3.538 -0.0235 -0.1988  0.2618
  428SOL     ow 1709   0.609   1.597   2.934  0.6978 -0.5299  0.2907
  428SOL     hw 1710   0.628   1.690   2.920  1.4728 -0.5577  1.1097
  428SOL     hw 1711   0.695   1.555   2.941  0.3829 -0.9887  1.9291
  428SOL     vw 1712   0.623   1.604   2.933  0.7585 -0.5941  0.6150
  429SOL     ow 1713   0.686   4.496   6.548 -0.0256  0.2694 -0.7509
  429SOL     hw 1714   0.645   4.446   6.619 -1.2641  2.4093  0.1178
  429SOL     hw 1715   0.613   4.524   6.494  0.6538  1.0724 -1.2604
  429SOL     vw 1716   0.671   4.493   6.550 -0.0994  0.6576 -0.7033
  430SOL     ow 1717   4.010   3.729   6.958 -0.3111  0.5015  0.2089
  430SOL     hw 1718   4.047   3.810   6.992  0.4886  0.3343 -0.2371
  430SOL     hw 1719   3.944   3.704   7.023 -0.3876  1.3642  0.4778
  430SOL     vw 1720   4.006   3.736   6.971 -0.2160  0.5933  0.1855
  431SOL     ow 1721   0.768   2.154   1.853 -0.4663  0.0800  0.5399
  431SOL     hw 1722   0.710   2.112   1.915 -1.6239 -0.5516 -0.9085
  431SOL     hw 1723   0.718   2.157   1.771  0.9458  0.9792 -0.3394
  431SOL     vw 1724   0.754   2.149   1.850 -0.4328  0.1153  0.2328
  432SOL     ow 1725   0.051   0.447   0.292 -0.5524  0.6587 -0.2288
  432SOL     hw 1726   0.037   0.521   0.350 -0.0422 -0.9733  2.1343
  432SOL     hw 1727  -0.022   0.387   0.311 -0.4683  0.1275 -1.4238
  432SOL     vw 1728   0.039   0.449   0.302 -0.4740  0.3733 -0.0747
  433SOL     ow 1729   2.730   0.272   0.927  0.1766  0.1868  1.3524
  433SOL     hw 1730   2.646   0.309   0.955  0.1631  1.0769  0.2028
  433SOL     hw 1731   2.778   0.346   0.889  0.7619 -0.6628  0.3809
  433SOL     vw 1732   2.725   0.286   0.925  0.2520  0.1922  1.0725
  434SOL     ow 1733   4.086   1.342   1.523 -0.9302 -0.4656 -0.7702
  434SOL     hw 1734   4.101   1.370   1.433 -0.9945  0.4145 -0.5125
  434SOL     hw 1735   4.048   1.418   1.566  2.4095  0.4032  0.9701
  434SOL     vw 1736   4.083   1.355   1.517 -0.4981 -0.2348 -0.5066
  435SOL     ow 1737   2.601   1.358   6.000 -0.2620 -0.1160  0.0799
  435SOL     hw 1738   2.570   1.277   6.041 -0.6568 -0.8790 -1.6286
  435SOL     hw 1739   2.583   1.426   6.065 -0.8887 -1.2459  1.1409
  435SOL     vw 1740   2.595   1.356   6.014 -0.3967 -0.3657 -0.0055
  436SOL     ow 1741   0.674   1.654   7.144 -0.5658  0.2426  0.1153
  436SOL     hw 1742   0.729   1.592   7.193  0.0139  0.6938  0.0385
  436SOL     hw 1743   0.619   1.598   7.090 -0.9630 -0.2579  1.0094
  436SOL     vw 1744   0.674   1.638   7.143 -0.5417  0.2360  0.2229
  437SOL     ow 1745   1.682   4.245   5.655  0.0112  0.2101 -0.3699
  437SOL     hw 1746   1.650   4.186   5.588 -0.0947  1.4796 -1.4920
  437SOL     hw 1747   1.614   4.246   5.722 -0.5385 -0.0133 -0.9191
  437SOL     vw 1748   1.669   4.238   5.655 -0.0753  0.3479 -0.5906
  438SOL     ow 1749   3.618   5.555   0.514  0.4319 -0.1507  0.2116
  438SOL     hw 1750   3.653   5.479   0.467  0.5834 -0.0637  0.1816
  438SOL     hw 1751   3.571   5.517   0.589  0.2317 -0.2853  0.0160
  438SOL     vw 1752   3.617   5.540   0.518  0.4256 -0.1569  0.1819
  439SOL     ow 1753   4.548   3.471   0.620 -0.2365  0.5311 -0.7376
  439SOL     hw 1754   4.537   3.539   0.554 -0.6732 -0.7145 -1.9845
  439SOL     hw 1755   4.460   3.434   0.631 -0.4153  1.4341  1.3765
  439SOL     vw 1756   4.535   3.475   0.613 -0.3176  0.4859 -0.6232
  440SOL     ow 1757   5.865   1.306   1.102 -0.7574 -0.3748  0.6125
  440SOL     hw 1758   5.892   1.215   1.115  1.7691  0.1037 -0.6562
  440SOL     hw 1759   5.894   1.328   1.013 -2.5136  1.3005  0.3748
  440SOL     vw 1760   5.873   1.297   1.092 -0.6559 -0.0905  0.4137
  441SOL     ow 1761   1.377   0.341   4.128 -0.4966 -0.5166 -0.0218
  441SOL     hw 1762   1.352   0.333   4.036  1.3823 -1.6211 -0.4948
  441SOL     hw 1763   1.407   0.432   4.136  4.2415 -1.5809 -1.9976
  441SOL     vw 1764   1.378   0.352   4.117  0.3765 -0.8028 -0.3450
  442SOL     ow 1765   0.701   4.295   2.738  0.2019 -0.2862 -0.1091
  442SOL     hw 1766   0.658   4.380   2.734  1.0104  0.1252 -0.2498
  442SOL     hw 1767   0.756   4.299   2.817  0.7899 -0.4058 -0.5048
  442SOL     vw 1768   0.703   4.307   2.748  0.3862 -0.2477 -0.1800
  443SOL     ow 1769   6.830   5.687   4.369 -0.3247 -0.1430 -0.1409
  443SOL     hw 1770   6.905   5.746   4.380 -1.2817  0.7963  1.9568
  443SOL     hw 1771   6.754   5.744   4.366 -1.0262 -1.1057 -1.9389
  443SOL     vw 1772   6.830   5.702   4.370 -0.5434 -0.1459 -0.1011
  444SOL     ow 1773   0.225   1.588   4.732  0.6229 -0.3041 -0.1162
  444SOL     hw 1774   0.149   1.532   4.719  0.0645  0.5599 -0.7091
  444SOL     hw 1775   0.282   1.568   4.657  0.7136 -0.5340  0.0144
  444SOL     vw 1776   0.223   1.578   4.720  0.5612 -0.2205 -0.1769
  445SOL     ow 1777   7.134   6.458   5.329 -0.3471 -0.0730 -0.1854
  445SOL     hw 1778   7.151   6.524   5.261  2.7263 -1.4030 -0.8371
  445SOL     hw 1779   7.165   6.499   5.410 -2.9772  1.0731  0.3397
  445SOL     vw 1780   7.140   6.472   5.331 -0.2885 -0.0973 -0.2019
  446SOL     ow 1781   0.041   2.918   5.030  0.7132 -0.3217 -0.3670
  446SOL     hw 1782  -0.040   2.961   5.058  0.3371  0.4667 -2.4581
  446SOL     hw 1783   0.107   2.987   5.032  0.6008 -0.1434 -1.6139
  446SOL     vw 1784   0.039   2.933   5.034  0.6488 -0.1941 -0.8075
  447SOL     ow 1785   3.943   1.117   1.565 -0.3793  0.3952  0.0839
  447SOL     hw 1786   3.991   1.199   1.554 -2.0556  1.5196  0.6884
  447SOL     hw 1787   3.994   1.068   1.631 -0.2606  1.7196  1.0223
  447SOL     vw 1788   3.956   1.121   1.573 -0.5848  0.7182  0.2875
  448SOL     ow 1789   5.153   4.469   1.096 -0.1904  0.8280 -0.5601
  448SOL     hw 1790   5.202   4.411   1.154 -0.9756 -1.5863 -2.1268
  448SOL     hw 1791   5.209   4.479   1.019 -0.1948  1.9560 -0.4340
  448SOL     vw 1792   5.167   4.463   1.093 -0.2944  0.6588 -0.7502
  449SOL     ow 1793   6.828   1.389   4.038 -0.1361  0.3169  0.0439
  449SOL     hw 1794   6.821   1.472   4.085 -0.6000 -0.0544  0.6346
  449SOL     hw 1795   6.876   1.411   3.958 -1.1121  1.3584 -0.2874
  449SOL     vw 1796   6.833   1.403   4.034 -0.3262  0.4054  0.0780
  450SOL     ow 1797   3.027   2.786   1.848 -0.1708 -0.0387  0.3081
  450SOL     hw 1798   2.963   2.857   1.840  0.2661  0.3829  0.5272
  450SOL     hw 1799   3.000   2.740   1.928 -1.0696 -0.7620 -0.3765
  450SOL     vw 1800   3.015   2.789   1.858 -0.2317 -0.0786  0.2467
  451SOL     ow 1801   4.758   0.307   4.398  0.3987 -0.0063  0.0322
  451SOL     hw 1802   4.838   0.356   4.418  0.0287  0.6108  0.0353
  451SOL     hw 1803   4.730   0.340   4.313  0.4149 -0.5766 -0.1984
  451SOL     vw 1804   4.765   0.318   4.390  0.3521 -0.0002  0.0019
  452SOL     ow 1805   0.394   1.778   0.668  0.2194 -0.2833 -0.0215
  452SOL     hw 1806   0.357   1.780   0.580  0.4653  0.0607 -0.1210
  452SOL     hw 1807   0.388   1.869   0.698 -0.4415 -0.5167  0.5608
  452SOL     vw 1808   0.389   1.790   0.660  0.1647 -0.2686  0.0422
  453SOL     ow 1809   3.836   1.722   6.140  0.6597  0.7102 -0.1616
  453SOL     hw 1810   3.926   1.691   6.146  0.9916  1.7985  0.6836
  453SOL     hw 1811   3.783   1.644   6.159  1.3865 -0.0739 -1.2433
  453SOL     vw 1812   3.840   1.708   6.143  0.7995  0.7504 -0.1926
  454SOL     ow 1813   1.377   1.502   4.199 -0.3395  0.0561  0.3300
  454SOL     hw 1814   1.368   1.547   4.283 -2.3833  1.6066 -0.6173
  454SOL     hw 1815   1.446   1.550   4.154  0.0100 -0.0860  0.7115
  454SOL     vw 1816   1.385   1.515   4.204 -0.5630  0.2420  0.2549
  455SOL     ow 1817   4.119   3.543   1.270 -0.0556  0.2812  0.4726
  455SOL     hw 1818   4.070   3.623   1.254  0.7445  0.5306 -0.9117
  455SOL     hw 1819   4.195   3.571   1.320 -1.1358 -0.0728  2.4249
  455SOL     vw 1820   4.122   3.557   1.274 -0.0923  0.2675  0.5476
  456SOL     ow 1821   6.334   6.789   6.050 -0.3271  0.0816 -0.1856
  456SOL     hw 1822   6.397   6.718   6.061 -0.9566 -0.1236  2.8715
  456SOL     hw 1823   6.363   6.834   5.970  3.0920 -0.5796  0.5224
  456SOL     vw 1824   6.346   6.786   6.041  0.0408 -0.0329  0.3111
  457SOL     ow 1825   1.714   0.324   3.280 -0.1979  0.1109  0.5548
  457SOL     hw 1826   1.805   0.295   3.284  0.0649  0.6101 -1.2505
  457SOL     hw 1827   1.664   0.244   3.264  0.2637  0.2373 -1.7184
  457SOL     vw 1828   1.720   0.310   3.279 -0.1023  0.1934  0.0168
  458SOL     ow 1829   3.821   3.284   5.663  0.2554  0.2714  0.4684
  458SOL     hw 1830   3.843   3.371   5.696  0.6414 -0.0128  0.9967
  458SOL     hw 1831   3.904   3.251   5.628  0.0946  0.1430  0.2095
  458SOL     vw 1832   3.835   3.291   5.663  0.2851  0.2168  0.5038
  459SOL     ow 1833   2.555   4.922   5.720 -0.2053  0.2064  0.2082
  459SOL     hw 1834   2.605   5.003   5.729 -0.6430  0.7597 -1.6871
  459SOL     hw 1835   2.600   4.858   5.775  1.2450  1.2700  0.3044
  459SOL     vw 1836   2.567   4.924   5.728 -0.0716  0.4199 -0.0291
  460SOL     ow 1837   2.960   1.535   6.182  0.7942  0.0795 -0.0730
  460SOL     hw 1838   2.870   1.524   6.154  0.7566 -0.7476  0.3700
  460SOL     hw 1839   2.980   1.627   6.160  0.5774 -0.3295 -2.2197
  460SOL     vw 1840   2.951   1.546   6.175  0.7607 -0.0835 -0.2975
  461SOL     ow 1841   6.487   1.456   3.226  0.2059  0.6508  0.1184
  461SOL     hw 1842   6.483   1.518   3.154 -1.6659  2.7075  1.8296
  461SOL     hw 1843   6.396   1.441   3.250  0.6742 -1.7380  0.6704
  461SOL     vw 1844   6.475   1.462   3.220  0.0207  0.6071  0.4170
  462SOL     ow 1845   1.671   1.387   0.655 -0.7220 -0.2581 -0.8182
  462SOL     hw 1846   1.746   1.419   0.706 -2.2458  2.8164 -0.3027
  462SOL     hw 1847   1.694   1.296   0.634  2.7626  0.2919 -0.0150
  462SOL     vw 1848   1.684   1.379   0.659 -0.4634  0.2201 -0.6443
  463SOL     ow 1849   0.010   3.442   4.726 -0.6021 -0.0668  0.3798
  463SOL     hw 1850  -0.007   3.471   4.636 -0.6148  0.2507  0.4848
  463SOL     hw 1851   0.031   3.349   4.717 -0.5102 -0.0143  0.0373
  463SOL     vw 1852   0.010   3.433   4.713 -0.5915 -0.0180  0.3486
  464SOL     ow 1853   1.259   5.052   0.500 -0.2869 -0.2351  0.1421
  464SOL     hw 1854   1.249   5.067   0.594 -1.6635  0.9481 -0.1519
  464SOL     hw 1855   1.207   4.973   0.483 -0.3576 -0.2250  0.3118
  464SOL     vw 1856   1.251   5.044   0.510 -0.4779 -0.0777  0.1257
  465SOL     ow 1857   1.087   7.051   1.280  0.0094 -0.4425 -0.2667
  465SOL     hw 1858   1.116   7.055   1.371 -0.4854 -0.7753 -0.0870
  465SOL     hw 1859   1.162   7.017   1.231  0.7666  1.0593 -0.2205
  465SOL     vw 1860   1.100   7.047   1.285  0.0440 -0.2882 -0.2369
  466SOL     ow 1861   5.473   0.541   5.330  0.2296  0.3562 -0.1796
  466SOL     hw 1862   5.442   0.578   5.247  0.6071  0.6782 -0.1758
  466SOL     hw 1863   5.426   0.458   5.337  0.8190 -0.0821 -1.1328
  466SOL     vw 1864   5.462   0.535   5.320  0.3574  0.3409 -0.3049
  467SOL     ow 1865   0.468   1.998   3.104 -0.1914  0.0721 -0.0950
  467SOL     hw 1866   0.399   1.931   3.105 -1.2905  1.1508  1.4019
  467SOL     hw 1867   0.538   1.959   3.052 -1.3578 -1.6505 -0.4809
  467SOL     vw 1868   0.468   1.984   3.097 -0.4903 -0.0129  0.0515
  468SOL     ow 1869   1.901   0.196   3.646  0.5084  0.0847 -0.0029
  468SOL     hw 1870   1.989   0.204   3.609  1.2547 -0.2667  1.6237
  468SOL     hw 1871   1.912   0.215   3.739 -1.0412 -0.5643  0.3455
  468SOL     vw 1872   1.914   0.200   3.653  0.4024 -0.0473  0.2577
  469SOL     ow 1873   3.305   5.665   0.857  0.0850 -0.3011 -0.2437
  469SOL     hw 1874   3.280   5.743   0.806  0.0637 -0.3028 -0.2360
  469SOL     hw 1875   3.270   5.682   0.944  0.4592 -0.1276 -0.1282
  469SOL     vw 1876   3.297   5.678   0.861  0.1315 -0.2785 -0.2275
  470SOL     ow 1877   4.682   5.427   5.802 -0.1148  0.1352  0.9357
  470SOL     hw 1878   4.682   5.522   5.806 -0.0505  0.1193  1.3927
  470SOL     hw 1879   4.690   5.406   5.708 -0.4884  0.5728  0.8061
  470SOL     vw 1880   4.683   5.437   5.790 -0.1554  0.1907  0.9787
  471SOL     ow 1881   1.819   4.705   1.629 -0.2211  0.3961 -0.4015
  471SOL     hw 1882   1.791   4.679   1.717  0.5208 -1.6715 -0.7221
  471SOL     hw 1883   1.794   4.798   1.623  0.3765  0.8290  2.2450
  471SOL     vw 1884   1.812   4.714   1.640 -0.0443  0.1802 -0.0947
  472SOL     ow 1885   5.925   0.233   0.467  0.3314 -0.2658 -0.0021
  472SOL     hw 1886   5.841   0.280   0.467  0.1087 -0.5823  1.8302
  472SOL     hw 1887   5.958   0.243   0.378  0.3176  3.3412  0.2628
  472SOL     vw 1888   5.918   0.240   0.455  0.3004  0.1684  0.2746
  473SOL     ow 1889   4.422   0.331   1.401  0.4216 -0.0268  0.8775
  473SOL     hw 1890   4.510   0.368   1.405 -0.1105  1.4052  0.0212
  473SOL     hw 1891   4.364   0.404   1.422 -0.6413 -0.5108 -0.2654
  473SOL     vw 1892   4.426   0.345   1.404  0.2110  0.0982  0.6137
  474SOL     ow 1893   5.187   0.388   0.162 -0.5931 -0.0000 -0.0307
  474SOL     hw 1894   5.214   0.453   0.227 -2.3045  0.9420 -0.1964
  474SOL     hw 1895   5.246   0.401   0.088  0.1589  0.2085  0.5985
  474SOL     vw 1896   5.198   0.399   0.161 -0.7198  0.1518  0.0304
  475SOL     ow 1897   1.702   6.492   1.502 -0.0396  0.0841  0.0109
  475SOL     hw 1898   1.792   6.466   1.484 -0.7932 -2.6250 -0.3080
  475SOL     hw 1899   1.684   6.562   1.439  1.5311 -0.0208 -0.5819
  475SOL     vw 1900   1.711   6.498   1.491  0.0682 -0.2873 -0.1094
  476SOL     ow 1901   5.393   7.116   2.118 -0.1055  0.0221  0.4015
  476SOL     hw 1902   5.300   7.093   2.119  0.1782 -1.4368  2.8561
  476SOL     hw 1903   5.436   7.039   2.080  0.2771 -0.5786  1.9676
  476SOL     vw 1904   5.386   7.103   2.113 -0.0174 -0.2499  0.9319
  477SOL     ow 1905   3.566   0.676   0.335 -0.2448  0.3252  0.0064
  477SOL     hw 1906   3.528   0.589   0.350 -0.2495  0.0913 -1.2332
  477SOL     hw 1907   3.587   0.708   0.422  0.0155 -1.0462  0.4805
  477SOL     vw 1908   3.564   0.669   0.348 -0.2111  0.1134 -0.0946
  478SOL     ow 1909   6.205   0.582   5.918 -0.4203  0.6580 -0.4662
  478SOL     hw 1910   6.268   0.551   5.982 -1.6790 -0.7154  0.1735
  478SOL     hw 1911   6.257   0.611   5.843  0.9913  0.7527  0.5310
  478SOL     vw 1912   6.220   0.582   5.916 -0.4003  0.4893 -0.2503
  479SOL     ow 1913   4.431   0.093   0.583  0.2366 -0.1140  0.2138
  479SOL     hw 1914   4.385   0.069   0.503 -0.9158  0.9626  0.5272
  479SOL     hw 1915   4.388   0.042   0.651 -0.0894  0.4144  0.4130
  479SOL     vw 1916   4.420   0.083   0.581  0.0415  0.0978  0.2814
  480SOL     ow 1917   4.805   3.238   5.529 -0.0167  0.1349  0.3801
  480SOL     hw 1918   4.713   3.220   5.550 -0.0120  0.3229  0.5689
  480SOL     hw 1919   4.849   3.154   5.538  0.0822  0.2922  1.6373
  480SOL     vw 1920   4.798   3.225   5.533 -0.0029  0.1804  0.5713
  481SOL     ow 1921   4.099   5.788   3.430  0.0332 -0.0721 -0.2492
  481SOL     hw 1922   4.048   5.709   3.446 -0.8199  0.0504 -2.0238
  481SOL     hw 1923   4.180   5.757   3.390  0.3656 -0.1401  0.4819
  481SOL     vw 1924   4.103   5.774   3.427 -0.0355 -0.0648 -0.3870
  482SOL     ow 1925   2.672   5.186   2.261  0.0949 -0.1455  0.2280
  482SOL     hw 1926   2.705   5.273   2.244  1.1807 -0.9377 -1.9836
  482SOL     hw 1927   2.581   5.200   2.288  0.1202  1.6117 -0.4973
  482SOL     vw 1928   2.664   5.199   2.263  0.2415 -0.0181 -0.1595
  483SOL     ow 1929   3.281   6.655   4.237 -0.0159 -0.3507  0.0825
  483SOL     hw 1930   3.259   6.710   4.161  0.3056 -0.3950 -0.0454
  483SOL     hw 1931   3.256   6.567   4.210  2.1869 -0.7599 -0.8956
  483SOL     vw 1932   3.275   6.651   4.223  0.3172 -0.4103 -0.0634
  484SOL     ow 1933   0.402   5.705   1.008 -0.5694  0.8145  0.8144
  484SOL     hw 1934   0.390   5.658   1.091 -0.7446 -1.4350 -0.4020
  484SOL     hw 1935   0.327   5.678   0.955  1.5728 -1.1880 -1.4975
  484SOL     vw 1936   0.391   5.695   1.012 -0.3099  0.2534  0.3489
  485SOL     ow 1937   1.012   2.153   5.614  0.3923  0.1883 -0.0986
  485SOL     hw 1938   1.062   2.141   5.534 -0.9702 -1.5209 -0.7777
  485SOL     hw 1939   0.930   2.194   5.586  0.5328  1.0354  0.6703
  485SOL     vw 1940   1.008   2.156   5.600  0.2310  0.0747 -0.0868
  486SOL     ow 1941   5.437   4.901   6.037  0.4428  0.2335 -0.2054
  486SOL     hw 1942   5.344   4.884   6.052  0.4874  0.4115  0.2918
  486SOL     hw 1943   5.464   4.953   6.113  1.0729 -0.2843 -0.0655
  486SOL     vw 1944   5.428   4.905   6.049  0.5314  0.1891 -0.1211
  487SOL     ow 1945   3.097   6.828   1.569  0.3231 -0.4080  0.4708
  487SOL     hw 1946   3.167   6.848   1.630 -0.3123 -0.0198  1.0889
  487SOL     hw 1947   3.141   6.816   1.485  1.1317 -0.2584  0.8656
  487SOL     vw 1948   3.112   6.829   1.566  0.3459 -0.3369  0.6045
  488SOL     ow 1949   2.114   4.544   1.967 -1.0097 -0.6630 -0.6186
  488SOL     hw 1950   2.122   4.532   2.061 -1.0653 -1.6035 -0.7291
  488SOL     hw 1951   2.050   4.479   1.939 -0.1610 -1.1627 -1.4660
  488SOL     vw 1952   2.107   4.534   1.975 -0.9050 -0.8531 -0.7449
  489SOL     ow 1953   2.982   5.895   6.193  0.2469  0.3318  0.0095
  489SOL     hw 1954   2.982   5.812   6.241 -1.1620  0.4942  0.3082
  489SOL     hw 1955   2.992   5.868   6.101 -0.0740 -0.1610  0.1147
  489SOL     vw 1956   2.984   5.880   6.187  0.0187  0.2882  0.0627
  490SOL     ow 1957   3.059   1.103   6.299 -0.0120 -0.2582  0.4341
  490SOL     hw 1958   3.036   1.014   6.325 -1.6656  0.0010 -0.0289
  490SOL     hw 1959   2.996   1.159   6.345  0.5712  0.6269  0.1871
  490SOL     vw 1960   3.048   1.098   6.308 -0.1532 -0.1073  0.3402
  491SOL     ow 1961   5.218   1.869   1.786 -0.0423 -0.3298  0.0633
  491SOL     hw 1962   5.308   1.851   1.759  0.0037 -0.7243  0.4626
  491SOL     hw 1963   5.213   1.836   1.876 -0.0982  1.2665  0.6648
  491SOL     vw 1964   5.229   1.862   1.794 -0.0436 -0.1712  0.1953
  492SOL     ow 1965   0.731   1.842   6.915 -0.0923 -0.1300 -0.0960
  492SOL     hw 1966   0.794   1.896   6.867 -0.5196  0.2847 -0.2000
  492SOL     hw 1967   0.733   1.757   6.870  1.6724 -0.7072  0.9710
  492SOL     vw 1968   0.739   1.838   6.903  0.0842 -0.1515  0.0310
  493SOL     ow 1969   6.377   0.598   0.146 -0.1073  0.2392  0.6630
  493SOL     hw 1970   6.301   0.552   0.112  0.2030  0.7651 -0.7932
  493SOL     hw 1971   6.453   0.550   0.112  0.2545 -0.4303  2.2992
  493SOL     vw 1972   6.377   0.586   0.137 -0.0186  0.2203  0.6868
  494SOL     ow 1973   1.918   0.866   7.151  0.2976  0.1608 -0.3417
  494SOL     hw 1974   1.854   0.819   7.098  0.1875  0.6801 -0.6758
  494SOL     hw 1975   1.870   0.941   7.185  0.4700  0.0276  0.1952
  494SOL     vw 1976   1.903   0.869   7.148  0.3059  0.2117 -0.3150
  495SOL     ow 1977   5.216   4.048   2.767  0.4916  0.0069  0.2401
  495SOL     hw 1978   5.303   4.039   2.728  0.8934  0.0124  1.1125
  495SOL     hw 1979   5.214   4.138   2.799 -0.3611  0.4482 -0.9853
  495SOL     vw 1980   5.227   4.058   2.766  0.4318  0.0658  0.1936
  496SOL     ow 1981   2.496   3.821   4.319 -0.0919 -0.0897 -0.3237
  496SOL     hw 1982   2.427   3.756   4.329  0.0829 -0.2502 -0.1378
  496SOL     hw 1983   2.504   3.861   4.405 -0.2397  0.2183 -0.4555
  496SOL     vw 1984   2.488   3.817   4.332 -0.0883 -0.0702 -0.3166
  497SOL     ow 1985   3.986   2.217   6.809  0.0451  0.2152  0.5164
  497SOL     hw 1986   4.062   2.186   6.859  0.3384  0.3138  0.1407
  497SOL     hw 1987   3.949   2.138   6.770  0.2384  0.2238  0.3146
  497SOL     vw 1988   3.991   2.202   6.810  0.1093  0.2294  0.4404
  498SOL     ow 1989   5.810   1.106   5.948 -0.1418  0.2980 -0.0706
  498SOL     hw 1990   5.761   1.149   5.878  0.7692  0.0006 -0.9316
  498SOL     hw 1991   5.871   1.173   5.979  0.2187  0.0988 -0.3413
  498SOL     vw 1992   5.812   1.121   5.943  0.0260  0.2325 -0.2201
  499SOL     ow 1993   4.833   0.063   4.400 -0.2052 -0.5047 -0.6814
  499SOL     hw 1994   4.859   0.041   4.310 -3.1985 -1.5747 -1.4060
  499SOL     hw 1995   4.798   0.152   4.393  1.2894  0.1571 -0.1249
  499SOL     vw 1996   4.832   0.072   4.387 -0.4029 -0.5586 -0.7038
  500SOL     ow 1997   6.956   1.704   1.761 -0.1176 -0.2638 -0.0966
  500SOL     hw 1998   6.893   1.761   1.806  0.1922 -0.8218  1.0800
  500SOL     hw 1999   6.994   1.760   1.693 -2.0908 -0.0046 -1.0614
  500SOL     vw 2000   6.953   1.719   1.758 -0.3374 -0.3032 -0.0686
  501SOL     ow 2001   5.822   4.462   6.220 -0.0607 -0.2968 -0.2538
  501SOL     hw 2002   5.792   4.539   6.267  0.3660 -0.8116  0.9125
  501SOL     hw 2003   5.917   4.465   6.228  0.0447 -0.2550 -1.3453
  501SOL     vw 2004   5.831   4.472   6.227  0.0098 -0.3593 -0.2439
  502SOL     ow 2005   2.725   3.684   3.401  0.0146 -0.1815 -0.4100
  502SOL     hw 2006   2.672   3.641   3.468 -0.1433 -0.6427 -0.8260
  502SOL     hw 2007   2.663   3.737   3.352 -0.0847 -0.7715 -0.9373
  502SOL     vw 2008   2.710   3.685   3.403 -0.0194 -0.3202 -0.5345
  503SOL     ow 2009   5.154   6.855   3.618 -0.2232  0.1902 -0.3366
  503SOL     hw 2010   5.068   6.871   3.580  0.3272  0.3856 -1.5480
  503SOL     hw 2011   5.179   6.768   3.587  0.4657  0.5765 -0.8939
  503SOL     vw 2012   5.146   6.846   3.609 -0.0598  0.2670 -0.5698
  504SOL     ow 2013   1.415   4.021   0.390 -0.4155  0.7839 -0.2183
  504SOL     hw 2014   1.343   3.976   0.434 -0.4554  0.0516 -1.0176
  504SOL     hw 2015   1.407   3.996   0.298  1.5420 -0.2626 -0.1541
  504SOL     vw 2016   1.405   4.012   0.384 -0.1625  0.5493 -0.3153
  505SOL     ow 2017   4.111   1.180   2.395 -0.2380 -0.0349  0.1101
  505SOL     hw 2018   4.192   1.202   2.349 -1.1427 -0.3819 -1.7332
  505SOL     hw 2019   4.087   1.093   2.363 -0.5577 -0.6113  1.7946
  505SOL     vw 2020   4.119   1.172   2.385 -0.3998 -0.1567  0.0892
  506SOL     ow 2021   4.880   1.572   3.104 -0.3031 -0.3175  0.0843
  506SOL     hw 2022   4.790   1.541   3.108 -0.5986  0.4687 -0.2885
  506SOL     hw 2023   4.932   1.501   3.142 -1.1506 -0.4448  1.0296
  506SOL     vw 2024   4.875   1.558   3.110 -0.4539 -0.2306  0.1599
  507SOL     ow 2025   0.729   2.132   3.225 -1.0019 -0.1162  0.0575
  507SOL     hw 2026   0.661   2.065   3.219 -1.3223  0.2089  0.0600
  507SOL     hw 2027   0.688   2.212   3.192  0.2259 -0.5241 -2.8179
  507SOL     vw 2028   0.715   2.134   3.220 -0.8821 -0.1272 -0.3215
  508SOL     ow 2029   5.750   5.396   0.340  0.1794  0.4785 -0.2228
  508SOL     hw 2030   5.842   5.415   0.353  0.0946 -0.2182  1.6159
  508SOL     hw 2031   5.750   5.321   0.280  0.9975 -1.4264  1.9943
  508SOL     vw 2032   5.762   5.388   0.333  0.2761  0.1354  0.3123
  509SOL     ow 2033   0.201   5.650   2.169  0.5645  0.2595  0.0888
  509SOL     hw 2034   0.130   5.639   2.106  1.3432 -3.2067 -0.3646
  509SOL     hw 2035   0.279   5.666   2.115  0.6145  1.3983  0.4584
  509SOL     vw 2036   0.202   5.651   2.154  0.6738 -0.0477  0.0778
  510SOL     ow 2037   3.443   3.384   3.501 -0.2604 -0.3760 -0.6858
  510SOL     hw 2038   3.460   3.290   3.499 -0.3008 -0.4212  0.6164
  510SOL     hw 2039   3.447   3.410   3.409 -0.2048 -1.6346 -1.0641
  510SOL     vw 2040   3.446   3.375   3.488 -0.2583 -0.5480 -0.5639
  511SOL     ow 2041   1.172   1.269   2.633 -0.1676  0.2079 -0.3717
  511SOL     hw 2042   1.108   1.262   2.703 -0.0449 -0.1100 -0.2877
  511SOL     hw 2043   1.206   1.180   2.622 -1.0003  0.0150 -1.6007
  511SOL     vw 2044   1.168   1.256   2.641 -0.2613  0.1406 -0.5229
  512SOL     ow 2045   2.326   5.803   1.491  0.2319 -0.0068  0.3081
  512SOL     hw 2046   2.391   5.782   1.425  0.0814 -0.0339  0.1673
  512SOL     hw 2047   2.373   5.799   1.574  0.1076 -1.3671  0.3335
  512SOL     vw 2048   2.341   5.800   1.493  0.1956 -0.1898  0.2929
  513SOL     ow 2049   6.542   5.781   3.957  0.3952  0.3393 -0.2046
  513SOL     hw 2050   6.543   5.868   3.997  0.5964  0.6144 -0.8124
  513SOL     hw 2051   6.457   5.775   3.915 -0.7160 -0.7615  2.0044
  513SOL     vw 2052   6.531   5.792   3.957  0.2754  0.2303  0.0066
  514SOL     ow 2053   4.220   6.834   1.715 -0.3567 -0.0736  0.1292
  514SOL     hw 2054   4.314   6.839   1.733 -0.2311 -0.1483 -0.4810
  514SOL     hw 2055   4.189   6.760   1.767  0.1694 -0.8757 -0.6728
  514SOL     vw 2056   4.228   6.825   1.724 -0.2708 -0.1893 -0.0571
  515SOL     ow 2057   0.060   1.634   6.597  0.1496  0.4661  0.4939
  515SOL     hw 2058   0.064   1.639   6.501  0.5461 -0.8799  0.4136
  515SOL     hw 2059  -0.023   1.590   6.615  0.4680 -0.0622  0.7109
  515SOL     vw 2060   0.050   1.629   6.587  0.2439  0.2187  0.5119
  516SOL     ow 2061   1.180   1.594   3.921  0.4354 -0.0147  0.6618
  516SOL     hw 2062   1.102   1.651   3.926 -0.1762 -0.9359  2.1829
  516SOL     hw 2063   1.145   1.506   3.915  1.3780 -0.3211 -2.0814
  516SOL     vw 2064   1.165   1.590   3.921  0.4790 -0.1767  0.5004
  517SOL     ow 2065   0.200   0.875   4.399  0.1155  0.1012  0.1092
  517SOL     hw 2066   0.172   0.836   4.482  2.5802 -0.3376  0.8190
  517SOL     hw 2067   0.292   0.850   4.391 -0.3224 -0.9022 -3.3844
  517SOL     vw 2068   0.209   0.867   4.409  0.3829 -0.0891 -0.2584
  518SOL     ow 2069   1.054   4.298   0.351 -0.1010 -0.4982  0.3992
  518SOL     hw 2070   1.149   4.292   0.363  0.5063 -1.4471 -3.4388
  518SOL     hw 2071   1.022   4.209   0.369  0.3604 -1.1277 -1.5788
  518SOL     vw 2072   1.062   4.285   0.355  0.0399 -0.7064 -0.3681
  519SOL     ow 2073   1.244   6.963   4.969 -0.1882  0.3418 -0.1885
  519SOL     hw 2074   1.324   7.017   4.968 -0.9739  1.5406 -0.1304
  519SOL     hw 2075   1.205   6.977   4.883 -0.6573  0.2645  0.0128
  519SOL     vw 2076   1.250   6.972   4.958 -0.3538  0.4895 -0.1543
  520SOL     ow 2077   0.239   3.458   0.808 -0.3094 -0.0263 -0.9574
  520SOL     hw 2078   0.157   3.450   0.857  0.2011  1.1807  0.1301
  520SOL     hw 2079   0.223   3.531   0.748 -0.4025 -0.5224 -1.5506
  520SOL     vw 2080   0.226   3.466   0.806 -0.2543  0.0676 -0.8922
  521SOL     ow 2081   4.438   1.569   1.182 -0.0675 -0.1255  0.4844
  521SOL     hw 2082   4.520   1.596   1.223  0.3067  0.0634 -0.3581
  521SOL     hw 2083   4.447   1.597   1.091 -1.0898 -0.0658  0.3914
  521SOL     vw 2084   4.450   1.576   1.175 -0.1533 -0.0927  0.3610
  522SOL     ow 2085   0.692   4.110   2.506  0.3054  0.0678 -0.1059
  522SOL     hw 2086   0.605   4.087   2.473  0.4890  2.3366 -2.4382
  522SOL     hw 2087   0.749   4.041   2.471 -0.3194 -0.7217  0.3741
  522SOL     vw 2088   0.688   4.098   2.497  0.2472  0.2632 -0.3502
  523SOL     ow 2089   6.586   1.822   4.144  0.1078 -0.3521  0.9350
  523SOL     hw 2090   6.527   1.895   4.125  2.0034  0.3994 -3.1292
  523SOL     hw 2091   6.532   1.744   4.134 -1.0783  0.3498  1.5512
  523SOL     vw 2092   6.571   1.821   4.140  0.2015 -0.1603  0.4799
  524SOL     ow 2093   4.055   5.769   5.393 -0.3563 -0.6750 -0.5172
  524SOL     hw 2094   4.036   5.787   5.301 -2.2281 -2.1399 -0.4626
  524SOL     hw 2095   4.009   5.688   5.412 -1.5045  0.4998  2.2034
  524SOL     vw 2096   4.047   5.761   5.383 -0.7548 -0.7131 -0.1512
  525SOL     ow 2097   0.759   3.560   6.338 -0.7128  0.0483  0.2474
  525SOL     hw 2098   0.744   3.468   6.315  0.3375  0.3444 -1.8979
  525SOL     hw 2099   0.735   3.608   6.259 -0.2779  1.5325  0.9893
  525SOL     vw 2100   0.754   3.554   6.324 -0.5168  0.2830  0.0622
  526SOL     ow 2101   0.703   2.803   2.360  0.3465  0.2924  0.1335
  526SOL     hw 2102   0.796   2.793   2.339  0.4364 -1.1915  1.0407
  526SOL     hw 2103   0.658   2.744   2.300 -0.0972  1.4658 -0.7203
  526SOL     vw 2104   0.710   2.794   2.350  0.2998  0.2515  0.1405
  527SOL     ow 2105   4.532   0.263   3.327 -0.0265 -0.4466  0.0127
  527SOL     hw 2106   4.596   0.256   3.256  1.4595 -0.2403  1.2579
  527SOL     hw 2107   4.499   0.173   3.338 -0.4482 -0.4407 -1.0562
  527SOL     vw 2108   4.536   0.250   3.319  0.1140 -0.4186  0.0360
  528SOL     ow 2109   5.442   5.573   3.195  0.4697  0.0702  0.1279
  528SOL     hw 2110   5.410   5.621   3.272 -4.0427 -0.8488 -0.9325
  528SOL     hw 2111   5.472   5.642   3.135 -0.5519  1.1707  0.8317
  528SOL     vw 2112   5.442   5.589   3.198 -0.2604  0.0939  0.0808
  529SOL     ow 2113   3.179   4.989   6.131  0.3070  0.3165 -0.2512
  529SOL     hw 2114   3.183   5.084   6.142  0.3259  0.2313  0.5640
  529SOL     hw 2115   3.249   4.969   6.069  0.2184  0.8463 -0.5291
  529SOL     vw 2116   3.189   4.999   6.125  0.2979  0.3753 -0.1805
  530SOL     ow 2117   1.103   4.105   6.038 -0.1735 -0.3202  0.4056
  530SOL     hw 2118   1.154   4.185   6.052  0.7643 -0.5268 -1.5492
  530SOL     hw 2119   1.167   4.034   6.038 -0.6850 -0.7965 -0.2074
  530SOL     vw 2120   1.118   4.107   6.040 -0.1172 -0.4106  0.0668
  531SOL     ow 2121   0.390   2.472   3.143  0.1677 -0.1827  0.1922
  531SOL     hw 2122   0.333   2.538   3.104  1.4082  0.6042 -0.3625
  531SOL     hw 2123   0.391   2.493   3.237  1.9197  1.7738 -0.1726
  531SOL     vw 2124   0.383   2.484   3.151  0.5625  0.1792  0.0709
  532SOL     ow 2125   2.407   3.804   0.681 -0.2915 -0.2560  0.3661
  532SOL     hw 2126   2.459   3.749   0.622 -0.6668 -0.1863 -0.0329
  532SOL     hw 2127   2.467   3.873   0.710 -0.3196  0.1633 -0.5513
  532SOL     vw 2128   2.422   3.806   0.677 -0.3448 -0.1915  0.1924
  533SOL     ow 2129   0.146   5.644   0.895  0.2320  0.4552  0.4887
  533SOL     hw 2130   0.125   5.551   0.888 -0.9150  0.7110  0.3832
  533SOL     hw 2131   0.123   5.668   0.985  2.5217  0.1811  1.2042
  533SOL     vw 2132   0.140   5.635   0.906  0.3828  0.4530  0.5692
  534SOL     ow 2133   2.627   4.721   4.858 -0.7878  0.0382  0.7155
  534SOL     hw 2134   2.635   4.627   4.845  1.4908  0.3841 -0.9870
  534SOL     hw 2135   2.673   4.738   4.940 -0.7009 -0.2485  0.7270
  534SOL     vw 2136   2.634   4.711   4.867 -0.4758  0.0460  0.4926
  535SOL     ow 2137   4.839   3.621   2.548 -0.5711 -0.0884 -0.1306
  535SOL     hw 2138   4.806   3.639   2.636 -0.0011 -0.6901  0.2149
  535SOL     hw 2139   4.907   3.686   2.534 -2.1424  1.4310 -1.0122
  535SOL     vw 2140   4.843   3.632   2.558 -0.7029  0.0327 -0.2013
  536SOL     ow 2141   2.337   4.324   1.746 -0.3650  0.4807 -0.1000
  536SOL     hw 2142   2.358   4.358   1.833  0.2310  0.7636 -0.3481
  536SOL     hw 2143   2.354   4.230   1.753 -0.2376  0.5146  0.0653
  536SOL     vw 2144   2.342   4.316   1.759 -0.2697  0.5224 -0.1110
  537SOL     ow 2145   4.558   0.496   0.588  0.1325 -0.1321  0.7705
  537SOL     hw 2146   4.519   0.488   0.675 -2.0523 -0.4570 -0.1762
  537SOL     hw 2147   4.635   0.552   0.601  0.2952 -0.8130  3.0148
  537SOL     vw 2148   4.563   0.503   0.601 -0.1342 -0.2648  0.9417
  538SOL     ow 2149   4.276   7.010   5.088 -0.0484 -0.2034 -0.2547
  538SOL     hw 2150   4.356   6.959   5.102 -1.0717 -1.5947  0.7890
  538SOL     hw 2151   4.208   6.961   5.134 -1.1873  1.8901  0.4105
  538SOL     vw 2152   4.278   6.997   5.096 -0.3335 -0.1109 -0.0291
  539SOL     ow 2153   0.744   3.766   6.141 -0.2565  0.2522 -0.5517
  539SOL     hw 2154   0.651   3.745   6.153 -0.2537  0.1070 -0.7812
  539SOL     hw 2155   0.760   3.838   6.202  0.0293 -1.2177  1.1804
  539SOL     vw 2156   0.734   3.773   6.151 -0.2184  0.0390 -0.3536
  540SOL     ow 2157   5.074   0.211   1.531  0.0035 -0.2639  0.3602
  540SOL     hw 2158   5.140   0.148   1.560  0.0365 -0.6031 -0.4142
  540SOL     hw 2159   4.991   0.165   1.538  0.1677 -0.9736 -1.6452
  540SOL     vw 2160   5.072   0.197   1.535  0.0296 -0.4023 -0.0066
  541SOL     ow 2161   2.853   0.121   0.702  0.7075  0.2154 -0.4620
  541SOL     hw 2162   2.924   0.080   0.652  2.0139  1.7739  0.0205
  541SOL     hw 2163   2.786   0.141   0.637  0.3857 -1.8778 -0.8290
  541SOL     vw 2164   2.853   0.118   0.687  0.8374  0.1448 -0.4468
  542SOL     ow 2165   2.291   0.808   3.875  0.4765 -0.1974  0.0710
  542SOL     hw 2166   2.257   0.728   3.835 -0.5057  0.3417 -0.2107
  542SOL     hw 2167   2.285   0.792   3.969 -0.7127 -0.0727  0.0343
  542SOL     vw 2168   2.285   0.795   3.882  0.1901 -0.1098  0.0291
  543SOL     ow 2169   6.038   0.600   2.083 -0.2893 -0.4407  0.5303
  543SOL     hw 2170   6.023   0.553   2.001 -0.6801  0.2705  0.1941
  543SOL     hw 2171   6.048   0.530   2.148 -0.7341 -0.9946  0.0155
  543SOL     vw 2172   6.038   0.584   2.081 -0.3998 -0.4199  0.4181
  544SOL     ow 2173   0.306   2.247   1.739  0.1389 -0.2388 -0.0904
  544SOL     hw 2174   0.384   2.289   1.704  0.2466 -0.7099 -0.4300
  544SOL     hw 2175   0.327   2.230   1.831 -0.3408  1.4635  0.3630
  544SOL     vw 2176   0.319   2.250   1.746  0.0898 -0.0764 -0.0754
  545SOL     ow 2177   6.744   4.670   3.783  0.0689 -0.2755  0.3170
  545SOL     hw 2178   6.774   4.654   3.872  0.2785  0.2110  0.3428
  545SOL     hw 2179   6.685   4.745   3.791 -1.5160 -1.4806  0.3203
  545SOL     vw 2180   6.740   4.678   3.796 -0.1125 -0.3705  0.3210
  546SOL     ow 2181   5.760   1.025   2.279 -0.5522 -0.1099 -0.3260
  546SOL     hw 2182   5.706   1.085   2.228 -1.8002  0.0465  1.1099
  546SOL     hw 2183   5.708   0.944   2.285  0.2796 -0.6845 -0.6397
  546SOL     vw 2184   5.746   1.022   2.273 -0.6068 -0.1650 -0.1781
  547SOL     ow 2185   6.715   2.290   0.197  0.2832  0.0134 -0.3745
  547SOL     hw 2186   6.766   2.256   0.270  0.4050  1.1261  0.0788
  547SOL     hw 2187   6.625   2.293   0.230  0.2289 -0.1220 -0.5077
  547SOL     vw 2188   6.709   2.286   0.211  0.2923  0.1425 -0.3322
  548SOL     ow 2189   0.495   2.747   0.738  0.7745 -0.3819  0.1046
  548SOL     hw 2190   0.521   2.658   0.713 -0.0137 -0.5022 -0.3055
  548SOL     hw 2191   0.492   2.795   0.655 -0.0109 -0.2938  0.1843
  548SOL     vw 2192   0.498   2.742   0.723  0.5669 -0.3862  0.0610
  549SOL     ow 2193   3.296   6.430   0.539 -0.5590  0.0743  0.1312
  549SOL     hw 2194   3.227   6.493   0.521  0.1209  0.4038 -1.5378
  549SOL     hw 2195   3.343   6.466   0.614  0.0214  1.7679 -0.9954
  549SOL     vw 2196   3.293   6.443   0.547 -0.3928  0.3414 -0.2377
  550SOL     ow 2197   6.733   4.603   4.737  0.1656 -0.1276 -0.0985
  550SOL     hw 2198   6.663   4.659   4.771  0.0986 -1.1487  1.5496
  550SOL     hw 2199   6.690   4.544   4.676  0.1497  1.2123 -1.4521
  550SOL     vw 2200   6.718   4.603   4.733  0.1550 -0.0856 -0.0598
  551SOL     ow 2201   1.369   4.335   6.323 -0.0398 -0.0193  0.5757
  551SOL     hw 2202   1.383   4.429   6.309  1.9228 -0.3087  0.3793
  551SOL     hw 2203   1.282   4.330   6.364  0.2320  1.9654  1.5344
  551SOL     vw 2204   1.359   4.347   6.327  0.2550  0.2046  0.6762
  552SOL     ow 2205   3.474   2.186   3.778  0.1901  0.0511 -0.4320
  552SOL     hw 2206   3.479   2.275   3.813  1.5640 -0.6667  1.3448
  552SOL     hw 2207   3.558   2.174   3.733  0.3837 -0.6441  0.1040
  552SOL     vw 2208   3.486   2.196   3.776  0.3970 -0.1354 -0.1268
  553SOL     ow 2209   0.914   0.943   1.813 -0.1579 -0.3210  0.1573
  553SOL     hw 2210   0.983   0.997   1.774  2.0751 -1.0509  2.7163
  553SOL     hw 2211   0.852   0.927   1.742  1.0323  2.3966 -1.6726
  553SOL     vw 2212   0.915   0.948   1.799  0.2938 -0.0588  0.2536
  554SOL     ow 2213   6.323   6.248   6.754 -0.3701 -0.6198  0.0417
  554SOL     hw 2214   6.266   6.275   6.682 -1.6515  1.2324  1.6458
  554SOL     hw 2215   6.356   6.331   6.790  0.2845 -1.4923  1.5337
  554SOL     vw 2216   6.320   6.263   6.749 -0.4525 -0.4907  0.4499
  555SOL     ow 2217   0.012   4.637   3.330  0.1324 -0.1696 -0.2909
  555SOL     hw 2218   0.019   4.732   3.328 -1.3502 -0.0266  0.4535
  555SOL     hw 2219  -0.064   4.619   3.385  1.0613 -1.8183  0.5574
  555SOL     vw 2220   0.003   4.647   3.337  0.0593 -0.3681 -0.0807
  556SOL     ow 2221   4.902   6.960   4.505  0.0693  0.4331 -0.4539
  556SOL     hw 2222   4.838   6.919   4.447  0.0049 -1.3050  0.7797
  556SOL     hw 2223   4.986   6.930   4.472  0.1285  0.8455 -0.6818
  556SOL     vw 2224   4.904   6.950   4.493  0.0689  0.2580 -0.3216
  557SOL     ow 2225   2.631   2.641   2.651  0.2112 -0.2322  0.5846
  557SOL     hw 2226   2.655   2.733   2.637 -0.0626 -0.2640 -0.1484
  557SOL     hw 2227   2.564   2.624   2.584  1.0469 -1.2803 -0.0127
  557SOL     vw 2228   2.625   2.651   2.640  0.2854 -0.3746  0.4091
  558SOL     ow 2229   5.590   5.442   2.348 -0.4963  0.1311  0.1979
  558SOL     hw 2230   5.653   5.371   2.360  0.3362  0.9409  0.6594
  558SOL     hw 2231   5.556   5.460   2.435 -1.2891 -0.2037 -0.0257
  558SOL     vw 2232   5.594   5.435   2.361 -0.4909  0.1936  0.2291
  559SOL     ow 2233   3.171   4.164   6.658  0.3655 -0.6260 -0.0801
  559SOL     hw 2234   3.141   4.241   6.608  1.2443 -0.8425 -0.9826
  559SOL     hw 2235   3.261   4.151   6.628  1.6157  0.3277  2.9142
  559SOL     vw 2236   3.179   4.173   6.647  0.6464 -0.5288  0.1957
  560SOL     ow 2237   7.088   2.537   1.774  0.2952  0.4806 -0.2384
  560SOL     hw 2238   7.015   2.534   1.713 -3.2369 -1.3924  3.6172
  560SOL     hw 2239   7.139   2.458   1.756 -1.1091 -0.4278 -0.3215
  560SOL     vw 2240   7.085   2.526   1.764 -0.3560  0.1137  0.2593
  561SOL     ow 2241   0.022   6.912   6.308  0.3096 -0.5196 -0.1143
  561SOL     hw 2242   0.079   6.907   6.384  0.2588 -4.2122 -0.1425
  561SOL     hw 2243  -0.061   6.945   6.343  0.4603 -1.5809  1.3573
  561SOL     vw 2244   0.019   6.915   6.323  0.3228 -1.1473  0.0758
  562SOL     ow 2245   2.490   6.875   5.578 -0.6689  0.3316  0.6187
  562SOL     hw 2246   2.493   6.955   5.630  0.7785  0.8838 -0.2592
  562SOL     hw 2247   2.403   6.877   5.538 -0.7746  1.3074  0.8584
  562SOL     vw 2248   2.479   6.886   5.579 -0.4919  0.5333  0.5345
  563SOL     ow 2249   1.444   2.599   2.813 -0.2511  0.0412 -0.0248
  563SOL     hw 2250   1.354   2.623   2.792 -0.1063  1.7383  1.1754
  563SOL     hw 2251   1.457   2.628   2.903  1.6972  0.4339 -0.3845
  563SOL     vw 2252   1.433   2.606   2.822  0.0250  0.3167  0.0861
  564SOL     ow 2253   3.254   2.307   5.761 -0.0110  0.2192 -0.0737
  564SOL     hw 2254   3.269   2.382   5.703 -0.4113  0.1507 -0.2705
  564SOL     hw 2255   3.332   2.303   5.816  0.2419  0.4703 -0.4064
  564SOL     vw 2256   3.266   2.316   5.760 -0.0303  0.2434 -0.1435
  565SOL     ow 2257   6.966   2.901   0.158 -0.7012 -0.5082 -0.2792
  565SOL     hw 2258   6.924   2.844   0.223 -1.5927 -0.8652 -1.1406
  565SOL     hw 2259   6.906   2.975   0.148 -0.9612 -0.8316 -1.2419
  565SOL     vw 2260   6.952   2.903   0.165 -0.8533 -0.5981 -0.5199
  566SOL     ow 2261   3.771   2.433   0.964 -0.3878 -0.0877  0.2757
  566SOL     hw 2262   3.845   2.449   1.023 -0.2992  2.7492 -0.4593
  566SOL     hw 2263   3.735   2.520   0.947 -2.0882 -1.0981 -1.7363
  566SOL     vw 2264   3.776   2.447   0.970 -0.6006  0.1533 -0.0868
  567SOL     ow 2265   6.483   6.196   4.271  0.3290  0.1842 -0.1298
  567SOL     hw 2266   6.563   6.212   4.321  0.5168  3.4358 -1.2520
  567SOL     hw 2267   6.414   6.194   4.337  0.4314  5.3524  0.5634
  567SOL     vw 2268   6.485   6.198   4.286  0.3672  1.2951 -0.1864
  568SOL     ow 2269   4.668   3.463   6.544  0.0717 -0.0722  0.2535
  568SOL     hw 2270   4.647   3.510   6.624  2.1336 -0.2883  0.9791
  568SOL     hw 2271   4.635   3.374   6.559  0.2468 -0.0520  0.7631
  568SOL     vw 2272   4.660   3.457   6.556  0.3667 -0.0980  0.4165
  569SOL     ow 2273   5.607   4.878   4.066  0.1590  0.3987 -0.1009
  569SOL     hw 2274   5.535   4.844   4.120 -2.0350  2.8908 -1.2068
  569SOL     hw 2275   5.630   4.806   4.008  0.1697 -1.1921  1.7982
  569SOL     vw 2276   5.600   4.864   4.065 -0.1290  0.5176  0.0036
  570SOL     ow 2277   3.265   6.636   3.279  0.2411 -0.3580 -0.1805
  570SOL     hw 2278   3.252   6.722   3.320 -0.5483 -0.5016 -0.1096
  570SOL     hw 2279   3.351   6.608   3.310 -0.8619 -1.0716  2.5835
  570SOL     vw 2280   3.275   6.644   3.289 -0.0086 -0.4709  0.1935
  571SOL     ow 2281   6.616   2.114   1.362 -0.2505  0.3527  1.0588
  571SOL     hw 2282   6.695   2.162   1.387 -0.5458  1.2935  0.2202
  571SOL     hw 2283   6.644   2.060   1.288 -0.6514  1.5515  0.0068
  571SOL     vw 2284   6.630   2.113   1.356 -0.3426  0.6349  0.8094
  572SOL     ow 2285   5.251   2.172   1.670 -0.1719 -0.2613 -0.3212
  572SOL     hw 2286   5.314   2.217   1.727 -1.9720  1.4639  0.4114
  572SOL     hw 2287   5.301   2.154   1.590  1.3315  0.8130  0.3127
  572SOL     vw 2288   5.266   2.175   1.667 -0.2110  0.1080 -0.1410
  573SOL     ow 2289   3.846   0.530   3.676  0.1831 -0.3182  0.1073
  573SOL     hw 2290   3.889   0.477   3.743  0.3079 -0.4868 -0.1068
  573SOL     hw 2291   3.899   0.518   3.598 -0.1492 -0.3914 -0.1121
  573SOL     vw 2292   3.858   0.521   3.675  0.1557 -0.3501  0.0499
  574SOL     ow 2293   2.854   3.490   3.683  0.3553  0.3841 -0.0529
  574SOL     hw 2294   2.812   3.424   3.738  1.5108 -0.0350  0.3600
  574SOL     hw 2295   2.845   3.571   3.732 -0.9063  0.5303 -0.4762
  574SOL     vw 2296   2.847   3.492   3.697  0.3413  0.3482 -0.0542
  575SOL     ow 2297   1.518   6.896   6.659 -0.8006 -0.4288  0.0450
  575SOL     hw 2298   1.582   6.959   6.692  0.2274 -1.7595  0.6512
  575SOL     hw 2299   1.449   6.896   6.725 -1.3092  0.7812 -0.4561
  575SOL     vw 2300   1.517   6.905   6.672 -0.7320 -0.4447  0.0589
  576SOL     ow 2301   5.808   1.252   2.496  0.2859  0.1966 -0.7105
  576SOL     hw 2302   5.872   1.322   2.483  0.7240  0.1568  1.0667
  576SOL     hw 2303   5.724   1.290   2.472  0.6077  1.1307 -0.3696
  576SOL     vw 2304   5.806   1.266   2.491  0.3862  0.3145 -0.4311
  577SOL     ow 2305   6.896   5.450   1.793 -0.2436 -0.5778 -0.5272
  577SOL     hw 2306   6.892   5.472   1.886 -0.6559 -2.5935 -0.0330
  577SOL     hw 2307   6.888   5.535   1.748  0.5900  0.4848  1.2518
  577SOL     vw 2308   6.894   5.464   1.799 -0.1879 -0.7036 -0.2272
  578SOL     ow 2309   2.297   2.225   0.394 -0.2805  0.0162 -0.0338
  578SOL     hw 2310   2.376   2.219   0.447 -0.2356  1.2914  0.0698
  578SOL     hw 2311   2.232   2.173   0.442  0.3928 -0.8006  0.0291
  578SOL     vw 2312   2.299   2.217   0.407 -0.1856  0.0767 -0.0118
  579SOL     ow 2313   4.037   3.117   3.550 -0.1959  0.3203  0.3635
  579SOL     hw 2314   4.081   3.129   3.634  1.2165  1.4232 -0.4929
  579SOL     hw 2315   4.108   3.105   3.487 -1.2162 -0.1541 -0.7227
  579SOL     vw 2316   4.052   3.117   3.553 -0.1445  0.4033  0.1073
  580SOL     ow 2317   0.918   3.919   3.308  0.5600  0.1781 -0.0256
  580SOL     hw 2318   0.843   3.914   3.367  1.3783 -0.9023  0.9687
  580SOL     hw 2319   0.967   3.996   3.339  1.0016 -0.3996  0.7588
  580SOL     vw 2320   0.915   3.928   3.320  0.7262 -0.0407  0.2091
  581SOL     ow 2321   4.243   0.489   2.996  0.3584  0.2680  0.4782
  581SOL     hw 2322   4.205   0.577   3.006 -1.5300 -0.5428  0.8583
  581SOL     hw 2323   4.284   0.491   2.910 -2.4166  0.6293 -0.9653
  581SOL     vw 2324   4.243   0.501   2.986 -0.2570  0.2087  0.3378
  582SOL     ow 2325   2.643   4.791   5.134  0.0611 -0.9739 -0.1986
  582SOL     hw 2326   2.665   4.708   5.176 -1.4843 -0.9675  0.7153
  582SOL     hw 2327   2.713   4.851   5.162 -1.5504 -0.5813  3.6957
  582SOL     vw 2328   2.655   4.788   5.144 -0.3555 -0.9212  0.4358
  583SOL     ow 2329   7.075   3.155   5.745 -0.1391  0.0309  0.0636
  583SOL     hw 2330   7.052   3.242   5.711 -0.4721 -0.2665 -0.4910
  583SOL     hw 2331   7.003   3.099   5.716  0.1683 -0.4654  0.2623
  583SOL     vw 2332   7.062   3.159   5.736 -0.1426 -0.0739  0.0167
  584SOL     ow 2333   5.355   7.108   3.665 -0.2491 -0.1959 -0.2177
  584SOL     hw 2334   5.395   7.092   3.579  2.1483  0.3919  0.7126
  584SOL     hw 2335   5.314   7.193   3.656  1.3534  0.6009 -0.3763
  584SOL     vw 2336   5.355   7.117   3.652  0.2787 -0.0136 -0.1158
  585SOL     ow 2337   6.001   0.991   2.501 -0.2614  0.5153 -0.2268
  585SOL     hw 2338   6.019   1.033   2.585  1.4909 -1.2355  0.3377
  585SOL     hw 2339   6.088   0.980   2.461 -0.7914 -1.3613 -0.9314
  585SOL     vw 2340   6.015   0.995   2.506 -0.0999  0.0367 -0.2453
  586SOL     ow 2341   1.534   3.511   4.541  0.8722 -0.2668 -0.1996
  586SOL     hw 2342   1.535   3.512   4.446 -2.1764  0.5595 -0.3423
  586SOL     hw 2343   1.521   3.419   4.565 -0.1178 -0.2703 -0.6993
  586SOL     vw 2344   1.532   3.499   4.532  0.3394 -0.1583 -0.2844
  587SOL     ow 2345   3.984   5.641   4.276  0.1684  0.3285 -0.4660
  587SOL     hw 2346   3.951   5.666   4.363  0.7587 -0.2048 -0.0836
  587SOL     hw 2347   3.914   5.589   4.238 -0.4145  1.2032 -0.6297
  587SOL     vw 2348   3.970   5.638   4.283  0.1694  0.3734 -0.4368
  588SOL     ow 2349   2.576   4.015   0.784 -0.0951 -0.3679 -0.1621
  588SOL     hw 2350   2.549   4.010   0.876  0.7178 -0.4171  0.0820
  588SOL     hw 2351   2.664   3.977   0.782 -0.0917 -0.3452 -0.9582
  588SOL     vw 2352   2.584   4.010   0.796  0.0126 -0.3715 -0.2349
  589SOL     ow 2353   3.900   2.874   6.947 -0.2465  0.0571 -0.2453
  589SOL     hw 2354   3.883   2.843   7.036 -1.1698  2.0540  0.3405
  589SOL     hw 2355   3.995   2.868   6.937  0.1470  1.7683  1.7141
  589SOL     vw 2356   3.910   2.869   6.957 -0.3165  0.5463  0.0904
  590SOL     ow 2357   5.371   2.362   2.796 -0.1496 -0.0115 -0.7281
  590SOL     hw 2358   5.423   2.427   2.844  0.2270 -0.3592 -0.6602
  590SOL     hw 2359   5.341   2.409   2.718  1.4408 -0.1821 -1.4943
  590SOL     vw 2360   5.374   2.377   2.792  0.1099 -0.0799 -0.8203
  591SOL     ow 2361   3.171   2.363   2.287 -0.0385 -0.8293  0.7567
  591SOL     hw 2362   3.104   2.328   2.227 -1.9580 -0.0343  2.3277
  591SOL     hw 2363   3.218   2.286   2.318 -0.3664 -1.4382 -0.2227
  591SOL     vw 2364   3.168   2.348   2.283 -0.3350 -0.8048  0.8346
  592SOL     ow 2365   4.616   7.151   0.218  0.1683  0.1189  0.2060
  592SOL     hw 2366   4.579   7.074   0.175 -0.2760  0.3250  0.2209
  592SOL     hw 2367   4.622   7.217   0.150  1.2024 -0.1347  0.0217
  592SOL     vw 2368   4.612   7.149   0.204  0.2458  0.1126  0.1836
  593SOL     ow 2369   3.196   3.428   4.197 -0.3488  0.0858  0.0757
  593SOL     hw 2370   3.245   3.510   4.193  0.6882 -0.5049  0.4709
  593SOL     hw 2371   3.170   3.412   4.106 -0.8938  1.0373  0.0516
  593SOL     vw 2372   3.199   3.436   4.184 -0.2840  0.1333  0.1249
  594SOL     ow 2373   3.411   0.000   6.661 -0.3037 -0.5041  0.3137
  594SOL     hw 2374   3.335  -0.037   6.615  0.3040  0.7223 -1.8350
  594SOL     hw 2375   3.476   0.014   6.592  1.0470  0.5418  1.7345
  594SOL     vw 2376   3.409  -0.003   6.646 -0.0453 -0.2046  0.2174
  595SOL     ow 2377   0.275   6.093   2.361 -0.8086 -0.0622  0.0901
  595SOL     hw 2378   0.263   6.011   2.312 -1.3295 -0.1797  0.4114
  595SOL     hw 2379   0.191   6.108   2.404 -0.9739  1.0402 -0.5644
  595SOL     vw 2380   0.262   6.084   2.360 -0.8991  0.0677  0.0460
  596SOL     ow 2381   3.592   1.369   3.265 -0.1563  0.2843  0.1870
  596SOL     hw 2382   3.527   1.300   3.273 -0.9934  1.2025  2.0129
  596SOL     hw 2383   3.634   1.373   3.351  0.9430  1.0155 -0.3576
  596SOL     vw 2384   3.589   1.361   3.278 -0.1217  0.5019  0.3561
  597SOL     ow 2385   3.198   4.785   6.370  0.0840 -0.0280 -0.9558
  597SOL     hw 2386   3.122   4.728   6.368 -1.4569  1.4419  3.6756
  597SOL     hw 2387   3.163   4.873   6.355  1.1587  0.4996 -0.5186
  597SOL     vw 2388   3.184   4.789   6.368  0.0224  0.2353 -0.2871
  598SOL     ow 2389   5.838   7.173   1.385 -0.1342 -0.1945 -0.0682
  598SOL     hw 2390   5.912   7.177   1.446  0.0448 -1.4145 -0.1838
  598SOL     hw 2391   5.761   7.159   1.440  0.0245 -1.2744 -0.1024
  598SOL     vw 2392   5.838   7.172   1.400 -0.0896 -0.4981 -0.0880
  599SOL     ow 2393   3.175   3.762   0.690 -0.0891 -0.3400 -0.0594
  599SOL     hw 2394   3.105   3.740   0.628 -0.0488 -0.5353 -0.0351
  599SOL     hw 2395   3.239   3.812   0.638 -0.1152 -0.3955 -0.1443
  599SOL     vw 2396   3.174   3.766   0.675 -0.0871 -0.3731 -0.0674
  600SOL     ow 2397   3.021   3.954   6.610 -0.1186 -0.4948 -0.2633
  600SOL     hw 2398   3.090   4.016   6.633 -0.2762 -0.3950 -0.0567
  600SOL     hw 2399   2.952   4.007   6.571 -0.0046 -0.6176 -0.6386
  600SOL     vw 2400   3.021   3.969   6.608 -0.1243 -0.4977 -0.2859
  601SOL     ow 2401   0.553   0.137   7.058 -0.0553  0.3742 -0.0587
  601SOL     hw 2402   0.584   0.055   7.019 -0.2433 -0.4103  1.3399
  601SOL     hw 2403   0.632   0.177   7.095  0.1039  1.0523 -1.1112
  601SOL     vw 2404   0.568   0.131   7.058 -0.0591  0.3602 -0.0131
  602SOL     ow 2405   4.332   3.345   0.164  0.7896  0.2567  0.4355
  602SOL     hw 2406   4.292   3.380   0.244  1.1305  0.7817  0.3819
  602SOL     hw 2407   4.321   3.415   0.100  0.4092 -0.2106 -0.0153
  602SOL     vw 2408   4.325   3.359   0.166  0.7842  0.2643  0.3690
  603SOL     ow 2409   4.062   0.112   1.464 -0.2874  0.2395 -0.5979
  603SOL     hw 2410   4.068   0.206   1.447  0.1874  0.0525 -1.5458
  603SOL     hw 2411   4.140   0.076   1.422 -1.0663 -0.7059 -1.2724
  603SOL     vw 2412   4.073   0.120   1.456 -0.3273  0.0901 -0.8119
  604SOL     ow 2413   6.357   0.412   0.776  0.0805 -0.0712 -0.2984
  604SOL     hw 2414   6.371   0.502   0.808 -0.3557  0.5204 -1.7129
  604SOL     hw 2415   6.435   0.365   0.805  0.1075  0.6279  0.8793
  604SOL     vw 2416   6.369   0.418   0.784  0.0265  0.0991 -0.3296
  605SOL     ow 2417   3.889   6.539   2.420  0.7564  0.6216 -0.3997
  605SOL     hw 2418   3.899   6.628   2.452  1.1344  0.2710  0.4788
  605SOL     hw 2419   3.857   6.489   2.495  2.6590 -0.4263 -0.2054
  605SOL     vw 2420   3.886   6.544   2.434  1.0573  0.4373 -0.2580
  606SOL     ow 2421   1.339   3.948   5.311 -0.1204 -0.5737 -0.3333
  606SOL     hw 2422   1.289   3.999   5.247 -0.1025  0.1710  0.2303
  606SOL     hw 2423   1.416   3.918   5.263  1.1315  1.9581 -0.1005
  606SOL     vw 2424   1.342   3.951   5.296  0.0471 -0.1411 -0.2282
  607SOL     ow 2425   1.440   4.246   1.016 -0.5868  0.0485 -0.1819
  607SOL     hw 2426   1.459   4.339   1.030  0.7737  0.2048 -2.4927
  607SOL     hw 2427   1.512   4.200   1.059 -0.1759  0.1781 -0.7208
  607SOL     vw 2428   1.452   4.252   1.024 -0.3531  0.0865 -0.5580
  608SOL     ow 2429   2.956   0.423   1.342 -0.2137  0.9508  0.0516
  608SOL     hw 2430   3.029   0.371   1.376  0.2714  1.2427 -0.4998
  608SOL     hw 2431   2.883   0.404   1.400  0.5753  1.4282  1.2506
  608SOL     vw 2432   2.956   0.414   1.354 -0.0457  1.0523  0.1370
  609SOL     ow 2433   0.429   2.504   3.406  0.0199  0.0726  0.4302
  609SOL     hw 2434   0.501   2.563   3.427  0.1034  0.1116  0.0391
  609SOL     hw 2435   0.351   2.547   3.442  0.0394  0.5655 -0.1204
  609SOL     vw 2436   0.428   2.517   3.414  0.0335  0.1428  0.3059
  610SOL     ow 2437   1.907   0.084   4.815  0.4338  0.2931 -0.7497
  610SOL     hw 2438   1.842   0.095   4.746 -0.7020  0.2934  0.2850
  610SOL     hw 2439   1.859   0.044   4.888  1.7114 -0.1884 -0.1339
  610SOL     vw 2440   1.892   0.080   4.816  0.4526  0.2296 -0.5324
  611SOL     ow 2441   1.345   4.283   0.403 -0.0358  0.5851  0.4569
  611SOL     hw 2442   1.385   4.197   0.411 -2.6541 -0.9300 -1.2407
  611SOL     hw 2443   1.385   4.320   0.323  0.1605  0.3944  0.4648
  611SOL     vw 2444   1.356   4.277   0.393 -0.3553  0.3600  0.2340
  612SOL     ow 2445   1.860   2.911   2.844 -0.5656  0.3830 -0.0579
  612SOL     hw 2446   1.816   2.991   2.814 -1.7283 -0.0305  0.4866
  612SOL     hw 2447   1.900   2.875   2.765  0.4400  1.7738 -0.2139
  612SOL     vw 2448   1.859   2.917   2.830 -0.5863  0.5119 -0.0067
  613SOL     ow 2449   5.669   3.044   0.071 -0.1618 -0.0381 -0.1552
  613SOL     hw 2450   5.734   3.095   0.119 -0.5344 -0.3200  0.6676
  613SOL     hw 2451   5.594   3.039   0.130 -0.8965  0.1909 -1.0563
  613SOL     vw 2452   5.668   3.050   0.085 -0.3080 -0.0452 -0.1655
  614SOL     ow 2453   5.701   4.283   4.470 -0.0360  0.5775 -0.4837
  614SOL     hw 2454   5.769   4.332   4.517  0.1672 -0.1397 -0.0129
  614SOL     hw 2455   5.642   4.252   4.538 -0.2938  0.3693 -0.8005
  614SOL     vw 2456   5.702   4.285   4.485 -0.0434  0.4554 -0.4635
  615SOL     ow 2457   6.962   1.362   2.103 -0.4747 -0.1138  0.0515
  615SOL     hw 2458   7.054   1.374   2.078 -0.1394  0.9640  1.6830
  615SOL     hw 2459   6.955   1.270   2.127  0.0803 -0.2746 -0.3786
  615SOL     vw 2460   6.973   1.352   2.103 -0.3572  0.0072  0.2099
  616SOL     ow 2461   3.206   1.114   6.011  0.6961  1.2707  0.2890
  616SOL     hw 2462   3.300   1.100   6.003  0.7149  0.4898  1.6181
  616SOL     hw 2463   3.168   1.071   5.934  1.3455  0.6149  0.3319
  616SOL     vw 2464   3.213   1.107   6.000  0.7843  1.0811  0.4702
  617SOL     ow 2465   6.122   1.727   6.906  0.1056 -0.8601 -0.2001
  617SOL     hw 2466   6.204   1.697   6.945  0.9953  0.7161 -0.7855
  617SOL     hw 2467   6.083   1.784   6.973 -0.4586 -1.4855  0.0170
  617SOL     vw 2468   6.128   1.730   6.920  0.1483 -0.7346 -0.2487
  618SOL     ow 2469   5.608   7.180   1.541 -0.1167 -0.0249  0.0169
  618SOL     hw 2470   5.575   7.267   1.564 -1.5755 -0.8702  1.2958
  618SOL     hw 2471   5.638   7.143   1.623  1.6514 -0.3093 -0.7143
  618SOL     vw 2472   5.608   7.187   1.555 -0.0758 -0.1739  0.0892
  619SOL     ow 2473   5.654   3.110   1.906 -0.0424  0.2694  0.0626
  619SOL     hw 2474   5.632   3.100   1.813 -1.2293  1.4606  0.1828
  619SOL     hw 2475   5.570   3.099   1.951  0.3718  0.5799  0.9230
  619SOL     vw 2476   5.640   3.107   1.899 -0.1442  0.4675  0.1920
  620SOL     ow 2477   0.848   2.487   5.273 -0.0872  0.0307  0.1797
  620SOL     hw 2478   0.840   2.405   5.321 -2.2708  0.9162  1.4655
  620SOL     hw 2479   0.800   2.472   5.192  0.3946 -0.2594 -0.0594
  620SOL     vw 2480   0.841   2.474   5.268 -0.3118  0.1093  0.3181
  621SOL     ow 2481   1.537   3.718   4.703  0.3083  0.5299  0.2184
  621SOL     hw 2482   1.525   3.640   4.650 -2.7014 -0.4075  2.0538
  621SOL     hw 2483   1.628   3.713   4.732  0.2888 -2.1836  0.0824
  621SOL     vw 2484   1.548   3.707   4.700 -0.0914  0.0480  0.4425
  622SOL     ow 2485   4.535   6.921   3.819 -0.0666 -0.1618  0.1932
  622SOL     hw 2486   4.531   6.831   3.853 -0.2515 -0.7616 -1.3506
  622SOL     hw 2487   4.476   6.921   3.744 -1.2496  1.6771  1.0556
  622SOL     vw 2488   4.526   6.909   3.814 -0.2472  0.0014  0.1034
  623SOL     ow 2489   6.922   6.765   1.851 -0.3400 -0.0405  0.0911
  623SOL     hw 2490   6.845   6.716   1.822 -1.4878  1.6902  0.1102
  623SOL     hw 2491   6.893   6.812   1.930  1.3730 -1.0061  1.3806
  623SOL     vw 2492   6.908   6.765   1.858 -0.2656  0.0606  0.2638
  624SOL     ow 2493   1.857   0.964   6.673  0.0870  0.0552 -0.2561
  624SOL     hw 2494   1.942   0.984   6.712 -0.0097 -0.1891  0.0809
  624SOL     hw 2495   1.793   0.985   6.741 -0.0061 -1.5377  0.1796
  624SOL     vw 2496   1.860   0.970   6.687  0.0619 -0.1872 -0.1540
  625SOL     ow 2497   6.830   4.032   1.875  0.3333  0.2477  0.1093
  625SOL     hw 2498   6.890   3.969   1.836 -0.0741  0.6736 -1.2373
  625SOL     hw 2499   6.830   4.106   1.815  0.2641  1.2491  1.3073
  625SOL     vw 2500   6.838   4.033   1.862  0.2704  0.4361  0.0896
  626SOL     ow 2501   2.374   0.947   0.475 -0.1847  0.4376  0.1917
  626SOL     hw 2502   2.307   1.003   0.435 -1.2674 -0.7266  0.2958
  626SOL     hw 2503   2.410   0.896   0.403 -0.1293  0.3419  0.2868
  626SOL     vw 2504   2.370   0.947   0.460 -0.3202  0.2714  0.2180
  627SOL     ow 2505   6.247   3.794   3.434  0.0687  0.3493  0.3097
  627SOL     hw 2506   6.218   3.846   3.359  2.2761 -2.5428 -2.8367
  627SOL     hw 2507   6.340   3.814   3.443  0.3543 -1.0523  0.7427
  627SOL     vw 2508   6.255   3.804   3.426  0.3977 -0.2173 -0.0483
  628SOL     ow 2509   2.079   6.963   3.629 -0.6063 -0.2489 -0.2273
  628SOL     hw 2510   2.030   6.948   3.709 -0.3550  0.6535  0.1055
  628SOL     hw 2511   2.013   6.962   3.560 -0.7052 -1.9956 -0.1476
  628SOL     vw 2512   2.064   6.961   3.630 -0.5862 -0.3600 -0.1727
  629SOL     ow 2513   0.094   0.195   6.096 -0.1028  0.0522 -0.0803
  629SOL     hw 2514   0.189   0.203   6.082 -0.2147 -1.3635 -1.9387
  629SOL     hw 2515   0.068   0.280   6.131  1.6554  0.9005 -0.7216
  629SOL     vw 2516   0.103   0.207   6.099  0.1144 -0.0227 -0.4101
  630SOL     ow 2517   0.660   1.902   5.931 -0.2166 -0.2009 -0.0981
  630SOL     hw 2518   0.624   1.975   5.981  0.1983  0.2022 -0.3810
  630SOL     hw 2519   0.597   1.889   5.860 -1.0776 -1.1119  0.8009
  630SOL     vw 2520   0.647   1.910   5.928 -0.2755 -0.2679 -0.0167
  631SOL     ow 2521   0.517   1.047   6.271  0.4195  0.1487  0.0707
  631SOL     hw 2522   0.584   1.091   6.219  1.8075 -3.2113 -1.2296
  631SOL     hw 2523   0.557   1.038   6.358  0.5032  0.5864  0.0810
  631SOL     vw 2524   0.531   1.052   6.276  0.6137 -0.2368 -0.0992
  632SOL     ow 2525   6.115   4.560   2.655 -0.0721 -0.0573 -0.1612
  632SOL     hw 2526   6.145   4.510   2.731  2.9281  1.0991 -0.4472
  632SOL     hw 2527   6.098   4.648   2.689 -1.4736 -0.2483 -0.3451
  632SOL     vw 2528   6.117   4.565   2.669  0.1388  0.0701 -0.2230
  633SOL     ow 2529   1.866   1.827   1.548  0.0005 -0.0292  0.0680
  633SOL     hw 2530   1.886   1.904   1.494 -0.7426 -1.9990 -3.3436
  633SOL     hw 2531   1.799   1.857   1.609 -0.4717  1.9853 -1.3376
  633SOL     vw 2532   1.860   1.841   1.549 -0.1599 -0.0233 -0.5676
  634SOL     ow 2533   6.725   6.514   7.084 -0.1218  0.5538  0.3808
  634SOL     hw 2534   6.777   6.488   7.008  0.0926 -2.9721  1.5519
  634SOL     hw 2535   6.787   6.514   7.156 -1.1398 -0.8629  1.3126
  634SOL     vw 2536   6.740   6.510   7.084 -0.2277 -0.0982  0.6583
  635SOL     ow 2537   6.068   0.259   0.871 -0.5205 -0.0931  0.1361
  635SOL     hw 2538   6.132   0.252   0.942  0.2768  0.1710 -0.5441
  635SOL     hw 2539   5.991   0.212   0.904  0.6742 -2.1224  0.2323
  635SOL     vw 2540   6.066   0.252   0.885 -0.2577 -0.3260  0.0590
  636SOL     ow 2541   3.700   2.982   1.911  0.2806  0.5420  0.4566
  636SOL     hw 2542   3.685   2.890   1.886  0.3163  0.5446  0.4253
  636SOL     hw 2543   3.631   3.030   1.866  1.3524  0.7660 -1.0459
  636SOL     vw 2544   3.689   2.976   1.902  0.4265  0.5718  0.2542
  637SOL     ow 2545   3.833   0.599   0.546 -0.0480  0.3682 -0.1022
  637SOL     hw 2546   3.748   0.643   0.547 -0.0892  0.2833  0.0813
  637SOL     hw 2547   3.862   0.601   0.637  0.3828  0.8624 -0.2417
  637SOL     vw 2548   3.826   0.605   0.558  0.0032  0.4221 -0.0964
  638SOL     ow 2549   1.089   5.104   5.295  0.4439 -0.0555  0.3980
  638SOL     hw 2550   1.034   5.106   5.217  1.0062 -0.8352 -0.0223
  638SOL     hw 2551   1.100   5.011   5.315  1.2714  0.0996  0.7187
  638SOL     vw 2552   1.083   5.092   5.287  0.6272 -0.1380  0.3850
  639SOL     ow 2553   1.497   4.927   3.240 -0.1241 -0.1074 -0.3305
  639SOL     hw 2554   1.570   4.982   3.210 -0.2109 -0.1162 -0.5597
  639SOL     hw 2555   1.484   4.953   3.331 -1.7998  2.0721 -1.1048
  639SOL     vw 2556   1.505   4.938   3.248 -0.3567  0.1791 -0.4630
  640SOL     ow 2557   3.374   4.007   0.958 -0.7418  0.3919 -0.1030
  640SOL     hw 2558   3.451   3.951   0.970 -0.9996 -0.0090 -0.2891
  640SOL     hw 2559   3.370   4.061   1.037 -1.5851 -1.2041  0.9929
  640SOL     vw 2560   3.383   4.007   0.970 -0.8870  0.1285  0.0170
  641SOL     ow 2561   0.049   0.288   5.271 -0.0736 -0.2562 -0.8608
  641SOL     hw 2562   0.113   0.234   5.224  0.4079  0.3387 -0.9021
  641SOL     hw 2563   0.067   0.272   5.364 -1.2485 -1.6960 -0.8427
  641SOL     vw 2564   0.060   0.278   5.277 -0.1651 -0.3677 -0.8638
  642SOL     ow 2565   2.384   1.432   5.783 -0.1990  0.3128 -0.5600
  642SOL     hw 2566   2.339   1.350   5.761  0.0834  0.0960 -0.3443
  642SOL     hw 2567   2.328   1.501   5.746 -2.0648  0.2228  1.8775
  642SOL     vw 2568   2.371   1.430   5.775 -0.4079  0.2723 -0.2098
  643SOL     ow 2569   2.232   7.073   4.289  0.0379  0.8507 -0.1823
  643SOL     hw 2570   2.304   7.106   4.342  0.8270 -1.2571  0.1469
  643SOL     hw 2571   2.222   6.982   4.315 -2.3945  0.9057 -0.6433
  643SOL     vw 2572   2.240   7.066   4.299 -0.1787  0.5798 -0.2000
  644SOL     ow 2573   2.784   5.109   4.498 -0.5138 -0.7968 -0.1108
  644SOL     hw 2574   2.827   5.139   4.418 -1.6884 -0.8726 -0.7805
  644SOL     hw 2575   2.807   5.176   4.563 -0.9090  0.1495 -0.9215
  644SOL     vw 2576   2.793   5.122   4.496 -0.7210 -0.6821 -0.3061
  645SOL     ow 2577   0.553   0.743   1.870  0.1773 -0.2331 -0.5407
  645SOL     hw 2578   0.535   0.733   1.964 -1.8203 -0.8659 -0.9444
  645SOL     hw 2579   0.558   0.837   1.856 -3.0551  0.0531 -0.3301
  645SOL     vw 2580   0.551   0.754   1.881 -0.5127 -0.2788 -0.5662
  646SOL     ow 2581   5.831   5.109   3.162 -0.1661 -0.4074  0.1744
  646SOL     hw 2582   5.815   5.017   3.186 -0.1475 -0.4776 -0.0760
  646SOL     hw 2583   5.776   5.124   3.085  0.1105 -0.3222 -0.0122
  646SOL     vw 2584   5.822   5.099   3.155 -0.1268 -0.4053  0.1167
  647SOL     ow 2585   7.111   4.251   2.322 -0.3003  0.4450  0.3633
  647SOL     hw 2586   7.165   4.321   2.286  1.6914 -0.6310  1.0313
  647SOL     hw 2587   7.105   4.186   2.252 -2.4164  1.3633 -0.3687
  647SOL     vw 2588   7.118   4.252   2.308 -0.3169  0.4241  0.3548
  648SOL     ow 2589   3.262   5.445   0.530  0.0681  0.1456  0.6297
  648SOL     hw 2590   3.237   5.498   0.455 -0.0630 -0.3215  0.3383
  648SOL     hw 2591   3.186   5.389   0.547 -0.6716  1.5632  2.3221
  648SOL     vw 2592   3.249   5.444   0.523 -0.0467  0.2711  0.8145
  649SOL     ow 2593   0.587   5.873   4.672  0.3658 -0.4397  0.4156
  649SOL     hw 2594   0.600   5.853   4.579 -0.1094  1.2485 -0.0418
  649SOL     hw 2595   0.495   5.895   4.679  0.3983 -0.5569  1.3035
  649SOL     vw 2596   0.577   5.873   4.660  0.3074 -0.2322  0.4723
  650SOL     ow 2597   3.109   0.823   1.658  0.6030  0.4882  0.2202
  650SOL     hw 2598   3.145   0.883   1.723  0.5732 -2.0151  2.7618
  650SOL     hw 2599   3.185   0.792   1.608  0.9227  0.9057  0.4523
  650SOL     vw 2600   3.124   0.827   1.660  0.6412  0.2130  0.5862
  651SOL     ow 2601   5.783   5.244   2.407  0.5986  0.2959 -0.2374
  651SOL     hw 2602   5.751   5.250   2.497  0.4934  0.7779 -0.3030
  651SOL     hw 2603   5.879   5.241   2.416  0.5659 -1.6673 -0.0156
  651SOL     vw 2604   5.792   5.244   2.420  0.5803  0.1001 -0.2167
  652SOL     ow 2605   0.418   3.153   5.343  0.2738  0.0713  0.6440
  652SOL     hw 2606   0.511   3.134   5.355 -0.1245 -2.4542  0.4195
  652SOL     hw 2607   0.411   3.248   5.354  3.0674  0.5572 -0.7952
  652SOL     vw 2608   0.429   3.163   5.346  0.5898 -0.1978  0.4244
  653SOL     ow 2609   5.903   3.487   5.867 -0.3063  0.0344  0.2284
  653SOL     hw 2610   5.929   3.546   5.797  0.0393  0.8020  0.9741
  653SOL     hw 2611   5.970   3.499   5.935  0.1988 -1.7922  0.1095
  653SOL     vw 2612   5.915   3.497   5.867 -0.1938 -0.1054  0.3109
  654SOL     ow 2613   2.067   5.440   5.397  0.4526  0.4719  0.4894
  654SOL     hw 2614   2.029   5.504   5.458 -0.3011  0.4868  0.0201
  654SOL     hw 2615   2.120   5.382   5.453  0.2192  0.8137  1.0790
  654SOL     vw 2616   2.069   5.441   5.413  0.3223  0.5188  0.5052
  655SOL     ow 2617   5.715   0.807   3.548  0.3719 -0.3471 -0.1391
  655SOL     hw 2618   5.696   0.759   3.629 -0.6367  2.3952  1.4024
  655SOL     hw 2619   5.651   0.774   3.485  1.0208 -2.3659  0.1746
  655SOL     vw 2620   5.704   0.796   3.550  0.3247 -0.2517  0.1056
  656SOL     ow 2621   0.276   2.100   4.890  0.0780  0.3391  0.3977
  656SOL     hw 2622   0.278   2.121   4.796  1.1935 -1.1843  0.0341
  656SOL     hw 2623   0.331   2.166   4.931  0.0190  0.7017 -0.1013
  656SOL     vw 2624   0.283   2.111   4.883  0.2174  0.1860  0.2840
  657SOL     ow 2625   1.810   5.551   2.558 -0.1890 -0.0208  0.0838
  657SOL     hw 2626   1.793   5.495   2.634 -1.2243 -0.9586 -0.8004
  657SOL     hw 2627   1.880   5.505   2.510 -0.5194 -0.1708 -0.2559
  657SOL     vw 2628   1.817   5.538   2.562 -0.3692 -0.1645 -0.0778
  658SOL     ow 2629   3.956   0.014   1.026 -0.0590  0.1096 -0.6308
  658SOL     hw 2630   3.904   0.094   1.025  0.2143  0.2942 -0.1526
  658SOL     hw 2631   3.977  -0.002   0.933 -2.5036 -0.9973 -1.0870
  658SOL     vw 2632   3.952   0.022   1.013 -0.3456 -0.0121 -0.6279
  659SOL     ow 2633   0.954   4.376   6.440  0.0766 -0.1525  0.5235
  659SOL     hw 2634   0.912   4.320   6.506 -1.7249  0.2250 -0.2283
  659SOL     hw 2635   0.969   4.319   6.365 -1.6540  0.2841 -0.2002
  659SOL     vw 2636   0.950   4.361   6.439 -0.3895 -0.0451  0.3290
  660SOL     ow 2637   1.171   0.177   0.508 -0.5485 -0.0355 -0.6796
  660SOL     hw 2638   1.139   0.231   0.435 -1.6583 -2.0424 -1.7601
  660SOL     hw 2639   1.103   0.183   0.574 -0.1400  0.7587 -0.3174
  660SOL     vw 2640   1.158   0.185   0.507 -0.6410 -0.1955 -0.7744
  661SOL     ow 2641   2.222   2.071   2.783  0.2591  0.6451  0.0927
  661SOL     hw 2642   2.161   2.038   2.849  0.2649  0.2528 -0.0976
  661SOL     hw 2643   2.309   2.058   2.823  0.5090 -2.4904 -1.1864
  661SOL     vw 2644   2.226   2.065   2.797  0.2929  0.1796 -0.1011
  662SOL     ow 2645   5.183   3.665   2.268 -0.1460 -0.0329  0.2481
  662SOL     hw 2646   5.275   3.652   2.288  0.0614 -0.2969 -0.8324
  662SOL     hw 2647   5.181   3.746   2.217 -0.0772 -1.6086 -2.4615
  662SOL     vw 2648   5.195   3.674   2.264 -0.1097 -0.2757 -0.2520
  663SOL     ow 2649   4.310   0.095   1.333  0.0580 -0.9145 -0.4638
  663SOL     hw 2650   4.382   0.045   1.296  1.2949  0.2850  0.2559
  663SOL     hw 2651   4.351   0.170   1.376 -1.5724 -0.4873  0.4545
  663SOL     vw 2652   4.325   0.098   1.334  0.0062 -0.6999 -0.2477
  664SOL     ow 2653   7.113   4.898   5.684 -0.0601  0.7595  0.3456
  664SOL     hw 2654   7.030   4.869   5.645 -0.0517  0.3444  0.6305
  664SOL     hw 2655   7.176   4.894   5.612 -0.3881  1.5616  0.0005
  664SOL     vw 2656   7.110   4.894   5.669 -0.1023  0.8106  0.3378
  665SOL     ow 2657   0.382   0.608   0.194 -0.2504 -0.4416  0.4656
  665SOL     hw 2658   0.363   0.541   0.260  1.1539  0.7967  2.2415
  665SOL     hw 2659   0.445   0.666   0.237 -1.3606  2.0008 -1.0165
  665SOL     vw 2660   0.388   0.607   0.209 -0.2116  0.0440  0.5043
  666SOL     ow 2661   0.447   1.415   3.244 -0.3117  0.1873 -0.0047
  666SOL     hw 2662   0.541   1.411   3.225 -0.1206  0.4302  0.8629
  666SOL     hw 2663   0.412   1.472   3.176  0.1419 -0.0294 -0.4304
  666SOL     vw 2664   0.455   1.422   3.232 -0.2266  0.1907  0.0536
  667SOL     ow 2665   0.089   5.348   1.571 -0.2000  0.3607 -0.5466
  667SOL     hw 2666   0.166   5.350   1.627 -0.1071 -0.7298 -0.6235
  667SOL     hw 2667   0.115   5.397   1.492  0.2001  0.5097 -0.3235
  667SOL     vw 2668   0.102   5.355   1.568 -0.1350  0.2363 -0.5273
  668SOL     ow 2669   3.318   3.779   4.706  0.0163 -0.1271 -0.1880
  668SOL     hw 2670   3.402   3.770   4.753  0.5169  2.5842 -0.4001
  668SOL     hw 2671   3.322   3.712   4.637  1.1151 -1.3575  0.9893
  668SOL     vw 2672   3.330   3.769   4.703  0.2272  0.0683 -0.0606
  669SOL     ow 2673   4.806   2.941   4.379  0.0681 -0.3417  0.2479
  669SOL     hw 2674   4.840   3.025   4.411 -1.2346 -0.2742  1.5772
  669SOL     hw 2675   4.712   2.957   4.367 -0.4445 -1.9728  1.8143
  669SOL     vw 2676   4.798   2.954   4.381 -0.1714 -0.5480  0.6301
  670SOL     ow 2677   6.793   6.597   2.049  0.0886 -0.4283 -0.5926
  670SOL     hw 2678   6.756   6.597   1.961  0.7150 -0.6923 -0.8618
  670SOL     hw 2679   6.758   6.517   2.089 -1.8154  0.6841  0.1180
  670SOL     vw 2680   6.783   6.586   2.043 -0.0801 -0.3164 -0.5344
  671SOL     ow 2681   0.432   4.724   4.061 -0.1260 -0.2942  1.2045
  671SOL     hw 2682   0.520   4.690   4.041 -0.1454 -1.0555  2.3477
  671SOL     hw 2683   0.439   4.818   4.047  0.8457 -0.3572  1.1811
  671SOL     vw 2684   0.445   4.732   4.056 -0.0003 -0.4029  1.3523
  672SOL     ow 2685   5.395   5.395   5.154  0.5928 -0.1258 -0.2054
  672SOL     hw 2686   5.356   5.356   5.076 -0.4689  1.6026 -0.5889
  672SOL     hw 2687   5.333   5.377   5.224 -0.5976  1.9318 -0.6550
  672SOL     vw 2688   5.382   5.387   5.153  0.2956  0.3736 -0.3152
  673SOL     ow 2689   6.829   5.941   2.804 -0.4847 -0.3507 -0.1234
  673SOL     hw 2690   6.832   5.937   2.900 -0.4383 -1.1249 -0.1518
  673SOL     hw 2691   6.907   5.991   2.780 -0.7096  0.1980  0.2541
  673SOL     vw 2692   6.840   5.947   2.814 -0.5081 -0.3803 -0.0774
  674SOL     ow 2693   1.684   4.233   6.703 -0.5439 -0.4722 -0.2437
  674SOL     hw 2694   1.721   4.145   6.696 -1.6624 -0.8131 -3.3807
  674SOL     hw 2695   1.603   4.221   6.752  0.5108 -0.6802  1.5632
  674SOL     vw 2696   1.678   4.220   6.709 -0.5524 -0.5448 -0.4191
  675SOL     ow 2697   2.548   6.509   3.840  0.1540 -0.1440  0.6416
  675SOL     hw 2698   2.476   6.561   3.804  0.0485 -0.4292  0.4362
  675SOL     hw 2699   2.611   6.503   3.768  1.8590  2.7248  1.7196
  675SOL     vw 2700   2.546   6.515   3.826  0.3650  0.1969  0.7567
  676SOL     ow 2701   5.032   1.839   3.073 -0.0002  0.1508  0.8602
  676SOL     hw 2702   5.069   1.821   3.160  0.3440 -1.2292  0.4476
  676SOL     hw 2703   4.995   1.927   3.081 -1.6626 -0.6534  2.9721
  676SOL     vw 2704   5.032   1.848   3.086 -0.1740 -0.1374  1.0844
  677SOL     ow 2705   4.965   7.057   6.873 -0.1963 -0.1506 -0.4021
  677SOL     hw 2706   4.955   7.143   6.831  0.6120 -0.0241 -0.3402
  677SOL     hw 2707   5.007   7.002   6.806  0.5010 -0.1294  0.0100
  677SOL     vw 2708   4.969   7.061   6.859  0.0024 -0.1309 -0.3397
  678SOL     ow 2709   4.925   7.012   2.699  0.0094 -0.0434  0.8985
  678SOL     hw 2710   4.905   7.067   2.624  3.0384  0.9632  0.6887
  678SOL     hw 2711   4.842   7.006   2.747 -1.7728  0.1104 -1.9222
  678SOL     vw 2712   4.912   7.019   2.696  0.1738  0.1097  0.4987
  679SOL     ow 2713   4.942   6.403   1.037  0.0596  0.3187 -0.0470
  679SOL     hw 2714   5.036   6.397   1.051  0.1354 -0.0080 -0.6548
  679SOL     hw 2715   4.907   6.435   1.120  0.5592 -0.8553  0.6423
  679SOL     vw 2716   4.950   6.406   1.050  0.1354  0.1206 -0.0362
  680SOL     ow 2717   2.589   0.594   5.104  0.1433 -0.6442 -0.0684
  680SOL     hw 2718   2.675   0.618   5.069 -0.5969  1.3755 -0.6336
  680SOL     hw 2719   2.598   0.604   5.199  0.5596 -0.5324 -0.1182
  680SOL     vw 2720   2.602   0.599   5.112  0.1006 -0.3630 -0.1495
  681SOL     ow 2721   3.023   2.462   2.508 -0.4635  0.3247  0.1041
  681SOL     hw 2722   3.067   2.419   2.435 -0.6819  0.9910 -0.4239
  681SOL     hw 2723   3.095   2.489   2.566 -0.3510 -1.3553  0.8104
  681SOL     vw 2724   3.039   2.460   2.506 -0.4776  0.1910  0.1277
  682SOL     ow 2725   0.641   0.521   1.710  0.4907 -0.0706 -0.4282
  682SOL     hw 2726   0.549   0.493   1.705  0.1851  0.5182  1.2571
  682SOL     hw 2727   0.637   0.614   1.730  1.4292 -0.1931  0.4508
  682SOL     vw 2728   0.628   0.529   1.712  0.5742 -0.0090 -0.0898
  683SOL     ow 2729   4.383   5.769   2.183  0.0064  0.4630 -0.2954
  683SOL     hw 2730   4.472   5.777   2.148  1.2670  0.2454  2.5394
  683SOL     hw 2731   4.396   5.746   2.275 -3.0244  0.3616  0.2085
  683SOL     vw 2732   4.397   5.767   2.191 -0.2275  0.4210  0.1452
  684SOL     ow 2733   0.819   6.556   1.094  0.7499 -0.1143  0.1682
  684SOL     hw 2734   0.810   6.643   1.056 -1.6531 -0.5203 -0.3507
  684SOL     hw 2735   0.808   6.496   1.020  1.9078 -0.8895  0.5945
  684SOL     vw 2736   0.816   6.559   1.080  0.5856 -0.2699  0.1559
  685SOL     ow 2737   2.150   5.263   3.103  0.3022  0.0573  0.3303
  685SOL     hw 2738   2.181   5.296   3.018  0.2582 -1.0816 -0.1348
  685SOL     hw 2739   2.104   5.338   3.141  0.2831  0.5795 -0.6670
  685SOL     vw 2740   2.148   5.278   3.097  0.2937 -0.0241  0.1372
  686SOL     ow 2741   6.205   3.349   3.637 -0.4199 -0.3363  0.3030
  686SOL     hw 2742   6.253   3.390   3.709  0.7128  1.5068 -1.3918
  686SOL     hw 2743   6.253   3.267   3.620 -0.5365 -0.6546  1.4205
  686SOL     vw 2744   6.218   3.343   3.644 -0.2859 -0.1351  0.2269
  687SOL     ow 2745   6.617   4.433   3.750  0.7654  0.1685 -0.6538
  687SOL     hw 2746   6.586   4.417   3.840  1.1084 -1.4413 -0.7971
  687SOL     hw 2747   6.652   4.522   3.753 -0.7326  0.7732  0.3824
  687SOL     vw 2748   6.617   4.443   3.763  0.6132  0.0360 -0.5361
  688SOL     ow 2749   7.179   2.542   4.425 -1.0413  0.7096 -0.1767
  688SOL     hw 2750   7.135   2.585   4.499 -1.5332  0.2042 -0.1687
  688SOL     hw 2751   7.156   2.450   4.434 -1.3965  0.6931 -1.1612
  688SOL     vw 2752   7.170   2.536   4.436 -1.1530  0.6409 -0.3057
  689SOL     ow 2753   1.960   1.872   3.461  0.3584 -0.3145  0.5946
  689SOL     hw 2754   1.961   1.858   3.366 -0.0976  1.9474  0.1843
  689SOL     hw 2755   1.868   1.866   3.485  0.4949 -1.0809  0.9424
  689SOL     vw 2756   1.948   1.869   3.452  0.3162 -0.1172  0.5863
  690SOL     ow 2757   2.892   2.880   3.569 -0.3970  0.1617 -0.2908
  690SOL     hw 2758   2.864   2.877   3.478  0.8783 -1.3964 -0.6877
  690SOL     hw 2759   2.961   2.947   3.571  0.8737 -1.0859 -0.9116
  690SOL     vw 2760   2.897   2.889   3.558 -0.0612 -0.2084 -0.4251
  691SOL     ow 2761   4.028   1.687   4.112  0.1384  0.0549  0.0772
  691SOL     hw 2762   4.015   1.721   4.023 -3.7610 -0.2936  0.3285
  691SOL     hw 2763   4.033   1.592   4.099  1.1310  0.0876  0.1508
  691SOL     vw 2764   4.027   1.679   4.098 -0.2451  0.0132  0.1199
  692SOL     ow 2765   3.591   6.254   7.055 -0.3693 -0.2238  0.2339
  692SOL     hw 2766   3.511   6.239   7.106  0.4624 -1.1850  1.3092
  692SOL     hw 2767   3.639   6.320   7.103 -0.2632 -0.0433 -0.1147
  692SOL     vw 2768   3.586   6.260   7.068 -0.2456 -0.3266  0.3297
  693SOL     ow 2769   5.884   0.984   3.196 -0.2784 -0.3494  0.6394
  693SOL     hw 2770   5.845   1.030   3.270  0.5754 -1.1721  1.6370
  693SOL     hw 2771   5.961   1.036   3.174 -0.4859 -0.1507  0.3809
  693SOL     vw 2772   5.889   0.997   3.203 -0.1934 -0.4317  0.7370
  694SOL     ow 2773   1.634   2.269   3.213 -0.2556  0.0180  0.4277
  694SOL     hw 2774   1.554   2.306   3.175  0.7349  0.9898 -0.8219
  694SOL     hw 2775   1.694   2.343   3.219  0.9549 -0.9106  0.1803
  694SOL     vw 2776   1.631   2.284   3.209  0.0347  0.0235  0.2301
  695SOL     ow 2777   4.959   4.420   3.524  0.3147  0.7872 -0.0676
  695SOL     hw 2778   4.884   4.416   3.465  0.8883  1.2095 -0.8511
  695SOL     hw 2779   4.922   4.406   3.611 -0.6059  0.5510 -0.4804
  695SOL     vw 2780   4.944   4.418   3.528  0.2687  0.8118 -0.2254
  696SOL     ow 2781   6.902   2.573   6.264  0.9152  0.1177 -0.0506
  696SOL     hw 2782   6.821   2.609   6.298  1.0400 -0.0678  0.4588
  696SOL     hw 2783   6.881   2.482   6.242  0.8370  0.2335 -0.4771
  696SOL     vw 2784   6.889   2.566   6.265  0.9212  0.1086 -0.0396
  697SOL     ow 2785   7.026   2.712   4.914  0.2338 -0.3147  0.4698
  697SOL     hw 2786   7.021   2.788   4.857 -0.6688 -0.0718  0.8476
  697SOL     hw 2787   6.953   2.723   4.974  1.4202 -0.3282  1.9755
  697SOL     vw 2788   7.016   2.723   4.914  0.2711 -0.2846  0.7186
  698SOL     ow 2789   3.493   0.405   5.167 -0.9373 -0.4825 -0.0312
  698SOL     hw 2790   3.407   0.445   5.177 -1.1538 -0.3602 -2.0141
  698SOL     hw 2791   3.553   0.480   5.157 -0.7005 -0.5853  0.5599
  698SOL     vw 2792   3.490   0.420   5.167 -0.9345 -0.4800 -0.2148
  699SOL     ow 2793   1.508   3.983   5.846  0.0223  0.5139  0.0473
  699SOL     hw 2794   1.547   3.922   5.909 -1.2714 -0.4839 -0.0664
  699SOL     hw 2795   1.514   4.069   5.888  1.4007  0.2478  0.4419
  699SOL     vw 2796   1.514   3.986   5.860  0.0335  0.3471  0.0842
  700SOL     ow 2797   6.005   1.026   5.714  0.0268 -0.4006 -0.0676
  700SOL     hw 2798   5.960   1.062   5.791 -1.7754 -0.4757 -1.0268
  700SOL     hw 2799   6.077   0.975   5.750  1.1555  2.0809  1.4357
  700SOL     vw 2800   6.008   1.024   5.729 -0.0622 -0.0831  0.0041
  701SOL     ow 2801   0.633   3.970   6.941  0.3479  0.3836  0.1182
  701SOL     hw 2802   0.634   4.065   6.956 -2.5932  0.5897 -0.4077
  701SOL     hw 2803   0.636   3.932   7.029  0.8861  0.9866  0.3629
  701SOL     vw 2804   0.633   3.977   6.955  0.0308  0.4903  0.0811
  702SOL     ow 2805   2.117   5.907   1.113  0.4817  0.6156 -0.8910
  702SOL     hw 2806   2.060   5.927   1.187  1.0419  1.2389 -0.6200
  702SOL     hw 2807   2.204   5.937   1.141  0.8179  0.2790 -1.5556
  702SOL     vw 2808   2.121   5.914   1.127  0.6000  0.6535 -0.9429
  703SOL     ow 2809   0.752   1.647   2.218 -0.5649  0.0912  0.2431
  703SOL     hw 2810   0.669   1.603   2.201  0.4214 -2.0745  0.6193
  703SOL     hw 2811   0.819   1.582   2.196  0.9909  1.0122  1.9141
  703SOL     vw 2812   0.750   1.633   2.213 -0.2295 -0.0730  0.5131
  704SOL     ow 2813   0.499   1.930   6.606  0.3599  0.2559 -0.4930
  704SOL     hw 2814   0.572   1.906   6.550  1.9211  0.1546  1.4864
  704SOL     hw 2815   0.531   2.005   6.657 -0.4397 -0.5751  1.3127
  704SOL     vw 2816   0.513   1.937   6.605  0.4604  0.1329  0.0062
  705SOL     ow 2817   5.487   5.541   0.504  0.0209 -0.5998 -0.5516
  705SOL     hw 2818   5.466   5.624   0.462  0.8962  1.1417  2.1525
  705SOL     hw 2819   5.409   5.520   0.556  0.0774 -1.1125 -0.6663
  705SOL     vw 2820   5.474   5.549   0.506  0.1440 -0.4377 -0.2100
  706SOL     ow 2821   6.084   5.082   3.050  0.4310  0.1530 -0.0745
  706SOL     hw 2822   6.098   4.988   3.038 -0.7170  0.2651 -3.0771
  706SOL     hw 2823   5.992   5.088   3.076 -0.1175  0.5208 -2.0196
  706SOL     vw 2824   6.074   5.070   3.052  0.2074  0.2162 -0.7273
  707SOL     ow 2825   0.790   6.589   5.232  0.3910  0.1529 -0.5500
  707SOL     hw 2826   0.842   6.512   5.208 -1.4609 -1.2960 -0.1695
  707SOL     hw 2827   0.724   6.596   5.163 -1.0462 -0.2141  0.7180
  707SOL     vw 2828   0.788   6.580   5.220 -0.0429 -0.0868 -0.3328
  708SOL     ow 2829   4.367   1.204   2.278 -0.1136  0.4655 -0.5561
  708SOL     hw 2830   4.402   1.289   2.251  0.1591  0.4081 -0.3866
  708SOL     hw 2831   4.432   1.170   2.339 -0.9336  0.7804  0.5206
  708SOL     vw 2832   4.380   1.211   2.282 -0.1860  0.4994 -0.3916
  709SOL     ow 2833   6.167   4.831   3.009  0.5586 -0.2780  0.3707
  709SOL     hw 2834   6.141   4.757   3.063  0.0656 -1.0280 -0.8375
  709SOL     hw 2835   6.262   4.839   3.023  0.5748 -0.9881  0.6879
  709SOL     vw 2836   6.176   4.822   3.018  0.4954 -0.4706  0.2531
  710SOL     ow 2837   6.588   5.707   0.922  0.3170 -0.5447  0.3374
  710SOL     hw 2838   6.608   5.760   0.845  0.5323 -0.9116  0.1347
  710SOL     hw 2839   6.566   5.620   0.886  2.0697 -1.2039  0.7630
  710SOL     vw 2840   6.588   5.702   0.907  0.5770 -0.6800  0.3668
  711SOL     ow 2841   6.114   3.435   4.516  0.1760  0.7008 -0.0410
  711SOL     hw 2842   6.059   3.383   4.458  0.0191  2.0322 -1.1551
  711SOL     hw 2843   6.176   3.478   4.457 -1.0578  3.4285  0.4833
  711SOL     vw 2844   6.115   3.434   4.501 -0.0074  1.2363 -0.1190
  712SOL     ow 2845   0.212   0.368   3.905  0.2582 -0.2074  0.1880
  712SOL     hw 2846   0.193   0.293   3.848 -0.2481  0.0379  0.0265
  712SOL     hw 2847   0.252   0.329   3.982 -1.0929 -0.7900  0.6427
  712SOL     vw 2848   0.214   0.353   3.908  0.0132 -0.2519  0.2267
  713SOL     ow 2849   1.195   3.128   3.477 -0.2596  0.1584  0.2611
  713SOL     hw 2850   1.256   3.097   3.544 -1.2067  0.3438  1.2431
  713SOL     hw 2851   1.133   3.056   3.466  0.2107 -0.0979 -0.8534
  713SOL     vw 2852   1.195   3.114   3.484 -0.3226  0.1491  0.2437
  714SOL     ow 2853   1.962   6.434   1.442 -0.8935 -0.1808 -0.7776
  714SOL     hw 2854   2.019   6.495   1.488  0.0026 -1.0582 -0.7040
  714SOL     hw 2855   1.976   6.452   1.349 -0.4489 -0.4377 -0.7604
  714SOL     vw 2856   1.971   6.445   1.436 -0.7165 -0.3304 -0.7656
  715SOL     ow 2857   3.207   3.075   0.435  0.2583  0.2222 -0.7656
  715SOL     hw 2858   3.154   3.027   0.498  1.9491 -0.0318  0.5531
  715SOL     hw 2859   3.231   3.011   0.368  1.6845 -0.5745  0.4584
  715SOL     vw 2860   3.203   3.060   0.434  0.6696  0.0836 -0.4301
  716SOL     ow 2861   1.552   5.358   2.052 -0.0083  0.1537 -0.2706
  716SOL     hw 2862   1.640   5.395   2.058 -0.7859  2.0131  0.6476
  716SOL     hw 2863   1.504   5.419   1.995 -1.2479  0.4209  0.9850
  716SOL     vw 2864   1.557   5.371   2.045 -0.2744  0.4344  0.0162
  717SOL     ow 2865   2.553   0.936   2.600 -0.2094 -0.7909  0.5235
  717SOL     hw 2866   2.558   0.925   2.695  0.5851 -0.7221  0.4927
  717SOL     hw 2867   2.479   0.996   2.587  1.1203  1.1396  1.2668
  717SOL     vw 2868   2.544   0.943   2.611  0.0709 -0.5271  0.6175
  718SOL     ow 2869   5.581   0.992   6.297  0.1113 -0.7609 -0.6548
  718SOL     hw 2870   5.554   0.932   6.367  1.0332 -0.9089 -0.4059
  718SOL     hw 2871   5.605   1.073   6.343 -2.2618  0.2636 -1.0858
  718SOL     vw 2872   5.581   0.995   6.312 -0.0801 -0.6453 -0.6790
  719SOL     ow 2873   3.273   1.866   6.026  0.1398 -0.1945 -0.6955
  719SOL     hw 2874   3.233   1.937   5.975  0.6561 -0.1456 -1.0295
  719SOL     hw 2875   3.322   1.815   5.962  1.5676  0.4078 -0.1030
  719SOL     vw 2876   3.274   1.868   6.011  0.3964 -0.1086 -0.6614
  720SOL     ow 2877   3.045   4.876   6.735  0.1072 -1.2992  0.0715
  720SOL     hw 2878   3.031   4.886   6.829  0.8400  2.1021 -0.0662
  720SOL     hw 2879   2.960   4.894   6.696  0.2575 -0.6395  0.0330
  720SOL     vw 2880   3.032   4.880   6.742  0.2236 -0.7637  0.0484
  721SOL     ow 2881   4.996   6.714   2.643  0.1090 -0.0484 -0.4883
  721SOL     hw 2882   4.938   6.715   2.567  0.6332  0.7163 -0.8969
  721SOL     hw 2883   4.996   6.623   2.672  0.3939 -0.4880 -1.7968
  721SOL     vw 2884   4.988   6.702   2.637  0.2155 -0.0057 -0.7148
  722SOL     ow 2885   2.527   4.385   1.026  0.2043 -0.1935  0.2859
  722SOL     hw 2886   2.457   4.364   0.964  0.9547  1.2294 -1.1223
  722SOL     hw 2887   2.605   4.344   0.989  0.0320 -2.7564  2.4286
  722SOL     vw 2888   2.528   4.377   1.013  0.2806 -0.3440  0.3828
  723SOL     ow 2889   2.866   1.196   3.835 -0.5465  0.1768 -0.2546
  723SOL     hw 2890   2.820   1.278   3.851 -0.2115 -0.1918  3.4061
  723SOL     hw 2891   2.951   1.223   3.800 -0.7314  1.3472  0.1474
  723SOL     vw 2892   2.871   1.210   3.832 -0.5268  0.2826  0.2816
  724SOL     ow 2893   0.632   2.656   6.437  0.2215 -0.0938  0.3479
  724SOL     hw 2894   0.576   2.584   6.467  0.4975 -0.0327  1.0289
  724SOL     hw 2895   0.625   2.654   6.341  0.5096 -1.2597  0.3377
  724SOL     vw 2896   0.624   2.646   6.428  0.2959 -0.2395  0.4365
  725SOL     ow 2897   3.245   4.036   5.006  0.3720  0.2616 -0.0725
  725SOL     hw 2898   3.175   4.034   5.072 -0.6237 -0.9802 -1.1181
  725SOL     hw 2899   3.277   3.946   5.002 -0.3045  0.0554 -1.9962
  725SOL     vw 2900   3.240   4.024   5.014  0.1513  0.0703 -0.4644
  726SOL     ow 2901   6.013   3.091   0.915 -0.2267  0.2323 -0.1901
  726SOL     hw 2902   6.037   3.108   0.824  0.2147  0.0685 -0.1064
  726SOL     hw 2903   6.016   2.996   0.923  1.4892  0.3131  0.4596
  726SOL     vw 2904   6.016   3.081   0.904  0.0579  0.2213 -0.0934
  727SOL     ow 2905   4.098   2.338   3.247  0.4030  0.3182  0.7307
  727SOL     hw 2906   4.048   2.284   3.186  0.5637  1.6448 -0.6399
  727SOL     hw 2907   4.056   2.325   3.331  0.7261 -2.2919  0.5755
  727SOL     vw 2908   4.086   2.329   3.250  0.4668  0.1489  0.5293
  728SOL     ow 2909   5.506   0.700   4.295  0.5005 -0.3835 -0.7267
  728SOL     hw 2910   5.594   0.665   4.279  0.7329  0.0430 -0.4238
  728SOL     hw 2911   5.470   0.643   4.363 -1.2513 -3.4465 -3.9051
  728SOL     vw 2912   5.513   0.688   4.302  0.3002 -0.7313 -1.1060
  729SOL     ow 2913   5.091   2.616   4.954 -0.6060 -0.0157 -0.2664
  729SOL     hw 2914   5.186   2.621   4.968 -0.7891  1.3905  0.7332
  729SOL     hw 2915   5.082   2.593   4.862  0.6807 -2.8726  0.2131
  729SOL     vw 2916   5.102   2.614   4.944 -0.4604 -0.2073 -0.0710
  730SOL     ow 2917   2.020   1.453   5.081 -0.0101  0.2277  0.2067
  730SOL     hw 2918   1.980   1.481   5.164  0.8769  1.7225  0.1819
  730SOL     hw 2919   2.049   1.364   5.097 -0.0467  0.4168  1.4448
  730SOL     vw 2920   2.019   1.445   5.094  0.1020  0.4499  0.3667
  731SOL     ow 2921   6.321   0.316   0.360  0.8677  0.5530  0.0433
  731SOL     hw 2922   6.390   0.250   0.370 -0.0137 -0.2609  1.0056
  731SOL     hw 2923   6.262   0.279   0.295 -0.4731 -0.4089  1.7180
  731SOL     vw 2924   6.323   0.302   0.353  0.5746  0.3187  0.3912
  732SOL     ow 2925   4.284   4.589   5.970 -0.3980 -0.1514  0.1396
  732SOL     hw 2926   4.243   4.675   5.981 -1.5167 -0.2860 -2.4460
  732SOL     hw 2927   4.358   4.605   5.911  1.2063 -0.5566  1.9035
  732SOL     vw 2928   4.289   4.602   5.964 -0.3338 -0.2227  0.0312
  733SOL     ow 2929   0.150   2.990   0.693  0.1295  0.2464  0.0811
  733SOL     hw 2930   0.092   2.931   0.645  0.1808 -0.2844  0.6546
  733SOL     hw 2931   0.105   3.007   0.775  1.2422 -1.0438  1.0010
  733SOL     vw 2932   0.137   2.984   0.697  0.2831  0.0061  0.2782
  734SOL     ow 2933   7.011   5.881   0.342  0.4333  0.4667  0.0559
  734SOL     hw 2934   6.986   5.795   0.309 -1.8395  0.8704  0.6123
  734SOL     hw 2935   6.930   5.932   0.342  1.3482  2.0323  1.5137
  734SOL     vw 2936   6.997   5.876   0.338  0.2542  0.7265  0.3217
  735SOL     ow 2937   6.390   1.956   1.268 -0.0209 -0.0267 -0.1103
  735SOL     hw 2938   6.313   1.972   1.213  0.5027  1.5014 -0.4663
  735SOL     hw 2939   6.381   1.865   1.297 -1.2243 -0.3080 -1.2751
  735SOL     vw 2940   6.378   1.946   1.265 -0.1106  0.1378 -0.3110
  736SOL     ow 2941   2.043   4.599   1.452 -0.6726 -0.2791 -0.4621
  736SOL     hw 2942   2.037   4.621   1.360  1.2163  1.7931 -0.1621
  736SOL     hw 2943   2.110   4.531   1.457 -0.9922 -0.6109 -0.6207
  736SOL     vw 2944   2.051   4.593   1.441 -0.4655 -0.0494 -0.4435
  737SOL     ow 2945   4.663   1.115   4.200  0.3429  0.0023  0.3486
  737SOL     hw 2946   4.723   1.171   4.249  0.0983 -0.7750  1.5924
  737SOL     hw 2947   4.633   1.050   4.264  0.6736 -1.6012 -1.0290
  737SOL     vw 2948   4.667   1.114   4.215  0.3543 -0.3118  0.3309
  738SOL     ow 2949   6.635   6.346   5.910  0.1326  0.2133  0.0298
  738SOL     hw 2950   6.716   6.296   5.908 -0.2412 -0.3826 -0.6199
  738SOL     hw 2951   6.663   6.437   5.897  0.9735  0.4477  2.8161
  738SOL     vw 2952   6.649   6.351   5.908  0.1943  0.1657  0.3114
  739SOL     ow 2953   5.310   5.590   5.943  0.1090 -0.6737  0.0395
  739SOL     hw 2954   5.403   5.611   5.951 -0.1723  0.1445  1.3957
  739SOL     hw 2955   5.288   5.613   5.853  1.0139 -0.0120 -0.0234
  739SOL     vw 2956   5.319   5.596   5.932  0.1915 -0.4785  0.2103
  740SOL     ow 2957   2.432   2.475   1.415  0.4916 -0.1617  0.5966
  740SOL     hw 2958   2.358   2.416   1.429  0.0139  0.3081  0.1252
  740SOL     hw 2959   2.477   2.478   1.500  0.4737 -1.1216  0.6486
  740SOL     vw 2960   2.428   2.467   1.428  0.4261 -0.2264  0.5412
  741SOL     ow 2961   0.855   0.257   1.672  0.1725  0.0138  0.0164
  741SOL     hw 2962   0.941   0.252   1.629  0.9989 -0.6837  1.6544
  741SOL     hw 2963   0.821   0.343   1.646  1.4262  0.3660 -0.5589
  741SOL     vw 2964   0.862   0.268   1.663  0.4470 -0.0318  0.1566
  742SOL     ow 2965   6.862   2.841   4.583  0.5169 -0.2624  0.3238
  742SOL     hw 2966   6.794   2.870   4.522  1.2314 -1.8110 -1.3088
  742SOL     hw 2967   6.826   2.861   4.669 -1.2159  0.6088 -0.5258
  742SOL     vw 2968   6.848   2.848   4.586  0.3824 -0.3518 -0.0041
  743SOL     ow 2969   2.765   3.858   4.276 -0.2890  0.0358 -0.4313
  743SOL     hw 2970   2.674   3.829   4.279 -0.4537  0.6164  0.6285
  743SOL     hw 2971   2.763   3.946   4.313  0.8595 -0.3738  0.6875
  743SOL     vw 2972   2.753   3.866   4.281 -0.1591  0.0584 -0.1440
  744SOL     ow 2973   6.077   3.544   3.493  0.4143 -0.1620  0.2100
  744SOL     hw 2974   6.091   3.520   3.401  1.5621  0.0811  0.3127
  744SOL     hw 2975   6.103   3.467   3.543  0.9517  0.1325  0.3863
  744SOL     vw 2976   6.082   3.531   3.487  0.6368 -0.0911  0.2469
  745SOL     ow 2977   1.279   5.489   2.487 -0.3040 -0.5451 -0.2317
  745SOL     hw 2978   1.211   5.455   2.429 -0.5872 -0.0617 -0.1872
  745SOL     hw 2979   1.234   5.550   2.545  0.0019 -0.9017  0.4012
  745SOL     vw 2980   1.264   5.493   2.487 -0.3010 -0.5281 -0.1422
  746SOL     ow 2981   5.048   3.739   5.564  0.3028  0.1993 -0.8846
  746SOL     hw 2982   5.021   3.744   5.473 -1.0677 -1.2543 -0.6043
  746SOL     hw 2983   5.061   3.830   5.590  1.5561  0.5934 -2.7395
  746SOL     vw 2984   5.046   3.752   5.556  0.2875  0.0595 -1.0922
  747SOL     ow 2985   1.522   6.376   0.397 -0.3791 -0.2964  0.2303
  747SOL     hw 2986   1.552   6.334   0.316 -0.4635  0.3498 -0.1376
  747SOL     hw 2987   1.592   6.360   0.460 -0.0939 -0.3733 -0.1057
  747SOL     vw 2988   1.535   6.368   0.395 -0.3526 -0.2213  0.1374
  748SOL     ow 2989   6.789   1.990   5.085 -0.1344  0.2646  0.1522
  748SOL     hw 2990   6.849   2.049   5.129 -2.0006  1.3234  1.4145
  748SOL     hw 2991   6.843   1.943   5.021  1.9340  1.3227  1.0501
  748SOL     vw 2992   6.804   1.991   5.082 -0.1075  0.5439  0.4375
  749SOL     ow 2993   3.679   3.318   1.488 -0.3903 -0.1022  0.0940
  749SOL     hw 2994   3.693   3.229   1.456 -0.5772  0.1230 -0.6363
  749SOL     hw 2995   3.759   3.339   1.537  1.0103  0.4117 -2.2604
  749SOL     vw 2996   3.692   3.309   1.490 -0.2301 -0.0045 -0.3131
  750SOL     ow 2997   5.052   1.842   4.688 -0.2117 -0.1516 -0.0599
  750SOL     hw 2998   4.989   1.774   4.663 -0.7970 -0.6385  2.3962
  750SOL     hw 2999   5.118   1.796   4.740  0.9985  0.7137 -0.7798
  750SOL     vw 3000   5.052   1.827   4.692 -0.1295 -0.1017  0.1695
  751SOL     ow 3001   0.721   6.369   7.156 -0.2319 -0.0347 -0.4120
  751SOL     hw 3002   0.783   6.329   7.217 -2.5148 -1.1965  1.2931
  751SOL     hw 3003   0.736   6.325   7.073  0.4134 -1.1390  0.2715
  751SOL     vw 3004   0.731   6.358   7.153 -0.4480 -0.3338 -0.0968
  752SOL     ow 3005   2.518   0.934   2.309  0.2428 -0.0402  0.4212
  752SOL     hw 3006   2.432   0.924   2.268 -0.1595 -1.7986  1.5851
  752SOL     hw 3007   2.542   1.025   2.292 -1.6530  0.3652 -0.3057
  752SOL     vw 3008   2.510   0.945   2.302 -0.0603 -0.2187  0.4789
  753SOL     ow 3009   2.936   6.315   2.120 -0.2246  0.0062 -0.0350
  753SOL     hw 3010   2.869   6.282   2.180 -0.5432 -0.9336 -0.8820
  753SOL     hw 3011   2.984   6.237   2.092 -1.9378 -0.0562 -3.2289
  753SOL     vw 3012   2.933   6.301   2.124 -0.4928 -0.1259 -0.5682
  754SOL     ow 3013   2.272   3.128   6.851  0.0440 -0.3416  0.2067
  754SOL     hw 3014   2.268   3.131   6.755  1.2167 -1.6919  0.0851
  754SOL     hw 3015   2.191   3.170   6.880  0.2471  1.2149 -1.3484
  754SOL     vw 3016   2.260   3.134   6.842  0.2255 -0.3144 -0.0143
  755SOL     ow 3017   2.075   7.002   4.872  0.3940  0.2898 -0.1099
  755SOL     hw 3018   2.085   6.909   4.852  0.1930  0.4117 -0.8060
  755SOL     hw 3019   2.116   7.013   4.957  0.4337 -0.4351 -0.0306
  755SOL     vw 3020   2.082   6.991   4.880  0.3726  0.2100 -0.1915
  756SOL     ow 3021   6.137   5.717   5.987  0.1692 -0.3839 -0.6828
  756SOL     hw 3022   6.213   5.667   6.016 -0.2917 -0.7125 -0.0241
  756SOL     hw 3023   6.171   5.773   5.917  1.2654  0.2730  0.3242
  756SOL     vw 3024   6.152   5.718   5.982  0.2532 -0.3405 -0.4632
  757SOL     ow 3025   2.073   4.752   1.758  0.8894 -0.0482  0.3769
  757SOL     hw 3026   2.072   4.681   1.822  1.6500  0.2628  0.7513
  757SOL     hw 3027   2.165   4.781   1.755  1.4611 -1.7125 -2.6900
  757SOL     vw 3028   2.085   4.747   1.766  1.0651 -0.2267  0.0216
  758SOL     ow 3029   6.486   6.731   5.028 -0.7103  0.5019 -0.2707
  758SOL     hw 3030   6.428   6.656   5.012 -0.7242  0.2402  0.8815
  758SOL     hw 3031   6.445   6.776   5.102 -0.7285  1.6888 -0.9814
  758SOL     vw 3032   6.473   6.727   5.036 -0.7145  0.6239 -0.2122
  759SOL     ow 3033   3.419   6.486   3.982 -0.8903  0.2034 -0.0583
  759SOL     hw 3034   3.380   6.557   3.930 -1.1875 -0.1351 -0.3082
  759SOL     hw 3035   3.346   6.452   4.035 -0.6064  0.4959  0.5300
  759SOL     vw 3036   3.404   6.491   3.982 -0.8922  0.1972 -0.0136
  760SOL     ow 3037   5.344   1.316   5.857 -0.0921  0.7961 -0.1975
  760SOL     hw 3038   5.308   1.252   5.918 -1.2692  1.9570  0.3718
  760SOL     hw 3039   5.437   1.319   5.877 -0.3135  0.5180  0.9397
  760SOL     vw 3040   5.352   1.308   5.867 -0.2766  0.9125  0.0279
  761SOL     ow 3041   0.683   0.541   0.492  0.9382  0.1561 -0.2770
  761SOL     hw 3042   0.630   0.605   0.444  1.1692  0.2010 -0.4768
  761SOL     hw 3043   0.754   0.593   0.530  1.1577  0.0134 -0.4860
  761SOL     vw 3044   0.686   0.556   0.491  0.9976  0.1432 -0.3310
  762SOL     ow 3045   1.409   0.221   4.930  0.5030  0.4050 -0.4898
  762SOL     hw 3046   1.423   0.151   4.865 -1.5092 -0.2397 -0.3023
  762SOL     hw 3047   1.497   0.242   4.961  1.1814 -2.3962 -0.1970
  762SOL     vw 3048   1.423   0.214   4.925  0.3270 -0.0497 -0.4263
  763SOL     ow 3049   0.256   0.624   6.194  0.2978  0.5526 -0.0642
  763SOL     hw 3050   0.283   0.707   6.157  0.5990  0.0788 -0.9370
  763SOL     hw 3051   0.219   0.646   6.280  0.8080  1.5189 -0.0859
  763SOL     vw 3052   0.255   0.638   6.201  0.4048  0.6176 -0.1822
  764SOL     ow 3053   1.252   2.618   0.039 -0.0514  0.1944  0.9955
  764SOL     hw 3054   1.296   2.543   0.000  2.2027  0.9911  1.8454
  764SOL     hw 3055   1.168   2.623  -0.006  0.8108 -1.2747 -0.8917
  764SOL     vw 3056   1.247   2.609   0.028  0.3598  0.1057  0.8590
  765SOL     ow 3057   1.812   1.437   4.916 -0.4089 -0.1340 -0.4433
  765SOL     hw 3058   1.831   1.346   4.893 -0.7523 -0.6648  1.2456
  765SOL     hw 3059   1.875   1.459   4.984 -0.7266  0.6969 -0.4015
  765SOL     vw 3060   1.823   1.428   4.922 -0.4961 -0.0944 -0.2148
  766SOL     ow 3061   0.442   4.684   1.674  0.4177 -0.1968  0.3808
  766SOL     hw 3062   0.495   4.749   1.721 -2.6051  1.0011  2.4165
  766SOL     hw 3063   0.471   4.600   1.709  1.6933  0.3126  0.6257
  766SOL     vw 3064   0.453   4.681   1.685  0.1872  0.0284  0.6817
  767SOL     ow 3065   4.515   5.167   3.736  0.6189 -0.2707  0.4857
  767SOL     hw 3066   4.562   5.084   3.741  0.9722 -0.0707  0.5223
  767SOL     hw 3067   4.563   5.217   3.669 -0.2578 -0.5172 -0.3478
  767SOL     vw 3068   4.528   5.163   3.728  0.5498 -0.2768  0.3806
  768SOL     ow 3069   3.574   3.912   2.569  0.3040 -0.3385  0.0702
  768SOL     hw 3070   3.488   3.925   2.609  1.2928  0.5410  2.0384
  768SOL     hw 3071   3.600   3.998   2.537  0.2602 -0.7014 -0.9807
  768SOL     vw 3072   3.566   3.925   2.570  0.4287 -0.2705  0.1912
  769SOL     ow 3073   4.822   6.290   3.255 -0.4327 -0.1847  0.3208
  769SOL     hw 3074   4.830   6.205   3.299  0.9024  0.2616  0.9650
  769SOL     hw 3075   4.727   6.306   3.251 -0.7442 -1.8645 -0.1509
  769SOL     vw 3076   4.810   6.281   3.260 -0.2975 -0.3474  0.3436
  770SOL     ow 3077   0.812   4.212   6.609 -0.1807 -1.0945 -0.1782
  770SOL     hw 3078   0.826   4.148   6.679  2.0559 -0.2956  0.1642
  770SOL     hw 3079   0.737   4.264   6.639  1.1055 -0.3651  2.0045
  770SOL     vw 3080   0.804   4.211   6.622  0.2841 -0.8929  0.1547
  771SOL     ow 3081   2.495   5.108   0.058 -0.0408  0.2045  0.0390
  771SOL     hw 3082   2.463   5.179   0.002 -3.3390 -1.3069 -0.2598
  771SOL     hw 3083   2.534   5.152   0.134 -1.4948  2.3657 -0.3841
  771SOL     vw 3084   2.496   5.123   0.061 -0.6678  0.2899 -0.0562
  772SOL     ow 3085   1.895   4.077   2.358 -0.4865  0.0982  0.1610
  772SOL     hw 3086   1.874   4.134   2.431 -0.9333  0.2446 -0.0813
  772SOL     hw 3087   1.950   4.008   2.397 -1.2542 -0.1840  0.7593
  772SOL     vw 3088   1.900   4.075   2.373 -0.6468  0.0806  0.2080
  773SOL     ow 3089   2.090   3.962   3.824 -0.2393 -0.3676  0.5306
  773SOL     hw 3090   2.123   3.874   3.844  1.9385  0.3913  0.5520
  773SOL     hw 3091   2.056   3.994   3.908 -0.4249 -0.9393  0.6767
  773SOL     vw 3092   2.090   3.955   3.838  0.0236 -0.3430  0.5527
  774SOL     ow 3093   2.987   5.909   4.924  0.3157 -0.0620  0.3582
  774SOL     hw 3094   2.899   5.877   4.905  0.6547 -0.8678  0.0828
  774SOL     hw 3095   3.045   5.850   4.875  1.0565 -0.2192  1.3920
  774SOL     vw 3096   2.983   5.897   4.915  0.4582 -0.1891  0.4582
  775SOL     ow 3097   5.406   0.471   1.973  0.3298 -0.1265 -0.4112
  775SOL     hw 3098   5.345   0.519   2.029  0.9805  0.6560 -0.3469
  775SOL     hw 3099   5.440   0.538   1.914  1.9730 -0.3033  0.2958
  775SOL     vw 3100   5.402   0.486   1.972  0.6328 -0.0466 -0.3095
  776SOL     ow 3101   1.854   6.145   2.167  0.5388  0.3592 -0.3674
  776SOL     hw 3102   1.949   6.135   2.165  0.4265 -0.9424 -2.5371
  776SOL     hw 3103   1.820   6.056   2.154 -1.0154  0.6804  1.1028
  776SOL     vw 3104   1.862   6.132   2.165  0.3189  0.2298 -0.4597
  777SOL     ow 3105   2.673   4.816   6.839 -0.0365  0.2628  0.6250
  777SOL     hw 3106   2.580   4.811   6.818  0.1026  0.2984 -0.0018
  777SOL     hw 3107   2.709   4.880   6.777  0.9360 -1.7627 -1.0178
  777SOL     vw 3108   2.666   4.824   6.828  0.1101  0.0002  0.3257
  778SOL     ow 3109   1.879   2.541   6.095 -0.1836 -0.5480 -0.2254
  778SOL     hw 3110   1.787   2.529   6.070 -1.6458  1.7583  3.2979
  778SOL     hw 3111   1.907   2.619   6.047  0.6718 -2.1624 -2.5974
  778SOL     vw 3112   1.871   2.550   6.085 -0.2636 -0.4567 -0.0734
  779SOL     ow 3113   2.539   5.775   3.710  0.3328 -0.2186  0.1210
  779SOL     hw 3114   2.468   5.740   3.765 -0.2929  1.5425  0.5057
  779SOL     hw 3115   2.570   5.852   3.758 -0.1077  1.2849 -1.9041
  779SOL     vw 3116   2.534   5.780   3.724  0.1920  0.2122 -0.0954
  780SOL     ow 3117   2.737   2.001   5.998 -0.2848 -0.2619 -0.2817
  780SOL     hw 3118   2.666   2.049   5.957 -0.2928  1.1027  1.2367
  780SOL     hw 3119   2.711   1.992   6.090  1.3718  0.0724  0.2654
  780SOL     vw 3120   2.724   2.006   6.005 -0.0671 -0.0378 -0.0091
  781SOL     ow 3121   4.417   7.070   4.758  0.6674  0.0279 -0.1257
  781SOL     hw 3122   4.458   7.028   4.683  1.0548  1.7751 -0.9394
  781SOL     hw 3123   4.489   7.092   4.816  0.7133  1.2884 -0.6238
  781SOL     vw 3124   4.432   7.068   4.756  0.7248  0.4249 -0.2987
  782SOL     ow 3125   5.861   0.071   0.961 -0.4973 -0.1496  0.1488
  782SOL     hw 3126   5.768   0.086   0.979 -0.8524  0.8180 -2.1095
  782SOL     hw 3127   5.861   0.022   0.878  1.0025 -0.1993  0.1588
  782SOL     vw 3128   5.849   0.066   0.952 -0.3462 -0.0285 -0.1478
  783SOL     ow 3129   5.550   4.125   6.141  0.0537  0.0323  0.6062
  783SOL     hw 3130   5.502   4.066   6.199  0.3678 -0.9450 -0.1127
  783SOL     hw 3131   5.642   4.107   6.161  0.1508  0.3891  0.4829
  783SOL     vw 3132   5.556   4.115   6.151  0.1080 -0.0494  0.4952
  784SOL     ow 3133   4.651   4.890   0.575  0.4112 -0.1135  0.1586
  784SOL     hw 3134   4.572   4.871   0.625 -0.3552  2.7729  0.1843
  784SOL     hw 3135   4.626   4.961   0.516  2.6922  0.0733 -0.6947
  784SOL     vw 3136   4.638   4.897   0.574  0.6113  0.2921  0.0494
  785SOL     ow 3137   0.193   3.117   6.190 -0.1105 -0.3042  0.1656
  785SOL     hw 3138   0.193   3.079   6.278  1.6868 -0.8196 -0.0165
  785SOL     hw 3139   0.148   3.201   6.200 -0.7450 -0.7726  1.3762
  785SOL     vw 3140   0.187   3.123   6.203  0.0430 -0.4339  0.3011
  786SOL     ow 3141   1.327   1.139   6.383 -0.3043  0.6742  0.1068
  786SOL     hw 3142   1.350   1.221   6.340 -0.7121  0.5616 -0.3263
  786SOL     hw 3143   1.349   1.071   6.319 -1.2058  0.5256 -0.0527
  786SOL     vw 3144   1.333   1.141   6.369 -0.4771  0.6398  0.0286
  787SOL     ow 3145   1.823   2.797   5.209  0.4580 -0.1727 -0.1678
  787SOL     hw 3146   1.894   2.741   5.240  1.8803  0.7418 -1.5939
  787SOL     hw 3147   1.838   2.805   5.115  0.6464  2.8988 -0.0090
  787SOL     vw 3148   1.835   2.791   5.201  0.6706  0.3531 -0.3350
  788SOL     ow 3149   4.945   1.223   0.648  0.1139 -0.3648 -0.2601
  788SOL     hw 3150   5.025   1.256   0.608  0.8467 -0.8924  0.7381
  788SOL     hw 3151   4.952   1.128   0.643 -0.5402 -0.4173 -0.3295
  788SOL     vw 3152   4.956   1.215   0.642  0.1242 -0.4413 -0.1375
  789SOL     ow 3153   6.849   0.303   1.244  0.2154  0.1637  0.1886
  789SOL     hw 3154   6.875   0.219   1.208  0.0420 -0.3550  1.2381
  789SOL     hw 3155   6.757   0.291   1.270  0.0091  0.8573 -0.1923
  789SOL     vw 3156   6.840   0.291   1.243  0.1657  0.1868  0.2769
  790SOL     ow 3157   4.043   4.288   1.830  0.3199 -0.5190  0.0122
  790SOL     hw 3158   3.989   4.211   1.812  0.1339 -0.3805 -0.0297
  790SOL     hw 3159   4.052   4.290   1.925 -0.7629  0.1389  0.1121
  790SOL     vw 3160   4.037   4.278   1.840  0.1523 -0.4139  0.0198
  791SOL     ow 3161   4.460   2.547   1.417 -0.0569 -0.5586  0.4488
  791SOL     hw 3162   4.405   2.582   1.348  1.0002 -0.8700 -0.5810
  791SOL     hw 3163   4.522   2.617   1.438  1.1427 -1.2502 -0.6158
  791SOL     vw 3164   4.461   2.561   1.411  0.2408 -0.6911  0.1724
  792SOL     ow 3165   2.889   1.057   5.031  0.6291  0.1000  0.8043
  792SOL     hw 3166   2.837   1.083   4.955  1.0217 -0.7123  0.2439
  792SOL     hw 3167   2.938   0.980   5.002  0.5944 -0.3856  1.9618
  792SOL     vw 3168   2.888   1.050   5.017  0.6763 -0.0712  0.8831
  793SOL     ow 3169   3.647   0.140   1.539 -0.4007 -0.6582 -0.6627
  793SOL     hw 3170   3.563   0.140   1.585 -1.1982 -1.2737 -2.0387
  793SOL     hw 3171   3.665   0.232   1.523  0.4644 -0.3341  1.7895
  793SOL     vw 3172   3.638   0.152   1.543 -0.3920 -0.6967 -0.5208
  794SOL     ow 3173   2.784   6.031   6.344 -0.0323 -0.1055  0.0054
  794SOL     hw 3174   2.814   6.014   6.434 -0.2651 -2.5741 -0.3217
  794SOL     hw 3175   2.853   5.996   6.289 -1.1598 -1.2355 -0.7516
  794SOL     vw 3176   2.797   6.024   6.349 -0.2118 -0.5803 -0.1376
  795SOL     ow 3177   6.367   0.102   3.310  0.5980  0.4051  0.0884
  795SOL     hw 3178   6.439   0.057   3.265 -0.9174 -2.0421 -0.0580
  795SOL     hw 3179   6.289   0.081   3.259 -0.7710 -0.1583  2.2704
  795SOL     vw 3180   6.366   0.093   3.297  0.2177  0.0079  0.3569
  796SOL     ow 3181   5.527   6.348   4.114 -0.1763 -0.4930 -0.6147
  796SOL     hw 3182   5.538   6.333   4.021 -1.8822 -0.8172 -0.8115
  796SOL     hw 3183   5.577   6.427   4.132  0.5611 -0.6922 -1.6947
  796SOL     vw 3184   5.535   6.357   4.104 -0.3042 -0.5622 -0.7830
  797SOL     ow 3185   2.037   4.901   1.530 -0.0267 -0.4106  0.3746
  797SOL     hw 3186   2.000   4.983   1.499 -0.1536 -0.6081 -0.0097
  797SOL     hw 3187   2.109   4.926   1.587  1.9376 -0.0106 -2.0989
  797SOL     vw 3188   2.041   4.915   1.533  0.2156 -0.3836 -0.0024
  798SOL     ow 3189   5.300   4.787   1.164  0.2752  0.5947  0.0932
  798SOL     hw 3190   5.306   4.881   1.151 -0.1943  0.7656  1.0254
  798SOL     hw 3191   5.386   4.762   1.201  0.4914  0.6080 -0.3939
  798SOL     vw 3192   5.312   4.796   1.167  0.2420  0.6189  0.1519
  799SOL     ow 3193   2.935   1.584   6.446  0.0135 -0.0579  0.4856
  799SOL     hw 3194   2.954   1.544   6.361  1.7732 -0.5995  1.0846
  799SOL     hw 3195   2.932   1.510   6.507  1.7942  0.5335  1.3570
  799SOL     vw 3196   2.937   1.569   6.443  0.4805 -0.0513  0.6797
  800SOL     ow 3197   2.702   5.015   7.083  0.7554 -0.1720 -0.1597
  800SOL     hw 3198   2.632   5.049   7.138 -1.1121 -1.6913 -1.4719
  800SOL     hw 3199   2.760   5.090   7.068  0.8319  0.5211  2.9839
  800SOL     vw 3200   2.700   5.029   7.088  0.5190 -0.2809  0.0818
  801SOL     ow 3201   4.735   0.743   7.156  0.0810  0.2840 -0.5888
  801SOL     hw 3202   4.788   0.818   7.129 -0.2027  1.3111  1.4389
  801SOL     hw 3203   4.799   0.677   7.182  0.3361  0.1439 -1.5439
  801SOL     vw 3204   4.750   0.744   7.156  0.0772  0.4010 -0.4473
  802SOL     ow 3205   2.330   3.108   4.885  0.3288  0.1461  0.9254
  802SOL     hw 3206   2.329   3.089   4.792  0.7716  0.4103  0.8626
  802SOL     hw 3207   2.371   3.031   4.926 -0.9331 -0.4850  1.0327
  802SOL     vw 3208   2.336   3.095   4.878  0.2207  0.0978  0.9313
  803SOL     ow 3209   6.281   3.581   6.706  0.3602  0.1515  0.1123
  803SOL     hw 3210   6.306   3.516   6.771 -0.7441 -0.4381 -0.0306
  803SOL     hw 3211   6.302   3.541   6.622  0.5057  0.3496  0.0525
  803SOL     vw 3212   6.287   3.567   6.704  0.2337  0.1000  0.0858
  804SOL     ow 3213   3.536   0.450   3.598  0.3854  0.2941 -0.0412
  804SOL     hw 3214   3.450   0.430   3.635  0.3283 -1.2370 -0.9219
  804SOL     hw 3215   3.570   0.365   3.570  1.5081  1.0831 -1.1726
  804SOL     vw 3216   3.529   0.436   3.600  0.5261  0.1962 -0.3066
  805SOL     ow 3217   2.306   4.410   0.839  0.2915  0.1562  1.0786
  805SOL     hw 3218   2.256   4.479   0.883 -0.2215 -0.2503  1.1477
  805SOL     hw 3219   2.252   4.332   0.848  0.6972 -0.1779  0.6819
  805SOL     vw 3220   2.292   4.408   0.846  0.2773  0.0587  1.0353
  806SOL     ow 3221   3.952   1.961   6.721  0.0895 -0.1447 -0.1118
  806SOL     hw 3222   4.037   1.931   6.753  0.2020 -0.3885 -0.6265
  806SOL     hw 3223   3.936   1.909   6.642 -0.2275  0.3683 -0.3918
  806SOL     vw 3224   3.961   1.950   6.715  0.0627 -0.1092 -0.2165
  807SOL     ow 3225   0.856   5.282   3.416 -0.2512  0.3769 -0.0690
  807SOL     hw 3226   0.913   5.341   3.366 -0.3810 -0.8653 -1.8016
  807SOL     hw 3227   0.911   5.205   3.433 -0.3712  0.5821  1.3125
  807SOL     vw 3228   0.871   5.280   3.411 -0.2842  0.2401 -0.1153
  808SOL     ow 3229   0.882   2.021   5.831  0.5517  0.2272 -0.2229
  808SOL     hw 3230   0.863   2.115   5.831 -0.4404  0.0591 -1.5501
  808SOL     hw 3231   0.804   1.980   5.866 -0.0844 -0.2263 -2.0305
  808SOL     vw 3232   0.869   2.028   5.835  0.3369  0.1452 -0.6368
  809SOL     ow 3233   0.913   0.152   0.643  0.4112  0.3341 -0.0906
  809SOL     hw 3234   0.868   0.084   0.593 -1.7027  1.6884 -0.1819
  809SOL     hw 3235   0.878   0.144   0.732 -1.0166  2.1439 -0.4207
  809SOL     vw 3236   0.902   0.142   0.648 -0.0561  0.7516 -0.1462
  810SOL     ow 3237   1.933   5.548   5.111  0.3707 -0.0514 -0.5816
  810SOL     hw 3238   1.957   5.630   5.155  0.9496 -0.1532 -0.7069
  810SOL     hw 3239   1.860   5.572   5.054  0.3213  0.3061 -0.3701
  810SOL     vw 3240   1.926   5.562   5.109  0.4406 -0.0181 -0.5703
  811SOL     ow 3241   0.042   4.762   5.898 -0.1163 -0.3481  0.0235
  811SOL     hw 3242   0.112   4.739   5.837  0.1674 -0.2478  0.3135
  811SOL     hw 3243  -0.026   4.800   5.842 -0.0561 -0.7008 -0.2929
  811SOL     vw 3244   0.042   4.764   5.882 -0.0709 -0.3815  0.0203
  812SOL     ow 3245   3.452   4.963   1.561 -0.0615  0.4543 -0.2178
  812SOL     hw 3246   3.532   4.966   1.508  0.5378  0.0198  0.6378
  812SOL     hw 3247   3.467   5.027   1.631  0.7923 -1.6102  1.6056
  812SOL     vw 3248   3.465   4.972   1.563  0.1301  0.1245  0.1357
  813SOL     ow 3249   2.807   5.531   2.499 -0.7513  0.2809 -0.3897
  813SOL     hw 3250   2.819   5.626   2.507  0.5254  0.1505 -0.5545
  813SOL     hw 3251   2.796   5.516   2.405  1.1987  0.0757 -0.6325
  813SOL     vw 3252   2.808   5.542   2.488 -0.3256  0.2367 -0.4435
  814SOL     ow 3253   4.875   0.501   0.072  0.9256 -0.3490 -0.1365
  814SOL     hw 3254   4.839   0.444   0.004 -0.0703 -0.5258  0.5120
  814SOL     hw 3255   4.952   0.540   0.032 -0.5233  0.8079 -1.9751
  814SOL     vw 3256   4.880   0.499   0.057  0.6030 -0.2197 -0.2935
  815SOL     ow 3257   3.610   4.460   4.727 -0.4079  0.3470  0.9818
  815SOL     hw 3258   3.598   4.465   4.632 -1.2703  1.2493  1.1238
  815SOL     hw 3259   3.686   4.516   4.744 -1.5897  1.9818  1.0424
  815SOL     vw 3260   3.619   4.468   4.716 -0.6776  0.6819  1.0087
  816SOL     ow 3261   3.294   1.652   3.900  0.1240  0.0906  0.3029
  816SOL     hw 3262   3.338   1.597   3.835 -1.3974  0.2199 -0.9155
  816SOL     hw 3263   3.221   1.598   3.932  1.6085 -0.4958  3.0081
  816SOL     vw 3264   3.290   1.638   3.895  0.1192  0.0303  0.4991
  817SOL     ow 3265   6.467   6.941   2.427  0.3766  0.1500 -0.2451
  817SOL     hw 3266   6.376   6.940   2.398  0.8568 -0.6143 -1.7773
  817SOL     hw 3267   6.465   6.898   2.513 -0.6002 -0.4441 -0.5576
  817SOL     vw 3268   6.455   6.935   2.435  0.3111 -0.0293 -0.4885
  818SOL     ow 3269   1.462   0.224   4.353  0.2734  0.2292  0.0907
  818SOL     hw 3270   1.402   0.149   4.349  0.2319  0.2718 -0.1147
  818SOL     hw 3271   1.439   0.276   4.276  0.7409  0.1215 -0.1220
  818SOL     vw 3272   1.451   0.221   4.342  0.3296  0.2206  0.0355
  819SOL     ow 3273   3.356   4.613   3.603 -0.1484 -0.1774 -0.0007
  819SOL     hw 3274   3.333   4.624   3.510 -1.4753  1.5167  0.4826
  819SOL     hw 3275   3.452   4.623   3.604 -0.1037 -0.2745 -1.1995
  819SOL     vw 3276   3.366   4.616   3.591 -0.3176  0.0331 -0.0950
  820SOL     ow 3277   6.355   4.112   2.905 -0.1735 -0.2124  0.1544
  820SOL     hw 3278   6.276   4.128   2.853  1.8042 -0.8569 -3.3385
  820SOL     hw 3279   6.382   4.199   2.935  1.8643  1.4394 -5.3031
  820SOL     vw 3280   6.348   4.125   2.903  0.3564 -0.0794 -1.0266
  821SOL     ow 3281   0.226   7.034   4.488  0.7269  0.5622  0.1875
  821SOL     hw 3282   0.299   6.983   4.453 -1.2325 -1.5856 -1.0256
  821SOL     hw 3283   0.216   7.106   4.426  1.2346  0.3348 -0.1696
  821SOL     vw 3284   0.235   7.037   4.475  0.5353  0.2487 -0.0196
  822SOL     ow 3285   1.666   0.471   3.779  0.0341  0.3287 -0.2194
  822SOL     hw 3286   1.662   0.380   3.810  0.3557  0.1408 -0.7081
  822SOL     hw 3287   1.644   0.524   3.855 -0.3023 -0.1681  0.0345
  822SOL     vw 3288   1.662   0.466   3.793  0.0322  0.2383 -0.2503
  823SOL     ow 3289   5.753   0.600   2.168 -0.0998  0.8356  0.1270
  823SOL     hw 3290   5.692   0.619   2.239 -0.3780  0.1698  0.0716
  823SOL     hw 3291   5.711   0.530   2.118 -0.0414  1.4975 -0.8747
  823SOL     vw 3292   5.740   0.593   2.171 -0.1287  0.8351 -0.0123
  824SOL     ow 3293   4.910   3.663   3.960 -0.1290 -0.0297 -0.4563
  824SOL     hw 3294   4.897   3.709   3.877  0.2404  1.4359  0.2662
  824SOL     hw 3295   4.988   3.703   3.998 -0.4739 -0.4566  0.7451
  824SOL     vw 3296   4.918   3.674   3.954 -0.1259  0.1073 -0.2024
  825SOL     ow 3297   2.644   0.873   0.604  0.2155  0.2024 -0.3971
  825SOL     hw 3298   2.570   0.927   0.576  0.6696  1.7769  1.2255
  825SOL     hw 3299   2.638   0.872   0.699  1.5193 -0.7702 -0.2970
  825SOL     vw 3300   2.633   0.880   0.613  0.4475  0.2818 -0.1698
  826SOL     ow 3301   4.004   6.738   7.120 -0.4926  0.3911  0.7534
  826SOL     hw 3302   3.919   6.703   7.148  0.2301  0.5680  3.3635
  826SOL     hw 3303   3.981   6.818   7.071 -1.8368  0.3761  1.3125
  826SOL     vw 3304   3.989   6.744   7.117 -0.5745  0.4125  1.1714
  827SOL     ow 3305   1.960   2.599   0.154  0.4124 -0.5249  0.2337
  827SOL     hw 3306   1.997   2.514   0.180  0.2242 -0.6152  0.2078
  827SOL     hw 3307   1.998   2.661   0.215  0.3558 -0.6651  0.4113
  827SOL     vw 3308   1.970   2.596   0.165  0.3802 -0.5553  0.2537
  828SOL     ow 3309   3.828   4.251   4.226  0.1428 -0.1224 -0.1720
  828SOL     hw 3310   3.773   4.304   4.169  0.4584 -0.9308 -1.2735
  828SOL     hw 3311   3.766   4.203   4.281 -0.5727 -3.0225 -3.1407
  828SOL     vw 3312   3.813   4.251   4.226  0.0900 -0.6120 -0.7091
  829SOL     ow 3313   3.340   5.830   6.550 -0.2246  0.1685 -0.3875
  829SOL     hw 3314   3.319   5.819   6.643 -0.7210  1.4879 -0.3265
  829SOL     hw 3315   3.293   5.758   6.507  0.3622 -0.7230  0.4020
  829SOL     vw 3316   3.331   5.819   6.557 -0.2128  0.2248 -0.2751
  830SOL     ow 3317   4.238   0.069   4.957  0.4000 -0.4260  0.3465
  830SOL     hw 3318   4.269   0.148   5.002  1.8249 -1.1485  0.6945
  830SOL     hw 3319   4.267  -0.003   5.012 -1.7413 -1.2094  0.5487
  830SOL     vw 3320   4.246   0.070   4.970  0.3054 -0.6247  0.4189
  831SOL     ow 3321   0.960   4.152   2.599  0.4184 -0.0131 -0.0573
  831SOL     hw 3322   0.993   4.134   2.511  1.7230 -1.2520  0.6614
  831SOL     hw 3323   0.958   4.067   2.643  0.5375  0.6839  1.3639
  831SOL     vw 3324   0.964   4.139   2.593  0.6063 -0.0844  0.2249
  832SOL     ow 3325   2.500   6.801   5.888  0.4450 -0.0218 -0.6973
  832SOL     hw 3326   2.595   6.813   5.889  0.4966 -0.4163  0.5026
  832SOL     hw 3327   2.475   6.811   5.796  1.7554 -0.7270 -1.1482
  832SOL     vw 3328   2.509   6.804   5.876  0.6247 -0.1671 -0.5987
  833SOL     ow 3329   5.358   5.063   1.166 -0.1241 -0.4113 -0.2063
  833SOL     hw 3330   5.398   5.122   1.230 -0.7373 -1.1030  0.8624
  833SOL     hw 3331   5.320   5.120   1.100 -1.1922  0.4468  1.0928
  833SOL     vw 3332   5.358   5.078   1.166 -0.3459 -0.3891  0.1061
  834SOL     ow 3333   4.806   1.638   0.657  0.2408 -0.5258  0.0287
  834SOL     hw 3334   4.793   1.733   0.665  1.9842  0.0798 -2.8914
  834SOL     hw 3335   4.897   1.624   0.681  1.0681 -0.7971 -2.8182
  834SOL     vw 3336   4.816   1.649   0.661  0.5801 -0.4817 -0.7322
  835SOL     ow 3337   3.473   1.961   6.412  0.2165  0.5403 -0.6442
  835SOL     hw 3338   3.454   1.982   6.504  0.2798  2.4212 -1.0301
  835SOL     hw 3339   3.426   1.879   6.397 -1.6768  1.3380  0.4641
  835SOL     vw 3340   3.464   1.953   6.422 -0.0249  0.8937 -0.5488
  836SOL     ow 3341   6.859   6.190   5.917  0.6018 -0.3197  0.1586
  836SOL     hw 3342   6.890   6.225   5.833 -0.5336 -0.2475 -0.2402
  836SOL     hw 3343   6.896   6.248   5.983 -0.7450  1.2897 -0.4526
  836SOL     vw 3344   6.868   6.202   5.914  0.2744 -0.0975  0.0250
  837SOL     ow 3345   3.638   4.922   6.040 -0.1033  0.0448  0.3854
  837SOL     hw 3346   3.558   4.936   6.090 -1.2311  1.1376 -1.5787
  837SOL     hw 3347   3.621   4.843   5.989  0.6983 -0.5874  1.0798
  837SOL     vw 3348   3.625   4.914   6.039 -0.1464  0.1056  0.2179
  838SOL     ow 3349   3.302   1.578   4.270  0.1569  0.0604  0.3250
  838SOL     hw 3350   3.221   1.614   4.306 -0.3357  2.1610 -2.5099
  838SOL     hw 3351   3.349   1.655   4.237  1.8304 -1.4187 -0.8890
  838SOL     vw 3352   3.297   1.593   4.270  0.3127  0.1424 -0.2093
  839SOL     ow 3353   4.466   1.852   6.167 -0.2121  0.0408 -0.1860
  839SOL     hw 3354   4.432   1.903   6.093  1.5345  1.8127  0.1648
  839SOL     hw 3355   4.525   1.912   6.213  2.5726 -2.4689 -0.1598
  839SOL     vw 3356   4.469   1.867   6.163  0.3858 -0.0565 -0.1364
  840SOL     ow 3357   4.553   0.882   3.663 -0.2460  0.0338  0.0034
  840SOL     hw 3358   4.509   0.964   3.687  0.2051  0.3255 -0.1508
  840SOL     hw 3359   4.507   0.852   3.585 -1.0659 -0.3915  0.6290
  840SOL     vw 3360   4.541   0.889   3.656 -0.2944  0.0162  0.0657
  841SOL     ow 3361   0.933   4.679   6.548 -0.3300  0.0807  0.0906
  841SOL     hw 3362   1.024   4.666   6.575 -0.7232 -1.6425  0.7898
  841SOL     hw 3363   0.885   4.687   6.631 -0.9639 -0.3501 -0.2258
  841SOL     vw 3364   0.938   4.678   6.563 -0.4655 -0.2034  0.1411
  842SOL     ow 3365   4.503   1.604   6.050  0.3787  0.1397  0.0177
  842SOL     hw 3366   4.520   1.512   6.073  2.8227  0.4794 -0.1414
  842SOL     hw 3367   4.436   1.600   5.982  0.4733 -1.5323 -0.0203
  842SOL     vw 3368   4.496   1.591   6.044  0.7138 -0.0360 -0.0083
  843SOL     ow 3369   3.170   1.372   6.187 -0.3059 -0.0921 -0.0260
  843SOL     hw 3370   3.235   1.403   6.125 -0.0002 -0.1015  0.2871
  843SOL     hw 3371   3.093   1.427   6.170 -0.8791 -1.3261 -1.6890
  843SOL     vw 3372   3.168   1.384   6.177 -0.3412 -0.2561 -0.2038
  844SOL     ow 3373   2.760   1.517   0.848 -0.0739  0.2176  0.3063
  844SOL     hw 3374   2.758   1.526   0.753 -0.0370  0.9114  0.3598
  844SOL     hw 3375   2.669   1.498   0.872 -0.1093  0.1804  0.1447
  844SOL     vw 3376   2.748   1.516   0.839 -0.0738  0.3043  0.2920
  845SOL     ow 3377   3.615   3.362   4.245  0.3125  0.3918  0.0335
  845SOL     hw 3378   3.673   3.422   4.198  0.3179  0.0233 -0.4419
  845SOL     hw 3379   3.642   3.368   4.336 -0.4229  1.9464  0.1752
  845SOL     vw 3380   3.626   3.371   4.251  0.2161  0.5482 -0.0105
  846SOL     ow 3381   4.049   3.251   1.381  0.1785 -0.3684  0.0540
  846SOL     hw 3382   3.987   3.225   1.449  0.2846 -1.1077 -0.1283
  846SOL     hw 3383   4.104   3.174   1.368 -0.9356 -0.8550 -2.1329
  846SOL     vw 3384   4.048   3.238   1.388  0.0455 -0.5301 -0.2586
  847SOL     ow 3385   6.003   1.696   0.048 -0.1141 -0.9425 -0.1074
  847SOL     hw 3386   6.094   1.667   0.052  0.1465 -0.2325 -0.7083
  847SOL     hw 3387   6.008   1.786   0.016 -0.9480 -0.4220  1.1717
  847SOL     vw 3388   6.016   1.704   0.044 -0.1895 -0.7802 -0.0179
  848SOL     ow 3389   3.613   0.396   4.262 -0.0144 -0.1633  0.2393
  848SOL     hw 3390   3.665   0.475   4.243 -0.3670 -0.1404 -0.6859
  848SOL     hw 3391   3.639   0.334   4.193 -0.9110 -0.2885  0.0075
  848SOL     vw 3392   3.623   0.398   4.250 -0.1793 -0.1768  0.0863
  849SOL     ow 3393   4.427   1.100   3.752 -0.2990 -0.1589  0.1109
  849SOL     hw 3394   4.429   1.172   3.689 -1.3461 -0.0607  0.1658
  849SOL     hw 3395   4.338   1.066   3.746 -0.6992  0.3964  2.1248
  849SOL     vw 3396   4.416   1.105   3.743 -0.4902 -0.0727  0.3839
  850SOL     ow 3397   2.154   3.606   2.694  0.0862 -0.4576  0.7896
  850SOL     hw 3398   2.136   3.512   2.687 -2.2456 -0.0203  0.1404
  850SOL     hw 3399   2.175   3.632   2.604 -1.0404 -0.0581  0.6311
  850SOL     vw 3400   2.155   3.597   2.681 -0.3699 -0.3471  0.6831
  851SOL     ow 3401   6.580   4.657   6.970 -0.0984  0.3440  0.7387
  851SOL     hw 3402   6.489   4.630   6.959 -0.3475  0.9969  1.0937
  851SOL     hw 3403   6.590   4.732   6.911 -0.7012  2.2175  2.8649
  851SOL     vw 3404   6.569   4.663   6.961 -0.2105  0.6773  1.0662
  852SOL     ow 3405   5.748   0.416   4.592 -0.3240  0.0115 -0.3315
  852SOL     hw 3406   5.712   0.328   4.589 -0.4530  0.0132  0.8231
  852SOL     hw 3407   5.673   0.474   4.578 -0.4904 -0.0295  0.3700
  852SOL     vw 3408   5.733   0.412   4.589 -0.3629  0.0063 -0.0868
  853SOL     ow 3409   4.507   4.665   5.846  0.2790  0.0974 -0.0735
  853SOL     hw 3410   4.602   4.679   5.844  0.0882  1.4333 -0.5147
  853SOL     hw 3411   4.483   4.659   5.754 -0.0390 -0.5066  0.0466
  853SOL     vw 3412   4.517   4.666   5.833  0.2117  0.1943 -0.1159
  854SOL     ow 3413   0.068   2.956   0.105 -0.5751 -0.7624 -0.5076
  854SOL     hw 3414  -0.024   2.934   0.091 -0.5800 -0.9419 -0.2078
  854SOL     hw 3415   0.097   2.995   0.022 -1.2466  0.4132 -0.2217
  854SOL     vw 3416   0.060   2.959   0.092 -0.6643 -0.6309 -0.4303
  855SOL     ow 3417   3.096   1.953   2.229  0.2274  0.4843  0.0566
  855SOL     hw 3418   3.115   1.957   2.323  0.4443  0.1956  0.0268
  855SOL     hw 3419   3.085   2.044   2.203 -1.3336  0.4956  0.6630
  855SOL     vw 3420   3.097   1.965   2.238  0.0502  0.4477  0.1327
  856SOL     ow 3421   4.791   5.115   6.811  0.3107  0.6259 -0.5956
  856SOL     hw 3422   4.756   5.115   6.900 -0.6793  0.0239 -0.9788
  856SOL     hw 3423   4.854   5.043   6.810  0.9628  1.1667 -0.1593
  856SOL     vw 3424   4.795   5.106   6.823  0.2661  0.6177 -0.5884
  857SOL     ow 3425   4.711   0.628   3.702  0.0825 -0.1771  0.2423
  857SOL     hw 3426   4.756   0.586   3.630 -0.4167  0.6965 -0.6026
  857SOL     hw 3427   4.671   0.556   3.751 -1.0170 -0.6929 -1.3328
  857SOL     vw 3428   4.712   0.613   3.699 -0.1285 -0.1299 -0.0770
  858SOL     ow 3429   2.006   7.103   4.594 -0.2051 -0.7137 -0.7327
  858SOL     hw 3430   1.950   7.030   4.570 -0.0640 -0.0844 -3.2937
  858SOL     hw 3431   1.974   7.177   4.541 -0.1033  1.0202  1.4603
  858SOL     vw 3432   1.994   7.103   4.584 -0.1730 -0.4020 -0.7813
  859SOL     ow 3433   0.535   1.951   2.693 -0.2329 -0.5552  0.0513
  859SOL     hw 3434   0.612   2.008   2.696 -0.5396 -0.1655  2.0552
  859SOL     hw 3435   0.462   2.007   2.718 -1.4300 -0.6533 -2.8457
  859SOL     vw 3436   0.536   1.966   2.697 -0.4313 -0.5167 -0.0664
  860SOL     ow 3437   2.161   2.367   2.692 -0.4497 -0.2660 -0.0165
  860SOL     hw 3438   2.181   2.460   2.683 -2.6287  0.1481 -1.6783
  860SOL     hw 3439   2.117   2.360   2.776 -2.6117  0.7903 -0.9670
  860SOL     vw 3440   2.158   2.378   2.702 -1.0223 -0.0720 -0.3612
  861SOL     ow 3441   3.596   5.942   0.097 -0.1948 -0.5043  0.1744
  861SOL     hw 3442   3.610   5.969   0.188  0.5492 -0.5466  0.0829
  861SOL     hw 3443   3.574   5.849   0.103  0.5963 -0.6920  0.2671
  861SOL     vw 3444   3.595   5.934   0.110  0.0077 -0.5345  0.1745
  862SOL     ow 3445   7.132   2.291   1.377 -0.6630  0.0633 -0.1049
  862SOL     hw 3446   7.211   2.268   1.329 -0.2928  0.7055  0.1864
  862SOL     hw 3447   7.123   2.385   1.365 -0.7751  0.1686  0.7559
  862SOL     vw 3448   7.141   2.300   1.369 -0.6289  0.1619  0.0471
  863SOL     ow 3449   4.008   2.601   4.436  0.1755 -0.6635 -0.0720
  863SOL     hw 3450   3.962   2.530   4.391 -1.0625 -0.0895  0.2467
  863SOL     hw 3451   4.005   2.577   4.528 -1.6309  0.5329  0.2113
  863SOL     vw 3452   4.002   2.588   4.442 -0.2263 -0.4299  0.0074
  864SOL     ow 3453   6.080   1.064   5.462  0.1886  0.6776  0.1793
  864SOL     hw 3454   6.055   1.148   5.423 -0.6077 -0.0249 -0.8886
  864SOL     hw 3455   6.036   1.063   5.547 -1.6171  0.4506 -0.7105
  864SOL     vw 3456   6.071   1.075   5.468 -0.1545  0.5550 -0.0787
  865SOL     ow 3457   5.824   6.038   0.785 -0.0369  1.0649  0.2782
  865SOL     hw 3458   5.832   6.041   0.880  0.8685  0.2824  0.2453
  865SOL     hw 3459   5.895   6.092   0.752  2.5296 -2.1212  0.0419
  865SOL     vw 3460   5.834   6.045   0.793  0.4213  0.5412  0.2427
  866SOL     ow 3461   6.768   6.763   0.925  0.0235  0.0046 -0.1515
  866SOL     hw 3462   6.712   6.775   0.848 -0.1292 -0.5791 -0.1366
  866SOL     hw 3463   6.799   6.672   0.918  2.6183  0.8691 -1.2701
  866SOL     vw 3464   6.765   6.752   0.914  0.3457  0.0417 -0.2971
  867SOL     ow 3465   3.274   1.222   6.560 -0.4453 -0.2530 -0.4724
  867SOL     hw 3466   3.248   1.170   6.637 -1.1946  0.9569  0.1224
  867SOL     hw 3467   3.281   1.158   6.489 -1.7717 -1.1263  0.1391
  867SOL     vw 3468   3.271   1.207   6.561 -0.7193 -0.2086 -0.3133
  868SOL     ow 3469   4.018   4.162   4.029 -0.0610 -0.2041  0.3394
  868SOL     hw 3470   4.089   4.115   3.985 -0.0517  0.7986 -0.7880
  868SOL     hw 3471   3.940   4.108   4.014  0.4452 -1.3331  1.6242
  868SOL     vw 3472   4.017   4.149   4.021  0.0067 -0.2205  0.3603
  869SOL     ow 3473   3.679   5.339   2.529  0.0009 -0.1306 -0.1318
  869SOL     hw 3474   3.728   5.413   2.564  1.7139 -0.5750 -1.4105
  869SOL     hw 3475   3.607   5.379   2.480 -0.0657  0.6141  0.5537
  869SOL     vw 3476   3.676   5.354   2.527  0.2180 -0.0911 -0.2102
  870SOL     ow 3477   0.888   0.306   4.126  0.3678  0.1204 -0.3058
  870SOL     hw 3478   0.920   0.389   4.162 -0.0239 -0.5729  1.7777
  870SOL     hw 3479   0.803   0.328   4.088  0.1044  0.6377  0.5439
  870SOL     vw 3480   0.881   0.320   4.126  0.2814  0.0972  0.0813
  871SOL     ow 3481   2.747   0.329   7.005 -0.2096 -0.4388 -0.1492
  871SOL     hw 3482   2.790   0.290   6.929 -0.8731  0.4492 -1.0040
  871SOL     hw 3483   2.655   0.336   6.980 -0.4562 -0.2446  0.7836
  871SOL     vw 3484   2.741   0.325   6.992 -0.3296 -0.2960 -0.1388
  872SOL     ow 3485   5.082   1.166   6.476 -0.2889 -0.3715 -0.8739
  872SOL     hw 3486   5.081   1.078   6.438  0.3472 -0.5087 -0.5827
  872SOL     hw 3487   5.174   1.186   6.489 -0.4603 -1.2940  2.7640
  872SOL     vw 3488   5.094   1.157   6.472 -0.2277 -0.5113 -0.3555
  873SOL     ow 3489   5.762   0.244   1.836 -0.2338 -0.0594 -0.2676
  873SOL     hw 3490   5.842   0.226   1.886 -0.9544 -1.9926  0.2843
  873SOL     hw 3491   5.783   0.322   1.784  2.1319 -0.7321 -0.4336
  873SOL     vw 3492   5.775   0.252   1.836 -0.0167 -0.4032 -0.2167
  874SOL     ow 3493   4.392   4.992   3.913  0.3506 -0.0203 -0.1662
  874SOL     hw 3494   4.365   5.002   4.004 -3.1434  1.0300 -1.1426
  874SOL     hw 3495   4.464   4.929   3.915 -2.2594 -3.3128  2.9666
  874SOL     vw 3496   4.398   4.985   3.925 -0.4547 -0.3159  0.1184
  875SOL     ow 3497   1.096   3.174   6.933 -0.2532  0.0152 -0.3276
  875SOL     hw 3498   1.098   3.174   6.837  0.4614 -0.6305 -0.3202
  875SOL     hw 3499   1.007   3.146   6.954  0.1150 -1.7294 -0.8351
  875SOL     vw 3500   1.084   3.170   6.923 -0.1104 -0.3002 -0.3939
  876SOL     ow 3501   5.931   6.068   5.903  0.1039  0.1573 -0.0679
  876SOL     hw 3502   5.891   6.033   5.982 -0.8744 -0.0389 -0.6303
  876SOL     hw 3503   5.991   5.999   5.874 -0.6411 -0.4134 -0.2977
  876SOL     vw 3504   5.934   6.054   5.909 -0.1235  0.0560 -0.1726
  877SOL     ow 3505   5.319   7.135   0.463  0.2749 -0.2938  0.2318
  877SOL     hw 3506   5.307   7.056   0.516 -0.1019  0.0856  0.7149
  877SOL     hw 3507   5.300   7.208   0.522 -2.1962  0.1166 -0.9315
  877SOL     vw 3508   5.315   7.134   0.478 -0.1011 -0.1898  0.1421
  878SOL     ow 3509   6.541   6.818   1.040 -0.3753 -0.8471  0.0900
  878SOL     hw 3510   6.630   6.787   1.022 -0.1176 -0.2155  0.2898
  878SOL     hw 3511   6.492   6.796   0.960  0.1137 -0.5971 -0.2837
  878SOL     vw 3512   6.546   6.811   1.027 -0.2768 -0.7308  0.0671
  879SOL     ow 3513   5.259   4.746   3.802  0.9337 -0.4218 -0.6111
  879SOL     hw 3514   5.275   4.831   3.760  1.2755 -0.7352 -1.1277
  879SOL     hw 3515   5.168   4.725   3.780  0.7112 -0.0010 -0.1284
  879SOL     vw 3516   5.249   4.755   3.794  0.9494 -0.4079 -0.6155
  880SOL     ow 3517   4.852   7.093   4.165 -0.5180 -0.3732  0.6860
  880SOL     hw 3518   4.946   7.095   4.146 -0.6682 -2.7924 -0.6919
  880SOL     hw 3519   4.812   7.138   4.090 -0.5128 -0.4885  0.6129
  880SOL     vw 3520   4.859   7.099   4.153 -0.5369 -0.7076  0.4945
  881SOL     ow 3521   5.295   5.368   2.265  0.0113 -0.3404  0.2242
  881SOL     hw 3522   5.239   5.307   2.217 -1.3827  0.4573  0.7758
  881SOL     hw 3523   5.235   5.433   2.300  1.5315  1.8810 -1.0665
  881SOL     vw 3524   5.280   5.368   2.264  0.0281  0.0582  0.1267
  882SOL     ow 3525   4.680   0.089   0.763  0.0975 -0.6275 -0.0060
  882SOL     hw 3526   4.737   0.037   0.820  0.2369 -1.3206 -0.7540
  882SOL     hw 3527   4.605   0.112   0.818 -1.5058 -4.2178 -0.3662
  882SOL     vw 3528   4.678   0.085   0.777 -0.0954 -1.1927 -0.1522
  883SOL     ow 3529   6.275   1.658   3.843  0.4025  0.6594 -0.1967
  883SOL     hw 3530   6.184   1.673   3.870  0.8142  1.5384  0.7750
  883SOL     hw 3531   6.322   1.642   3.925  0.7407 -2.2057 -0.8382
  883SOL     vw 3532   6.269   1.658   3.857  0.5014  0.3973 -0.1532
  884SOL     ow 3533   5.134   3.751   2.752 -0.7799 -0.1958 -0.4993
  884SOL     hw 3534   5.112   3.790   2.667  0.3806 -0.5183 -0.9716
  884SOL     hw 3535   5.184   3.673   2.730  0.0712  0.0495  0.4836
  884SOL     vw 3536   5.138   3.746   2.738 -0.5145 -0.2060 -0.4319
  885SOL     ow 3537   2.749   3.306   5.445  0.2701 -0.1126 -0.0738
  885SOL     hw 3538   2.841   3.334   5.439  0.0155  0.9314  0.5842
  885SOL     hw 3539   2.738   3.278   5.535 -0.0545 -0.2393 -0.1511
  885SOL     vw 3540   2.760   3.306   5.456  0.1938  0.0083  0.0029
  886SOL     ow 3541   0.391   6.588   4.455 -0.3384  0.0673  0.8025
  886SOL     hw 3542   0.331   6.622   4.522  1.3062  0.8767  1.9375
  886SOL     hw 3543   0.442   6.521   4.501 -0.5483 -0.8175 -0.2255
  886SOL     vw 3544   0.390   6.584   4.470 -0.1491  0.0572  0.8166
  887SOL     ow 3545   3.611   5.788   1.209  0.1827  0.4545 -0.1128
  887SOL     hw 3546   3.545   5.858   1.206  0.2707  0.5988  0.9422
  887SOL     hw 3547   3.624   5.772   1.303  1.8704  0.6455 -0.2875
  887SOL     vw 3548   3.604   5.795   1.221  0.4170  0.4988  0.0033
  888SOL     ow 3549   4.711   6.873   4.319 -0.2243  0.1892 -0.5035
  888SOL     hw 3550   4.723   6.948   4.260  0.2022  0.3622 -0.2041
  888SOL     hw 3551   4.634   6.894   4.370 -0.0599  0.4640 -0.3670
  888SOL     vw 3552   4.703   6.886   4.318 -0.1462  0.2482 -0.4463
  889SOL     ow 3553   6.321   6.140   4.483 -0.1134  0.1059  0.3237
  889SOL     hw 3554   6.390   6.155   4.547 -0.3556  0.1779  0.5744
  889SOL     hw 3555   6.284   6.227   4.466 -0.1015  0.0773  0.1460
  889SOL     vw 3556   6.325   6.154   4.489 -0.1438  0.1118  0.3333
  890SOL     ow 3557   3.123   0.828   0.265 -0.3871 -0.1765 -0.7145
  890SOL     hw 3558   3.071   0.847   0.343 -0.0516  0.8785 -0.7358
  890SOL     hw 3559   3.086   0.884   0.197  0.6534  0.4654 -0.7734
  890SOL     vw 3560   3.111   0.838   0.266 -0.2056  0.0474 -0.7251
  891SOL     ow 3561   6.401   2.273   1.263  1.0623 -0.0227  0.4951
  891SOL     hw 3562   6.325   2.268   1.204  0.5007  0.9523  1.1059
  891SOL     hw 3563   6.404   2.364   1.291  1.3216 -0.4485  1.9576
  891SOL     vw 3564   6.391   2.284   1.259  1.0223  0.0498  0.7687
  892SOL     ow 3565   1.644   2.027   1.198  0.4287  0.0226 -0.5673
  892SOL     hw 3566   1.579   2.001   1.133 -0.7987 -0.7857  0.9115
  892SOL     hw 3567   1.610   1.994   1.281  1.8502  1.1594  0.5331
  892SOL     vw 3568   1.631   2.019   1.200  0.4542  0.0660 -0.2270
  893SOL     ow 3569   0.735   0.729   3.354  0.0946  0.0031  0.5854
  893SOL     hw 3570   0.759   0.816   3.386  0.6958  1.0496 -2.4113
  893SOL     hw 3571   0.818   0.684   3.342 -0.1875 -0.8240  1.5345
  893SOL     vw 3572   0.749   0.735   3.357  0.1367  0.0320  0.3153
  894SOL     ow 3573   5.858   2.873   2.037 -0.1304  0.3549 -0.2689
  894SOL     hw 3574   5.951   2.851   2.040 -0.5045 -1.2779  0.0846
  894SOL     hw 3575   5.834   2.888   2.128 -0.4461 -0.2652 -0.2497
  894SOL     vw 3576   5.867   2.872   2.049 -0.2215  0.0577 -0.2197
  895SOL     ow 3577   2.727   6.380   5.423 -0.2623  0.2138  0.3783
  895SOL     hw 3578   2.755   6.338   5.342 -0.4894  2.3463 -0.8804
  895SOL     hw 3579   2.700   6.307   5.480  0.1583 -1.3549 -1.3267
  895SOL     vw 3580   2.727   6.365   5.420 -0.2367  0.2880 -0.0126
  896SOL     ow 3581   2.933   2.239   0.901 -0.0602  0.0230 -0.2512
  896SOL     hw 3582   3.015   2.285   0.920  0.8602 -0.8345 -1.9370
  896SOL     hw 3583   2.876   2.307   0.864  0.3231  0.3673 -0.2227
  896SOL     vw 3584   2.937   2.254   0.898  0.1118 -0.0446 -0.4699
  897SOL     ow 3585   2.182   3.979   1.584  0.3671  0.0524  0.2936
  897SOL     hw 3586   2.183   4.020   1.497 -1.2206  0.4460  0.4364
  897SOL     hw 3587   2.090   3.967   1.604  0.7313 -0.7599  1.6074
  897SOL     vw 3588   2.170   3.983   1.575  0.2058 -0.0029  0.4858
  898SOL     ow 3589   5.127   3.976   6.322 -0.3865 -0.1075  0.5266
  898SOL     hw 3590   5.207   3.941   6.283  0.2937  1.1158  0.7917
  898SOL     hw 3591   5.066   3.986   6.249  0.7293  1.7741 -0.1919
  898SOL     vw 3592   5.130   3.972   6.307 -0.1493  0.3022  0.4671
  899SOL     ow 3593   4.316   4.846   7.006  0.4051  0.0515 -0.3487
  899SOL     hw 3594   4.389   4.895   7.043 -1.7529  2.3913  1.1219
  899SOL     hw 3595   4.308   4.880   6.917 -0.3932  1.7337  0.3090
  899SOL     vw 3596   4.325   4.857   6.999  0.0150  0.5825 -0.0679
  900SOL     ow 3597   4.305   0.830   5.666 -0.4583 -0.4593 -0.1476
  900SOL     hw 3598   4.254   0.784   5.732  0.7977  0.1823  1.3137
  900SOL     hw 3599   4.243   0.892   5.627 -1.1043 -0.5273  0.7523
  900SOL     vw 3600   4.290   0.832   5.669 -0.3777 -0.3836  0.1636
  901SOL     ow 3601   1.361   0.879   3.438 -0.2225  0.2331  0.4254
  901SOL     hw 3602   1.403   0.853   3.520 -0.3496 -1.8458 -0.1132
  901SOL     hw 3603   1.372   0.974   3.435  1.5161  0.1425  1.8923
  901SOL     vw 3604   1.368   0.888   3.449 -0.0100 -0.0532  0.5478
  902SOL     ow 3605   1.888   0.571   6.378  0.7260  0.4205 -0.2357
  902SOL     hw 3606   1.975   0.605   6.396  0.4919  0.6546  0.4860
  902SOL     hw 3607   1.867   0.605   6.290  1.8098 -0.5923 -0.9156
  902SOL     vw 3608   1.896   0.580   6.369  0.8382  0.3178 -0.2303
  903SOL     ow 3609   1.969   2.070   1.183 -0.2540  0.0009 -0.1814
  903SOL     hw 3610   1.966   2.145   1.243 -2.6724 -0.7942  0.8291
  903SOL     hw 3611   2.006   2.106   1.102 -0.1368  1.9558  0.6756
  903SOL     vw 3612   1.973   2.085   1.180 -0.5575  0.1539  0.0650
  904SOL     ow 3613   3.818   3.442   1.279 -0.0731  0.2198 -0.5225
  904SOL     hw 3614   3.755   3.418   1.348 -0.1567  1.5252 -0.1210
  904SOL     hw 3615   3.771   3.505   1.225  0.7186  0.8246 -0.5199
  904SOL     vw 3616   3.803   3.447   1.281  0.0203  0.4717 -0.4692
  905SOL     ow 3617   0.582   1.490   0.620 -0.3210 -0.4041 -0.2913
  905SOL     hw 3618   0.599   1.483   0.526 -0.8551 -0.6644 -0.3768
  905SOL     hw 3619   0.530   1.412   0.640  0.8958 -1.0310  0.4827
  905SOL     vw 3620   0.577   1.479   0.610 -0.2310 -0.5211 -0.2005
  906SOL     ow 3621   3.665   7.117   5.941 -0.2637 -0.3441  0.4160
  906SOL     hw 3622   3.592   7.065   5.907 -1.1057  1.1376 -0.1455
  906SOL     hw 3623   3.683   7.080   6.027 -1.0293 -1.3545  0.1611
  906SOL     vw 3624   3.658   7.105   5.948 -0.4758 -0.2818  0.3083
  907SOL     ow 3625   5.188   6.524   4.034  0.1772  0.5107 -0.0779
  907SOL     hw 3626   5.241   6.544   3.958  1.2008  0.3004  0.5659
  907SOL     hw 3627   5.210   6.434   4.056  0.5743  0.8560  0.9973
  907SOL     vw 3628   5.198   6.515   4.027  0.3648  0.5281  0.1488
  908SOL     ow 3629   7.081   2.640   6.464  0.6528  0.8402  0.2988
  908SOL     hw 3630   7.117   2.602   6.545  0.3562  0.0761  0.0879
  908SOL     hw 3631   6.990   2.660   6.485  0.8611  1.6377  0.4673
  908SOL     vw 3632   7.074   2.637   6.478  0.6411  0.8446  0.2930
  909SOL     ow 3633   2.758   0.577   0.623  0.6603  0.6098  1.0336
  909SOL     hw 3634   2.672   0.569   0.664 -0.8130  0.6750 -1.8060
  909SOL     hw 3635   2.820   0.555   0.693 -1.7695 -3.9758  2.1625
  909SOL     vw 3636   2.755   0.573   0.638  0.1452  0.0134  0.8079
  910SOL     ow 3637   0.302   5.674   0.511  0.1583  0.0510  0.0093
  910SOL     hw 3638   0.338   5.586   0.521  2.3031  1.0682  3.4271
  910SOL     hw 3639   0.288   5.685   0.417 -0.0704 -3.8117 -0.5462
  910SOL     vw 3640   0.305   5.664   0.500  0.4111 -0.3242  0.3869
  911SOL     ow 3641   4.155   6.242   6.845 -0.0192 -0.2611  0.1530
  911SOL     hw 3642   4.218   6.170   6.848  1.8031  1.2813  2.0849
  911SOL     hw 3643   4.129   6.254   6.936 -0.5798  1.2442 -0.1855
  911SOL     vw 3644   4.160   6.234   6.857  0.1471  0.1411  0.3629
  912SOL     ow 3645   0.394   0.852   6.087  0.1512 -0.2226  0.3683
  912SOL     hw 3646   0.426   0.888   6.170  1.5078  0.7137 -0.5118
  912SOL     hw 3647   0.369   0.929   6.035 -3.2770 -0.8743  0.8140
  912SOL     vw 3648   0.395   0.867   6.091 -0.1221 -0.1851  0.3107
  913SOL     ow 3649   3.544   6.553   4.363  0.1906  0.0536  0.1749
  913SOL     hw 3650   3.473   6.519   4.417  0.1790  0.6805  0.5738
  913SOL     hw 3651   3.615   6.570   4.424  0.4366  0.0936 -0.1169
  913SOL     vw 3652   3.544   6.551   4.378  0.2215  0.1419  0.1893
  914SOL     ow 3653   5.943   4.735   0.701 -0.1454  0.3416  0.1277
  914SOL     hw 3654   6.010   4.736   0.770 -0.3598 -0.9649  0.3830
  914SOL     hw 3655   5.887   4.660   0.723  0.5848 -0.9863 -2.2147
  914SOL     vw 3656   5.944   4.725   0.713 -0.0775 -0.0057 -0.1477
  915SOL     ow 3657   6.179   5.953   1.042  0.4424 -0.2797 -0.4359
  915SOL     hw 3658   6.159   5.889   0.973 -1.2627 -1.3591  0.9650
  915SOL     hw 3659   6.267   5.930   1.072 -0.0091 -1.7944 -0.2028
  915SOL     vw 3660   6.188   5.941   1.037  0.1581 -0.6220 -0.2204
  916SOL     ow 3661   3.050   2.785   3.775  0.5253 -0.1906 -0.1479
  916SOL     hw 3662   3.053   2.861   3.833 -2.3861 -0.8876  1.0411
  916SOL     hw 3663   3.141   2.757   3.769  1.3089  1.6583  1.6937
  916SOL     vw 3664   3.063   2.791   3.782  0.2444 -0.0386  0.2519
  917SOL     ow 3665   1.418   2.339   3.087 -0.0190 -0.1719  0.3820
  917SOL     hw 3666   1.342   2.280   3.084 -0.6295  0.5373  1.1498
  917SOL     hw 3667   1.380   2.423   3.113  0.6016  0.9390 -2.0706
  917SOL     vw 3668   1.403   2.342   3.090 -0.0177  0.0681  0.1597
  918SOL     ow 3669   3.179   1.662   2.165 -0.0451  0.1856  0.0317
  918SOL     hw 3670   3.207   1.595   2.103 -0.0677  0.4266 -0.2415
  918SOL     hw 3671   3.249   1.665   2.230 -0.4001 -0.6303  0.4679
  918SOL     vw 3672   3.192   1.654   2.166 -0.0949  0.1098  0.0533
  919SOL     ow 3673   2.069   4.928   6.511  0.0580 -0.2745  0.3081
  919SOL     hw 3674   2.018   4.888   6.581 -1.6709  1.2303 -0.0278
  919SOL     hw 3675   2.082   4.858   6.448 -2.8174 -0.4161 -0.2396
  919SOL     vw 3676   2.064   4.913   6.512 -0.5496 -0.0949  0.1915
  920SOL     ow 3677   3.350   2.906   2.194  0.3361 -0.2644 -0.1818
  920SOL     hw 3678   3.299   2.986   2.204 -0.3429 -0.7699  0.4950
  920SOL     hw 3679   3.335   2.879   2.103 -0.9445 -0.6279  0.1249
  920SOL     vw 3680   3.341   2.913   2.183  0.0776 -0.3791 -0.0521
  921SOL     ow 3681   5.220   5.532   4.134 -0.1447  0.0963 -0.2441
  921SOL     hw 3682   5.311   5.557   4.149  0.2942 -2.1003  1.2813
  921SOL     hw 3683   5.213   5.523   4.039  0.3860  2.9893 -0.6376
  921SOL     vw 3684   5.232   5.534   4.123 -0.0167  0.1881 -0.0947
  922SOL     ow 3685   5.295   6.893   3.875  0.3488  0.2828  0.3146
  922SOL     hw 3686   5.333   6.806   3.886  4.0279  1.6843 -0.0640
  922SOL     hw 3687   5.303   6.934   3.961 -3.4092 -0.3179  1.1191
  922SOL     vw 3688   5.301   6.887   3.888  0.3388  0.3884  0.3709
  923SOL     ow 3689   2.300   4.901   5.525  0.1899 -0.4050  0.7039
  923SOL     hw 3690   2.314   4.994   5.508 -0.2421 -0.1627  1.6332
  923SOL     hw 3691   2.249   4.870   5.451 -1.0128  0.4518  1.1533
  923SOL     vw 3692   2.295   4.909   5.513 -0.0259 -0.2599  0.8860
  924SOL     ow 3693   4.443   0.742   1.311  0.4403 -0.4901 -0.0773
  924SOL     hw 3694   4.473   0.699   1.231  0.5682 -2.2987  0.8872
  924SOL     hw 3695   4.372   0.687   1.343 -0.7180  1.0959  0.2338
  924SOL     vw 3696   4.438   0.729   1.305  0.3042 -0.5195  0.0910
  925SOL     ow 3697   7.057   0.571   5.318 -0.4903 -0.3897  0.0721
  925SOL     hw 3698   7.077   0.513   5.391  1.0508  0.1846  0.1286
  925SOL     hw 3699   7.086   0.657   5.347  0.7913 -0.2609 -1.4574
  925SOL     vw 3700   7.063   0.575   5.331 -0.1183 -0.2970 -0.1223
  926SOL     ow 3701   2.970   2.301   5.702 -0.0044  0.1059  0.3934
  926SOL     hw 3702   3.059   2.314   5.734 -0.1004  0.6623  0.4373
  926SOL     hw 3703   2.965   2.354   5.623  0.0924 -0.9088 -0.3268
  926SOL     vw 3704   2.981   2.309   5.696 -0.0044  0.0455  0.3042
  927SOL     ow 3705   6.884   1.096   2.185 -0.2937 -0.0423 -0.1087
  927SOL     hw 3706   6.887   1.077   2.091  2.1966  2.1631 -0.5804
  927SOL     hw 3707   6.929   1.022   2.226 -0.0174 -0.2683 -0.8078
  927SOL     vw 3708   6.890   1.084   2.178  0.0710  0.2189 -0.2633
  928SOL     ow 3709   0.441   6.762   1.233  0.3524 -0.4009  0.3844
  928SOL     hw 3710   0.458   6.678   1.190  2.3837  0.1728 -0.0346
  928SOL     hw 3711   0.510   6.769   1.299  0.8883  1.4106 -0.3236
  928SOL     vw 3712   0.452   6.751   1.236  0.6911 -0.0858  0.2358
  929SOL     ow 3713   6.525   7.042   1.165 -0.2006  0.2936 -0.1763
  929SOL     hw 3714   6.430   7.054   1.173 -0.5646 -1.2344 -1.6005
  929SOL     hw 3715   6.536   6.951   1.139  1.7056  0.3470  0.2633
  929SOL     vw 3716   6.514   7.031   1.163  0.0026  0.0989 -0.3062
  930SOL     ow 3717   5.331   2.188   0.913 -0.0849  0.4166 -0.5401
  930SOL     hw 3718   5.341   2.104   0.869  0.8622  0.2147  0.0141
  930SOL     hw 3719   5.323   2.165   1.006 -1.1760  0.8768 -0.5074
  930SOL     vw 3720   5.332   2.174   0.919 -0.1040  0.4508 -0.4626
  931SOL     ow 3721   1.380   0.511   4.981  0.6613 -0.4615 -0.1174
  931SOL     hw 3722   1.425   0.529   4.899  1.2546  0.7524  0.4544
  931SOL     hw 3723   1.448   0.516   5.048  0.0963 -0.9341  0.5135
  931SOL     vw 3724   1.395   0.514   4.979  0.6651 -0.3637  0.0415
  932SOL     ow 3725   3.494   5.057   4.985 -0.3728  0.2051 -0.1468
  932SOL     hw 3726   3.486   5.002   4.906 -0.0722 -0.2385  0.1229
  932SOL     hw 3727   3.495   5.147   4.952  1.1361 -0.0101 -0.7957
  932SOL     vw 3728   3.493   5.062   4.970 -0.1340  0.1183 -0.1969
  933SOL     ow 3729   5.346   3.228   6.106 -0.2185 -0.0811 -0.3260
  933SOL     hw 3730   5.312   3.164   6.044 -0.0378 -1.4267  0.9030
  933SOL     hw 3731   5.409   3.179   6.159 -0.5211  0.9475  1.0567
  933SOL     vw 3732   5.350   3.213   6.105 -0.2346 -0.1228  0.0186
  934SOL     ow 3733   4.847   4.441   1.358  0.3339 -0.2041 -0.1810
  934SOL     hw 3734   4.784   4.508   1.384  0.1756  0.4642 -2.1140
  934SOL     hw 3735   4.793   4.367   1.330  0.4988 -0.9075  1.2651
  934SOL     vw 3736   4.831   4.440   1.358  0.3347 -0.2086 -0.2453
  935SOL     ow 3737   3.139   0.479   6.911 -0.3968  0.2448 -0.6232
  935SOL     hw 3738   3.232   0.460   6.903  0.0177  0.7045  1.9800
  935SOL     hw 3739   3.102   0.403   6.956 -1.2953  0.0575 -1.6484
  935SOL     vw 3740   3.146   0.467   6.916 -0.4607  0.2808 -0.4148
  936SOL     ow 3741   5.203   2.661   2.223 -0.0695 -0.3563 -0.1729
  936SOL     hw 3742   5.228   2.752   2.207 -1.0937  0.2125  1.2561
  936SOL     hw 3743   5.279   2.622   2.266 -0.9159  0.9655  2.8208
  936SOL     vw 3744   5.216   2.668   2.227 -0.3164 -0.1068  0.4106
  937SOL     ow 3745   1.193   2.715   1.964  0.1419 -0.3990 -0.1972
  937SOL     hw 3746   1.187   2.656   2.039  0.1290 -0.9365 -0.6135
  937SOL     hw 3747   1.172   2.801   2.000 -0.7317 -0.7823  0.2515
  937SOL     vw 3748   1.189   2.719   1.979  0.0249 -0.5205 -0.1929
  938SOL     ow 3749   1.558   5.151   4.333 -0.4927 -0.1323  0.4799
  938SOL     hw 3750   1.541   5.111   4.248  2.9031  0.1809 -0.5196
  938SOL     hw 3751   1.551   5.245   4.318  2.2420  0.0507 -0.1592
  938SOL     vw 3752   1.555   5.158   4.320  0.3161 -0.0665  0.2637
  939SOL     ow 3753   6.068   2.267   4.142  0.0896 -0.3212  0.2366
  939SOL     hw 3754   6.026   2.321   4.075  0.5748  0.9011  0.8904
  939SOL     hw 3755   6.011   2.191   4.150 -2.0633  1.2735  1.1253
  939SOL     vw 3756   6.055   2.264   4.134 -0.1304  0.0504  0.4401
  940SOL     ow 3757   6.545   4.036   0.313  0.4068 -0.4396 -0.4820
  940SOL     hw 3758   6.472   4.050   0.373  1.2311  0.5274  0.3484
  940SOL     hw 3759   6.556   3.941   0.310  0.5157 -0.5111  1.1582
  940SOL     vw 3760   6.537   4.025   0.321  0.5298 -0.3216 -0.1560
  941SOL     ow 3761   5.650   2.062   4.335 -0.0429  0.7205 -0.1132
  941SOL     hw 3762   5.681   2.134   4.281 -0.5930  1.4744  0.5498
  941SOL     hw 3763   5.620   1.996   4.273  2.8125 -0.0798 -0.8138
  941SOL     vw 3764   5.650   2.063   4.320  0.2611  0.7144 -0.1183
  942SOL     ow 3765   2.673   5.932   3.443  0.1836 -0.5653  0.5285
  942SOL     hw 3766   2.757   5.916   3.399 -0.8081 -1.6342 -1.0693
  942SOL     hw 3767   2.630   5.998   3.388 -0.3678 -0.6532  0.8558
  942SOL     vw 3768   2.679   5.939   3.430 -0.0199 -0.7179  0.3607
  943SOL     ow 3769   4.139   3.645   6.687 -0.1154 -0.0790 -0.3044
  943SOL     hw 3770   4.233   3.661   6.692 -0.1019  0.2460 -1.3779
  943SOL     hw 3771   4.132   3.556   6.650 -0.2141  0.2594 -1.1385
  943SOL     vw 3772   4.150   3.635   6.682 -0.1268  0.0087 -0.5560
  944SOL     ow 3773   0.456   4.750   4.372  0.0413  0.3475  0.1053
  944SOL     hw 3774   0.435   4.829   4.421  1.4910  1.3303 -0.7736
  944SOL     hw 3775   0.547   4.731   4.395 -0.7699 -2.1465  1.6819
  944SOL     vw 3776   0.465   4.758   4.382  0.1256  0.1483  0.1974
  945SOL     ow 3777   0.096   4.898   5.467 -0.1342  0.4798 -0.6077
  945SOL     hw 3778   0.107   4.822   5.411  0.9845  1.4868 -1.8427
  945SOL     hw 3779   0.182   4.942   5.464 -0.7404  1.7704  0.0708
  945SOL     vw 3780   0.109   4.894   5.460 -0.0666  0.7832 -0.6814
  946SOL     ow 3781   3.604   5.816   2.862 -0.2902  0.6413  0.2589
  946SOL     hw 3782   3.568   5.791   2.947  0.9483 -1.3456  0.2761
  946SOL     hw 3783   3.530   5.851   2.814 -1.6200 -0.6833  1.2478
  946SOL     vw 3784   3.590   5.817   2.867 -0.3023  0.2046  0.3918
  947SOL     ow 3785   6.039   4.727   0.129  0.2453  0.0658 -0.0976
  947SOL     hw 3786   6.049   4.751   0.037 -2.0643  1.5189 -0.0534
  947SOL     hw 3787   5.976   4.654   0.128  0.0026  0.2666  0.3295
  947SOL     vw 3788   6.032   4.720   0.117 -0.0916  0.2840 -0.0354
  948SOL     ow 3789   3.252   3.573   3.580 -0.0934 -0.0708  0.0082
  948SOL     hw 3790   3.310   3.649   3.590 -0.3823 -0.0811  2.1810
  948SOL     hw 3791   3.311   3.498   3.580 -0.0035 -0.0274  1.3585
  948SOL     vw 3792   3.267   3.573   3.581 -0.1197 -0.0664  0.4730
  949SOL     ow 3793   2.897   4.385   6.294  0.2193 -0.1541 -0.3642
  949SOL     hw 3794   2.967   4.369   6.357  0.1074 -0.7990 -0.3914
  949SOL     hw 3795   2.831   4.318   6.315 -0.2888  0.3044 -0.4801
  949SOL     vw 3796   2.897   4.374   6.305  0.1374 -0.1788 -0.3831
  950SOL     ow 3797   0.261   3.417   1.260 -0.1818 -0.9674  0.5523
  950SOL     hw 3798   0.187   3.475   1.277 -1.1125 -2.0133  0.1700
  950SOL     hw 3799   0.221   3.336   1.230  1.1687 -0.5734 -2.7058
  950SOL     vw 3800   0.246   3.414   1.258 -0.1264 -1.0535  0.0720
  951SOL     ow 3801   4.077   5.890   2.707  0.6958 -0.0878  0.4792
  951SOL     hw 3802   4.154   5.839   2.684  1.1600 -0.5293  2.8217
  951SOL     hw 3803   4.107   5.953   2.773 -0.3981  1.5908 -0.5139
  951SOL     vw 3804   4.091   5.892   2.713  0.6127  0.0756  0.6572
  952SOL     ow 3805   1.622   4.433   3.994  0.7816 -0.2695 -1.6367
  952SOL     hw 3806   1.549   4.373   4.007 -1.5146  2.3808 -1.2156
  952SOL     hw 3807   1.681   4.416   4.067 -1.1382 -0.2749  0.0122
  952SOL     vw 3808   1.620   4.423   4.005  0.2255  0.0792 -1.3638
  953SOL     ow 3809   3.734   1.930   6.361 -0.0813  0.1264 -0.4915
  953SOL     hw 3810   3.643   1.943   6.389  0.0837  0.4698 -0.1082
  953SOL     hw 3811   3.770   2.018   6.355  0.1675  0.0017 -0.8556
  953SOL     vw 3812   3.727   1.943   6.364 -0.0268  0.1553 -0.4890
  954SOL     ow 3813   0.892   4.658   1.754  0.7296 -0.5171  0.1829
  954SOL     hw 3814   0.820   4.712   1.720  0.1197 -2.1835 -1.2824
  954SOL     hw 3815   0.855   4.570   1.761  2.7126 -1.4889 -0.9425
  954SOL     vw 3816   0.877   4.654   1.751  0.9108 -0.8652 -0.1589
  955SOL     ow 3817   0.790   3.288   1.979  0.5360  0.4818  0.5190
  955SOL     hw 3818   0.767   3.286   1.886 -1.1827  0.1729  0.8970
  955SOL     hw 3819   0.884   3.303   1.981  0.6376  0.3058 -1.2709
  955SOL     vw 3820   0.799   3.289   1.967  0.3227  0.4177  0.3327
  956SOL     ow 3821   0.469   4.854   5.414  0.2920 -0.2871 -0.2720
  956SOL     hw 3822   0.467   4.925   5.478 -0.0815 -0.2844 -0.2872
  956SOL     hw 3823   0.407   4.789   5.448  1.5674 -1.2042  0.4288
  956SOL     vw 3824   0.461   4.855   5.427  0.4110 -0.4075 -0.1817
  957SOL     ow 3825   5.273   6.310   2.141  0.2338 -0.1413 -0.3524
  957SOL     hw 3826   5.260   6.221   2.173  0.1705 -0.0165 -0.0288
  957SOL     hw 3827   5.369   6.318   2.134  0.2687 -0.0151  0.2490
  957SOL     vw 3828   5.284   6.299   2.144  0.2303 -0.1080 -0.2304
  958SOL     ow 3829   5.198   5.419   3.155  0.1793 -0.3727 -0.4212
  958SOL     hw 3830   5.278   5.469   3.172  0.3030 -1.1642  1.6300
  958SOL     hw 3831   5.151   5.471   3.090 -0.4041  3.2981  2.5909
  958SOL     vw 3832   5.203   5.432   3.149  0.1185  0.0072  0.2468
  959SOL     ow 3833   5.941   0.743   5.386 -0.2754 -0.6970  0.0786
  959SOL     hw 3834   5.914   0.653   5.366 -0.4931 -0.2159 -2.0713
  959SOL     hw 3835   5.971   0.740   5.476  0.1509 -3.0349 -0.0868
  959SOL     vw 3836   5.941   0.731   5.395 -0.2477 -0.9420 -0.2270
  960SOL     ow 3837   2.871   6.643   1.466  0.1809  0.4406 -0.3331
  960SOL     hw 3838   2.801   6.702   1.437 -0.7028  0.7494  2.1229
  960SOL     hw 3839   2.827   6.560   1.483  0.4855  0.4624  0.6547
  960SOL     vw 3840   2.856   6.640   1.465  0.1045  0.4840  0.1212
  961SOL     ow 3841   5.443   3.642   6.352 -0.6500  0.2082 -0.0080
  961SOL     hw 3842   5.539   3.638   6.352 -0.5984  1.0297 -0.7587
  961SOL     hw 3843   5.419   3.650   6.444 -0.1022 -1.7124  0.3467
  961SOL     vw 3844   5.453   3.642   6.364 -0.5710  0.0633 -0.0606
  962SOL     ow 3845   0.602   6.921   7.065  0.2454 -0.2746 -0.4948
  962SOL     hw 3846   0.649   7.003   7.080  0.1748 -0.5464  1.5172
  962SOL     hw 3847   0.611   6.905   6.971  1.7179  1.1498 -0.6461
  962SOL     vw 3848   0.610   6.929   7.055  0.4303 -0.1228 -0.2494
  963SOL     ow 3849   2.391   4.372   2.241 -0.1757  0.5816  0.0229
  963SOL     hw 3850   2.466   4.400   2.293 -0.1779  1.0288 -0.2134
  963SOL     hw 3851   2.408   4.407   2.154 -1.0477  1.3581  0.1613
  963SOL     vw 3852   2.403   4.380   2.236 -0.2910  0.7434  0.0101
  964SOL     ow 3853   5.036   2.106   1.894  0.4809  0.5110  0.2976
  964SOL     hw 3854   4.988   2.188   1.904  1.3532  0.8717  1.8114
  964SOL     hw 3855   5.038   2.069   1.983  2.6263  0.3200  0.2169
  964SOL     vw 3856   5.030   2.112   1.907  0.8790  0.5332  0.4867
  965SOL     ow 3857   3.533   6.053   6.397  0.7363  0.2894  0.4191
  965SOL     hw 3858   3.587   6.129   6.419  0.8489  0.1689  0.5627
  965SOL     hw 3859   3.590   5.999   6.343  0.5470  0.4604  0.0445
  965SOL     vw 3860   3.548   6.056   6.393  0.7261  0.2959  0.3886
  966SOL     ow 3861   6.620   0.233   1.447  0.2256 -0.1652 -0.6027
  966SOL     hw 3862   6.574   0.183   1.515  1.8346  0.8570  1.3526
  966SOL     hw 3863   6.551   0.256   1.384 -1.2630 -1.5131  0.4436
  966SOL     vw 3864   6.605   0.230   1.448  0.2418 -0.2082 -0.2067
  967SOL     ow 3865   3.038   0.298   1.093  0.1547 -0.1038  0.8654
  967SOL     hw 3866   3.120   0.339   1.121  0.8559 -2.0788  1.8880
  967SOL     hw 3867   2.976   0.371   1.084  1.4282  1.2009  2.2328
  967SOL     vw 3868   3.040   0.313   1.095  0.4152 -0.1923  1.1807
  968SOL     ow 3869   1.726   0.748   6.519  0.4074  0.0653  0.0987
  968SOL     hw 3870   1.772   0.669   6.491 -1.4700 -0.9633 -0.2441
  968SOL     hw 3871   1.696   0.728   6.608  1.0638  0.9268  0.5247
  968SOL     vw 3872   1.728   0.735   6.527  0.2463  0.0433  0.1097
  969SOL     ow 3873   2.032   6.746   3.259  0.3250 -0.3249  0.1315
  969SOL     hw 3874   1.962   6.732   3.323 -0.4595  0.2222 -0.5672
  969SOL     hw 3875   2.074   6.661   3.250  0.3776 -0.4305  1.2746
  969SOL     vw 3876   2.028   6.733   3.266  0.2285 -0.2666  0.1901
  970SOL     ow 3877   1.743   1.276   6.940 -0.3262 -0.4149 -0.3100
  970SOL     hw 3878   1.721   1.244   7.028  0.4303 -2.3776 -0.7684
  970SOL     hw 3879   1.700   1.361   6.933 -1.5956 -0.8670  1.4327
  970SOL     vw 3880   1.735   1.283   6.951 -0.3938 -0.7334 -0.1407
  971SOL     ow 3881   0.072   2.657   0.415 -0.1073  0.5626  0.4309
  971SOL     hw 3882   0.086   2.582   0.472 -1.0141 -0.0438 -0.1258
  971SOL     hw 3883   0.039   2.726   0.474 -1.7382 -0.2784  0.5650
  971SOL     vw 3884   0.069   2.656   0.430 -0.4421  0.3716  0.3752
  972SOL     ow 3885   2.485   4.821   3.225  0.4141 -0.0790 -0.0133
  972SOL     hw 3886   2.481   4.728   3.243 -0.7655 -0.7830 -3.1911
  972SOL     hw 3887   2.577   4.839   3.206  0.6236 -0.6109  0.5009
  972SOL     vw 3888   2.496   4.811   3.225  0.2862 -0.2420 -0.3649
  973SOL     ow 3889   4.915   6.887   5.050 -0.0466 -0.2144 -0.3676
  973SOL     hw 3890   4.925   6.832   5.128  1.9804  1.0087  0.3184
  973SOL     hw 3891   4.842   6.946   5.072  0.8815  0.5045  0.8812
  973SOL     vw 3892   4.906   6.887   5.063  0.3436  0.0417 -0.1123
  974SOL     ow 3893   1.066   6.685   2.889  0.8108 -0.1596  0.2914
  974SOL     hw 3894   0.999   6.682   2.820  0.9642  0.2797  0.1224
  974SOL     hw 3895   1.037   6.619   2.953  0.5580 -0.4215 -0.0889
  974SOL     vw 3896   1.053   6.676   2.888  0.7977 -0.1361  0.2189
  975SOL     ow 3897   1.876   3.899   6.453  0.2129  0.6045 -0.0991
  975SOL     hw 3898   1.881   3.986   6.415 -0.9809  0.8046  0.1516
  975SOL     hw 3899   1.963   3.882   6.488  0.3561  1.8271  0.1517
  975SOL     vw 3900   1.888   3.908   6.452  0.0742  0.7921 -0.0329
  976SOL     ow 3901   2.774   3.355   0.305 -0.4641 -0.2957 -0.3878
  976SOL     hw 3902   2.707   3.296   0.339 -0.5459 -0.2085 -0.3975
  976SOL     hw 3903   2.735   3.392   0.225  0.1083 -1.2490 -1.1299
  976SOL     vw 3904   2.760   3.352   0.299 -0.3995 -0.4100 -0.4870
  977SOL     ow 3905   6.398   0.559   0.465 -0.3061  0.4218 -0.3208
  977SOL     hw 3906   6.344   0.480   0.459 -0.2661  0.3818 -0.1703
  977SOL     hw 3907   6.461   0.539   0.535  0.7342 -0.0404 -1.3477
  977SOL     vw 3908   6.399   0.546   0.474 -0.1636  0.3556 -0.4364
  978SOL     ow 3909   1.521   5.224   0.482 -0.0963  0.7113  0.4958
  978SOL     hw 3910   1.555   5.251   0.567 -0.7670  1.1779  0.6243
  978SOL     hw 3911   1.556   5.136   0.469  2.4019  1.7032 -0.0657
  978SOL     vw 3912   1.530   5.216   0.492  0.1448  0.9038  0.4387
  979SOL     ow 3913   5.076   5.247   4.271 -0.0081 -0.0544 -0.0638
  979SOL     hw 3914   4.983   5.233   4.285 -0.4318  0.7132 -1.8031
  979SOL     hw 3915   5.118   5.216   4.351 -1.7602 -0.2739  0.8045
  979SOL     vw 3916   5.070   5.241   4.283 -0.2952  0.0176 -0.1786
  980SOL     ow 3917   3.554   1.321   6.477  0.0979 -0.2006  0.2996
  980SOL     hw 3918   3.635   1.334   6.526  0.8915 -1.2800 -0.6591
  980SOL     hw 3919   3.559   1.231   6.445  0.3696  0.8323 -2.9920
  980SOL     vw 3920   3.565   1.311   6.479  0.2384 -0.2067 -0.2611
  981SOL     ow 3921   5.374   5.223   6.271 -0.0451 -0.1243  0.0829
  981SOL     hw 3922   5.395   5.272   6.350  0.0699 -0.8441  0.5081
  981SOL     hw 3923   5.401   5.281   6.199  0.6105  0.2029  0.5761
  981SOL     vw 3924   5.380   5.237   6.272  0.0565 -0.1760  0.2041
  982SOL     ow 3925   3.241   5.819   3.795 -0.5128 -0.1579  0.3988
  982SOL     hw 3926   3.247   5.886   3.727 -1.2792 -2.1191 -1.7442
  982SOL     hw 3927   3.332   5.802   3.820  0.1402 -1.5897 -2.5275
  982SOL     vw 3928   3.254   5.826   3.789 -0.5279 -0.6053 -0.2700
  983SOL     ow 3929   0.240   2.809   0.955 -0.5220  0.1956 -0.0891
  983SOL     hw 3930   0.147   2.787   0.960 -0.7441  1.2428  0.6556
  983SOL     hw 3931   0.267   2.824   1.046  0.9208 -2.1413 -0.0526
  983SOL     vw 3932   0.232   2.808   0.968 -0.3610  0.0255  0.0140
  984SOL     ow 3933   7.034   5.573   0.022 -0.3019  0.1875  0.0413
  984SOL     hw 3934   7.091   5.626   0.078 -2.5592  0.6641  2.0141
  984SOL     hw 3935   7.041   5.614  -0.065  2.3995  0.1303  0.1465
  984SOL     vw 3936   7.043   5.585   0.018 -0.2432  0.2427  0.3159
  985SOL     ow 3937   4.578   5.202   6.089 -0.7578  0.0578 -0.4166
  985SOL     hw 3938   4.619   5.251   6.161 -1.6038 -0.6965  0.6037
  985SOL     hw 3939   4.649   5.149   6.053 -0.0238  1.4023 -0.9996
  985SOL     vw 3940   4.593   5.201   6.094 -0.7727  0.1357 -0.3591
  986SOL     ow 3941   6.050   0.722   5.710  0.2466  0.2281 -0.8087
  986SOL     hw 3942   6.027   0.634   5.742  0.1029  0.3534 -0.5605
  986SOL     hw 3943   6.107   0.758   5.779 -1.8918  1.3773  0.4516
  986SOL     vw 3944   6.055   0.715   5.724 -0.0546  0.3963 -0.6096
  987SOL     ow 3945   2.970   4.920   6.271  0.6265 -0.5112  0.2140
  987SOL     hw 3946   2.963   4.825   6.279  1.0915 -0.6329 -0.6831
  987SOL     hw 3947   3.041   4.934   6.207 -0.2874  0.4134 -0.6477
  987SOL     vw 3948   2.979   4.910   6.263  0.5673 -0.4051 -0.0179
  988SOL     ow 3949   6.094   6.161   0.846  0.3495  0.5383 -0.1915
  988SOL     hw 3950   6.127   6.097   0.783 -0.0991  1.1492 -1.0689
  988SOL     hw 3951   6.087   6.243   0.796  0.3977  1.1452  0.7643
  988SOL     vw 3952   6.097   6.164   0.831  0.2966  0.6988 -0.1811
  989SOL     ow 3953   4.516   1.304   1.343 -0.2168  0.0152  0.0299
  989SOL     hw 3954   4.459   1.313   1.420 -1.5763 -0.5738 -0.8631
  989SOL     hw 3955   4.505   1.386   1.295  0.4131  0.2709  0.3206
  989SOL     vw 3956   4.507   1.316   1.347 -0.3128 -0.0288 -0.0496
  990SOL     ow 3957   6.345   5.340   4.897  0.5803 -0.2445  0.7134
  990SOL     hw 3958   6.286   5.287   4.951 -2.0227  3.5777  2.1022
  990SOL     hw 3959   6.385   5.401   4.960  0.7350  1.6243 -1.1033
  990SOL     vw 3960   6.342   5.341   4.913  0.2575  0.5062  0.6568
  991SOL     ow 3961   2.975   7.031   4.054 -0.5987  0.2373  0.7325
  991SOL     hw 3962   3.067   7.004   4.053 -0.8338 -0.5905  0.1683
  991SOL     hw 3963   2.939   6.992   4.133 -0.8771 -0.9222  0.0475
  991SOL     vw 3964   2.983   7.022   4.064 -0.6665 -0.0250  0.5674
  992SOL     ow 3965   2.196   4.893   3.119 -0.0157 -0.4356 -0.6636
  992SOL     hw 3966   2.151   4.822   3.073 -2.4694 -1.3772  2.8388
  992SOL     hw 3967   2.134   4.965   3.120 -0.6629 -0.9076  2.1555
  992SOL     vw 3968   2.182   4.893   3.113 -0.4247 -0.6218  0.1705
  993SOL     ow 3969   1.781   5.276   2.355  0.1102  0.1526 -0.0703
  993SOL     hw 3970   1.819   5.219   2.288  0.0820  0.4129 -0.3129
  993SOL     hw 3971   1.848   5.343   2.369 -0.6859  1.2565 -1.3066
  993SOL     vw 3972   1.795   5.277   2.348  0.0014  0.3326 -0.2654
  994SOL     ow 3973   2.743   4.854   3.203  0.1463 -0.3859 -0.3600
  994SOL     hw 3974   2.740   4.942   3.242  2.0371 -1.0121  1.3266
  994SOL     hw 3975   2.813   4.859   3.138 -0.8462 -0.2389 -1.4534
  994SOL     vw 3976   2.752   4.867   3.199  0.2648 -0.4489 -0.2818
  995SOL     ow 3977   5.270   5.788   6.917  0.0676  0.0476  0.8020
  995SOL     hw 3978   5.287   5.695   6.928  0.1503  0.2530  2.6454
  995SOL     hw 3979   5.188   5.791   6.866  0.9976 -0.9757 -0.8302
  995SOL     vw 3980   5.261   5.776   6.912  0.2015 -0.0606  0.8295
  996SOL     ow 3981   4.421   4.386   0.153 -0.4023  0.4404  0.3528
  996SOL     hw 3982   4.330   4.355   0.149 -0.4955  0.7539  0.0641
  996SOL     hw 3983   4.468   4.329   0.092 -0.3447  0.0799  0.7275
  996SOL     vw 3984   4.415   4.374   0.144 -0.4067  0.4344  0.3641
  997SOL     ow 3985   5.585   0.178   2.209  0.3795 -0.3550 -0.1802
  997SOL     hw 3986   5.626   0.091   2.213 -1.0705 -1.0280  1.1572
  997SOL     hw 3987   5.654   0.235   2.175  2.0813 -1.6190  0.9432
  997SOL     vw 3988   5.600   0.174   2.205  0.4127 -0.6105  0.1446
  998SOL     ow 3989   3.131   1.947   0.316 -0.0545 -0.3303  0.0130
  998SOL     hw 3990   3.147   1.924   0.408  0.7945 -0.7165 -0.2220
  998SOL     hw 3991   3.108   1.864   0.274 -1.4886  0.0034  0.0680
  998SOL     vw 3992   3.130   1.933   0.323 -0.1318 -0.3374 -0.0107
  999SOL     ow 3993   2.451   3.492   3.252  0.5091  0.0548  0.3705
  999SOL     hw 3994   2.493   3.424   3.304  1.4056 -0.4670 -0.9913
  999SOL     hw 3995   2.359   3.489   3.278  0.9851  0.1075  2.2065
  999SOL     vw 3996   2.444   3.483   3.262  0.6902 -0.0072  0.4332
 1000SOL     ow 3997   1.906   6.898   3.845  0.3449  0.0613  0.2594
 1000SOL     hw 3998   1.900   6.808   3.813  0.9638  0.6409 -1.7011
 1000SOL     hw 3999   1.839   6.945   3.795  0.2794  0.7585  0.9915
 1000SOL     vw 4000   1.897   6.892   3.834  0.4179  0.2294  0.0973
 1001SOL     ow 4001   1.700   3.606   0.328 -0.2921  0.1502 -0.0989
 1001SOL     hw 4002   1.746   3.666   0.269  1.3887  0.6867  1.6671
 1001SOL     hw 4003   1.724   3.519   0.297 -1.1441  0.3568 -1.4573
 1001SOL     vw 4004   1.709   3.603   0.316 -0.1828  0.2482 -0.0452
 1002SOL     ow 4005   6.551   1.357   4.002 -0.0276  1.2783  0.2578
 1002SOL     hw 4006   6.518   1.267   4.001 -0.4068  1.4136 -1.3948
 1002SOL     hw 4007   6.646   1.347   4.003 -0.0677  0.8594  0.0429
 1002SOL     vw 4008   6.559   1.344   4.002 -0.0830  1.2409  0.0112
 1003SOL     ow 4009   1.411   0.463   3.513  0.0208  0.1246  0.1903
 1003SOL     hw 4010   1.346   0.491   3.578 -0.2697  1.9991 -0.8421
 1003SOL     hw 4011   1.398   0.368   3.506 -1.5100  0.2216  1.1701
 1003SOL     vw 4012   1.401   0.454   3.521 -0.2195  0.3847  0.1833
 1004SOL     ow 4013   4.153   3.666   6.424  0.0169 -0.2766 -0.7647
 1004SOL     hw 4014   4.129   3.659   6.516 -0.8426  1.6988 -0.7999
 1004SOL     hw 4015   4.069   3.668   6.377  0.4248 -2.5832 -1.7770
 1004SOL     vw 4016   4.139   3.665   6.430 -0.0427 -0.3204 -0.9029
 1005SOL     ow 4017   5.895   5.297   3.353 -0.3376 -0.1794  0.1529
 1005SOL     hw 4018   5.881   5.205   3.331  0.9400 -0.3000 -0.1890
 1005SOL     hw 4019   5.936   5.295   3.440 -1.2535  0.1252  0.6076
 1005SOL     vw 4020   5.898   5.285   3.362 -0.2899 -0.1552  0.1678
 1006SOL     ow 4021   5.278   0.655   4.116 -0.2241 -0.6669 -0.0110
 1006SOL     hw 4022   5.222   0.621   4.047  0.4084 -0.1079 -0.8203
 1006SOL     hw 4023   5.239   0.623   4.197  0.4661 -3.5005 -0.7069
 1006SOL     vw 4024   5.266   0.647   4.118 -0.0496 -0.9670 -0.2098
 1007SOL     ow 4025   4.619   6.672   6.721  0.1547 -0.0857 -0.4068
 1007SOL     hw 4026   4.714   6.657   6.727 -0.0622 -2.2567 -1.5868
 1007SOL     hw 4027   4.608   6.722   6.640  0.3373  1.2404  0.3438
 1007SOL     vw 4028   4.630   6.677   6.711  0.1502 -0.1972 -0.4637
 1008SOL     ow 4029   3.824   1.830   6.901  0.3447  0.4393  0.4089
 1008SOL     hw 4030   3.841   1.891   6.829  1.1941 -1.5899 -1.2234
 1008SOL     hw 4031   3.878   1.862   6.973  1.4170  1.1677 -0.6695
 1008SOL     vw 4032   3.834   1.842   6.901  0.5983  0.2677  0.0513
 1009SOL     ow 4033   0.221   2.728   4.352 -0.0534  0.3364 -0.3163
 1009SOL     hw 4034   0.210   2.806   4.406  0.2289 -0.2262  0.5771
 1009SOL     hw 4035   0.264   2.665   4.410 -1.2913 -0.8767 -0.6566
 1009SOL     vw 4036   0.225   2.730   4.367 -0.1795  0.1022 -0.2434
 1010SOL     ow 4037   3.804   5.557   0.701 -0.1096 -0.4665  0.5298
 1010SOL     hw 4038   3.895   5.566   0.672 -0.0966 -0.5286  0.5494
 1010SOL     hw 4039   3.752   5.559   0.621 -0.0683 -0.7112  0.4954
 1010SOL     vw 4040   3.809   5.558   0.687 -0.1024 -0.5074  0.5279
 1011SOL     ow 4041   0.742   0.665   5.662 -0.1747 -0.0774  0.3754
 1011SOL     hw 4042   0.779   0.645   5.576  2.4979  0.2273  1.3859
 1011SOL     hw 4043   0.717   0.758   5.656 -2.2212 -0.6335 -0.7469
 1011SOL     vw 4044   0.743   0.675   5.650 -0.0921 -0.1106  0.3607
 1012SOL     ow 4045   2.329   3.204   5.822 -0.0378 -1.1230  0.4769
 1012SOL     hw 4046   2.246   3.165   5.796 -0.2773 -0.9591  0.9746
 1012SOL     hw 4047   2.311   3.243   5.908  0.2205 -0.0255  0.0446
 1012SOL     vw 4048   2.316   3.204   5.830 -0.0353 -0.9564  0.4854
 1013SOL     ow 4049   0.394   0.908   5.028 -0.0692  0.0935  0.0417
 1013SOL     hw 4050   0.301   0.889   5.040 -0.5830  2.1522 -0.2753
 1013SOL     hw 4051   0.407   0.991   5.073  1.9769 -0.8701  1.3144
 1013SOL     vw 4052   0.383   0.916   5.035  0.1330  0.2380  0.1681
 1014SOL     ow 4053   3.128   4.021   4.768 -0.1594  0.0850 -0.4394
 1014SOL     hw 4054   3.180   4.033   4.848  0.1583  0.5715 -0.7181
 1014SOL     hw 4055   3.086   4.105   4.753 -0.9587 -0.2801 -0.2733
 1014SOL     vw 4056   3.129   4.033   4.777 -0.2230  0.1011 -0.4544
 1015SOL     ow 4057   3.867   0.107   5.827 -0.0964 -0.4486 -0.0865
 1015SOL     hw 4058   3.957   0.115   5.794  0.2086 -0.9121  0.5915
 1015SOL     hw 4059   3.874   0.126   5.920 -0.7781 -0.0810 -0.1077
 1015SOL     vw 4060   3.880   0.110   5.835 -0.1460 -0.4613  0.0002
 1016SOL     ow 4061   2.915   3.118   2.290  0.6314 -0.0131 -0.5412
 1016SOL     hw 4062   2.909   3.168   2.372  0.8313 -0.8720  0.0067
 1016SOL     hw 4063   3.008   3.123   2.266  0.6210  0.0104 -0.5773
 1016SOL     vw 4064   2.927   3.125   2.298  0.6564 -0.1231 -0.4737
 1017SOL     ow 4065   4.102   4.401   4.161  0.0513 -0.3238  0.5500
 1017SOL     hw 4066   4.085   4.466   4.230 -3.4700 -0.3745 -0.0939
 1017SOL     hw 4067   4.189   4.425   4.127 -0.6186  3.4146  1.0279
 1017SOL     vw 4068   4.112   4.413   4.166 -0.5014  0.1626  0.5279
 1018SOL     ow 4069   1.500   4.526   1.071 -0.3111 -0.2293  0.7429
 1018SOL     hw 4070   1.415   4.541   1.030  0.5196  0.1736 -0.8795
 1018SOL     hw 4071   1.559   4.507   0.999  1.1825  0.3571  1.7587
 1018SOL     vw 4072   1.497   4.525   1.056 -0.0044 -0.0987  0.6629
 1019SOL     ow 4073   0.695   3.581   3.472 -0.7292 -0.4751  1.0727
 1019SOL     hw 4074   0.632   3.537   3.415 -0.6918 -1.4459  1.7696
 1019SOL     hw 4075   0.668   3.673   3.471 -0.7814 -0.4733 -0.4279
 1019SOL     vw 4076   0.683   3.587   3.464 -0.7312 -0.6031  0.9667
 1020SOL     ow 4077   2.861   6.968   3.816 -0.4117 -0.1954  0.3039
 1020SOL     hw 4078   2.921   6.952   3.743  0.1789  1.0870  0.4766
 1020SOL     hw 4079   2.919   6.983   3.891 -0.9762 -0.1460  0.7345
 1020SOL     vw 4080   2.877   6.968   3.816 -0.4083 -0.0196  0.3836
 1021SOL     ow 4081   5.024   1.122   6.978  0.9404 -0.0156  0.0263
 1021SOL     hw 4082   5.112   1.130   7.017  0.8975  0.4486  0.0418
 1021SOL     hw 4083   5.017   1.199   6.921  0.8517 -0.4848 -0.6028
 1021SOL     vw 4084   5.035   1.133   6.976  0.9232 -0.0163 -0.0546
 1022SOL     ow 4085   6.608   0.535   0.646 -0.4030  0.3728 -0.2387
 1022SOL     hw 4086   6.609   0.546   0.741 -1.1024  0.9353 -0.2814
 1022SOL     hw 4087   6.687   0.485   0.626 -0.9759 -0.9877  0.7830
 1022SOL     vw 4088   6.618   0.530   0.656 -0.5710  0.2676 -0.1096
 1023SOL     ow 4089   6.002   4.720   6.544 -0.2610  0.6770 -0.6480
 1023SOL     hw 4090   6.080   4.742   6.494  1.2518 -3.3981 -0.4713
 1023SOL     hw 4091   6.022   4.744   6.634  1.2034 -0.9578 -0.4830
 1023SOL     vw 4092   6.015   4.726   6.549  0.1321 -0.0763 -0.6030
 1024SOL     ow 4093   1.999   6.237   5.273  0.1653 -0.4851 -0.0084
 1024SOL     hw 4094   1.968   6.285   5.196 -2.1354  0.1943  1.2512
 1024SOL     hw 4095   2.094   6.241   5.267  0.0913 -0.8362 -3.0216
 1024SOL     vw 4096   2.007   6.244   5.262 -0.1481 -0.4418 -0.2398
 1025SOL     ow 4097   1.145   0.350   5.073 -0.1066  0.0594 -0.2038
 1025SOL     hw 4098   1.090   0.272   5.066  0.1254 -0.0335 -1.1274
 1025SOL     hw 4099   1.125   0.386   5.160 -1.4913 -0.0553 -0.4563
 1025SOL     vw 4100   1.135   0.344   5.084 -0.2587  0.0321 -0.3591
 1026SOL     ow 4101   3.303   1.470   6.412 -0.6569  0.5008  0.1567
 1026SOL     hw 4102   3.253   1.439   6.337 -0.9454  0.6922  0.2684
 1026SOL     hw 4103   3.324   1.561   6.391  1.5180 -0.1585 -0.8787
 1026SOL     vw 4104   3.299   1.478   6.400 -0.4081  0.4391  0.0350
 1027SOL     ow 4105   4.603   3.987   0.715  0.0799  0.9650  0.0945
 1027SOL     hw 4106   4.644   3.972   0.630  2.1194  2.0187  0.8177
 1027SOL     hw 4107   4.539   3.917   0.724 -0.9974  1.4536 -2.7493
 1027SOL     vw 4108   4.600   3.976   0.705  0.2069  1.1685 -0.1853
 1028SOL     ow 4109   6.083   4.633   0.912 -0.0225 -0.4839 -0.2942
 1028SOL     hw 4110   6.162   4.602   0.867  0.3826 -1.2618  0.9095
 1028SOL     hw 4111   6.017   4.565   0.895  0.3449 -1.1540  0.8596
 1028SOL     vw 4112   6.084   4.620   0.904  0.0796 -0.6750  0.0169
 1029SOL     ow 4113   5.467   2.449   4.884 -0.0650  0.2777 -0.2359
 1029SOL     hw 4114   5.431   2.531   4.918 -0.1911  0.2409 -0.2802
 1029SOL     hw 4115   5.477   2.465   4.790 -0.3805  0.1353 -0.2934
 1029SOL     vw 4116   5.464   2.462   4.876 -0.1233  0.2540 -0.2496
 1030SOL     ow 4117   2.777   5.012   2.690 -0.2064 -0.5250 -0.3250
 1030SOL     hw 4118   2.733   5.055   2.763  1.2303  0.4718  0.0151
 1030SOL     hw 4119   2.710   4.958   2.649 -1.0934 -0.9529  1.6076
 1030SOL     vw 4120   2.763   5.011   2.694 -0.1338 -0.4501 -0.0250
 1031SOL     ow 4121   7.176   2.089   1.623  0.3373 -0.2256 -0.6722
 1031SOL     hw 4122   7.106   2.119   1.681  0.7448  0.3062 -0.4493
 1031SOL     hw 4123   7.181   2.156   1.555 -1.0295 -1.4888 -2.1074
 1031SOL     vw 4124   7.167   2.102   1.622  0.2105 -0.3221 -0.8321
 1032SOL     ow 4125   7.008   2.775   1.955  0.2400 -0.3131  0.0930
 1032SOL     hw 4126   6.974   2.815   1.875 -0.2212  0.4035  0.6341
 1032SOL     hw 4127   6.973   2.829   2.026  1.0740 -0.6147  0.7563
 1032SOL     vw 4128   6.999   2.788   1.954  0.2887 -0.2583  0.2519
 1033SOL     ow 4129   2.487   0.834   0.256  0.4773 -0.0435  0.9980
 1033SOL     hw 4130   2.449   0.773   0.193  4.2238  0.1986 -1.8345
 1033SOL     hw 4131   2.480   0.920   0.213 -0.3448  0.8278  2.7613
 1033SOL     vw 4132   2.481   0.837   0.242  0.8631  0.1034  0.8569
 1034SOL     ow 4133   6.930   3.459   4.788 -0.2095 -0.2025  0.5739
 1034SOL     hw 4134   6.905   3.436   4.699  0.2327 -0.7352  0.5845
 1034SOL     hw 4135   7.026   3.461   4.786 -0.1962 -0.3317  1.0617
 1034SOL     vw 4136   6.939   3.456   4.776 -0.1493 -0.2899  0.6397
 1035SOL     ow 4137   4.453   1.875   4.303 -0.0535 -0.0813 -0.6231
 1035SOL     hw 4138   4.453   1.898   4.396 -1.0817  0.9979 -0.8721
 1035SOL     hw 4139   4.491   1.951   4.259  0.1555 -0.4677 -1.1323
 1035SOL     vw 4140   4.458   1.888   4.309 -0.1616  0.0101 -0.7231
 1036SOL     ow 4141   1.131   3.130   6.651 -0.4273 -0.5613  0.8485
 1036SOL     hw 4142   1.069   3.162   6.585 -1.2950 -2.1897  0.7952
 1036SOL     hw 4143   1.210   3.182   6.639 -2.3135  2.8674  2.0903
 1036SOL     vw 4144   1.133   3.141   6.641 -0.7907 -0.3238  1.0054
 1037SOL     ow 4145   4.610   6.319   1.879 -0.2867 -0.5663 -0.6250
 1037SOL     hw 4146   4.572   6.402   1.907 -0.0556  0.1736 -2.3751
 1037SOL     hw 4147   4.636   6.276   1.960 -2.0435  0.2515  0.4479
 1037SOL     vw 4148   4.608   6.324   1.893 -0.4878 -0.3607 -0.7144
 1038SOL     ow 4149   7.155   7.121   6.781 -0.8405  0.2785 -0.2346
 1038SOL     hw 4150   7.081   7.062   6.764 -0.1124 -0.6070 -0.4134
 1038SOL     hw 4151   7.118   7.188   6.839 -2.1966  0.8073 -1.6509
 1038SOL     vw 4152   7.140   7.122   6.787 -0.9232  0.2313 -0.4451
 1039SOL     ow 4153   0.566   2.304   3.566 -0.1067 -0.0105  0.6258
 1039SOL     hw 4154   0.521   2.373   3.518 -0.3598 -1.0794 -0.7435
 1039SOL     hw 4155   0.514   2.292   3.645  0.0256  1.4404  0.9586
 1039SOL     vw 4156   0.553   2.312   3.570 -0.1226  0.0398  0.4889
 1040SOL     ow 4157   5.567   4.435   6.123 -0.2779  0.7983 -0.0787
 1040SOL     hw 4158   5.528   4.507   6.173 -2.4250  1.1859 -2.1150
 1040SOL     hw 4159   5.651   4.419   6.166  1.1478  5.6138 -0.4488
 1040SOL     vw 4160   5.573   4.443   6.135 -0.3731  1.4851 -0.3963
 1041SOL     ow 4161   4.313   5.787   5.515 -0.4417  0.0364  0.4627
 1041SOL     hw 4162   4.388   5.795   5.575 -1.8142 -0.4517  2.3459
 1041SOL     hw 4163   4.351   5.754   5.434  1.3551 -0.5399  1.4706
 1041SOL     vw 4164   4.328   5.783   5.513 -0.3855 -0.1042  0.8442
 1042SOL     ow 4165   1.157   0.178   4.157  0.5680 -0.3410 -0.2608
 1042SOL     hw 4166   1.212   0.255   4.146  1.0063 -0.1545  2.5195
 1042SOL     hw 4167   1.218   0.106   4.174  0.0579 -0.7357 -0.0573
 1042SOL     vw 4168   1.172   0.179   4.158  0.5585 -0.3685  0.1330
 1043SOL     ow 4169   4.068   2.215   2.184 -0.5788 -0.0153  0.2810
 1043SOL     hw 4170   4.127   2.210   2.108 -0.0499 -0.1409  0.6944
 1043SOL     hw 4171   4.126   2.235   2.258 -0.6381 -2.8205  1.1895
 1043SOL     vw 4172   4.084   2.217   2.184 -0.5169 -0.4020  0.4556
 1044SOL     ow 4173   4.791   6.708   6.132  0.3420  0.3384 -0.3517
 1044SOL     hw 4174   4.747   6.754   6.204  0.0378  0.3660 -0.5488
 1044SOL     hw 4175   4.757   6.752   6.053  1.1379  0.7216 -0.4915
 1044SOL     vw 4176   4.781   6.720   6.131  0.4072  0.3922 -0.3960
 1045SOL     ow 4177   0.101   0.328   6.415 -0.0790 -0.6525  0.1538
 1045SOL     hw 4178   0.159   0.393   6.456 -1.9706  0.5724  1.0336
 1045SOL     hw 4179   0.013   0.355   6.441 -0.9669 -3.6042  0.5860
 1045SOL     vw 4180   0.097   0.340   6.424 -0.4457 -0.8803  0.3269
 1046SOL     ow 4181   4.686   6.241   1.359  0.3652  0.2468  0.4295
 1046SOL     hw 4182   4.639   6.241   1.275  1.7342 -2.0033 -0.4121
 1046SOL     hw 4183   4.704   6.149   1.376 -0.6182  0.5546  3.6953
 1046SOL     vw 4184   4.682   6.229   1.350  0.4160 -0.0095  0.7493
 1047SOL     ow 4185   3.823   5.984   1.160 -0.6196  0.0123  0.1799
 1047SOL     hw 4186   3.764   5.921   1.200 -0.5042  0.7592  1.5880
 1047SOL     hw 4187   3.777   6.014   1.081 -2.2841  0.7885  1.3840
 1047SOL     vw 4188   3.809   5.980   1.155 -0.8240  0.2134  0.5246
 1048SOL     ow 4189   6.977   2.623   4.646  0.3701 -0.5916 -0.0996
 1048SOL     hw 4190   6.991   2.651   4.736  0.8665  1.5254 -0.7734
 1048SOL     hw 4191   6.924   2.692   4.607 -1.0211 -2.1422 -1.0991
 1048SOL     vw 4192   6.972   2.636   4.652  0.2518 -0.5169 -0.3207
 1049SOL     ow 4193   2.513   1.138   6.099  0.1563 -0.2249 -0.0243
 1049SOL     hw 4194   2.456   1.070   6.135 -0.2578  0.4123  0.5571
 1049SOL     hw 4195   2.601   1.104   6.109  0.1306  0.2850  2.4636
 1049SOL     vw 4196   2.517   1.125   6.105  0.0981 -0.0736  0.3808
 1050SOL     ow 4197   6.529   1.946   6.089 -0.3098  0.2812 -0.0196
 1050SOL     hw 4198   6.493   1.990   6.166  1.3389  0.7571  0.5340
 1050SOL     hw 4199   6.580   2.014   6.045  1.1845 -0.7110  0.1171
 1050SOL     vw 4200   6.531   1.961   6.093  0.1049  0.2131  0.0715
 1051SOL     ow 4201   1.758   7.105   4.281  0.1861  0.0838  0.0694
 1051SOL     hw 4202   1.680   7.066   4.243  1.3381 -1.1480 -1.1711
 1051SOL     hw 4203   1.780   7.048   4.354  0.2264  0.1237  0.0889
 1051SOL     vw 4204   1.751   7.092   4.285  0.3434 -0.0732 -0.0916
 1052SOL     ow 4205   5.306   0.652   6.034 -0.2467 -0.3303  0.4107
 1052SOL     hw 4206   5.287   0.685   6.122 -0.9400 -2.2016  1.0086
 1052SOL     hw 4207   5.266   0.565   6.032  1.3728 -1.0924 -1.1130
 1052SOL     vw 4208   5.298   0.645   6.045 -0.1247 -0.6777  0.2885
 1053SOL     ow 4209   2.198   7.055   1.361  0.1527  0.1450 -0.5456
 1053SOL     hw 4210   2.290   7.034   1.380 -0.0637  1.0377  1.7793
 1053SOL     hw 4211   2.159   6.971   1.338  0.9186 -0.8078  1.3927
 1053SOL     vw 4212   2.205   7.041   1.360  0.2252  0.1371  0.0169
 1054SOL     ow 4213   0.842   2.390   3.679 -0.7480  0.3030  0.0037
 1054SOL     hw 4214   0.890   2.467   3.709 -0.4866 -0.2468  1.0571
 1054SOL     hw 4215   0.874   2.319   3.734 -1.1937 -0.5059 -0.7565
 1054SOL     vw 4216   0.852   2.391   3.691 -0.7723  0.1237  0.0424
 1055SOL     ow 4217   1.059   4.173   1.629 -0.0224 -0.0515 -0.2543
 1055SOL     hw 4218   1.138   4.168   1.683 -0.0595 -0.1687 -0.2102
 1055SOL     hw 4219   0.989   4.194   1.691  0.3027  2.3239 -0.5848
 1055SOL     vw 4220   1.060   4.175   1.644  0.0156  0.2463 -0.2921
 1056SOL     ow 4221   2.450   4.233   1.468 -0.1062  0.3331 -0.0501
 1056SOL     hw 4222   2.460   4.140   1.485 -0.0808  0.6305  1.8009
 1056SOL     hw 4223   2.428   4.239   1.375 -3.0189 -1.7341  0.3825
 1056SOL     vw 4224   2.448   4.222   1.458 -0.4872  0.0997  0.2511
 1057SOL     ow 4225   2.520   4.097   1.733  0.8116  0.2811  0.1364
 1057SOL     hw 4226   2.543   4.058   1.817 -0.1907 -0.2660  0.1631
 1057SOL     hw 4227   2.597   4.149   1.709  1.4889 -0.3494  0.9107
 1057SOL     vw 4228   2.533   4.099   1.741  0.7687  0.1256  0.2421
 1058SOL     ow 4229   6.301   2.005   3.552 -0.0612  0.7356  0.2316
 1058SOL     hw 4230   6.329   1.958   3.630 -0.3817 -0.3844 -0.3116
 1058SOL     hw 4231   6.383   2.033   3.510  0.1457  0.2958  0.3418
 1058SOL     vw 4232   6.316   2.003   3.557 -0.0761  0.5298  0.1745
 1059SOL     ow 4233   5.978   0.615   6.065 -0.5431 -0.2787  0.1691
 1059SOL     hw 4234   5.999   0.579   6.151 -0.2976  1.4929  0.8994
 1059SOL     hw 4235   6.059   0.606   6.015  0.0255  0.6860  0.8731
 1059SOL     vw 4236   5.991   0.609   6.070 -0.4358  0.0823  0.3581
 1060SOL     ow 4237   6.240   5.880   6.565 -0.1829 -0.4277  0.0917
 1060SOL     hw 4238   6.181   5.819   6.520 -1.9527  0.4771  1.0835
 1060SOL     hw 4239   6.223   5.965   6.525  0.4873 -0.1518  0.3716
 1060SOL     vw 4240   6.230   5.883   6.554 -0.3278 -0.2720  0.2594
 1061SOL     ow 4241   6.946   1.034   4.279 -0.0542 -0.4753  0.2345
 1061SOL     hw 4242   6.871   1.059   4.332  1.1425  0.5905  1.4912
 1061SOL     hw 4243   6.970   0.947   4.311  0.9517  0.3555  1.8446
 1061SOL     vw 4244   6.939   1.026   4.290  0.2365 -0.2251  0.6130
 1062SOL     ow 4245   2.852   4.094   0.631  0.1709 -0.7573 -0.7175
 1062SOL     hw 4246   2.759   4.118   0.628 -0.1285 -1.7892 -0.2861
 1062SOL     hw 4247   2.866   4.043   0.551 -0.1123 -2.1249  0.0590
 1062SOL     vw 4248   2.842   4.090   0.620  0.0941 -1.0738 -0.5582
 1063SOL     ow 4249   3.510   1.145   4.769 -0.0812  0.1965  0.0459
 1063SOL     hw 4250   3.456   1.071   4.744 -0.1580  0.1814  0.2516
 1063SOL     hw 4251   3.493   1.157   4.862 -1.3326  1.4985 -0.3136
 1063SOL     vw 4252   3.501   1.137   4.778 -0.2564  0.3663  0.0255
 1064SOL     ow 4253   1.166   0.526   1.860  0.0500 -0.0277 -0.3971
 1064SOL     hw 4254   1.235   0.503   1.922 -0.3436 -0.3701 -0.0845
 1064SOL     hw 4255   1.206   0.512   1.774 -0.3959 -2.6454 -0.2495
 1064SOL     vw 4256   1.180   0.521   1.857 -0.0607 -0.4182 -0.3364
 1065SOL     ow 4257   0.777   3.234   2.714 -0.4193  0.1880  0.1104
 1065SOL     hw 4258   0.725   3.283   2.777  0.4838  1.4247 -0.0799
 1065SOL     hw 4259   0.848   3.293   2.689  1.4538 -1.6169  0.8275
 1065SOL     vw 4260   0.780   3.248   2.719 -0.0530  0.1131  0.1799
 1066SOL     ow 4261   1.167   0.029   1.745  0.5995 -0.0397  0.6302
 1066SOL     hw 4262   1.175   0.118   1.711 -0.4032  0.8633  2.6195
 1066SOL     hw 4263   1.253   0.008   1.781  0.1841  1.1263  2.3825
 1066SOL     vw 4264   1.179   0.038   1.745  0.4124  0.2333  1.1238
 1067SOL     ow 4265   0.850   0.274   0.424 -0.4184  0.3325  0.1094
 1067SOL     hw 4266   0.875   0.252   0.514  0.2023 -1.7044 -0.5073
 1067SOL     hw 4267   0.930   0.261   0.373 -1.3175 -0.8093 -1.0692
 1067SOL     vw 4268   0.863   0.269   0.429 -0.4551 -0.0869 -0.1274
 1068SOL     ow 4269   2.887   2.549   4.507 -0.3361  0.1371  0.7662
 1068SOL     hw 4270   2.930   2.629   4.475 -3.2149  2.5082  2.3594
 1068SOL     hw 4271   2.920   2.539   4.597 -0.7657  0.1379  0.9238
 1068SOL     vw 4272   2.897   2.558   4.515 -0.7726  0.4499  0.9973
 1069SOL     ow 4273   3.223   0.576   2.874 -0.0586  0.1545  0.1610
 1069SOL     hw 4274   3.132   0.562   2.848  0.0683  1.0623 -0.8259
 1069SOL     hw 4275   3.244   0.501   2.930 -1.4114 -0.0485  0.4160
 1069SOL     vw 4276   3.214   0.564   2.878 -0.2205  0.2475  0.0646
 1070SOL     ow 4277   6.815   1.184   6.670 -0.0563  0.8274 -0.5539
 1070SOL     hw 4278   6.865   1.205   6.590  0.9985 -1.1403 -0.4864
 1070SOL     hw 4279   6.863   1.111   6.709 -3.1725 -1.4442 -0.6263
 1070SOL     vw 4280   6.828   1.177   6.664 -0.3281  0.2681 -0.5546
 1071SOL     ow 4281   2.520   3.861   3.307  0.1076 -0.3798 -0.5666
 1071SOL     hw 4282   2.449   3.844   3.368  0.7429 -2.1128 -0.2437
 1071SOL     hw 4283   2.532   3.956   3.310 -1.9705 -0.0810 -0.4216
 1071SOL     vw 4284   2.512   3.871   3.316 -0.0829 -0.5690 -0.5049
 1072SOL     ow 4285   2.713   4.643   1.746  0.3949  0.3488 -0.2585
 1072SOL     hw 4286   2.734   4.566   1.800  0.9078  0.3602 -0.4307
 1072SOL     hw 4287   2.621   4.632   1.723  1.2800 -2.1838 -3.3634
 1072SOL     vw 4288   2.704   4.631   1.750  0.5794  0.0165 -0.6909
 1073SOL     ow 4289   1.467   0.868   5.585  0.0209 -0.1566 -0.2661
 1073SOL     hw 4290   1.373   0.881   5.585 -0.4163 -2.6292 -2.2544
 1073SOL     hw 4291   1.488   0.842   5.675 -1.1982  0.2224  0.1449
 1073SOL     vw 4292   1.458   0.866   5.597 -0.1976 -0.4328 -0.4745
 1074SOL     ow 4293   2.233   3.517   5.944 -0.0197  0.1114  0.3477
 1074SOL     hw 4294   2.295   3.512   5.871  0.0642  2.6370  0.1448
 1074SOL     hw 4295   2.258   3.445   6.002  0.3537 -1.5465 -1.7410
 1074SOL     vw 4296   2.245   3.507   5.942  0.0408  0.2258  0.0455
 1075SOL     ow 4297   5.392   4.656   2.267 -0.3650  0.6738  0.3571
 1075SOL     hw 4298   5.385   4.722   2.197  1.8354  0.4613 -0.1466
 1075SOL     hw 4299   5.454   4.694   2.329 -0.0621 -0.3846  0.7123
 1075SOL     vw 4300   5.399   4.670   2.266 -0.0346  0.5062  0.3376
 1076SOL     ow 4301   4.847   5.314   6.642  0.3959 -0.0165 -0.2367
 1076SOL     hw 4302   4.910   5.375   6.681  0.2063 -0.1724  0.3171
 1076SOL     hw 4303   4.829   5.250   6.711 -1.7688  1.0602  0.2694
 1076SOL     vw 4304   4.853   5.313   6.656  0.0851  0.1047 -0.0968
 1077SOL     ow 4305   0.358   0.219   6.017  0.2710 -0.6603 -0.2137
 1077SOL     hw 4306   0.445   0.185   6.001  0.6825  0.3393 -0.2051
 1077SOL     hw 4307   0.372   0.308   6.050 -0.6802 -1.3714  2.2870
 1077SOL     vw 4308   0.371   0.226   6.019  0.1998 -0.6222  0.1171
 1078SOL     ow 4309   2.079   7.083   5.888  0.6389  0.1702  0.4475
 1078SOL     hw 4310   2.030   7.119   5.815  1.5343  2.9343  1.0921
 1078SOL     hw 4311   2.017   7.082   5.961  0.1289 -1.3256  0.0309
 1078SOL     vw 4312   2.065   7.088   5.888  0.6897  0.3376  0.4776
 1079SOL     ow 4313   3.236   5.961   6.293  0.4094  0.2898 -0.2359
 1079SOL     hw 4314   3.288   5.984   6.216  2.4144 -1.0484  0.6305
 1079SOL     hw 4315   3.150   5.938   6.258  0.9493  0.7255 -1.9461
 1079SOL     vw 4316   3.232   5.961   6.279  0.7452  0.1707 -0.3474
 1080SOL     ow 4317   4.899   4.577   0.004  0.4080  0.3277 -0.1027
 1080SOL     hw 4318   4.925   4.590  -0.087 -0.8621 -1.1313 -0.7131
 1080SOL     hw 4319   4.933   4.654   0.050  2.3975  0.3530 -1.5057
 1080SOL     vw 4320   4.907   4.589  -0.002  0.5028  0.1383 -0.3684
 1081SOL     ow 4321   6.694   6.997   4.152  0.3548  0.4024 -0.9035
 1081SOL     hw 4322   6.617   7.046   4.183  0.5009  1.2835 -1.8916
 1081SOL     hw 4323   6.702   6.924   4.214 -1.3168  0.2526 -0.8171
 1081SOL     vw 4324   6.685   6.994   4.164  0.1533  0.4988 -1.0226
 1082SOL     ow 4325   1.911   6.292   6.026  0.4756  0.1534  0.0077
 1082SOL     hw 4326   1.935   6.344   5.950 -0.5092 -0.8869 -1.0520
 1082SOL     hw 4327   1.925   6.201   5.998 -0.2405 -0.2601  0.9443
 1082SOL     vw 4328   1.916   6.287   6.013  0.2512 -0.0384 -0.0083
 1083SOL     ow 4329   3.070   1.874   1.948  0.4381 -0.5218  0.7533
 1083SOL     hw 4330   3.132   1.945   1.933  0.7447 -0.9413 -0.0279
 1083SOL     hw 4331   3.021   1.867   1.866  1.0689 -1.8351  0.4609
 1083SOL     vw 4332   3.072   1.882   1.935  0.5620 -0.7504  0.6117
 1084SOL     ow 4333   6.172   0.269   0.576  0.2691 -0.0057 -0.2068
 1084SOL     hw 4334   6.085   0.262   0.537  0.0725 -0.4043  0.2877
 1084SOL     hw 4335   6.231   0.277   0.501 -0.0386 -1.3559 -0.6316
 1084SOL     vw 4336   6.168   0.269   0.561  0.2027 -0.2364 -0.1976
 1085SOL     ow 4337   6.359   2.860   4.111  0.2310  0.4868  0.1812
 1085SOL     hw 4338   6.354   2.898   4.023  0.3215 -0.6947 -0.3498
 1085SOL     hw 4339   6.400   2.775   4.098 -1.7716 -0.6652  1.0662
 1085SOL     vw 4340   6.364   2.854   4.098 -0.0215  0.1791  0.2279
 1086SOL     ow 4341   5.146   3.470   6.001 -0.2782  0.3233  0.1009
 1086SOL     hw 4342   5.072   3.410   5.992 -0.5440  0.5340  0.7906
 1086SOL     hw 4343   5.152   3.515   5.917 -2.0957  1.6250  0.5916
 1086SOL     vw 4344   5.137   3.468   5.989 -0.5529  0.5230  0.2568
 1087SOL     ow 4345   1.831   5.930   1.036 -0.3377  0.2091 -0.0102
 1087SOL     hw 4346   1.747   5.906   0.998 -0.4083 -0.9457  0.8061
 1087SOL     hw 4347   1.825   5.903   1.128  0.9165  0.0847  0.0606
 1087SOL     vw 4348   1.819   5.923   1.043 -0.1816  0.0405  0.1069
 1088SOL     ow 4349   2.386   5.901   3.491 -0.2050  0.2753 -0.4296
 1088SOL     hw 4350   2.399   5.984   3.445  0.8881  0.4630  0.1932
 1088SOL     hw 4351   2.358   5.925   3.579 -2.0550 -0.0847 -0.8637
 1088SOL     vw 4352   2.384   5.915   3.496 -0.3049  0.2527 -0.4048
 1089SOL     ow 4353   4.901   2.335   1.530 -0.3542  0.2709 -0.0530
 1089SOL     hw 4354   4.933   2.391   1.600 -1.0773 -1.2120  1.5348
 1089SOL     hw 4355   4.813   2.309   1.557 -0.2820 -1.1203 -1.0262
 1089SOL     vw 4356   4.894   2.339   1.543 -0.4399 -0.1082  0.0281
 1090SOL     ow 4357   6.128   5.248   2.827  0.3295  0.1273  0.7455
 1090SOL     hw 4358   6.065   5.184   2.795  1.0492 -0.3631  0.2635
 1090SOL     hw 4359   6.123   5.320   2.764 -0.7792  0.7336  1.5232
 1090SOL     vw 4360   6.119   5.249   2.814  0.2780  0.1426  0.7846
 1091SOL     ow 4361   5.177   3.969   3.078 -0.4295 -0.1203 -0.2336
 1091SOL     hw 4362   5.118   3.982   3.152  0.9161 -0.1720  0.8876
 1091SOL     hw 4363   5.261   3.944   3.118  0.3538 -0.0725 -1.7686
 1091SOL     vw 4364   5.180   3.967   3.093 -0.1483 -0.1206 -0.2882
 1092SOL     ow 4365   5.503   3.884   2.193 -0.0919 -0.7894 -0.7497
 1092SOL     hw 4366   5.597   3.905   2.188 -0.0958 -0.6071 -0.1413
 1092SOL     hw 4367   5.499   3.809   2.251 -0.5381  0.8608  1.4877
 1092SOL     vw 4368   5.515   3.877   2.200 -0.1512 -0.5475 -0.3742
 1093SOL     ow 4369   6.798   6.858   2.813 -0.0916  0.2027  0.2394
 1093SOL     hw 4370   6.712   6.851   2.772 -0.8968  2.5639  1.3573
 1093SOL     hw 4371   6.813   6.952   2.823  1.7317 -0.1864  1.8893
 1093SOL     vw 4372   6.789   6.869   2.809  0.0427  0.4628  0.6045
 1094SOL     ow 4373   6.821   6.848   3.120 -0.3677  0.2715  0.3694
 1094SOL     hw 4374   6.867   6.882   3.196  0.0873  1.1707 -0.2937
 1094SOL     hw 4375   6.745   6.906   3.110  0.6216  1.3707 -0.9988
 1094SOL     vw 4376   6.817   6.860   3.129 -0.1769  0.5350  0.1014
 1095SOL     ow 4377   6.499   1.207   6.734 -0.3153  0.6970 -0.5972
 1095SOL     hw 4378   6.411   1.226   6.768 -0.0469 -1.4080  1.6071
 1095SOL     hw 4379   6.501   1.111   6.727  2.5165  0.4626  1.7189
 1095SOL     vw 4380   6.488   1.197   6.738  0.0937  0.3883 -0.0007
 1096SOL     ow 4381   5.154   4.070   0.147 -0.1889  0.3167  0.3932
 1096SOL     hw 4382   5.083   4.006   0.147 -1.6156  1.8460  0.2581
 1096SOL     hw 4383   5.191   4.065   0.235 -0.0114 -0.9309  0.2720
 1096SOL     vw 4384   5.150   4.061   0.158 -0.3538  0.3538  0.3594
 1097SOL     ow 4385   2.714   7.037   2.989  0.3082 -0.1552 -0.4862
 1097SOL     hw 4386   2.748   7.110   3.041  0.0559 -0.3823  0.0121
 1097SOL     hw 4387   2.681   6.975   3.055 -2.2432  0.6108 -0.9365
 1097SOL     vw 4388   2.714   7.039   3.005 -0.0616 -0.0842 -0.4799
 1098SOL     ow 4389   4.028   2.983   2.452  0.1489  0.1702  0.1005
 1098SOL     hw 4390   3.947   2.933   2.460  0.8987 -1.1632 -0.3062
 1098SOL     hw 4391   4.007   3.069   2.487 -1.0415 -0.5926  1.3484
 1098SOL     vw 4392   4.015   2.988   2.457  0.0908 -0.1066  0.2115
 1099SOL     ow 4393   0.247   5.164   1.914  0.1679 -0.0541  0.1918
 1099SOL     hw 4394   0.282   5.112   1.987  1.8610  2.3208  1.1906
 1099SOL     hw 4395   0.159   5.130   1.901  0.4098 -1.6787  2.2373
 1099SOL     vw 4396   0.240   5.153   1.922  0.4232  0.0451  0.5934
 1100SOL     ow 4397   5.181   6.377   1.133  0.4086  0.0091 -0.1364
 1100SOL     hw 4398   5.248   6.314   1.159 -1.0151 -1.4044  0.3053
 1100SOL     hw 4399   5.156   6.420   1.215 -0.5234 -0.8283  0.0383
 1100SOL     vw 4400   5.187   6.374   1.147  0.0978 -0.2882 -0.0551
 1101SOL     ow 4401   5.320   3.258   3.785  0.9709  1.0439  0.3966
 1101SOL     hw 4402   5.307   3.283   3.876 -0.7500  2.5058 -0.1927
 1101SOL     hw 4403   5.267   3.320   3.735 -0.0144 -1.1257 -1.4662
 1101SOL     vw 4404   5.311   3.269   3.790  0.6137  0.9506  0.0730
 1102SOL     ow 4405   4.417   0.318   0.286 -0.1514  0.4357 -0.1093
 1102SOL     hw 4406   4.484   0.249   0.280 -1.7253 -1.1271 -0.6504
 1102SOL     hw 4407   4.336   0.275   0.260 -1.0203  2.8427 -1.7309
 1102SOL     vw 4408   4.415   0.303   0.282 -0.4735  0.5471 -0.3947
 1103SOL     ow 4409   6.851   3.431   6.322  0.2852  0.5762  0.2435
 1103SOL     hw 4410   6.830   3.392   6.237 -0.7198 -1.8306  1.4833
 1103SOL     hw 4411   6.946   3.445   6.319  0.5826 -1.2574 -0.6353
 1103SOL     vw 4412   6.861   3.428   6.310  0.1919  0.0168  0.2911
 1104SOL     ow 4413   0.232   5.534   2.402 -0.2194  0.7650  0.3844
 1104SOL     hw 4414   0.209   5.554   2.311  0.0794  0.7147  0.2962
 1104SOL     hw 4415   0.150   5.505   2.442 -0.3334  0.7001  0.1063
 1104SOL     vw 4416   0.218   5.533   2.395 -0.1950  0.7501  0.3362
 1105SOL     ow 4417   2.638   1.598   5.804  0.2088 -0.0821 -0.4747
 1105SOL     hw 4418   2.649   1.619   5.711 -1.6732 -1.7528 -1.1676
 1105SOL     hw 4419   2.691   1.662   5.850  2.0257  0.1678 -2.7350
 1105SOL     vw 4420   2.646   1.609   5.798  0.2003 -0.2696 -0.8643
 1106SOL     ow 4421   0.587   6.745   5.437 -0.3300 -0.2237 -0.6207
 1106SOL     hw 4422   0.511   6.711   5.485  0.0432 -0.3441 -0.1159
 1106SOL     hw 4423   0.600   6.833   5.470 -0.9454  0.2274 -1.5265
 1106SOL     vw 4424   0.579   6.752   5.447 -0.3620 -0.1800 -0.6733
 1107SOL     ow 4425   2.290   0.127   5.209 -0.5257 -0.1746 -0.2350
 1107SOL     hw 4426   2.314   0.071   5.283 -0.4460  1.7778  1.2983
 1107SOL     hw 4427   2.216   0.178   5.240 -1.1240  0.0180 -1.8687
 1107SOL     vw 4428   2.284   0.126   5.222 -0.5941  0.1085 -0.2484
 1108SOL     ow 4429   3.661   6.388   4.145  0.5278 -0.0619  0.7996
 1108SOL     hw 4430   3.617   6.425   4.222  2.3335  1.7501  1.0673
 1108SOL     hw 4431   3.749   6.366   4.177  1.1451  0.2652 -0.6063
 1108SOL     vw 4432   3.667   6.390   4.159  0.8475  0.2201  0.6495
 1109SOL     ow 4433   4.721   3.592   5.344 -0.2362 -1.0633 -0.7589
 1109SOL     hw 4434   4.640   3.546   5.367  0.3119 -2.8527 -2.1149
 1109SOL     hw 4435   4.783   3.568   5.412 -0.3042 -1.3331 -0.7918
 1109SOL     vw 4436   4.719   3.583   5.356 -0.1729 -1.3351 -0.9420
 1110SOL     ow 4437   5.658   7.026   1.127  0.1255 -0.1603  0.0627
 1110SOL     hw 4438   5.641   7.084   1.053  0.9266 -0.2294 -0.1879
 1110SOL     hw 4439   5.693   7.085   1.195 -1.3700  0.0443  0.7039
 1110SOL     vw 4440   5.661   7.042   1.126  0.0341 -0.1423  0.1142
 1111SOL     ow 4441   0.630   5.712   0.805 -0.5334 -0.2005  0.5260
 1111SOL     hw 4442   0.624   5.774   0.732  2.0765  0.6530  0.9232
 1111SOL     hw 4443   0.604   5.628   0.767 -1.2303  0.5843 -0.8154
 1111SOL     vw 4444   0.626   5.709   0.790 -0.2810  0.0162  0.4015
 1112SOL     ow 4445   2.392   0.189   6.051 -0.3204  0.4889 -0.0641
 1112SOL     hw 4446   2.396   0.119   5.985  0.4868  1.3769 -0.9965
 1112SOL     hw 4447   2.300   0.216   6.051 -0.3983  0.2477 -0.5787
 1112SOL     vw 4448   2.380   0.183   6.042 -0.2242  0.5742 -0.2551
 1113SOL     ow 4449   0.266   6.300   0.490  0.2086 -0.5627  0.5485
 1113SOL     hw 4450   0.264   6.225   0.430  3.8502 -0.1370 -0.3382
 1113SOL     hw 4451   0.344   6.286   0.543  1.2278  2.6856  0.1243
 1113SOL     vw 4452   0.276   6.288   0.489  0.8236 -0.0775  0.3755
 1114SOL     ow 4453   4.726   1.609   6.220 -0.1120  0.0536  0.2831
 1114SOL     hw 4454   4.751   1.533   6.167  1.2918  1.3102 -0.9728
 1114SOL     hw 4455   4.667   1.574   6.287 -2.6223 -1.5547 -2.5230
 1114SOL     vw 4456   4.721   1.595   6.222 -0.2580  0.0072 -0.2530
 1115SOL     ow 4457   1.700   2.802   5.503  0.3245  0.0940 -0.0164
 1115SOL     hw 4458   1.758   2.750   5.559  1.4226  1.4435  0.1645
 1115SOL     hw 4459   1.665   2.869   5.561  0.9523  1.1014 -0.7635
 1115SOL     vw 4460   1.703   2.804   5.518  0.5522  0.4051 -0.0911
 1116SOL     ow 4461   2.814   0.670   2.650 -0.1816 -0.1127  0.2793
 1116SOL     hw 4462   2.872   0.621   2.708 -1.6227 -2.0062  0.2270
 1116SOL     hw 4463   2.728   0.662   2.690 -0.9433 -0.0807 -1.2662
 1116SOL     vw 4464   2.810   0.663   2.663 -0.4723 -0.3583  0.0684
 1117SOL     ow 4465   1.473   5.039   4.560 -0.4158  0.0094 -0.3051
 1117SOL     hw 4466   1.379   5.059   4.566 -0.4859 -0.6598  1.2073
 1117SOL     hw 4467   1.499   5.073   4.475 -1.9554  0.5447 -0.5932
 1117SOL     vw 4468   1.464   5.046   4.550 -0.6282 -0.0083 -0.1433
 1118SOL     ow 4469   3.281   2.844   1.947  0.2467 -0.1189 -0.1896
 1118SOL     hw 4470   3.326   2.797   1.878  2.8099  1.7055  0.0931
 1118SOL     hw 4471   3.196   2.867   1.909  1.6461  1.0547 -2.9379
 1118SOL     vw 4472   3.276   2.841   1.933  0.7696  0.2767 -0.5149
 1119SOL     ow 4473   5.306   3.991   7.085 -0.0260  0.6123  0.2033
 1119SOL     hw 4474   5.357   3.986   7.004 -0.5720  0.2189 -0.1189
 1119SOL     hw 4475   5.215   3.976   7.058 -0.3402  1.4272  0.7493
 1119SOL     vw 4476   5.301   3.989   7.071 -0.1392  0.6679  0.2325
 1120SOL     ow 4477   5.729   5.073   2.202 -0.1148  0.0113 -0.0685
 1120SOL     hw 4478   5.659   5.125   2.163 -2.5929 -1.4794  2.0682
 1120SOL     hw 4479   5.758   5.125   2.277 -0.0789 -0.1006 -0.0043
 1120SOL     vw 4480   5.724   5.087   2.207 -0.4370 -0.2000  0.2220
 1121SOL     ow 4481   3.442   5.467   0.731 -0.3611 -0.2692 -0.7634
 1121SOL     hw 4482   3.391   5.456   0.651 -0.2666  0.3885 -0.9197
 1121SOL     hw 4483   3.397   5.538   0.778  1.0808  1.1822 -1.4742
 1121SOL     vw 4484   3.429   5.475   0.727 -0.1584  0.0093 -0.8778
 1122SOL     ow 4485   2.076   5.902   7.140 -0.3664  1.0615 -0.2287
 1122SOL     hw 4486   2.107   5.923   7.228 -1.7192 -0.5730  0.7050
 1122SOL     hw 4487   2.068   5.807   7.140 -0.3715  1.0218 -2.1596
 1122SOL     vw 4488   2.079   5.892   7.152 -0.5455  0.8407 -0.3600
 1123SOL     ow 4489   0.804   4.532   6.277  0.3988 -0.0340 -0.0802
 1123SOL     hw 4490   0.756   4.603   6.234  3.4089  0.8811 -2.2468
 1123SOL     hw 4491   0.810   4.463   6.211  1.3572 -0.4284  0.4022
 1123SOL     vw 4492   0.799   4.533   6.263  0.9224  0.0350 -0.3023
 1124SOL     ow 4493   5.774   6.212   5.729  0.2434  0.6301  0.3366
 1124SOL     hw 4494   5.846   6.155   5.753  0.2123 -0.4543 -1.9067
 1124SOL     hw 4495   5.714   6.207   5.803  0.2611 -2.2585  0.2628
 1124SOL     vw 4496   5.775   6.204   5.742  0.2415  0.1056  0.0308
 1125SOL     ow 4497   6.106   2.976   5.704 -0.4930  0.7008 -0.3128
 1125SOL     hw 4498   6.030   2.952   5.757  0.0990  0.8879  0.6455
 1125SOL     hw 4499   6.167   3.015   5.766 -0.1442  1.7793 -1.2951
 1125SOL     vw 4500   6.104   2.978   5.719 -0.3688  0.8677 -0.3157
 1126SOL     ow 4501   1.003   5.489   3.748 -0.4787  0.0324  0.6400
 1126SOL     hw 4502   0.995   5.394   3.755 -0.7313  0.1160  1.7587
 1126SOL     hw 4503   0.957   5.522   3.825 -0.6139  1.0746  0.1230
 1126SOL     vw 4504   0.996   5.481   3.759 -0.5299  0.1810  0.7194
 1127SOL     ow 4505   3.689   6.895   6.242  0.1664  0.0868 -0.4750
 1127SOL     hw 4506   3.663   6.986   6.259 -0.9228 -0.1460 -0.8491
 1127SOL     hw 4507   3.776   6.903   6.202  1.0707  0.8331  1.4981
 1127SOL     vw 4508   3.697   6.908   6.239  0.1420  0.1545 -0.2644
 1128SOL     ow 4509   6.321   6.917   5.188 -0.7672  0.0057 -0.3517
 1128SOL     hw 4510   6.264   6.963   5.126  0.9174 -0.5506 -2.4303
 1128SOL     hw 4511   6.391   6.981   5.207 -0.8866 -0.0873  0.4049
 1128SOL     vw 4512   6.323   6.932   5.182 -0.5608 -0.0803 -0.5260
 1129SOL     ow 4513   4.246   0.953   1.404  0.1546 -0.6895  0.0078
 1129SOL     hw 4514   4.203   0.948   1.490 -0.0337  3.6758  0.4011
 1129SOL     hw 4515   4.174   0.972   1.343  0.7684  1.1428 -0.2161
 1129SOL     vw 4516   4.231   0.955   1.408  0.2108  0.1282  0.0302
 1130SOL     ow 4517   2.613   6.635   5.614  0.6346 -0.2336  0.0607
 1130SOL     hw 4518   2.566   6.597   5.688  1.8081  1.2032  1.6070
 1130SOL     hw 4519   2.567   6.716   5.595  0.3186 -0.6117 -0.8322
 1130SOL     vw 4520   2.601   6.641   5.621  0.7477 -0.0939  0.1466
 1131SOL     ow 4521   3.390   1.255   4.430  0.0992 -0.4907 -0.4042
 1131SOL     hw 4522   3.472   1.211   4.452  0.6131  1.1691  1.2371
 1131SOL     hw 4523   3.327   1.222   4.494  0.0602 -0.1280 -0.2514
 1131SOL     vw 4524   3.393   1.245   4.441  0.1619 -0.2238 -0.1671
 1132SOL     ow 4525   5.783   1.837   3.999 -0.4844 -0.2488  0.8349
 1132SOL     hw 4526   5.786   1.888   3.918 -1.1719  1.7315  1.9920
 1132SOL     hw 4527   5.718   1.768   3.982 -1.9012  1.1848  0.2568
 1132SOL     vw 4528   5.774   1.834   3.986 -0.7622  0.2017  0.9114
 1133SOL     ow 4529   5.779   2.600   6.347 -0.0635  0.2233 -0.0691
 1133SOL     hw 4530   5.833   2.564   6.277 -0.3712 -1.0221  0.3025
 1133SOL     hw 4531   5.689   2.587   6.317 -0.1930 -0.1863  0.4767
 1133SOL     vw 4532   5.775   2.594   6.334 -0.1209  0.0050  0.0517
 1134SOL     ow 4533   4.871   2.041   2.378 -0.0141  0.1826 -0.4189
 1134SOL     hw 4534   4.859   2.080   2.292 -2.9797  0.1218 -0.1262
 1134SOL     hw 4535   4.827   1.956   2.373 -0.3959  0.2504  1.1869
 1134SOL     vw 4536   4.864   2.035   2.366 -0.4556  0.1836 -0.1684
 1135SOL     ow 4537   3.738   6.244   6.445 -0.0311  0.1684 -0.3331
 1135SOL     hw 4538   3.772   6.289   6.523 -1.4767  1.7831 -0.5634
 1135SOL     hw 4539   3.809   6.186   6.418  0.5727 -0.3576  2.0917
 1135SOL     vw 4540   3.751   6.242   6.452 -0.1422  0.3121 -0.0439
 1136SOL     ow 4541   0.050   1.554   4.407 -0.0011  0.5191 -0.5348
 1136SOL     hw 4542   0.031   1.525   4.496 -0.9099 -0.1006 -0.9133
 1136SOL     hw 4543   0.018   1.644   4.404 -1.6107 -0.0172 -0.7163
 1136SOL     vw 4544   0.043   1.562   4.418 -0.3334  0.3666 -0.6084
 1137SOL     ow 4545   1.923   4.370   3.910  0.0617  0.5702 -0.1480
 1137SOL     hw 4546   1.998   4.342   3.961  0.6350  1.5944 -0.4048
 1137SOL     hw 4547   1.855   4.305   3.928  1.7622 -1.8320 -1.8309
 1137SOL     vw 4548   1.924   4.358   3.919  0.3617  0.3881 -0.4039
 1138SOL     ow 4549   5.655   3.728   4.696  0.3919  0.0185 -0.1378
 1138SOL     hw 4550   5.636   3.756   4.785  1.1488  0.4400 -0.0951
 1138SOL     hw 4551   5.577   3.682   4.667  0.2593 -0.3775  0.8428
 1138SOL     vw 4552   5.643   3.726   4.704  0.4742  0.0221 -0.0029
 1139SOL     ow 4553   6.835   5.392   2.675 -0.5410  0.3195  0.3279
 1139SOL     hw 4554   6.813   5.484   2.661 -0.2825  0.3475  0.1042
 1139SOL     hw 4555   6.777   5.364   2.746 -1.5328  0.2989 -0.4697
 1139SOL     vw 4556   6.824   5.401   2.683 -0.6378  0.3207  0.1932
 1140SOL     ow 4557   7.067   5.502   1.221  0.3370  0.1626  0.2914
 1140SOL     hw 4558   7.001   5.452   1.269  0.6941 -0.0225  0.5953
 1140SOL     hw 4559   7.084   5.450   1.143  2.0640 -1.1971  1.4765
 1140SOL     vw 4560   7.060   5.489   1.217  0.6120 -0.0412  0.4879
 1141SOL     ow 4561   3.108   6.136   2.032  0.0960  0.2964 -0.1978
 1141SOL     hw 4562   3.126   6.043   2.046 -1.0107 -0.1261 -1.3741
 1141SOL     hw 4563   3.183   6.168   1.982  1.5727  0.6177  2.0565
 1141SOL     vw 4564   3.120   6.128   2.027  0.1447  0.2828 -0.0554
 1142SOL     ow 4565   3.142   3.482   1.525 -0.4107  0.1998  0.2415
 1142SOL     hw 4566   3.078   3.478   1.454 -0.0264  1.2721 -0.1815
 1142SOL     hw 4567   3.129   3.400   1.573 -1.8038  0.2044 -0.0822
 1142SOL     vw 4568   3.132   3.470   1.522 -0.5437  0.3419  0.1429
 1143SOL     ow 4569   0.808   6.264   6.415 -0.4003  0.3601  1.0556
 1143SOL     hw 4570   0.902   6.245   6.410 -0.4451  0.1089  1.1643
 1143SOL     hw 4571   0.775   6.205   6.483 -0.3131  1.6932  2.3298
 1143SOL     vw 4572   0.816   6.254   6.424 -0.3947  0.5028  1.2381
 1144SOL     ow 4573   4.986   6.825   2.914 -0.0798  0.2953  0.0733
 1144SOL     hw 4574   5.022   6.903   2.955  0.7956  1.8396 -3.2991
 1144SOL     hw 4575   4.891   6.833   2.927  0.0349  1.6819  0.1920
 1144SOL     vw 4576   4.978   6.836   2.921  0.0513  0.6816 -0.3560
 1145SOL     ow 4577   6.774   6.772   4.828  0.2110 -0.0764 -0.5019
 1145SOL     hw 4578   6.866   6.792   4.843 -0.0679  0.8366  0.0669
 1145SOL     hw 4579   6.737   6.853   4.792 -0.2331 -0.6445 -1.3488
 1145SOL     vw 4580   6.781   6.785   4.825  0.1156 -0.0308 -0.5388
 1146SOL     ow 4581   0.054   5.925   1.976  0.3950 -0.4085 -0.2916
 1146SOL     hw 4582   0.145   5.931   1.945  0.9075 -2.7743  0.5807
 1146SOL     hw 4583   0.058   5.954   2.067 -0.0546  0.9157 -0.6602
 1146SOL     vw 4584   0.067   5.930   1.984  0.4033 -0.5460 -0.2252
 1147SOL     ow 4585   1.280   4.800   4.410 -0.5595  0.4722 -0.0895
 1147SOL     hw 4586   1.231   4.876   4.378  0.6566  1.7429  0.9415
 1147SOL     hw 4587   1.332   4.772   4.335 -1.4338  0.2641 -0.6416
 1147SOL     vw 4588   1.280   4.806   4.395 -0.5144  0.6123 -0.0262
 1148SOL     ow 4589   6.255   3.462   2.538 -0.0043 -0.5262  0.2629
 1148SOL     hw 4590   6.218   3.533   2.484  1.2572 -2.2189 -3.0753
 1148SOL     hw 4591   6.335   3.499   2.576 -0.1731  0.2800 -0.1529
 1148SOL     vw 4592   6.260   3.477   2.536  0.1397 -0.6431 -0.2325
 1149SOL     ow 4593   3.983   4.782   6.960  0.4491  0.3224  0.0106
 1149SOL     hw 4594   3.933   4.704   6.936  0.4980  0.1482  0.4606
 1149SOL     hw 4595   3.962   4.846   6.892 -0.2700  0.2032  0.1096
 1149SOL     vw 4596   3.974   4.780   6.948  0.3606  0.2835  0.0832
 1150SOL     ow 4597   4.949   2.875   2.598  0.1992  0.1485  0.0274
 1150SOL     hw 4598   5.036   2.865   2.635  0.3197 -1.0135 -0.5267
 1150SOL     hw 4599   4.914   2.955   2.639  2.5120  2.2313 -1.7315
 1150SOL     vw 4600   4.956   2.884   2.608  0.5202  0.2699 -0.2778
 1151SOL     ow 4601   5.478   6.925   2.623  0.4471 -0.0462 -0.1995
 1151SOL     hw 4602   5.560   6.961   2.589  1.0738 -0.8041  0.4894
 1151SOL     hw 4603   5.504   6.852   2.678 -0.6323  0.4151  0.9712
 1151SOL     vw 4604   5.492   6.920   2.625  0.3874 -0.0854  0.0459
 1152SOL     ow 4605   5.812   1.884   0.158  0.2027  0.4794  0.6803
 1152SOL     hw 4606   5.721   1.878   0.127  0.6534 -0.2502 -0.5845
 1152SOL     hw 4607   5.843   1.968   0.126  1.2838 -1.0523 -2.8385
 1152SOL     vw 4608   5.804   1.894   0.150  0.4048  0.1810  0.0491
 1153SOL     ow 4609   1.453   2.406   2.625  0.8078  0.4846  0.3060
 1153SOL     hw 4610   1.399   2.430   2.550  1.3192  0.0697 -0.1999
 1153SOL     hw 4611   1.443   2.479   2.686 -2.0197 -0.5004  1.1867
 1153SOL     vw 4612   1.444   2.419   2.623  0.5022  0.2999  0.3555
 1154SOL     ow 4613   3.949   0.524   3.421  0.0264 -0.3506 -0.2051
 1154SOL     hw 4614   4.011   0.488   3.357 -0.0222 -0.5172 -0.1574
 1154SOL     hw 4615   3.869   0.538   3.372  0.3165  0.5425 -0.4426
 1154SOL     vw 4616   3.947   0.521   3.406  0.0583 -0.2548 -0.2302
 1155SOL     ow 4617   0.762   6.431   2.535  0.1041  0.8578  0.3196
 1155SOL     hw 4618   0.673   6.408   2.510 -0.2060  2.9103 -0.6234
 1155SOL     hw 4619   0.818   6.386   2.472 -0.3710  0.9816 -0.1925
 1155SOL     vw 4620   0.758   6.422   2.523  0.0005  1.1446  0.1277
 1156SOL     ow 4621   1.343   1.412   2.423  0.4245  0.7219 -0.4750
 1156SOL     hw 4622   1.328   1.468   2.347 -0.9722  1.9160  0.6050
 1156SOL     hw 4623   1.411   1.457   2.473  0.0820  0.8786 -0.1470
 1156SOL     vw 4624   1.350   1.426   2.420  0.1950  0.9001 -0.2892
 1157SOL     ow 4625   1.370   1.509   0.100  1.1287 -0.8464  0.0804
 1157SOL     hw 4626   1.289   1.459   0.104 -0.4788  1.6407  2.7115
 1157SOL     hw 4627   1.355   1.576   0.034  1.3345 -0.8460  0.0327
 1157SOL     vw 4628   1.357   1.511   0.092  0.9438 -0.5181  0.4212
 1158SOL     ow 4629   5.270   7.054   4.598 -0.4992  0.0812  0.4173
 1158SOL     hw 4630   5.268   7.076   4.505 -0.3851  1.5120  0.7315
 1158SOL     hw 4631   5.362   7.061   4.622 -0.6252  0.5121  0.7990
 1158SOL     vw 4632   5.282   7.058   4.589 -0.5007  0.3266  0.5090
 1159SOL     ow 4633   2.815   2.320   6.526 -0.6926 -0.9475 -0.2433
 1159SOL     hw 4634   2.782   2.345   6.612 -0.4859  0.1230 -0.4619
 1159SOL     hw 4635   2.763   2.372   6.464  1.1794  0.5966 -0.6068
 1159SOL     vw 4636   2.803   2.330   6.529 -0.4184 -0.6026 -0.3204
 1160SOL     ow 4637   4.207   4.580   7.059  0.0828 -0.0459 -0.1708
 1160SOL     hw 4638   4.192   4.527   6.980  0.4225  0.3385 -0.5023
 1160SOL     hw 4639   4.156   4.538   7.127  0.9771 -1.2816 -0.2262
 1160SOL     vw 4640   4.199   4.568   7.057  0.2458 -0.1581 -0.2217
 1161SOL     ow 4641   1.994   5.078   3.193  0.7579  0.4057 -0.0345
 1161SOL     hw 4642   2.026   5.155   3.145  1.5949  0.5256  0.6904
 1161SOL     hw 4643   2.027   5.090   3.282 -0.4435 -0.0166  0.4815
 1161SOL     vw 4644   2.003   5.090   3.198  0.7098  0.3662  0.1292
 1162SOL     ow 4645   2.128   4.191   0.828 -0.2192  0.0440 -0.6437
 1162SOL     hw 4646   2.046   4.240   0.825  0.8907  2.0402 -0.5090
 1162SOL     hw 4647   2.156   4.186   0.737 -0.0829  0.1474 -0.6089
 1162SOL     vw 4648   2.121   4.197   0.816 -0.0547  0.3209 -0.6213
 1163SOL     ow 4649   1.777   1.707   6.451 -0.2054 -0.0333  0.2903
 1163SOL     hw 4650   1.764   1.722   6.544 -0.9087 -0.1481  0.2178
 1163SOL     hw 4651   1.701   1.746   6.409  0.5026  0.7406 -0.3109
 1163SOL     vw 4652   1.765   1.714   6.458 -0.2048  0.0536  0.2015
 1164SOL     ow 4653   4.386   2.579   5.166 -0.1768 -0.3689  0.0547
 1164SOL     hw 4654   4.443   2.636   5.217  0.9179 -0.2625 -1.2353
 1164SOL     hw 4655   4.308   2.632   5.150 -0.1564 -0.0920  0.8575
 1164SOL     vw 4656   4.383   2.594   5.171 -0.0298 -0.3183 -0.0095
 1165SOL     ow 4657   7.090   1.836   1.561  0.3157  0.2379 -0.6044
 1165SOL     hw 4658   7.130   1.919   1.586  1.7203  0.0277 -2.0300
 1165SOL     hw 4659   7.028   1.859   1.491 -2.6865  0.6454  1.9414
 1165SOL     vw 4660   7.087   1.850   1.555  0.1049  0.2639 -0.4566
 1166SOL     ow 4661   4.460   3.152   4.452 -0.2596  0.3979  0.3130
 1166SOL     hw 4662   4.530   3.178   4.512  0.7427  0.0683 -0.6797
 1166SOL     hw 4663   4.385   3.134   4.509  1.0873 -1.3920  1.6451
 1166SOL     vw 4664   4.459   3.153   4.467  0.0505  0.1183  0.3579
 1167SOL     ow 4665   3.088   6.126   4.771  0.4997 -0.0004  0.1402
 1167SOL     hw 4666   3.164   6.069   4.763  0.8138  0.5497 -0.9558
 1167SOL     hw 4667   3.119   6.212   4.744 -0.2890  0.4326  0.5482
 1167SOL     vw 4668   3.102   6.130   4.766  0.4371  0.1295  0.0494
 1168SOL     ow 4669   6.682   6.895   0.694 -0.6394  0.5390  0.3168
 1168SOL     hw 4670   6.699   6.977   0.647 -0.5052 -0.4344 -1.4133
 1168SOL     hw 4671   6.602   6.861   0.654 -1.0828  0.1400  1.4996
 1168SOL     vw 4672   6.674   6.901   0.683 -0.6802  0.3576  0.2446
 1169SOL     ow 4673   7.144   0.040   1.191 -0.4299  0.2211  0.2392
 1169SOL     hw 4674   7.231   0.070   1.164 -0.5477  2.1869  1.7390
 1169SOL     hw 4675   7.152  -0.055   1.196  1.1071  0.2173 -1.3280
 1169SOL     vw 4676   7.157   0.031   1.188 -0.2427  0.4800  0.2303
 1170SOL     ow 4677   1.965   7.059   4.101 -0.4736  0.4791  0.3910
 1170SOL     hw 4678   1.880   7.034   4.136 -0.2368 -1.7441 -0.4487
 1170SOL     hw 4679   1.960   7.038   4.007  0.9755  0.2894  0.3248
 1170SOL     vw 4680   1.953   7.053   4.093 -0.2511  0.1609  0.2716
 1171SOL     ow 4681   1.200   1.992   5.749  0.2656  0.4184 -0.1609
 1171SOL     hw 4682   1.206   1.940   5.829  0.0659  1.3447  0.4697
 1171SOL     hw 4683   1.224   2.081   5.776 -0.4675  0.8800 -0.9814
 1171SOL     vw 4684   1.204   1.997   5.763  0.1425  0.6016 -0.1860
 1172SOL     ow 4685   6.784   5.645   2.632  0.3931 -0.0241 -0.0179
 1172SOL     hw 4686   6.869   5.642   2.587  0.0718  0.5841 -0.6898
 1172SOL     hw 4687   6.720   5.623   2.564  0.0081 -0.5507  0.5021
 1172SOL     vw 4688   6.787   5.642   2.617  0.2997 -0.0134 -0.0380
 1173SOL     ow 4689   6.168   4.238   4.223  0.3268 -0.0960  0.0241
 1173SOL     hw 4690   6.117   4.310   4.184  0.3004  0.5496  1.2100
 1173SOL     hw 4691   6.248   4.235   4.171  0.2376  0.6592 -0.1785
 1173SOL     vw 4692   6.172   4.247   4.211  0.3114  0.0887  0.1540
 1174SOL     ow 4693   3.946   2.001   6.167  0.0319 -0.5707  0.3609
 1174SOL     hw 4694   3.988   2.059   6.230  0.2684  1.0018 -1.1638
 1174SOL     hw 4695   4.007   1.995   6.094 -1.2581 -0.3457 -0.7872
 1174SOL     vw 4696   3.959   2.008   6.166 -0.1072 -0.3335  0.0086
 1175SOL     ow 4697   6.458   5.497   5.122  0.3715 -0.4071 -0.1409
 1175SOL     hw 4698   6.552   5.509   5.107  0.4973 -2.2182 -1.1695
 1175SOL     hw 4699   6.422   5.585   5.122  1.7071  0.2315 -2.4854
 1175SOL     vw 4700   6.466   5.510   5.120  0.5643 -0.5617 -0.5858
 1176SOL     ow 4701   0.141   3.924   6.656 -0.2161  0.0313  0.0177
 1176SOL     hw 4702   0.109   3.856   6.597 -1.4468 -0.5367  1.2632
 1176SOL     hw 4703   0.073   3.991   6.654  0.0070  0.2714  0.3481
 1176SOL     vw 4704   0.128   3.924   6.648 -0.3490 -0.0120  0.2258
 1177SOL     ow 4705   4.833   4.381   0.695 -0.0185  0.4627  0.2183
 1177SOL     hw 4706   4.746   4.355   0.667 -0.3040  1.6388 -0.0264
 1177SOL     hw 4707   4.888   4.305   0.675 -0.5281  0.6046 -1.9356
 1177SOL     vw 4708   4.829   4.367   0.689 -0.1235  0.6363 -0.0982
 1178SOL     ow 4709   5.789   1.887   3.729 -0.0804 -0.6256  0.1533
 1178SOL     hw 4710   5.734   1.964   3.744  0.7297  0.1410 -0.7371
 1178SOL     hw 4711   5.728   1.820   3.697 -0.6347 -0.0346 -0.0497
 1178SOL     vw 4712   5.774   1.888   3.727 -0.0467 -0.4465  0.0091
 1179SOL     ow 4713   6.867   5.682   1.671 -0.2231 -0.2570 -0.5020
 1179SOL     hw 4714   6.948   5.733   1.665  1.3041 -2.4802 -0.0171
 1179SOL     hw 4715   6.810   5.734   1.728  0.4230  1.8238 -1.6437
 1179SOL     vw 4716   6.870   5.696   1.678  0.0634 -0.2759 -0.5887
 1180SOL     ow 4717   1.677   2.742   7.136 -0.5753 -0.6994  0.5094
 1180SOL     hw 4718   1.683   2.694   7.053  0.9341 -1.2972  0.9330
 1180SOL     hw 4719   1.583   2.753   7.151 -0.8870  0.3194 -1.7762
 1180SOL     vw 4720   1.665   2.737   7.127 -0.4173 -0.6440  0.2635
 1181SOL     ow 4721   5.167   1.153   1.158 -0.1294 -0.0078  0.0731
 1181SOL     hw 4722   5.165   1.060   1.180  0.1894 -0.0405 -0.0475
 1181SOL     hw 4723   5.258   1.180   1.171 -0.1584  0.2196 -0.1892
 1181SOL     vw 4724   5.178   1.145   1.163 -0.0913  0.0179  0.0226
 1182SOL     ow 4725   5.471   2.032   3.033  0.0559  0.0082 -0.0335
 1182SOL     hw 4726   5.400   1.982   2.993 -0.1207 -1.7716  2.3170
 1182SOL     hw 4727   5.426   2.090   3.095  0.4935  0.8247 -0.4716
 1182SOL     vw 4728   5.455   2.033   3.036  0.0904 -0.1190  0.2187
 1183SOL     ow 4729   4.457   6.685   3.956  0.1614  0.3292 -0.6746
 1183SOL     hw 4730   4.478   6.592   3.960  0.6066  0.4606  0.1043
 1183SOL     hw 4731   4.363   6.689   3.975  0.3396  0.1173  0.2970
 1183SOL     vw 4732   4.447   6.673   3.959  0.2437  0.3185 -0.4437
 1184SOL     ow 4733   5.100   1.439   3.255  0.0192  0.6246  0.1872
 1184SOL     hw 4734   5.077   1.471   3.342  0.5677 -0.7992  0.8918
 1184SOL     hw 4735   5.184   1.480   3.235  0.3031  0.3162  0.7096
 1184SOL     vw 4736   5.108   1.448   3.264  0.1292  0.3960  0.3490
 1185SOL     ow 4737   0.414   3.952   6.741  0.4874 -1.2210  0.1626
 1185SOL     hw 4738   0.494   3.954   6.793  0.2952 -4.2059  0.7224
 1185SOL     hw 4739   0.436   3.901   6.664 -0.3729 -0.3371 -0.7051
 1185SOL     vw 4740   0.427   3.946   6.738  0.3485 -1.4981  0.1218
 1186SOL     ow 4741   5.199   6.911   5.219 -0.2183 -0.1922 -0.5669
 1186SOL     hw 4742   5.208   6.820   5.248  1.4102  0.3661  0.7691
 1186SOL     hw 4743   5.200   6.905   5.123  3.2946 -1.3439 -0.5849
 1186SOL     vw 4744   5.200   6.898   5.210  0.4601 -0.2706 -0.3929
 1187SOL     ow 4745   6.873   3.782   0.595 -0.6427 -0.1496 -0.3584
 1187SOL     hw 4746   6.886   3.795   0.501 -0.8486  1.4487 -0.1968
 1187SOL     hw 4747   6.803   3.843   0.618 -0.3181 -0.2294  0.9138
 1187SOL     vw 4748   6.865   3.792   0.586 -0.6273  0.0507 -0.1692
 1188SOL     ow 4749   1.848   1.698   4.890  0.3823 -0.1436  0.0399
 1188SOL     hw 4750   1.817   1.608   4.877  0.4731 -0.3706  1.2417
 1188SOL     hw 4751   1.769   1.748   4.908  0.2372  0.2005 -1.4720
 1188SOL     vw 4752   1.834   1.693   4.891  0.3751 -0.1281 -0.0007
 1189SOL     ow 4753   1.136   3.391   3.285 -0.3725 -0.0821 -0.3516
 1189SOL     hw 4754   1.114   3.479   3.255 -1.2036 -0.0810  0.2298
 1189SOL     hw 4755   1.142   3.339   3.205 -1.4821  0.1560 -0.6108
 1189SOL     vw 4756   1.134   3.396   3.271 -0.6285 -0.0504 -0.3092
 1190SOL     ow 4757   2.920   3.702   0.596  0.0432  0.0140  0.6404
 1190SOL     hw 4758   2.907   3.721   0.689  0.2207  1.3004  0.4208
 1190SOL     hw 4759   2.885   3.778   0.551  0.4303 -0.3648 -0.3298
 1190SOL     vw 4760   2.914   3.714   0.602  0.1175  0.1336  0.4835
 1191SOL     ow 4761   6.847   7.085   0.867  0.5727  0.2957 -0.0181
 1191SOL     hw 4762   6.820   7.133   0.789 -0.3035 -0.1925 -0.0314
 1191SOL     hw 4763   6.840   7.148   0.939 -0.7106  0.1711 -0.0088
 1191SOL     vw 4764   6.842   7.099   0.866  0.2875  0.2151 -0.0187
 1192SOL     ow 4765   4.724   5.590   0.435  0.0159  0.0116  0.2989
 1192SOL     hw 4766   4.668   5.593   0.513 -0.0910  1.5453  0.1940
 1192SOL     hw 4767   4.787   5.520   0.453 -1.2842 -1.0746  0.8485
 1192SOL     vw 4768   4.725   5.581   0.448 -0.1695  0.0706  0.3575
 1193SOL     ow 4769   6.640   2.576   2.973  0.1093 -0.3862 -0.3826
 1193SOL     hw 4770   6.652   2.485   2.998  0.4549  0.0260  1.0628
 1193SOL     hw 4771   6.729   2.608   2.957  0.3856  0.5212  2.3575
 1193SOL     vw 4772   6.654   2.568   2.974  0.1910 -0.2120  0.1698
 1194SOL     ow 4773   2.990   4.074   5.110 -0.4008  0.2028  0.1450
 1194SOL     hw 4774   2.968   4.053   5.201 -0.6862  0.9201  0.2466
 1194SOL     hw 4775   2.910   4.111   5.073 -1.2570 -2.7518 -1.2972
 1194SOL     vw 4776   2.977   4.076   5.117 -0.5516 -0.0923 -0.0319
 1195SOL     ow 4777   6.637   2.805   6.957 -0.3082  0.5139  0.2015
 1195SOL     hw 4778   6.586   2.880   6.988 -1.7589 -0.8305  1.1612
 1195SOL     hw 4779   6.608   2.793   6.867  1.3682  2.2598 -0.6500
 1195SOL     vw 4780   6.627   2.814   6.949 -0.2785  0.5668  0.2158
 1196SOL     ow 4781   6.411   6.299   5.780  0.4732  0.0428  0.6071
 1196SOL     hw 4782   6.424   6.369   5.717 -1.5050  0.4874  0.6470
 1196SOL     hw 4783   6.485   6.307   5.840  1.9045  0.1812 -1.0689
 1196SOL     vw 4784   6.422   6.309   5.779  0.4013  0.1194  0.3912
 1197SOL     ow 4785   5.194   1.211   3.189 -0.0074 -0.0729  0.2201
 1197SOL     hw 4786   5.138   1.286   3.207  1.5913  1.1043  0.4960
 1197SOL     hw 4787   5.278   1.233   3.229  1.1678 -1.0313 -1.5673
 1197SOL     vw 4788   5.198   1.224   3.196  0.3586 -0.0440  0.0207
 1198SOL     ow 4789   4.254   2.559   2.658  0.1807  0.0537  0.4457
 1198SOL     hw 4790   4.202   2.596   2.730  0.9394  0.1874  0.9390
 1198SOL     hw 4791   4.315   2.500   2.702  0.6892  0.1804 -0.0897
 1198SOL     vw 4792   4.255   2.556   2.673  0.3479  0.0880  0.4401
 1199SOL     ow 4793   6.964   5.939   5.923 -0.1260  0.4558 -0.0969
 1199SOL     hw 4794   6.922   6.025   5.922 -0.2374  0.5396  2.7243
 1199SOL     hw 4795   7.043   5.952   5.976  0.4762 -0.9357 -0.6074
 1199SOL     vw 4796   6.969   5.952   5.930 -0.0615  0.2832  0.2081
 1200SOL     ow 4797   2.309   4.784   5.820 -0.1081 -0.3640  0.4630
 1200SOL     hw 4798   2.214   4.778   5.819 -0.0781 -0.8192 -0.7763
 1200SOL     hw 4799   2.329   4.840   5.895 -1.3826  0.4432  0.2210
 1200SOL     vw 4800   2.299   4.791   5.830 -0.2722 -0.3176  0.2675
 1201SOL     ow 4801   6.893   2.746   7.138  0.3519 -0.0600 -0.4961
 1201SOL     hw 4802   6.937   2.808   7.080 -1.8894  2.4796  0.3449
 1201SOL     hw 4803   6.930   2.765   7.225 -1.2643  1.1094 -0.0218
 1201SOL     vw 4804   6.904   2.757   7.142 -0.1571  0.4294 -0.3226
 1202SOL     ow 4805   5.163   3.821   4.485  0.2665  0.3172  0.1322
 1202SOL     hw 4806   5.165   3.863   4.400 -2.4922 -1.3399 -0.8992
 1202SOL     hw 4807   5.154   3.893   4.548  1.3931  1.5061 -1.0310
 1202SOL     vw 4808   5.162   3.836   4.482  0.0513  0.2555 -0.1576
 1203SOL     ow 4809   5.112   5.519   4.430 -0.7092  0.3957  0.1695
 1203SOL     hw 4810   5.045   5.587   4.439  0.5472  1.5298  1.3258
 1203SOL     hw 4811   5.116   5.478   4.516 -0.0699  0.1867  0.0463
 1203SOL     vw 4812   5.103   5.523   4.442 -0.4592  0.5178  0.3059
 1204SOL     ow 4813   6.036   6.436   5.192  0.1204 -0.4884  0.3829
 1204SOL     hw 4814   6.119   6.390   5.179  0.6910  0.8941 -1.2399
 1204SOL     hw 4815   5.972   6.367   5.205  1.3697 -1.6192  0.7623
 1204SOL     vw 4816   6.039   6.421   5.192  0.3607 -0.4554  0.2186
 1205SOL     ow 4817   6.435   4.185   6.682 -0.2416 -0.4092 -0.0487
 1205SOL     hw 4818   6.369   4.254   6.668  0.7818  0.6304  0.0580
 1205SOL     hw 4819   6.434   4.170   6.776 -0.4060 -0.4774 -0.0607
 1205SOL     vw 4820   6.426   4.192   6.692 -0.1285 -0.2813 -0.0362
 1206SOL     ow 4821   7.055   4.002   0.626  0.2079 -0.2477  0.0205
 1206SOL     hw 4822   6.988   3.937   0.646  0.3553 -1.7218 -3.5900
 1206SOL     hw 4823   7.009   4.085   0.622 -0.3540 -0.3398  2.6495
 1206SOL     vw 4824   7.040   4.004   0.628  0.1533 -0.4547 -0.1090
 1207SOL     ow 4825   3.520   4.349   5.754 -0.0317 -0.0120  0.0027
 1207SOL     hw 4826   3.453   4.380   5.816 -0.4139 -0.7484 -0.0310
 1207SOL     hw 4827   3.595   4.328   5.809  0.3601  1.2644 -0.0054
 1207SOL     vw 4828   3.521   4.351   5.769 -0.0304  0.0594 -0.0031
 1208SOL     ow 4829   2.735   1.680   7.024 -0.6594 -0.2008 -0.3207
 1208SOL     hw 4830   2.788   1.649   6.950 -0.3071 -2.3725  0.7495
 1208SOL     hw 4831   2.700   1.764   6.995 -1.1849 -1.3234 -3.2817
 1208SOL     vw 4832   2.738   1.687   7.010 -0.6824 -0.6355 -0.5698
 1209SOL     ow 4833   7.053   4.466   0.926 -0.0471 -0.4582 -0.7111
 1209SOL     hw 4834   7.049   4.384   0.975  3.0927  0.3188  1.1575
 1209SOL     hw 4835   6.972   4.512   0.950 -0.1435 -1.5058  1.1978
 1209SOL     vw 4836   7.041   4.461   0.936  0.3543 -0.4940 -0.2127
 1210SOL     ow 4837   0.534   1.122   3.545 -0.7207  0.2613 -0.0487
 1210SOL     hw 4838   0.519   1.216   3.559 -0.9748  0.2601 -0.3154
 1210SOL     hw 4839   0.628   1.115   3.529 -0.2283  0.1730  2.4441
 1210SOL     vw 4840   0.544   1.134   3.545 -0.6892  0.2494  0.2450
 1211SOL     ow 4841   6.740   5.083   2.579  0.3429 -0.6498 -0.0618
 1211SOL     hw 4842   6.657   5.046   2.610  0.1025 -0.8671 -0.9399
 1211SOL     hw 4843   6.788   5.009   2.543  0.0586 -0.2084 -1.3868
 1211SOL     vw 4844   6.735   5.069   2.578  0.2737 -0.6204 -0.3523
 1212SOL     ow 4845   5.339   6.259   3.025 -0.0735 -0.4247 -0.1266
 1212SOL     hw 4846   5.358   6.331   2.966 -2.0967  0.0545 -0.2866
 1212SOL     hw 4847   5.349   6.180   2.971 -0.0211 -0.1174 -0.5723
 1212SOL     vw 4848   5.342   6.258   3.010 -0.3333 -0.3211 -0.2065
 1213SOL     ow 4849   6.865   5.702   6.042  0.2916  0.4274  0.5925
 1213SOL     hw 4850   6.839   5.700   6.134 -0.3290  1.0279  0.4432
 1213SOL     hw 4851   6.925   5.777   6.035  1.1275 -0.2225  0.6970
 1213SOL     vw 4852   6.869   5.712   6.053  0.3200  0.4210  0.5865
 1214SOL     ow 4853   0.765   5.635   6.796 -0.2469 -0.4348  0.5904
 1214SOL     hw 4854   0.856   5.646   6.824  0.1524 -3.0900  0.5725
 1214SOL     hw 4855   0.756   5.542   6.778 -2.9138 -0.2086  0.2928
 1214SOL     vw 4856   0.776   5.624   6.798 -0.5461 -0.7553  0.5486
 1215SOL     ow 4857   3.543   0.114   6.888  0.2107 -0.2197  0.0549
 1215SOL     hw 4858   3.619   0.096   6.834 -0.3912 -1.3528 -0.4407
 1215SOL     hw 4859   3.576   0.113   6.978  0.8223 -0.3871 -0.1694
 1215SOL     vw 4860   3.557   0.112   6.893  0.2120 -0.3912 -0.0403
 1216SOL     ow 4861   4.657   0.453   5.178 -0.1294  0.2575 -0.5395
 1216SOL     hw 4862   4.725   0.409   5.127  0.7534  0.7279  0.2140
 1216SOL     hw 4863   4.615   0.382   5.227  0.2340  0.0529 -0.5242
 1216SOL     vw 4864   4.660   0.438   5.178  0.0350  0.2926 -0.4380
 1217SOL     ow 4865   4.173   1.462   1.304 -0.1291  0.7687  0.5230
 1217SOL     hw 4866   4.221   1.541   1.329  0.3722  1.7463 -2.9596
 1217SOL     hw 4867   4.225   1.424   1.234 -2.6927 -0.0075 -1.0977
 1217SOL     vw 4868   4.186   1.468   1.298 -0.4010  0.7952 -0.1504
 1218SOL     ow 4869   2.756   5.446   2.231 -0.1060  0.6468 -0.0797
 1218SOL     hw 4870   2.670   5.485   2.216  0.7202  3.0458  0.9626
 1218SOL     hw 4871   2.783   5.415   2.144 -0.1174  4.0571 -1.4806
 1218SOL     vw 4872   2.748   5.447   2.217  0.0014  1.4129 -0.1268
 1219SOL     ow 4873   5.211   0.554   0.359 -0.9382  0.6256  0.5528
 1219SOL     hw 4874   5.284   0.610   0.386  2.0433 -2.4982 -0.2701
 1219SOL     hw 4875   5.214   0.481   0.421 -1.0277 -1.2927 -1.6092
 1219SOL     vw 4876   5.221   0.552   0.371 -0.5569 -0.0397  0.1590
 1220SOL     ow 4877   4.706   3.819   4.877 -0.5259  0.1829 -0.0094
 1220SOL     hw 4878   4.625   3.778   4.846 -0.9594  0.5236  0.6540
 1220SOL     hw 4879   4.772   3.793   4.812 -0.6363 -2.1129  0.7060
 1220SOL     vw 4880   4.704   3.810   4.864 -0.5977 -0.0752  0.1726
 1221SOL     ow 4881   4.578   6.913   4.588  0.3058  0.6185  0.4220
 1221SOL     hw 4882   4.518   6.839   4.581 -1.6029  1.9572  1.7778
 1221SOL     hw 4883   4.664   6.872   4.603 -0.5033 -1.3270  0.0459
 1221SOL     vw 4884   4.582   6.898   4.589 -0.0529  0.5383  0.5510
 1222SOL     ow 4885   7.164   3.312   2.585  0.5385  0.4245  0.6383
 1222SOL     hw 4886   7.207   3.385   2.542  3.6283 -1.2491  0.5889
 1222SOL     hw 4887   7.194   3.235   2.537 -0.3179 -1.0700  2.3904
 1222SOL     vw 4888   7.174   3.311   2.573  0.8333  0.0066  0.8628
 1223SOL     ow 4889   1.903   3.503   4.258 -0.2039 -0.1413 -0.4517
 1223SOL     hw 4890   1.849   3.571   4.298 -0.3350 -0.9837  0.8600
 1223SOL     hw 4891   1.917   3.533   4.168 -1.1304  1.0929 -0.2072
 1223SOL     vw 4892   1.898   3.516   4.251 -0.3434 -0.0896 -0.2465
 1224SOL     ow 4893   3.340   3.910   0.555  0.4041  0.3353 -0.2227
 1224SOL     hw 4894   3.432   3.929   0.534 -0.0433  1.0137 -1.7097
 1224SOL     hw 4895   3.299   3.895   0.470 -0.9373  0.3309  0.4018
 1224SOL     vw 4896   3.347   3.910   0.541  0.1681  0.4241 -0.3365
 1225SOL     ow 4897   2.955   5.204   5.990 -0.2270  0.0067  0.0959
 1225SOL     hw 4898   3.041   5.238   6.017 -0.7580  0.6449  1.0555
 1225SOL     hw 4899   2.898   5.280   5.991 -0.7732 -0.3783 -0.7368
 1225SOL     vw 4900   2.959   5.218   5.994 -0.3692  0.0403  0.1125
 1226SOL     ow 4901   4.928   6.207   1.206  0.2061 -0.4199  0.3177
 1226SOL     hw 4902   4.946   6.249   1.121  0.1597  2.0048  1.4064
 1226SOL     hw 4903   4.935   6.114   1.189 -2.5140 -0.2317 -3.0340
 1226SOL     vw 4904   4.931   6.200   1.192 -0.1585 -0.0751  0.0192
 1227SOL     ow 4905   3.295   6.486   1.431 -0.4904  0.4761 -0.2360
 1227SOL     hw 4906   3.281   6.393   1.419 -1.4456  0.4773  0.7116
 1227SOL     hw 4907   3.381   6.492   1.474 -0.8965 -0.0483  0.6810
 1227SOL     vw 4908   3.305   6.475   1.435 -0.6701  0.4072  0.0100
 1228SOL     ow 4909   6.727   2.047   4.135  0.2185 -0.5896 -0.4791
 1228SOL     hw 4910   6.805   2.054   4.191 -1.2361 -1.0048  1.7149
 1228SOL     hw 4911   6.679   1.972   4.170 -3.0886  1.8970  0.8460
 1228SOL     vw 4912   6.731   2.038   4.147 -0.4096 -0.3164 -0.0145
 1229SOL     ow 4913   1.956   4.078   3.581 -0.1790 -0.4037  0.0158
 1229SOL     hw 4914   1.879   4.133   3.589 -0.8179 -1.1799 -0.5793
 1229SOL     hw 4915   1.925   3.990   3.599  0.1318 -0.9933 -2.0417
 1229SOL     vw 4916   1.942   4.074   3.584 -0.2223 -0.5839 -0.3341
 1230SOL     ow 4917   1.473   4.713   4.252 -0.2664  0.9910  0.0866
 1230SOL     hw 4918   1.475   4.618   4.268 -0.4140  0.5455 -2.1938
 1230SOL     hw 4919   1.554   4.745   4.290  0.5925 -0.3339 -0.5542
 1230SOL     vw 4920   1.484   4.704   4.260 -0.1726  0.7575 -0.2987
 1231SOL     ow 4921   1.894   0.671   3.397  0.3070  0.1356  0.0947
 1231SOL     hw 4922   1.971   0.617   3.410  0.4908  0.3069 -0.2892
 1231SOL     hw 4923   1.891   0.688   3.303  0.5807  1.2736  0.2818
 1231SOL     vw 4924   1.904   0.666   3.386  0.3673  0.3084  0.0687
 1232SOL     ow 4925   2.396   3.525   2.955  0.7046 -0.3004  0.3850
 1232SOL     hw 4926   2.357   3.448   2.914 -1.2994  0.2654  1.1371
 1232SOL     hw 4927   2.328   3.592   2.951  0.8219  0.1466  3.5135
 1232SOL     vw 4928   2.382   3.524   2.949  0.4557 -0.1668  0.8972
 1233SOL     ow 4929   0.808   5.251   6.948 -0.2650 -0.0085  0.7252
 1233SOL     hw 4930   0.852   5.169   6.968  2.5838  0.5757 -2.4021
 1233SOL     hw 4931   0.836   5.311   7.018  1.6168 -0.4513  0.3949
 1233SOL     vw 4932   0.817   5.248   6.960  0.3591  0.0100  0.2692
 1234SOL     ow 4933   2.362   7.151   5.912  0.4250  0.9785 -0.8143
 1234SOL     hw 4934   2.270   7.125   5.902  0.7646 -0.1133 -1.2694
 1234SOL     hw 4935   2.399   7.139   5.825  1.2282  0.4588 -0.4092
 1234SOL     vw 4936   2.355   7.146   5.899  0.5757  0.7656 -0.8211
 1235SOL     ow 4937   3.083   6.261   1.630 -0.5863  0.3764 -0.0232
 1235SOL     hw 4938   3.094   6.265   1.535  0.2986  1.0363  0.0920
 1235SOL     hw 4939   2.989   6.258   1.644 -0.7028 -1.4567 -0.9671
 1235SOL     vw 4940   3.072   6.261   1.620 -0.4849  0.2215 -0.1325
 1236SOL     ow 4941   4.196   3.983   2.337 -1.4019  0.3127  0.3519
 1236SOL     hw 4942   4.168   4.069   2.369 -1.0612  0.9947 -1.1025
 1236SOL     hw 4943   4.225   3.937   2.416  0.9723  2.5217  0.9264
 1236SOL     vw 4944   4.196   3.988   2.352 -1.0438  0.6942  0.2357
 1237SOL     ow 4945   6.147   0.853   6.298  0.5575 -0.4127 -0.1163
 1237SOL     hw 4946   6.208   0.872   6.227  1.2101  0.4220  0.6472
 1237SOL     hw 4947   6.197   0.868   6.378 -0.5151 -0.1117  0.5254
 1237SOL     vw 4948   6.161   0.858   6.299  0.5019 -0.2629  0.0691
 1238SOL     ow 4949   1.537   5.685   2.595  0.0422 -0.1178  0.3476
 1238SOL     hw 4950   1.533   5.726   2.681  0.5271 -0.9967  0.8038
 1238SOL     hw 4951   1.456   5.635   2.588  0.3149 -0.6015  0.5902
 1238SOL     vw 4952   1.526   5.684   2.605  0.1421 -0.2978  0.4396
 1239SOL     ow 4953   2.548   6.977   7.117  0.2837 -0.6402 -0.3227
 1239SOL     hw 4954   2.509   7.044   7.173 -2.0293 -1.2808 -1.0687
 1239SOL     hw 4955   2.486   6.966   7.045  0.9348 -3.0342 -0.6274
 1239SOL     vw 4956   2.535   6.984   7.115  0.0646 -1.0407 -0.4616
 1240SOL     ow 4957   1.178   4.747   1.891 -0.2886  0.2565  0.3416
 1240SOL     hw 4958   1.252   4.775   1.838  1.3409 -2.2192  1.1862
 1240SOL     hw 4959   1.195   4.783   1.977 -0.8017  0.7967  0.2288
 1240SOL     vw 4960   1.190   4.756   1.895 -0.1413  0.0012  0.4382
 1241SOL     ow 4961   5.700   6.335   5.513 -0.1216 -0.1451  0.4371
 1241SOL     hw 4962   5.723   6.272   5.582  1.7501 -1.2676 -1.1044
 1241SOL     hw 4963   5.680   6.280   5.437  0.1235  1.1032 -0.5548
 1241SOL     vw 4964   5.700   6.319   5.512  0.1576 -0.1285  0.1028
 1242SOL     ow 4965   4.161   7.095   1.224  0.5151  0.4449 -0.0454
 1242SOL     hw 4966   4.213   7.168   1.260  0.6308 -0.0890  0.8980
 1242SOL     hw 4967   4.210   7.017   1.249 -1.8367 -0.2656  2.9056
 1242SOL     vw 4968   4.175   7.094   1.232  0.2203  0.2809  0.4685
 1243SOL     ow 4969   2.816   2.183   1.143  0.4267  0.5023  0.3573
 1243SOL     hw 4970   2.846   2.179   1.052 -0.9861 -0.0619 -0.1164
 1243SOL     hw 4971   2.762   2.105   1.154 -0.0777  0.9758  1.4372
 1243SOL     vw 4972   2.813   2.172   1.132  0.1736  0.4904  0.4373
 1244SOL     ow 4973   2.664   5.269   0.232 -0.3366 -0.0620  0.1284
 1244SOL     hw 4974   2.709   5.341   0.187 -1.6795  1.0371  0.4790
 1244SOL     hw 4975   2.725   5.195   0.226  0.5028  0.7150 -1.4318
 1244SOL     vw 4976   2.678   5.269   0.225 -0.4030  0.1855 -0.0312
 1245SOL     ow 4977   0.630   3.678   4.996  0.2423  0.9226 -0.4375
 1245SOL     hw 4978   0.660   3.654   4.908 -3.3141 -3.1664 -0.8261
 1245SOL     hw 4979   0.711   3.692   5.045  2.4020  1.1172 -3.7244
 1245SOL     vw 4980   0.645   3.677   4.991  0.0580  0.4090 -0.9224
 1246SOL     ow 4981   6.303   0.772   3.620 -0.0408  0.2920 -0.4365
 1246SOL     hw 4982   6.349   0.736   3.544 -0.1083 -0.4927 -0.1152
 1246SOL     hw 4983   6.350   0.853   3.640  0.1334  0.3776 -1.1573
 1246SOL     vw 4984   6.315   0.778   3.613 -0.0267  0.1998 -0.4892
 1247SOL     ow 4985   4.877   0.400   0.346  0.3469  0.5266  0.0124
 1247SOL     hw 4986   4.973   0.401   0.345  0.3499  0.2965  0.0308
 1247SOL     hw 4987   4.852   0.441   0.263  0.5032 -3.3857 -2.2282
 1247SOL     vw 4988   4.886   0.406   0.335  0.3676 -0.0199 -0.2808
 1248SOL     ow 4989   0.842   0.944   0.187  0.0035 -0.2240  0.2754
 1248SOL     hw 4990   0.833   1.026   0.235 -1.6505 -0.7980  1.0019
 1248SOL     hw 4991   0.932   0.947   0.153  1.1609  0.3635  3.0971
 1248SOL     vw 4992   0.853   0.955   0.189 -0.0620 -0.2222  0.7435
 1249SOL     ow 4993   6.083   2.947   4.170 -0.1305  0.0753 -0.1843
 1249SOL     hw 4994   6.040   3.032   4.170  0.0609  0.1848  0.8109
 1249SOL     hw 4995   6.012   2.883   4.166 -0.4183  0.2539  1.3213
 1249SOL     vw 4996   6.068   2.950   4.170 -0.1433  0.1131  0.1459
 1250SOL     ow 4997   1.908   1.395   3.661  0.5566  0.1082  0.3365
 1250SOL     hw 4998   1.826   1.386   3.710 -0.3830 -0.8085 -1.3133
 1250SOL     hw 4999   1.886   1.366   3.572  2.5507  0.3439 -0.2789
 1250SOL     vw 5000   1.894   1.390   3.655  0.6958  0.0184  0.0377
 1251SOL     ow 5001   4.426   5.385   5.915 -0.7383  0.6229  0.3262
 1251SOL     hw 5002   4.513   5.411   5.886 -0.9202 -0.4841 -1.3599
 1251SOL     hw 5003   4.376   5.374   5.834 -1.5814 -1.6954  1.0860
 1251SOL     vw 5004   4.431   5.387   5.900 -0.8736  0.1712  0.2041
 1252SOL     ow 5005   2.939   4.667   6.328  0.3575  0.1678  0.3108
 1252SOL     hw 5006   2.898   4.663   6.414 -3.1150  2.0064 -1.1007
 1252SOL     hw 5007   2.915   4.584   6.286 -1.4172  0.9244 -0.2403
 1252SOL     vw 5008   2.931   4.655   6.334 -0.3349  0.5105  0.0517
 1253SOL     ow 5009   2.912   0.536   1.111 -0.6876 -0.5875  0.5706
 1253SOL     hw 5010   2.878   0.621   1.138  1.1525 -0.3321  2.3248
 1253SOL     hw 5011   2.932   0.491   1.193 -1.3490 -2.6268 -0.3269
 1253SOL     vw 5012   2.910   0.541   1.125 -0.5320 -0.8229  0.6837
 1254SOL     ow 5013   3.159   5.429   1.663 -0.4338 -0.5447 -0.7021
 1254SOL     hw 5014   3.178   5.342   1.629  0.0827  0.2926 -2.6651
 1254SOL     hw 5015   3.076   5.454   1.621 -0.1290  0.2475 -0.8531
 1254SOL     vw 5016   3.150   5.421   1.653 -0.3256 -0.3297 -0.9811
 1255SOL     ow 5017   1.725   2.723   3.750  0.1992  0.1432  0.3084
 1255SOL     hw 5018   1.708   2.813   3.724  1.5950  0.3704  0.1120
 1255SOL     hw 5019   1.818   2.721   3.772  0.7360 -1.7080 -1.7193
 1255SOL     vw 5020   1.735   2.735   3.749  0.4541 -0.0712  0.0150
 1256SOL     ow 5021   4.805   4.663   0.392  0.4971 -0.0328  0.1641
 1256SOL     hw 5022   4.735   4.641   0.330 -0.1258  2.2689 -0.0356
 1256SOL     hw 5023   4.884   4.667   0.339  0.0897  1.1909 -0.3901
 1256SOL     vw 5024   4.806   4.660   0.377  0.3610  0.4327  0.0646
 1257SOL     ow 5025   6.703   1.266   2.640  0.2842  0.0941 -0.1213
 1257SOL     hw 5026   6.614   1.269   2.674  0.2151 -2.0238  0.0586
 1257SOL     hw 5027   6.758   1.292   2.714  0.0002 -2.4481  1.1130
 1257SOL     vw 5028   6.699   1.270   2.654  0.2379 -0.5208  0.0653
 1258SOL     ow 5029   2.022   4.254   1.564  0.8786 -0.6907  0.3374
 1258SOL     hw 5030   2.009   4.299   1.648  2.6439 -1.1708  0.9021
 1258SOL     hw 5031   1.943   4.275   1.514  0.4350  0.8092  1.5712
 1258SOL     vw 5032   2.010   4.263   1.569  1.0531 -0.5560  0.5746
 1259SOL     ow 5033   3.713   5.050   2.386 -0.0383 -0.4015  0.1034
 1259SOL     hw 5034   3.692   5.030   2.295  1.0494  1.2651 -0.5697
 1259SOL     hw 5035   3.768   4.977   2.414 -0.9532 -1.2858 -0.3272
 1259SOL     vw 5036   3.718   5.038   2.377 -0.0155 -0.2983 -0.0423
 1260SOL     ow 5037   3.773   0.916   1.373 -0.3654  0.3991 -0.1633
 1260SOL     hw 5038   3.724   0.840   1.401 -0.3298  0.5725  0.3733
 1260SOL     hw 5039   3.827   0.884   1.300 -0.3996 -0.0697  0.0126
 1260SOL     vw 5040   3.774   0.902   1.367 -0.3651  0.3602 -0.0693
 1261SOL     ow 5041   0.333   1.423   6.518 -1.1469  0.0924  0.5350
 1261SOL     hw 5042   0.315   1.330   6.508  1.0151 -0.3456  0.4062
 1261SOL     hw 5043   0.314   1.441   6.611  0.0549 -0.8877  0.9962
 1261SOL     vw 5044   0.328   1.413   6.529 -0.7031 -0.0947  0.5789
 1262SOL     ow 5045   0.658   0.003   2.106  0.2948  0.5472  0.0901
 1262SOL     hw 5046   0.649   0.026   2.199 -0.5226  5.1958 -0.8916
 1262SOL     hw 5047   0.569  -0.011   2.076  0.5228 -0.5325 -0.1174
 1262SOL     vw 5048   0.645   0.005   2.114  0.2171  1.0178 -0.0669
 1263SOL     ow 5049   5.429   3.102   0.208 -0.1924 -0.4951 -0.0826
 1263SOL     hw 5050   5.347   3.085   0.161 -1.0820  0.9111  0.8866
 1263SOL     hw 5051   5.418   3.190   0.244  0.6487 -1.2884  2.3098
 1263SOL     vw 5052   5.417   3.112   0.206 -0.1993 -0.4141  0.3609
 1264SOL     ow 5053   3.586   4.471   4.465 -0.1320  0.1891 -0.4267
 1264SOL     hw 5054   3.654   4.535   4.446 -0.3139  0.2606 -0.8383
 1264SOL     hw 5055   3.508   4.504   4.420 -0.1859 -0.4016 -0.7709
 1264SOL     vw 5056   3.585   4.484   4.457 -0.1630  0.1204 -0.5264
 1265SOL     ow 5057   1.885   5.259   0.327  0.1784  0.0274 -0.3997
 1265SOL     hw 5058   1.909   5.334   0.381  2.5089 -0.0244 -1.2415
 1265SOL     hw 5059   1.858   5.192   0.389 -0.6642  1.1104  0.4409
 1265SOL     vw 5060   1.885   5.260   0.342  0.3746  0.1636 -0.3999
 1266SOL     ow 5061   6.712   1.239   2.360  0.8973 -0.1037  0.4014
 1266SOL     hw 5062   6.772   1.171   2.328  3.1385  1.9203 -0.0335
 1266SOL     hw 5063   6.743   1.259   2.448  0.3416  0.4075  0.4892
 1266SOL     vw 5064   6.724   1.233   2.367  1.1196  0.2308  0.3557
 1267SOL     ow 5065   0.915   3.264   6.503  0.5439  0.3967  0.1217
 1267SOL     hw 5066   0.944   3.274   6.413 -0.0269 -1.7167 -0.3458
 1267SOL     hw 5067   0.826   3.231   6.497 -0.2416  2.0925  1.5153
 1267SOL     vw 5068   0.907   3.261   6.491  0.3650  0.3417  0.2437
 1268SOL     ow 5069   5.774   6.636   5.546  0.1972 -0.0172 -0.0741
 1268SOL     hw 5070   5.794   6.729   5.553  1.7317 -0.2708 -0.7892
 1268SOL     hw 5071   5.852   6.592   5.581 -1.3604 -1.0600  2.3660
 1268SOL     vw 5072   5.787   6.642   5.552  0.1941 -0.1884  0.1535
 1269SOL     ow 5073   4.252   4.120   3.542 -0.1436 -0.3606  0.7986
 1269SOL     hw 5074   4.307   4.041   3.537  1.1822  0.5930 -0.7710
 1269SOL     hw 5075   4.296   4.176   3.606  0.5244  0.2143 -0.1268
 1269SOL     vw 5076   4.265   4.117   3.549  0.1192 -0.1588  0.4693
 1270SOL     ow 5077   3.602   6.302   0.721  0.6524  0.0184  0.2857
 1270SOL     hw 5078   3.593   6.396   0.740  0.0904  0.0086  0.0982
 1270SOL     hw 5079   3.695   6.290   0.703  0.7827  0.4803  0.6224
 1270SOL     vw 5080   3.613   6.313   0.721  0.5955  0.0782  0.3053
 1271SOL     ow 5081   5.281   6.258   4.199  0.4238 -0.0172 -0.4610
 1271SOL     hw 5082   5.276   6.328   4.264 -1.8458  0.4197 -1.0396
 1271SOL     hw 5083   5.365   6.272   4.156 -0.3373  2.9722 -1.1979
 1271SOL     vw 5084   5.292   6.269   4.202  0.0241  0.4351 -0.6347
 1272SOL     ow 5085   4.442   4.094   0.964 -0.3545  0.2537  0.0481
 1272SOL     hw 5086   4.370   4.081   0.903 -0.5134  0.0888  0.2701
 1272SOL     hw 5087   4.404   4.148   1.034 -0.3755 -0.1725  0.3692
 1272SOL     vw 5088   4.427   4.100   0.965 -0.3781  0.1757  0.1198
 1273SOL     ow 5089   2.989   4.920   5.960  0.1692  0.1998  0.2171
 1273SOL     hw 5090   3.073   4.935   6.002  0.5059  0.4535 -0.5360
 1273SOL     hw 5091   2.999   4.835   5.916  0.1747  0.4341 -0.2322
 1273SOL     vw 5092   3.001   4.911   5.960  0.2142  0.2642  0.0587
 1274SOL     ow 5093   5.673   4.872   5.863 -0.3756  0.3228 -0.6361
 1274SOL     hw 5094   5.747   4.812   5.848  0.9959  2.0602 -1.2093
 1274SOL     hw 5095   5.712   4.946   5.909 -1.5819  1.6310 -1.6404
 1274SOL     vw 5096   5.688   4.874   5.867 -0.3536  0.7246 -0.8442
 1275SOL     ow 5097   3.023   4.815   2.054 -0.3733  0.4614 -0.6086
 1275SOL     hw 5098   3.033   4.782   2.143  1.1824 -0.5328 -1.0996
 1275SOL     hw 5099   2.967   4.892   2.062 -0.1204  0.4839  1.2440
 1275SOL     vw 5100   3.017   4.821   2.067 -0.1347  0.3331 -0.4288
 1276SOL     ow 5101   4.880   3.752   4.707  0.2625  0.5064  0.0735
 1276SOL     hw 5102   4.962   3.800   4.720  2.0882 -1.9712 -1.4348
 1276SOL     hw 5103   4.886   3.719   4.618 -1.1711 -1.8800  0.7798
 1276SOL     vw 5104   4.892   3.754   4.697  0.3140 -0.1354 -0.0324
 1277SOL     ow 5105   0.852   4.402   4.674  0.5209 -0.7456 -0.5366
 1277SOL     hw 5106   0.902   4.475   4.711  0.8176 -0.0976 -2.1156
 1277SOL     hw 5107   0.866   4.409   4.580 -1.7113 -1.1706 -0.9647
 1277SOL     vw 5108   0.860   4.412   4.666  0.2656 -0.7162 -0.8016
 1278SOL     ow 5109   0.351   4.369   0.664  0.0219  0.4185  0.2195
 1278SOL     hw 5110   0.396   4.412   0.737  0.9239 -0.6544  0.3288
 1278SOL     hw 5111   0.384   4.279   0.665 -0.1911  0.2938 -1.3238
 1278SOL     vw 5112   0.361   4.363   0.674  0.1128  0.2604  0.0303
 1279SOL     ow 5113   2.147   2.300   4.617  0.9334  0.2315  0.4693
 1279SOL     hw 5114   2.094   2.281   4.539 -2.5815  1.1571  2.3903
 1279SOL     hw 5115   2.198   2.377   4.592 -0.8602  1.1223 -0.6752
 1279SOL     vw 5116   2.147   2.308   4.603  0.2329  0.4710  0.5720
 1280SOL     ow 5117   0.618   1.072   0.773  0.3033  0.0863  0.4225
 1280SOL     hw 5118   0.548   1.033   0.824 -0.9047  0.7835 -0.6501
 1280SOL     hw 5119   0.574   1.117   0.701  1.8827  0.0253 -0.6426
 1280SOL     vw 5120   0.603   1.073   0.771  0.3523  0.1702  0.1405
 1281SOL     ow 5121   4.785   1.787   2.891 -0.1700  0.1421  0.3068
 1281SOL     hw 5122   4.798   1.809   2.798 -0.3394  0.3966  0.3424
 1281SOL     hw 5123   4.691   1.771   2.899  0.0940 -1.7142  0.0480
 1281SOL     vw 5124   4.774   1.788   2.880 -0.1576 -0.0692  0.2774
 1282SOL     ow 5125   0.629   1.566   4.467  0.7327 -0.3684 -0.4235
 1282SOL     hw 5126   0.695   1.626   4.501 -0.7200  0.7038  0.6143
 1282SOL     hw 5127   0.624   1.496   4.532 -0.1827  0.3268  0.2792
 1282SOL     vw 5128   0.637   1.564   4.480  0.4203 -0.1352 -0.1938
 1283SOL     ow 5129   1.839   6.178   2.424  0.5703  0.3274 -0.1127
 1283SOL     hw 5130   1.932   6.155   2.430  0.8107 -0.0977 -3.4212
 1283SOL     hw 5131   1.822   6.182   2.330 -3.6126 -3.3538  0.1715
 1283SOL     vw 5132   1.849   6.175   2.413  0.0502 -0.2141 -0.5116
 1284SOL     ow 5133   2.124   6.151   2.155 -0.4416  0.1480  0.0534
 1284SOL     hw 5134   2.141   6.231   2.205 -1.9301  0.3683  0.2384
 1284SOL     hw 5135   2.165   6.082   2.207  0.0307  0.6582  0.3775
 1284SOL     vw 5136   2.132   6.152   2.169 -0.5755  0.2441  0.1205
 1285SOL     ow 5137   4.642   2.933   3.983 -0.2504 -0.3298 -0.1155
 1285SOL     hw 5138   4.604   2.993   3.919  1.8195  1.3953  0.1379
 1285SOL     hw 5139   4.585   2.940   4.060 -1.5157 -0.7503 -0.9944
 1285SOL     vw 5140   4.630   2.942   3.985 -0.1442 -0.1577 -0.1981
 1286SOL     ow 5141   0.354   0.601   7.060  0.4791  0.1373  0.2714
 1286SOL     hw 5142   0.408   0.675   7.033 -0.8732  0.8413 -0.6618
 1286SOL     hw 5143   0.283   0.599   6.996 -0.3814 -0.9930  1.2136
 1286SOL     vw 5144   0.352   0.611   7.048  0.1871  0.0811  0.2730
 1287SOL     ow 5145   2.137   6.106   6.874  0.2167  0.5743 -0.4926
 1287SOL     hw 5146   2.204   6.173   6.865  0.1240  0.6327 -0.7507
 1287SOL     hw 5147   2.055   6.151   6.853 -0.2712  1.2041  2.3284
 1287SOL     vw 5148   2.135   6.120   6.870  0.1401  0.6654 -0.1545
 1288SOL     ow 5149   4.632   1.483   3.776 -0.6478  0.0072 -0.0209
 1288SOL     hw 5150   4.704   1.523   3.727  0.0396  0.8534  1.6415
 1288SOL     hw 5151   4.574   1.448   3.708  0.9200  0.0071 -1.4076
 1288SOL     vw 5152   4.634   1.484   3.760 -0.3502  0.1189  0.0156
 1289SOL     ow 5153   2.897   2.314   3.599 -0.1402 -0.3136  0.6207
 1289SOL     hw 5154   2.900   2.245   3.666 -3.2208 -0.2222  1.0146
 1289SOL     hw 5155   2.858   2.389   3.643  0.8446  0.8859 -0.4682
 1289SOL     vw 5156   2.892   2.315   3.614 -0.4169 -0.1433  0.5289
 1290SOL     ow 5157   6.257   6.162   5.936  0.2725  0.4083  0.1851
 1290SOL     hw 5158   6.316   6.184   5.864  0.1560 -2.0968 -0.7681
 1290SOL     hw 5159   6.309   6.109   5.995 -0.3442  0.2783  0.6220
 1290SOL     vw 5160   6.272   6.158   5.934  0.1760  0.0606  0.1168
 1291SOL     ow 5161   5.407   6.914   1.204  0.1044  0.6130  0.3355
 1291SOL     hw 5162   5.489   6.943   1.165  0.7204 -1.0451  0.3269
 1291SOL     hw 5163   5.407   6.953   1.291  0.2460  1.7020 -0.1304
 1291SOL     vw 5164   5.417   6.923   1.210  0.2043  0.5379  0.2729
 1292SOL     ow 5165   5.913   4.907   6.042 -0.0138  0.1161  0.1811
 1292SOL     hw 5166   5.933   4.995   6.012  3.0536  0.1410  1.9136
 1292SOL     hw 5167   5.850   4.919   6.113  1.0127  1.0272  0.9645
 1292SOL     vw 5168   5.907   4.920   6.047  0.5262  0.2391  0.5131
 1293SOL     ow 5169   2.091   4.260   3.750 -0.3966  0.2987 -0.4717
 1293SOL     hw 5170   2.009   4.298   3.781 -0.4562 -0.0639 -0.1809
 1293SOL     hw 5171   2.159   4.323   3.774 -0.5530  0.4498 -0.4315
 1293SOL     vw 5172   2.089   4.273   3.757 -0.4250  0.2706 -0.4281
 1294SOL     ow 5173   5.374   6.634   1.040  0.1915 -0.5187 -0.1277
 1294SOL     hw 5174   5.371   6.539   1.047 -4.6258 -0.6258 -0.5430
 1294SOL     hw 5175   5.360   6.652   0.946 -1.6465  0.5237  0.3038
 1294SOL     vw 5176   5.372   6.624   1.028 -0.6866 -0.3951 -0.1256
 1295SOL     ow 5177   5.460   5.599   2.125  0.4509  0.5865  0.8432
 1295SOL     hw 5178   5.433   5.680   2.169  1.4483  1.3886  0.0445
 1295SOL     hw 5179   5.521   5.628   2.057 -1.3347 -0.5508 -1.3701
 1295SOL     vw 5180   5.465   5.614   2.121  0.3469  0.5424  0.4457
 1296SOL     ow 5181   5.569   1.659   4.047  0.2339  0.2636 -0.0970
 1296SOL     hw 5182   5.518   1.668   3.966  1.7970  3.3003 -0.8987
 1296SOL     hw 5183   5.553   1.740   4.095  0.1205 -1.0519  2.2604
 1296SOL     vw 5184   5.560   1.670   4.043  0.4251  0.4907  0.1082
 1297SOL     ow 5185   6.440   6.537   6.871  0.5308  0.0287 -0.2400
 1297SOL     hw 5186   6.382   6.613   6.878  0.3510 -0.1387  0.0870
 1297SOL     hw 5187   6.512   6.567   6.816  0.9656  0.7467  0.6960
 1297SOL     vw 5188   6.442   6.551   6.864  0.5643  0.1013 -0.0734
 1298SOL     ow 5189   2.131   4.329   4.086 -0.0586  0.2016  0.5184
 1298SOL     hw 5190   2.199   4.359   4.027 -1.1879 -0.5825 -1.2649
 1298SOL     hw 5191   2.168   4.252   4.128  0.4015  0.1829  0.0851
 1298SOL     vw 5192   2.145   4.323   4.084 -0.1469  0.0958  0.2260
 1299SOL     ow 5193   4.940   6.146   3.028 -0.2120  0.1165 -0.3383
 1299SOL     hw 5194   4.975   6.065   3.067 -0.8693 -0.5849 -1.1488
 1299SOL     hw 5195   4.846   6.142   3.045 -0.1912  0.9396 -0.0030
 1299SOL     vw 5196   4.932   6.134   3.035 -0.2959  0.1326 -0.4009
 1300SOL     ow 5197   4.937   0.177   6.277  0.3232  0.1351 -0.7022
 1300SOL     hw 5198   4.858   0.214   6.236 -0.7821 -1.0125  0.2859
 1300SOL     hw 5199   4.936   0.212   6.366  0.9157  0.0780 -0.6707
 1300SOL     vw 5200   4.926   0.186   6.283  0.2556 -0.0238 -0.5682
 1301SOL     ow 5201   4.940   4.143   0.612 -0.5680  0.3273 -0.0694
 1301SOL     hw 5202   4.965   4.061   0.655 -1.5185  0.1538  0.1914
 1301SOL     hw 5203   5.022   4.180   0.579  0.3199  0.7447  2.3929
 1301SOL     vw 5204   4.954   4.137   0.614 -0.5765  0.3593  0.2899
 1302SOL     ow 5205   3.415   1.480   6.701  0.3503 -0.2021  0.0788
 1302SOL     hw 5206   3.397   1.574   6.697  1.6934  0.0172 -2.0480
 1302SOL     hw 5207   3.395   1.457   6.792  0.3334  2.1988  0.7782
 1302SOL     vw 5208   3.410   1.490   6.712  0.5251  0.1436 -0.1094
 1303SOL     ow 5209   5.933   0.622   4.712 -0.0036  0.0426 -0.1332
 1303SOL     hw 5210   5.895   0.704   4.680 -1.5949 -0.2750  0.8079
 1303SOL     hw 5211   5.989   0.649   4.785  0.3481  0.3702 -0.5140
 1303SOL     vw 5212   5.936   0.637   4.718 -0.1669  0.0439 -0.0594
 1304SOL     ow 5213   0.390   1.133   3.283 -0.2748  0.5763  0.1877
 1304SOL     hw 5214   0.417   1.218   3.248  2.2800 -0.5641 -0.8866
 1304SOL     hw 5215   0.321   1.104   3.223  1.1181  0.5070 -1.4719
 1304SOL     vw 5216   0.385   1.140   3.270  0.2461  0.4168 -0.1731
 1305SOL     ow 5217   4.684   3.834   4.011 -0.4347 -0.1283  0.0477
 1305SOL     hw 5218   4.646   3.863   3.928 -0.4291 -0.7388 -0.1760
 1305SOL     hw 5219   4.643   3.890   4.077 -1.9967 -0.9646 -0.1424
 1305SOL     vw 5220   4.673   3.845   4.009 -0.6399 -0.3192 -0.0072
 1306SOL     ow 5221   6.538   5.213   6.756 -0.2496 -0.2356 -0.0678
 1306SOL     hw 5222   6.593   5.228   6.833 -0.0270  0.0716 -0.2843
 1306SOL     hw 5223   6.548   5.120   6.738  1.1027  0.0243 -0.7753
 1306SOL     vw 5224   6.547   5.203   6.764 -0.0420 -0.1607 -0.1898
 1307SOL     ow 5225   2.252   2.099   4.812  0.7286 -0.7809  0.1027
 1307SOL     hw 5226   2.337   2.073   4.847  0.9414 -1.3984 -0.8217
 1307SOL     hw 5227   2.226   2.025   4.756 -1.4299 -1.5978  2.0271
 1307SOL     vw 5228   2.260   2.086   4.809  0.4718 -0.9701  0.2348
 1308SOL     ow 5229   2.804   2.575   3.679  0.4343 -0.7243 -0.0685
 1308SOL     hw 5230   2.780   2.550   3.768  1.2711 -0.9773  0.0968
 1308SOL     hw 5231   2.720   2.588   3.635  0.0062 -0.6994  0.7221
 1308SOL     vw 5232   2.790   2.573   3.685  0.4882 -0.7545  0.0576
 1309SOL     ow 5233   7.089   3.515   4.490 -0.0119  0.5379 -0.5060
 1309SOL     hw 5234   6.997   3.488   4.486 -0.3204  1.3675  0.6550
 1309SOL     hw 5235   7.101   3.568   4.411 -0.0121 -1.0255 -1.6117
 1309SOL     vw 5236   7.078   3.518   4.479 -0.0525  0.4413 -0.4988
 1310SOL     ow 5237   5.498   7.106   0.201 -0.4665  0.3192  0.9072
 1310SOL     hw 5238   5.447   7.038   0.157 -1.2616  1.3645  0.1599
 1310SOL     hw 5239   5.573   7.122   0.144 -0.3171  0.1154  1.0471
 1310SOL     vw 5240   5.501   7.099   0.188 -0.5517  0.4303  0.8271
 1311SOL     ow 5241   4.432   4.637   0.025 -0.7303  0.3751  0.4936
 1311SOL     hw 5242   4.470   4.714  -0.018 -2.1087  1.1081  0.5410
 1311SOL     hw 5243   4.375   4.598  -0.042 -1.4702  0.4678  1.0597
 1311SOL     vw 5244   4.430   4.642   0.010 -1.0099  0.4840  0.5748
 1312SOL     ow 5245   0.493   2.748   4.241  0.0914  0.1228  0.3315
 1312SOL     hw 5246   0.429   2.794   4.296  0.3594  0.4726  0.3507
 1312SOL     hw 5247   0.539   2.689   4.302  0.6309  0.7664  0.5528
 1312SOL     vw 5248   0.490   2.746   4.257  0.1979  0.2538  0.3633
 1313SOL     ow 5249   0.623   4.817   1.797 -0.2040 -0.3551  0.0492
 1313SOL     hw 5250   0.629   4.893   1.739 -0.9317 -0.1454  0.2359
 1313SOL     hw 5251   0.616   4.855   1.885  3.1842 -0.6506  0.5983
 1313SOL     vw 5252   0.623   4.832   1.801  0.1470 -0.3664  0.1463
 1314SOL     ow 5253   5.571   0.925   6.002 -0.0457 -0.4876  1.0334
 1314SOL     hw 5254   5.487   0.929   5.956  0.5628  0.5938 -0.0232
 1314SOL     hw 5255   5.553   0.965   6.087 -0.8497 -1.2609  1.2500
 1314SOL     vw 5256   5.557   0.931   6.007 -0.0715 -0.4469  0.9229
 1315SOL     ow 5257   2.364   5.545   2.678 -0.1183  0.3192 -0.0862
 1315SOL     hw 5258   2.305   5.614   2.708  0.4715  1.5648 -1.5971
 1315SOL     hw 5259   2.443   5.556   2.731  0.1582  1.1691 -0.6443
 1315SOL     vw 5260   2.367   5.555   2.689 -0.0039  0.5953 -0.3593
 1316SOL     ow 5261   1.390   4.838   1.725 -0.5066 -0.4663  0.4028
 1316SOL     hw 5262   1.324   4.866   1.662  0.1565 -0.4482 -0.2965
 1316SOL     hw 5263   1.447   4.914   1.735  0.0660 -0.8579  0.1278
 1316SOL     vw 5264   1.388   4.852   1.718 -0.3436 -0.5157  0.2743
 1317SOL     ow 5265   5.272   2.961   3.827 -0.3967  0.1891  0.3685
 1317SOL     hw 5266   5.266   2.905   3.904  1.6685 -0.0989  0.3908
 1317SOL     hw 5267   5.184   2.962   3.790 -0.2689 -4.5138 -0.6707
 1317SOL     vw 5268   5.260   2.954   3.832 -0.1075 -0.4693  0.2342
 1318SOL     ow 5269   2.113   6.638   1.533 -0.3860  0.2273 -0.4614
 1318SOL     hw 5270   2.120   6.717   1.480  1.3758 -1.8950 -3.6825
 1318SOL     hw 5271   2.204   6.609   1.545 -1.0488 -2.8660 -2.0536
 1318SOL     vw 5272   2.126   6.645   1.528 -0.2410 -0.4611 -1.0964
 1319SOL     ow 5273   3.010   3.944   3.798  0.0324  0.1761  0.4522
 1319SOL     hw 5274   2.964   3.949   3.714  0.9479 -1.6807 -0.2253
 1319SOL     hw 5275   3.096   3.984   3.781 -0.7537  2.3678  1.3293
 1319SOL     vw 5276   3.016   3.950   3.785  0.0495  0.2203  0.4785
 1320SOL     ow 5277   4.006   2.541   0.461  0.2098 -0.4726  0.8258
 1320SOL     hw 5278   4.000   2.592   0.380 -0.8944 -0.4486  0.9168
 1320SOL     hw 5279   4.096   2.508   0.461 -0.3393 -2.2289 -1.4765
 1320SOL     vw 5280   4.017   2.544   0.450 -0.0081 -0.7012  0.5340
 1321SOL     ow 5281   5.581   6.885   7.155  0.8666 -0.4403 -0.3170
 1321SOL     hw 5282   5.499   6.918   7.119  0.4950 -0.6228  0.3384
 1321SOL     hw 5283   5.628   6.964   7.183  0.6124 -0.3747 -0.0688
 1321SOL     vw 5284   5.576   6.900   7.154  0.7842 -0.4559 -0.1979
 1322SOL     ow 5285   0.335   2.986   5.883  0.0962  0.5490  0.1551
 1322SOL     hw 5286   0.339   3.069   5.836 -1.0103  0.4710 -0.0954
 1322SOL     hw 5287   0.421   2.947   5.868 -0.0048  0.8129 -1.2951
 1322SOL     vw 5288   0.347   2.992   5.875 -0.0631  0.5736 -0.0694
 1323SOL     ow 5289   7.084   1.266   4.093 -0.3022  0.0226  0.1052
 1323SOL     hw 5290   7.003   1.313   4.072 -1.6939 -2.3234 -0.0654
 1323SOL     hw 5291   7.109   1.224   4.011  0.6396  0.0501  0.3718
 1323SOL     vw 5292   7.076   1.267   4.079 -0.3614 -0.2833  0.1178
 1324SOL     ow 5293   4.454   0.872   0.076  0.0275  0.5885 -0.2583
 1324SOL     hw 5294   4.366   0.908   0.066  0.3848  1.3134 -0.9326
 1324SOL     hw 5295   4.512   0.941   0.044  0.8217 -0.0139 -0.1538
 1324SOL     vw 5296   4.450   0.886   0.070  0.1798  0.6047 -0.3335
 1325SOL     ow 5297   5.399   0.968   5.256  0.9818 -0.2794 -0.0104
 1325SOL     hw 5298   5.449   0.980   5.175  0.3872 -0.2088 -0.3710
 1325SOL     hw 5299   5.313   1.006   5.238  0.0261 -2.4020 -0.1771
 1325SOL     vw 5300   5.394   0.975   5.243  0.7772 -0.5502 -0.0796
 1326SOL     ow 5301   7.031   5.670   2.563 -0.0353  0.1935 -0.1272
 1326SOL     hw 5302   7.097   5.738   2.554  1.1878 -1.0460 -1.1351
 1326SOL     hw 5303   7.081   5.591   2.587 -1.5371 -0.1030  2.4451
 1326SOL     vw 5304   7.047   5.668   2.565 -0.0720 -0.0091  0.0794
 1327SOL     ow 5305   1.773   5.871   2.563 -0.6004 -0.0205 -0.5651
 1327SOL     hw 5306   1.853   5.887   2.614 -0.0368  0.4961 -1.5696
 1327SOL     hw 5307   1.751   5.957   2.526  0.9821 -0.8820 -3.9743
 1327SOL     vw 5308   1.781   5.885   2.565 -0.3172 -0.0660 -1.1474
 1328SOL     ow 5309   2.395   3.133   5.460 -0.4814 -0.2615 -0.6942
 1328SOL     hw 5310   2.302   3.130   5.480  0.0238  0.0459  2.1068
 1328SOL     hw 5311   2.406   3.070   5.388 -3.1419  1.4718 -2.8105
 1328SOL     vw 5312   2.384   3.124   5.453 -0.7657  0.0077 -0.6039
 1329SOL     ow 5313   7.136   2.534   0.839  0.1684 -0.8611  0.4522
 1329SOL     hw 5314   7.123   2.463   0.776 -1.3203  0.4228 -0.7497
 1329SOL     hw 5315   7.093   2.502   0.919 -1.3184 -0.9765 -0.3519
 1329SOL     vw 5316   7.129   2.520   0.841 -0.2241 -0.7069  0.1875
 1330SOL     ow 5317   4.046   5.201   5.963 -0.2044  0.2052 -0.3912
 1330SOL     hw 5318   3.957   5.202   5.926 -0.2225  1.3540 -0.3606
 1330SOL     hw 5319   4.080   5.288   5.944  0.8859 -0.1935 -0.3021
 1330SOL     vw 5320   4.039   5.213   5.956 -0.0627  0.3045 -0.3755
 1331SOL     ow 5321   6.276   2.430   4.262  0.2668  0.3628  0.6107
 1331SOL     hw 5322   6.317   2.352   4.298 -1.7860 -0.4321  1.3712
 1331SOL     hw 5323   6.189   2.401   4.235  0.9971  1.3279 -3.4172
 1331SOL     vw 5324   6.270   2.416   4.263  0.0925  0.3852  0.1793
 1332SOL     ow 5325   5.005   1.844   6.592 -0.3164  0.1419  0.5096
 1332SOL     hw 5326   4.991   1.937   6.572 -1.3160 -0.5051 -2.2441
 1332SOL     hw 5327   4.971   1.798   6.515  0.4795 -2.5092  1.6468
 1332SOL     vw 5328   4.999   1.850   6.579 -0.3433 -0.2933  0.2964
 1333SOL     ow 5329   7.000   5.279   1.584  0.5656 -0.0324 -0.1072
 1333SOL     hw 5330   6.989   5.261   1.491 -0.1591  0.3056 -0.0997
 1333SOL     hw 5331   7.091   5.307   1.593  0.4008  0.8023 -0.8689
 1333SOL     vw 5332   7.010   5.281   1.573  0.4480  0.1223 -0.2067
 1334SOL     ow 5333   3.296   4.931   6.626 -0.3660 -0.1315  0.1323
 1334SOL     hw 5334   3.325   5.006   6.678 -1.3207 -0.3327  0.9920
 1334SOL     hw 5335   3.211   4.908   6.664 -1.5984  0.3539 -2.1730
 1334SOL     vw 5336   3.289   4.938   6.638 -0.6545 -0.0942 -0.0584
 1335SOL     ow 5337   4.967   3.277   6.023 -0.4005 -0.0629  0.2795
 1335SOL     hw 5338   4.920   3.230   5.954 -1.2882 -0.6295  1.2497
 1335SOL     hw 5339   5.010   3.209   6.074  1.1677  0.4191 -0.3183
 1335SOL     vw 5340   4.967   3.262   6.021 -0.3107 -0.0739  0.3288
 1336SOL     ow 5341   6.706   5.320   3.420 -0.4127  0.1960 -0.2613
 1336SOL     hw 5342   6.657   5.293   3.342  0.1388 -1.0424 -0.1942
 1336SOL     hw 5343   6.735   5.409   3.400 -0.3038 -0.0926 -1.4601
 1336SOL     vw 5344   6.703   5.328   3.407 -0.3254 -0.0052 -0.4107
 1337SOL     ow 5345   1.900   4.434   5.807 -0.2445  0.1134  0.0155
 1337SOL     hw 5346   1.948   4.512   5.778 -0.6591 -0.1569 -1.4511
 1337SOL     hw 5347   1.851   4.464   5.883  1.8021  0.5329  1.2640
 1337SOL     vw 5348   1.900   4.449   5.813 -0.0292  0.1330 -0.0134
 1338SOL     ow 5349   2.501   5.663   3.391  0.3539  0.3030 -0.6560
 1338SOL     hw 5350   2.555   5.588   3.414  1.4163  0.5075 -2.2910
 1338SOL     hw 5351   2.412   5.628   3.387  0.7393 -0.7166 -0.7240
 1338SOL     vw 5352   2.496   5.649   3.393  0.5450  0.1953 -0.8807
 1339SOL     ow 5353   1.062   5.567   1.288  0.4002 -0.2586 -0.2537
 1339SOL     hw 5354   0.981   5.572   1.237  0.2961 -1.3159 -0.2229
 1339SOL     hw 5355   1.111   5.645   1.263 -0.0170 -0.3271 -1.3368
 1339SOL     vw 5356   1.058   5.578   1.278  0.3314 -0.4072 -0.3926
 1340SOL     ow 5357   5.749   5.226   0.152  0.0862  0.1253 -0.1637
 1340SOL     hw 5358   5.816   5.232   0.083 -0.5749  0.2696 -0.8093
 1340SOL     hw 5359   5.730   5.132   0.158 -1.0918  0.2527 -1.4188
 1340SOL     vw 5360   5.756   5.214   0.144 -0.1566  0.1612 -0.4145
 1341SOL     ow 5361   5.271   1.652   2.789  0.2687 -0.3427 -0.1244
 1341SOL     hw 5362   5.301   1.578   2.841 -1.0811 -0.6573  0.2405
 1341SOL     hw 5363   5.344   1.671   2.730  1.7312 -0.1689  1.6331
 1341SOL     vw 5364   5.284   1.645   2.788  0.2835 -0.3612  0.1557
 1342SOL     ow 5365   4.993   2.064   1.579 -0.1962 -0.0901  0.1004
 1342SOL     hw 5366   4.946   2.146   1.590  1.0301  0.7482 -0.6110
 1342SOL     hw 5367   5.041   2.075   1.497 -0.7780 -1.9146 -0.5401
 1342SOL     vw 5368   4.993   2.076   1.569 -0.1111 -0.2202 -0.0780
 1343SOL     ow 5369   0.102   1.317   3.021 -0.5289 -0.1663 -0.6683
 1343SOL     hw 5370   0.062   1.394   3.062  1.0446  0.5200 -0.3768
 1343SOL     hw 5371   0.089   1.247   3.085  0.8494  0.6198  0.5384
 1343SOL     vw 5372   0.095   1.318   3.035 -0.1395  0.0280 -0.4705
 1344SOL     ow 5373   0.918   3.519   6.582 -0.5188 -0.3098 -0.4884
 1344SOL     hw 5374   0.885   3.535   6.671  0.5750 -0.9327  0.0509
 1344SOL     hw 5375   0.921   3.423   6.575 -2.2002 -0.3184 -1.8322
 1344SOL     vw 5376   0.914   3.508   6.593 -0.5963 -0.3932 -0.5941
 1345SOL     ow 5377   7.138   6.559   3.358  0.5569 -0.1921  0.4453
 1345SOL     hw 5378   7.138   6.564   3.454 -1.5560  0.3691  0.4781
 1345SOL     hw 5379   7.086   6.480   3.338 -0.1447  0.4157 -0.2138
 1345SOL     vw 5380   7.131   6.549   3.368  0.1857 -0.0379  0.3628
 1346SOL     ow 5381   1.371   6.199   6.190  0.3230 -0.2120  0.1957
 1346SOL     hw 5382   1.365   6.284   6.146 -1.0541 -0.4473 -0.1028
 1346SOL     hw 5383   1.460   6.169   6.172  0.9325  1.2797  0.5249
 1346SOL     vw 5384   1.382   6.206   6.182  0.2217 -0.0463  0.1996
 1347SOL     ow 5385   3.206   0.176   6.827  0.0216  0.0779 -0.3667
 1347SOL     hw 5386   3.182   0.230   6.752 -0.1057  0.8541  0.2059
 1347SOL     hw 5387   3.143   0.201   6.895  0.6807  0.0563  0.2698
 1347SOL     vw 5388   3.195   0.187   6.826  0.0918  0.1775 -0.2074
 1348SOL     ow 5389   6.326   0.896   5.535 -0.2547  0.4184  0.2878
 1348SOL     hw 5390   6.357   0.959   5.600  0.2473 -0.2465  0.7082
 1348SOL     hw 5391   6.371   0.814   5.557  0.8423  0.4548 -1.6038
 1348SOL     vw 5392   6.336   0.893   5.547 -0.0436  0.3355  0.0937
 1349SOL     ow 5393   4.010   1.412   4.064  0.2537  0.2814 -0.2375
 1349SOL     hw 5394   4.057   1.360   4.130 -0.1288  1.1417  0.7372
 1349SOL     hw 5395   3.987   1.348   3.996  2.1553 -0.3110 -0.4047
 1349SOL     vw 5396   4.013   1.397   4.064  0.4539  0.3168 -0.1311
 1350SOL     ow 5397   4.712   3.401   0.909 -0.0178  0.0426  0.4074
 1350SOL     hw 5398   4.620   3.377   0.917 -0.5570  1.3255 -1.3567
 1350SOL     hw 5399   4.758   3.338   0.964 -1.7596 -1.8455 -0.1654
 1350SOL     vw 5400   4.706   3.390   0.917 -0.3188 -0.0373  0.0990
 1351SOL     ow 5401   1.010   6.809   5.123 -0.4573 -0.5947  0.2141
 1351SOL     hw 5402   0.964   6.735   5.161 -1.2686 -0.8340 -1.1616
 1351SOL     hw 5403   0.949   6.847   5.060  0.5433  0.2270 -0.3118
 1351SOL     vw 5404   0.996   6.804   5.119 -0.4323 -0.5181 -0.0367
 1352SOL     ow 5405   6.819   4.274   6.045 -0.0939 -0.1927 -0.4093
 1352SOL     hw 5406   6.914   4.272   6.054  0.1208 -0.3643 -2.3211
 1352SOL     hw 5407   6.799   4.364   6.017 -0.9331  0.9644  3.3255
 1352SOL     vw 5408   6.829   4.286   6.042 -0.1764 -0.0627 -0.1690
 1353SOL     ow 5409   6.836   4.756   7.140 -0.1802  0.2760  0.9684
 1353SOL     hw 5410   6.910   4.811   7.114  1.2583 -1.4555  1.2597
 1353SOL     hw 5411   6.868   4.708   7.217 -1.3502 -1.0246  0.6799
 1353SOL     vw 5412   6.850   4.757   7.147 -0.1447 -0.1240  0.9689
 1354SOL     ow 5413   0.453   3.571   0.947  0.0011  0.4677  0.2618
 1354SOL     hw 5414   0.383   3.538   0.892 -0.6732 -0.6789  1.7306
 1354SOL     hw 5415   0.529   3.577   0.889 -0.7852 -0.2580 -0.8731
 1354SOL     vw 5416   0.454   3.568   0.932 -0.1916  0.2207  0.3058
 1355SOL     ow 5417   0.573   2.700   3.929 -0.0029  0.3756 -0.3301
 1355SOL     hw 5418   0.593   2.719   3.837  1.2800 -0.6311 -0.2835
 1355SOL     hw 5419   0.634   2.631   3.954 -1.2203 -0.3249  0.9102
 1355SOL     vw 5420   0.583   2.694   3.920  0.0057  0.1504 -0.1603
 1356SOL     ow 5421   6.444   5.293   3.628  0.5075 -0.5756  0.2238
 1356SOL     hw 5422   6.384   5.367   3.620  1.0043 -0.1705  0.2638
 1356SOL     hw 5423   6.426   5.257   3.716 -0.1542 -0.8792 -0.0285
 1356SOL     vw 5424   6.434   5.298   3.639  0.4859 -0.5620  0.1959
 1357SOL     ow 5425   6.861   0.342   2.301  0.2746  0.3864 -0.6923
 1357SOL     hw 5426   6.924   0.396   2.349 -0.5045  2.7574 -2.1533
 1357SOL     hw 5427   6.780   0.392   2.304 -0.9170 -1.4483 -0.9057
 1357SOL     vw 5428   6.859   0.356   2.308  0.0145  0.4572 -0.9131
 1358SOL     ow 5429   3.566   3.134   6.633  0.3177  0.0199 -0.0767
 1358SOL     hw 5430   3.577   3.188   6.555 -3.1420  0.8987 -0.1091
 1358SOL     hw 5431   3.540   3.048   6.599  0.8987 -0.2318  0.0998
 1358SOL     vw 5432   3.564   3.130   6.618 -0.0621  0.1026 -0.0577
 1359SOL     ow 5433   5.583   3.761   0.588 -0.3277 -0.2370 -0.1349
 1359SOL     hw 5434   5.607   3.777   0.679  0.1164 -0.2281 -0.2490
 1359SOL     hw 5435   5.627   3.830   0.539 -0.6193 -0.2029 -0.3487
 1359SOL     vw 5436   5.592   3.772   0.594 -0.3076 -0.2314 -0.1782
 1360SOL     ow 5437   6.120   5.282   6.372 -0.5259 -0.1135 -0.6547
 1360SOL     hw 5438   6.039   5.283   6.425 -0.7788 -0.8521 -1.0061
 1360SOL     hw 5439   6.093   5.316   6.287 -0.5149 -0.5294 -0.8278
 1360SOL     vw 5440   6.105   5.287   6.368 -0.5579 -0.2658 -0.7238
 1361SOL     ow 5441   7.074   4.283   2.633 -0.1422  0.6969  0.0569
 1361SOL     hw 5442   7.039   4.372   2.620 -1.2775  0.4275  1.0400
 1361SOL     hw 5443   7.066   4.268   2.727  0.1245 -0.4238 -0.0826
 1361SOL     vw 5444   7.068   4.293   2.644 -0.2565  0.5136  0.1682
 1362SOL     ow 5445   0.605   6.670   2.488 -0.1745  0.1158  0.4551
 1362SOL     hw 5446   0.590   6.705   2.400 -1.1763 -2.4392 -0.5048
 1362SOL     hw 5447   0.531   6.701   2.539 -0.3207  0.5024  0.0218
 1362SOL     vw 5448   0.593   6.679   2.483 -0.3260 -0.1702  0.2712
 1363SOL     ow 5449   1.923   0.928   6.348 -0.6883  0.3813 -0.4236
 1363SOL     hw 5450   2.014   0.900   6.362 -1.3747 -1.7458  0.0581
 1363SOL     hw 5451   1.906   0.908   6.256 -0.5468  1.2495 -0.6509
 1363SOL     vw 5452   1.933   0.922   6.338 -0.7602  0.2152 -0.3898
 1364SOL     ow 5453   6.321   5.965   6.864 -0.3216 -0.1338  0.0950
 1364SOL     hw 5454   6.345   6.057   6.851 -1.9002  0.2952 -0.0002
 1364SOL     hw 5455   6.322   5.953   6.959  2.2995 -0.7496  0.0701
 1364SOL     vw 5456   6.325   5.976   6.875 -0.1843 -0.1585  0.0794
 1365SOL     ow 5457   6.125   6.120   6.517 -0.0715  0.0082 -0.1362
 1365SOL     hw 5458   6.140   6.215   6.523 -1.4200  0.1895  1.2398
 1365SOL     hw 5459   6.041   6.107   6.562 -0.8216 -1.6304 -1.8799
 1365SOL     vw 5460   6.116   6.131   6.524 -0.3486 -0.1838 -0.1850
 1366SOL     ow 5461   2.519   4.493   0.680  0.4358 -0.2682 -0.6450
 1366SOL     hw 5462   2.548   4.404   0.660 -2.4706 -0.9967 -2.1299
 1366SOL     hw 5463   2.439   4.482   0.731  1.1362  1.5645  0.9794
 1366SOL     vw 5464   2.512   4.480   0.684  0.1447 -0.1225 -0.6266
 1367SOL     ow 5465   4.934   6.674   4.386  0.1308  0.0911  0.1282
 1367SOL     hw 5466   5.013   6.676   4.439  0.5611 -0.1837 -0.4859
 1367SOL     hw 5467   4.863   6.695   4.447  0.5631 -0.5838  0.8867
 1367SOL     vw 5468   4.935   6.677   4.401  0.2446 -0.0343  0.1473
 1368SOL     ow 5469   3.973   2.519   4.696 -0.0967 -0.1067  0.8943
 1368SOL     hw 5470   4.046   2.521   4.758 -1.6076  0.1729  2.7545
 1368SOL     hw 5471   3.936   2.608   4.700 -2.0120 -0.9001  1.8843
 1368SOL     vw 5472   3.977   2.531   4.705 -0.5486 -0.1745  1.2705
 1369SOL     ow 5473   3.284   5.061   1.380  1.0471  0.1688  0.2421
 1369SOL     hw 5474   3.327   5.146   1.366  1.2102  0.3397  1.6933
 1369SOL     hw 5475   3.339   5.016   1.444 -0.0458 -0.2722  0.8912
 1369SOL     vw 5476   3.297   5.066   1.386  0.9246  0.1333  0.5192
 1370SOL     ow 5477   3.676   6.269   6.784 -0.0358  0.8537  0.1062
 1370SOL     hw 5478   3.655   6.247   6.875 -0.4037 -0.3055 -0.2386
 1370SOL     hw 5479   3.592   6.263   6.739 -0.1025  2.6926 -0.1034
 1370SOL     vw 5480   3.662   6.265   6.790 -0.0932  0.9434  0.0331
 1371SOL     ow 5481   6.648   6.373   3.691  0.2017  0.0968  0.3063
 1371SOL     hw 5482   6.708   6.418   3.752  0.5546  0.6092 -0.4080
 1371SOL     hw 5483   6.633   6.437   3.621  0.8873 -0.9596 -0.8405
 1371SOL     vw 5484   6.654   6.388   3.690  0.3388  0.0253  0.0608
 1372SOL     ow 5485   6.593   0.006   2.327 -0.1599  0.0926  0.2190
 1372SOL     hw 5486   6.557  -0.082   2.341  1.2324 -0.4284  0.6483
 1372SOL     hw 5487   6.546   0.039   2.250 -1.2664 -0.7003  0.5215
 1372SOL     vw 5488   6.582  -0.001   2.319 -0.1218 -0.0806  0.3155
 1373SOL     ow 5489   3.588   5.685   2.503  0.0094 -0.0809  0.5167
 1373SOL     hw 5490   3.555   5.627   2.572 -0.4739 -0.8817 -0.3638
 1373SOL     hw 5491   3.522   5.679   2.434  0.4963  0.6942 -0.0263
 1373SOL     vw 5492   3.575   5.676   2.503  0.0099 -0.0844  0.3288
 1374SOL     ow 5493   0.212   2.712   0.135  0.3959  0.2802  0.6773
 1374SOL     hw 5494   0.307   2.716   0.144  0.4612  0.8386 -0.1210
 1374SOL     hw 5495   0.189   2.793   0.090 -0.1616 -0.9648 -1.4272
 1374SOL     vw 5496   0.222   2.723   0.130  0.3310  0.1895  0.2943
 1375SOL     ow 5497   3.328   4.371   0.549 -0.2547 -0.0685 -0.7010
 1375SOL     hw 5498   3.375   4.452   0.567  0.0966 -0.3514 -0.3333
 1375SOL     hw 5499   3.389   4.319   0.497  0.1238 -0.7165  0.3510
 1375SOL     vw 5500   3.342   4.375   0.544 -0.1583 -0.1917 -0.5137
 1376SOL     ow 5501   6.661   0.024   3.637  0.3933  0.1072  0.1704
 1376SOL     hw 5502   6.699   0.107   3.666  0.1188  1.1129 -2.1107
 1376SOL     hw 5503   6.704   0.007   3.553 -0.3852 -1.4810  0.0704
 1376SOL     vw 5504   6.672   0.033   3.630  0.2542  0.0304 -0.1438
 1377SOL     ow 5505   5.928   3.818   4.770  0.0109  0.8848  0.4368
 1377SOL     hw 5506   5.915   3.855   4.857 -0.3712  1.1476  0.2705
 1377SOL     hw 5507   5.999   3.870   4.732  0.7160  0.2598  0.8810
 1377SOL     vw 5508   5.935   3.830   4.777  0.0536  0.8370  0.4737
 1378SOL     ow 5509   2.776   4.934   6.632  0.7428  0.3310 -0.3723
 1378SOL     hw 5510   2.717   4.888   6.572  1.1286 -0.8896  0.1555
 1378SOL     hw 5511   2.810   5.007   6.580 -0.1273  0.2076 -1.1370
 1378SOL     vw 5512   2.773   4.937   6.617  0.6789  0.1535 -0.4036
 1379SOL     ow 5513   1.226   6.892   2.760 -0.0963 -0.2241 -0.1058
 1379SOL     hw 5514   1.264   6.973   2.726  1.7947 -0.8507  0.3855
 1379SOL     hw 5515   1.216   6.837   2.682 -0.7538  0.2080 -0.3428
 1379SOL     vw 5516   1.230   6.895   2.745  0.0665 -0.2499 -0.0722
 1380SOL     ow 5517   0.785   7.037   1.255  0.3128 -0.3910  0.1629
 1380SOL     hw 5518   0.751   6.947   1.249 -0.7136 -0.0360  0.4028
 1380SOL     hw 5519   0.707   7.091   1.270  0.9970  0.4659  0.7185
 1380SOL     vw 5520   0.770   7.032   1.256  0.2677 -0.2310  0.2679
 1381SOL     ow 5521   4.666   6.511   2.520 -0.3991 -0.1992  0.0931
 1381SOL     hw 5522   4.708   6.453   2.584  1.3001 -0.2320 -0.9949
 1381SOL     hw 5523   4.613   6.570   2.573  0.7582 -0.3734  1.5183
 1381SOL     vw 5524   4.665   6.511   2.535 -0.0222 -0.2265  0.1377
 1382SOL     ow 5525   3.657   4.353   5.521 -0.2246 -0.8836 -0.4348
 1382SOL     hw 5526   3.721   4.424   5.523  1.9701 -2.7461  1.7252
 1382SOL     hw 5527   3.600   4.370   5.597 -0.5529 -0.7104 -0.7188
 1382SOL     vw 5528   3.658   4.364   5.532  0.0216 -1.1065 -0.1872
 1383SOL     ow 5529   0.495   3.686   6.125 -0.0030  0.1115  0.2125
 1383SOL     hw 5530   0.494   3.693   6.030 -2.5129  1.1116  0.2177
 1383SOL     hw 5531   0.441   3.609   6.144  0.7267 -0.2565  0.8260
 1383SOL     vw 5532   0.488   3.677   6.115 -0.2379  0.1949  0.2942
 1384SOL     ow 5533   1.289   0.070   6.167  0.0696 -0.0210  0.0541
 1384SOL     hw 5534   1.238  -0.010   6.174 -0.0107 -0.3709 -3.1887
 1384SOL     hw 5535   1.344   0.070   6.246 -3.6745 -0.3811  2.9573
 1384SOL     vw 5536   1.290   0.060   6.179 -0.4349 -0.1147  0.0095
 1385SOL     ow 5537   2.730   5.135   5.822 -0.4417  0.3239 -0.5197
 1385SOL     hw 5538   2.751   5.220   5.783  0.5992  1.1749  1.7278
 1385SOL     hw 5539   2.690   5.157   5.907  0.2962 -1.4209  0.3327
 1385SOL     vw 5540   2.727   5.149   5.828 -0.2071  0.2058 -0.1106
 1386SOL     ow 5541   2.375   4.855   6.360  0.4111 -0.3733  0.4573
 1386SOL     hw 5542   2.377   4.935   6.413  0.8205  0.5177 -0.8257
 1386SOL     hw 5543   2.284   4.825   6.365 -0.4895  1.7883 -1.2589
 1386SOL     vw 5544   2.363   4.862   6.367  0.3463  0.0293  0.0615
 1387SOL     ow 5545   4.874   2.058   2.678 -1.0814  0.2261 -0.6142
 1387SOL     hw 5546   4.905   2.085   2.764 -0.0297 -2.5887  0.0095
 1387SOL     hw 5547   4.790   2.103   2.667 -0.3087  2.2109  0.9512
 1387SOL     vw 5548   4.867   2.067   2.688 -0.8409  0.1166 -0.3253
 1388SOL     ow 5549   4.842   3.065   2.752  0.1731 -0.1366  0.4828
 1388SOL     hw 5550   4.782   3.131   2.718 -0.9160  0.1750  2.8739
 1388SOL     hw 5551   4.866   3.096   2.839 -0.4046 -2.8867  1.7090
 1388SOL     vw 5552   4.838   3.078   2.759 -0.0467 -0.4584  0.9601
 1389SOL     ow 5553   5.813   1.955   4.521  0.5632  0.2102 -0.6620
 1389SOL     hw 5554   5.742   1.991   4.468 -0.0085  2.0972  1.2418
 1389SOL     hw 5555   5.857   2.032   4.557  0.8409 -0.9614  1.6760
 1389SOL     vw 5556   5.810   1.970   4.519  0.5245  0.3046 -0.1025
 1390SOL     ow 5557   0.242   0.971   3.439  0.3754 -0.3142 -0.6262
 1390SOL     hw 5558   0.174   0.979   3.373  0.2492 -1.7634 -0.6931
 1390SOL     hw 5559   0.203   1.009   3.518 -1.1025 -2.4111 -0.2695
 1390SOL     vw 5560   0.228   0.977   3.441  0.1637 -0.7821 -0.5881
 1391SOL     ow 5561   4.122   0.638   0.318 -0.2348  0.0087  0.3081
 1391SOL     hw 5562   4.152   0.678   0.236 -0.5821 -1.1495 -0.4214
 1391SOL     hw 5563   4.203   0.613   0.363 -0.0427  0.5313  0.2573
 1391SOL     vw 5564   4.137   0.640   0.313 -0.2553 -0.0751  0.2051
 1392SOL     ow 5565   3.105   4.726   3.709  0.1422  0.0999 -0.1622
 1392SOL     hw 5566   3.024   4.709   3.757  0.2447  1.0968  0.3922
 1392SOL     hw 5567   3.081   4.791   3.642  0.4232  0.1986 -0.1701
 1392SOL     vw 5568   3.091   4.733   3.706  0.1928  0.2444 -0.0901
 1393SOL     ow 5569   5.964   3.373   1.093  0.1278 -0.0369  0.5631
 1393SOL     hw 5570   5.899   3.388   1.162 -0.8024 -2.3202  0.2624
 1393SOL     hw 5571   5.918   3.397   1.012 -0.7211 -2.3833  0.2687
 1393SOL     vw 5572   5.949   3.378   1.091 -0.1066 -0.6477  0.4846
 1394SOL     ow 5573   4.981   2.788   5.960  0.1605 -0.1438  0.8572
 1394SOL     hw 5574   4.934   2.805   5.879 -0.8123  0.7415  1.5764
 1394SOL     hw 5575   5.072   2.810   5.940 -0.1566  0.5726  0.1533
 1394SOL     vw 5576   4.987   2.793   5.947 -0.0098  0.0676  0.8590
 1395SOL     ow 5577   0.028   5.439   2.543  0.2582  0.1412 -0.3819
 1395SOL     hw 5578   0.038   5.453   2.637  1.6009  1.1153 -0.6525
 1395SOL     hw 5579   0.020   5.344   2.535 -1.3359  0.1140  0.8125
 1395SOL     vw 5580   0.028   5.428   2.555  0.2250  0.2661 -0.2601
 1396SOL     ow 5581   1.145   7.048   1.549  0.0703  0.2391  0.0336
 1396SOL     hw 5582   1.211   6.987   1.582  1.5612  1.8897  0.2440
 1396SOL     hw 5583   1.155   7.126   1.603  0.4211  1.8556 -2.2182
 1396SOL     vw 5584   1.155   7.050   1.560  0.3133  0.6700 -0.2357
 1397SOL     ow 5585   0.196   4.853   1.770  0.5406  0.5799 -0.4999
 1397SOL     hw 5586   0.114   4.881   1.728 -0.3951  0.4535  1.1415
 1397SOL     hw 5587   0.255   4.927   1.758 -0.5735  1.6481  0.2313
 1397SOL     vw 5588   0.193   4.867   1.763  0.2701  0.7043 -0.1868
 1398SOL     ow 5589   5.391   6.787   1.900 -0.0362  0.0413 -0.2465
 1398SOL     hw 5590   5.473   6.739   1.917 -0.3454 -0.3097  0.2942
 1398SOL     hw 5591   5.420   6.875   1.874  0.5186 -0.0891 -0.0900
 1398SOL     vw 5592   5.406   6.792   1.899 -0.0038 -0.0222 -0.1546
 1399SOL     ow 5593   1.385   3.777   3.080  0.0418 -0.4018  0.3935
 1399SOL     hw 5594   1.349   3.734   3.003 -0.1578 -0.4379  0.5080
 1399SOL     hw 5595   1.422   3.706   3.132  0.2975 -0.3627  0.2667
 1399SOL     vw 5596   1.385   3.762   3.077  0.0492 -0.4014  0.3918
 1400SOL     ow 5597   6.797   5.581   1.060  0.3001 -0.9089  0.0296
 1400SOL     hw 5598   6.798   5.488   1.037 -0.6004 -0.7372 -0.8112
 1400SOL     hw 5599   6.725   5.617   1.008 -0.4207 -0.0464  1.5607
 1400SOL     vw 5600   6.788   5.573   1.050  0.0863 -0.7727  0.1207
 1401SOL     ow 5601   2.803   6.362   1.871 -0.3068  0.6906 -0.1768
 1401SOL     hw 5602   2.714   6.371   1.904  0.1424  3.5013  0.5585
 1401SOL     hw 5603   2.853   6.327   1.946 -0.5628  0.3259 -0.1772
 1401SOL     vw 5604   2.798   6.359   1.885 -0.2815  1.0135 -0.0798
 1402SOL     ow 5605   7.019   4.527   3.496  0.5868  0.2088 -0.1669
 1402SOL     hw 5606   6.975   4.518   3.411  0.4428  0.4145 -0.1159
 1402SOL     hw 5607   6.969   4.595   3.541  1.0023  0.4982 -0.1370
 1402SOL     vw 5608   7.007   4.535   3.491  0.6227  0.2742 -0.1562
 1403SOL     ow 5609   5.377   0.805   5.817 -0.3248  0.1302  0.0648
 1403SOL     hw 5610   5.312   0.828   5.752  0.1010  1.0224 -0.0539
 1403SOL     hw 5611   5.328   0.756   5.884 -0.9956  0.2925 -0.3009
 1403SOL     vw 5612   5.362   0.801   5.817 -0.3574  0.2693  0.0007
 1404SOL     ow 5613   4.058   0.901   6.469  0.4346  0.2312  0.3317
 1404SOL     hw 5614   4.054   0.996   6.482  0.1764  0.5288 -1.6375
 1404SOL     hw 5615   3.972   0.879   6.434  0.9273 -0.5032 -0.4508
 1404SOL     vw 5616   4.046   0.911   6.466  0.4656  0.1736 -0.0312
 1405SOL     ow 5617   1.034   3.764   6.071 -0.2007 -0.1059 -0.6039
 1405SOL     hw 5618   1.028   3.741   6.164 -2.7691  0.4801 -0.5255
 1405SOL     hw 5619   1.121   3.801   6.061 -0.0084  0.2384  1.6849
 1405SOL     vw 5620   1.044   3.766   6.082 -0.5141  0.0169 -0.2918
 1406SOL     ow 5621   6.806   5.075   4.496 -0.2064 -0.5020 -0.0116
 1406SOL     hw 5622   6.823   5.139   4.565 -3.0708 -0.2480  0.5928
 1406SOL     hw 5623   6.866   5.100   4.425  0.3294  1.4436  1.0478
 1406SOL     vw 5624   6.816   5.087   4.496 -0.5136 -0.2120  0.2077
 1407SOL     ow 5625   0.967   3.610   3.149 -0.0236 -0.3291  0.5370
 1407SOL     hw 5626   0.880   3.571   3.144 -0.8606  1.3491  1.0382
 1407SOL     hw 5627   1.010   3.585   3.067 -1.0634 -0.9756  0.1687
 1407SOL     vw 5628   0.962   3.602   3.138 -0.2712 -0.1929  0.5546
 1408SOL     ow 5629   2.135   1.278   4.036 -0.1576 -0.6784 -0.2859
 1408SOL     hw 5630   2.055   1.319   4.067  0.2321 -0.8408  0.9764
 1408SOL     hw 5631   2.201   1.347   4.039  0.3685 -1.2050  1.3123
 1408SOL     vw 5632   2.133   1.292   4.040 -0.0367 -0.7693  0.0916
 1409SOL     ow 5633   0.200   3.992   6.958  0.6147  0.6544  0.1738
 1409SOL     hw 5634   0.237   4.080   6.969 -0.2958  1.0536  0.1622
 1409SOL     hw 5635   0.203   3.954   7.046  0.5874  0.8804  0.2748
 1409SOL     vw 5636   0.205   3.999   6.971  0.4910  0.7370  0.1857
 1410SOL     ow 5637   2.270   0.812   1.949  0.2071  0.3985  0.0415
 1410SOL     hw 5638   2.238   0.862   2.024 -2.0716 -1.0550  0.1498
 1410SOL     hw 5639   2.280   0.723   1.983  0.5725  0.0215 -1.0253
 1410SOL     vw 5640   2.267   0.806   1.963 -0.0453  0.1570 -0.0850
 1411SOL     ow 5641   7.113   2.288   3.715 -0.3584 -0.0123  0.1389
 1411SOL     hw 5642   7.156   2.374   3.707 -2.2490  0.8367 -1.7213
 1411SOL     hw 5643   7.054   2.298   3.790 -1.0574  0.5673 -0.4730
 1411SOL     vw 5644   7.111   2.301   3.724 -0.7000  0.1761 -0.1872
 1412SOL     ow 5645   5.910   1.143   5.155  0.1609  0.3133 -0.0314
 1412SOL     hw 5646   5.924   1.197   5.233  0.9477  0.3789 -0.2135
 1412SOL     hw 5647   5.880   1.058   5.189 -1.1785  0.8785  0.2510
 1412SOL     vw 5648   5.908   1.139   5.170  0.0877  0.3965 -0.0181
 1413SOL     ow 5649   0.263   0.129   3.093  0.1348 -0.1544  0.1336
 1413SOL     hw 5650   0.353   0.142   3.122  0.3600 -0.1522 -0.5459
 1413SOL     hw 5651   0.268   0.054   3.033 -0.5240 -0.9716  1.0698
 1413SOL     vw 5652   0.276   0.120   3.089  0.0776 -0.2619  0.1675
 1414SOL     ow 5653   7.103   4.506   5.980  0.4960 -0.2319 -0.2644
 1414SOL     hw 5654   7.150   4.588   5.967 -2.2172  0.9504 -5.2368
 1414SOL     hw 5655   7.033   4.528   6.041  0.8421  0.6237 -0.1616
 1414SOL     vw 5656   7.100   4.519   5.986  0.1836  0.0370 -0.9067
 1415SOL     ow 5657   4.682   6.359   0.880  0.3585  0.2803  0.2033
 1415SOL     hw 5658   4.614   6.381   0.944 -0.3374  0.7621 -0.6869
 1415SOL     hw 5659   4.652   6.277   0.841 -0.0043  0.7735 -0.5767
 1415SOL     vw 5660   4.669   6.351   0.884  0.2189  0.4091 -0.0171
 1416SOL     ow 5661   0.081   2.371   1.652 -0.2006 -0.4841 -0.2428
 1416SOL     hw 5662   0.082   2.367   1.556 -0.4015 -1.8196 -0.2078
 1416SOL     hw 5663   0.157   2.321   1.679 -1.6815 -2.5782  0.3095
 1416SOL     vw 5664   0.091   2.364   1.643 -0.4225 -0.9365 -0.1653
 1417SOL     ow 5665   4.240   3.526   6.169  0.2531 -0.0983  0.3555
 1417SOL     hw 5666   4.151   3.536   6.136  0.0128 -0.5878  0.8348
 1417SOL     hw 5667   4.292   3.500   6.093 -0.5009 -2.3444  0.5239
 1417SOL     vw 5668   4.235   3.524   6.155  0.1218 -0.4593  0.4411
 1418SOL     ow 5669   3.313   6.211   0.295  0.4948  0.1712  0.1039
 1418SOL     hw 5670   3.220   6.190   0.291  0.4769  0.1501  0.5805
 1418SOL     hw 5671   3.352   6.161   0.224  0.7101 -2.8397  2.1276
 1418SOL     vw 5672   3.306   6.202   0.285  0.5208 -0.2289  0.4338
 1419SOL     ow 5673   1.834   6.461   2.108  0.2431  0.1922  0.5429
 1419SOL     hw 5674   1.922   6.498   2.116  1.1012 -2.0350  2.2316
 1419SOL     hw 5675   1.848   6.367   2.098 -1.9371 -0.4260  2.4156
 1419SOL     vw 5676   1.848   6.454   2.108  0.0687 -0.1831  1.0129
 1420SOL     ow 5677   6.684   1.335   6.918 -0.6752  0.2677 -0.5665
 1420SOL     hw 5678   6.602   1.334   6.968 -0.1968  2.1868  0.3539
 1420SOL     hw 5679   6.741   1.275   6.966 -1.8256 -2.0241 -1.8758
 1420SOL     vw 5680   6.680   1.327   6.931 -0.7639  0.2185 -0.6175
 1421SOL     ow 5681   6.550   5.789   2.762  0.1972 -0.1393 -0.3148
 1421SOL     hw 5682   6.504   5.736   2.828  0.0363  0.9001  0.4267
 1421SOL     hw 5683   6.488   5.859   2.741  0.6778  0.1421 -0.7925
 1421SOL     vw 5684   6.535   5.791   2.768  0.2394  0.0350 -0.2800
 1422SOL     ow 5685   2.982   0.747   6.870  0.0942 -0.1974 -0.4512
 1422SOL     hw 5686   2.944   0.832   6.849  1.6007  0.5885 -0.1673
 1422SOL     hw 5687   2.908   0.696   6.904 -0.8625  0.9611 -0.6930
 1422SOL     vw 5688   2.967   0.752   6.872  0.1667  0.0592 -0.4456
 1423SOL     ow 5689   1.705   0.852   2.201 -0.6833  0.0120 -0.0648
 1423SOL     hw 5690   1.757   0.828   2.124 -0.1371  0.2211  0.2283
 1423SOL     hw 5691   1.673   0.769   2.235  0.6018 -0.2660  0.5318
 1423SOL     vw 5692   1.708   0.838   2.195 -0.4417  0.0029  0.0527
 1424SOL     ow 5693   5.534   0.150   0.390  0.0832 -0.2820  0.2604
 1424SOL     hw 5694   5.588   0.101   0.452  0.3705 -1.1334 -0.6341
 1424SOL     hw 5695   5.596   0.205   0.343  0.2370 -1.4479 -0.9425
 1424SOL     vw 5696   5.549   0.151   0.392  0.1414 -0.5481 -0.0164
 1425SOL     ow 5697   0.974   0.127   1.925  0.5285  0.2695 -0.4059
 1425SOL     hw 5698   1.009   0.127   2.014  1.4439  0.4192 -0.7520
 1425SOL     hw 5699   1.042   0.083   1.874 -0.8355 -1.6036 -0.7085
 1425SOL     vw 5700   0.988   0.121   1.930  0.4693  0.0421 -0.4915
 1426SOL     ow 5701   0.762   1.680   3.684 -0.5380  0.3933 -0.3588
 1426SOL     hw 5702   0.722   1.767   3.691 -1.6241  0.2433 -3.3576
 1426SOL     hw 5703   0.807   1.682   3.600 -0.1990 -1.7974 -0.2652
 1426SOL     vw 5704   0.762   1.692   3.674 -0.6365  0.0844 -0.7421
 1427SOL     ow 5705   6.248   4.866   0.383 -0.1607  0.1193  0.4133
 1427SOL     hw 5706   6.255   4.941   0.443 -0.2687 -1.0630  1.9474
 1427SOL     hw 5707   6.334   4.863   0.340 -0.1373  1.0875  0.3569
 1427SOL     vw 5708   6.260   4.876   0.386 -0.1717  0.0911  0.6082
 1428SOL     ow 5709   3.055   4.272   0.587 -0.1686  0.0785  0.4855
 1428SOL     hw 5710   2.980   4.219   0.614 -0.6285  0.1127 -0.6541
 1428SOL     hw 5711   3.056   4.264   0.491 -1.0590  3.1353  0.0919
 1428SOL     vw 5712   3.045   4.264   0.578 -0.3468  0.4861  0.2832
 1429SOL     ow 5713   2.072   1.870   4.960  0.2211 -0.1063  0.2349
 1429SOL     hw 5714   2.050   1.952   4.918  1.0547 -0.0843 -0.1881
 1429SOL     hw 5715   1.993   1.816   4.951 -0.4467  0.7495  0.8131
 1429SOL     vw 5716   2.059   1.873   4.953  0.2428  0.0095  0.2553
 1430SOL     ow 5717   4.503   0.250   5.329 -0.0812  0.2140  0.4022
 1430SOL     hw 5718   4.579   0.203   5.363  0.4982  0.7772 -0.0836
 1430SOL     hw 5719   4.431   0.223   5.386 -0.0543 -2.2024 -0.6169
 1430SOL     vw 5720   4.504   0.241   5.341 -0.0012 -0.0305  0.2036
 1431SOL     ow 5721   0.228   2.615   0.747 -0.3125  0.6730  0.0953
 1431SOL     hw 5722   0.141   2.618   0.786  0.1976 -1.4500  1.5631
 1431SOL     hw 5723   0.230   2.535   0.695  0.0715  1.8666 -1.8451
 1431SOL     vw 5724   0.217   2.605   0.745 -0.1945  0.5503  0.0330
 1432SOL     ow 5725   4.165   6.279   4.961 -0.5140  0.6228 -0.5173
 1432SOL     hw 5726   4.179   6.185   4.952 -1.9134  0.4675 -1.3543
 1432SOL     hw 5727   4.167   6.313   4.871 -1.6306  1.1264 -0.3650
 1432SOL     vw 5728   4.167   6.271   4.948 -0.8461  0.6688 -0.6077
 1433SOL     ow 5729   1.852   5.127   2.560 -0.2011  0.8740 -0.3746
 1433SOL     hw 5730   1.812   5.178   2.489 -0.2330 -0.4338 -1.3200
 1433SOL     hw 5731   1.850   5.037   2.529  0.0972  0.3117  1.1594
 1433SOL     vw 5732   1.846   5.122   2.546 -0.1660  0.6273 -0.2968
 1434SOL     ow 5733   3.270   0.751   6.819  0.5927  0.2678  0.1720
 1434SOL     hw 5734   3.351   0.708   6.845  0.5659  0.1934  0.1316
 1434SOL     hw 5735   3.280   0.841   6.850  0.9124  0.3975 -0.2881
 1434SOL     vw 5736   3.282   0.758   6.827  0.6315  0.2751  0.1061
 1435SOL     ow 5737   1.977   0.258   3.253  0.6157  0.1211  0.8255
 1435SOL     hw 5738   2.039   0.274   3.324  1.3751 -1.2619  0.5153
 1435SOL     hw 5739   2.004   0.174   3.216 -2.1598 -1.1370  1.4201
 1435SOL     vw 5740   1.989   0.249   3.257  0.3496 -0.2273  0.8630
 1436SOL     ow 5741   1.668   0.314   3.533 -0.8012  0.8545 -0.0617
 1436SOL     hw 5742   1.750   0.273   3.562  0.5205  3.6135  0.5003
 1436SOL     hw 5743   1.677   0.320   3.438 -0.9625  0.0096 -0.1389
 1436SOL     vw 5744   1.680   0.309   3.525 -0.6481  1.1071  0.0024
 1437SOL     ow 5745   0.954   0.070   1.093  0.1344  0.1750 -0.2148
 1437SOL     hw 5746   0.970   0.135   1.161  0.4281 -0.4405  0.3127
 1437SOL     hw 5747   0.889   0.110   1.036 -1.2708  0.0946  1.2765
 1437SOL     vw 5748   0.948   0.084   1.095 -0.0122  0.0832  0.0516
 1438SOL     ow 5749   3.452   2.283   5.955 -0.1177  0.4002  0.3576
 1438SOL     hw 5750   3.541   2.301   5.925  0.1271 -0.3847  0.6046
 1438SOL     hw 5751   3.421   2.367   5.990 -1.0959  1.9585 -3.6470
 1438SOL     vw 5752   3.459   2.296   5.956 -0.2145  0.5023 -0.1378
 1439SOL     ow 5753   4.319   5.511   4.895 -0.5113  0.1985  0.7972
 1439SOL     hw 5754   4.358   5.598   4.885 -1.9075  0.6399 -1.4898
 1439SOL     hw 5755   4.229   5.528   4.923 -0.9090 -0.4699 -0.0352
 1439SOL     vw 5756   4.312   5.525   4.897 -0.7482  0.1686  0.3858
 1440SOL     ow 5757   0.158   4.956   6.083 -0.0265  0.5114 -0.7292
 1440SOL     hw 5758   0.248   4.963   6.114 -0.8821 -0.6667  2.3472
 1440SOL     hw 5759   0.151   4.867   6.048  0.6404  1.4929 -3.6770
 1440SOL     vw 5760   0.169   4.946   6.082 -0.0514  0.4854 -0.7124
 1441SOL     ow 5761   4.685   5.294   6.348 -0.3996 -0.8425 -0.2680
 1441SOL     hw 5762   4.611   5.338   6.389  0.2757 -0.6836  0.8295
 1441SOL     hw 5763   4.748   5.363   6.330 -0.9218 -0.8082 -2.2203
 1441SOL     vw 5764   4.684   5.309   6.351 -0.3793 -0.8171 -0.3805
 1442SOL     ow 5765   0.826   2.154   3.481 -0.4028  0.4018 -0.0029
 1442SOL     hw 5766   0.794   2.148   3.391 -2.8479  0.9341  0.7310
 1442SOL     hw 5767   0.798   2.072   3.521  1.9518 -0.4819 -0.0289
 1442SOL     vw 5768   0.818   2.142   3.475 -0.4148  0.3555  0.0906
 1443SOL     ow 5769   5.027   1.810   6.192  0.4840 -0.1248  0.2494
 1443SOL     hw 5770   5.036   1.757   6.271 -0.0359  1.1486  1.2017
 1443SOL     hw 5771   5.042   1.900   6.222 -0.6501  0.4801 -0.9169
 1443SOL     vw 5772   5.030   1.815   6.207  0.2658  0.1230  0.2213
 1444SOL     ow 5773   0.676   6.073   2.416 -0.0630 -0.0373 -0.4292
 1444SOL     hw 5774   0.614   6.056   2.487  0.6884 -0.3396  0.1744
 1444SOL     hw 5775   0.623   6.110   2.346 -0.9461 -0.4215  0.0199
 1444SOL     vw 5776   0.661   6.076   2.416 -0.0803 -0.1278 -0.2903
 1445SOL     ow 5777   5.776   2.214   1.985  0.5724  0.3280  0.6124
 1445SOL     hw 5778   5.811   2.126   2.004 -1.0490 -0.7017 -0.8614
 1445SOL     hw 5779   5.717   2.231   2.059 -2.7166 -1.9773 -1.1883
 1445SOL     vw 5780   5.772   2.204   1.998 -0.0756 -0.1121  0.1803
 1446SOL     ow 5781   2.925   1.334   2.882 -0.1098  0.0706  0.4265
 1446SOL     hw 5782   2.920   1.300   2.793 -0.4441  1.3854 -0.0687
 1446SOL     hw 5783   2.892   1.262   2.937  0.5503 -0.9252 -0.4437
 1446SOL     vw 5784   2.920   1.320   2.878 -0.0668  0.1127  0.2463
 1447SOL     ow 5785   5.418   6.769   1.581  0.1726  0.6031  0.0020
 1447SOL     hw 5786   5.417   6.861   1.557  0.8595  0.7483  0.4835
 1447SOL     hw 5787   5.511   6.745   1.579  0.1437  0.2926  1.2002
 1447SOL     vw 5788   5.430   6.778   1.578  0.2594  0.5813  0.2236
 1448SOL     ow 5789   3.558   6.805   4.232  0.7853 -0.9412 -0.4894
 1448SOL     hw 5790   3.565   6.795   4.137  1.9659 -1.8929 -0.3206
 1448SOL     hw 5791   3.639   6.850   4.257 -1.2157  3.0297 -0.3482
 1448SOL     vw 5792   3.570   6.810   4.223  0.6770 -0.5431 -0.4487
 1449SOL     ow 5793   5.527   1.487   5.180  0.3529 -0.1315 -0.0750
 1449SOL     hw 5794   5.470   1.503   5.105  1.7826  0.0311 -1.1577
 1449SOL     hw 5795   5.526   1.392   5.191  0.3186 -0.1725 -0.4314
 1449SOL     vw 5796   5.519   1.477   5.172  0.5372 -0.1155 -0.2646
 1450SOL     ow 5797   3.656   4.182   4.417  0.0458  0.2460 -0.8038
 1450SOL     hw 5798   3.637   4.268   4.455 -0.4325 -1.0736  2.1801
 1450SOL     hw 5799   3.577   4.160   4.368  0.4711  1.7811 -2.2630
 1450SOL     vw 5800   3.643   4.191   4.416  0.0390  0.2747 -0.6027
 1451SOL     ow 5801   3.601   0.127   5.222 -0.4856 -0.3340  0.3750
 1451SOL     hw 5802   3.586   0.102   5.131 -1.4784  1.3203  0.0429
 1451SOL     hw 5803   3.694   0.147   5.226 -0.4564 -0.3137 -0.3069
 1451SOL     vw 5804   3.611   0.126   5.211 -0.6126 -0.1130  0.2413
 1452SOL     ow 5805   6.303   0.412   4.177 -0.8946  0.4024 -0.3467
 1452SOL     hw 5806   6.326   0.324   4.208  0.7355  0.8401 -0.2315
 1452SOL     hw 5807   6.207   0.412   4.175 -0.9325 -1.3620 -0.3270
 1452SOL     vw 5808   6.293   0.401   4.181 -0.6847  0.2273 -0.3290
 1453SOL     ow 5809   6.922   4.745   3.611 -0.7839  0.0343 -0.2995
 1453SOL     hw 5810   6.935   4.840   3.614 -2.4218  0.3507 -1.5757
 1453SOL     hw 5811   6.851   4.729   3.673  0.6825 -0.6605  1.2846
 1453SOL     vw 5812   6.914   4.756   3.620 -0.8068 -0.0155 -0.2589
 1454SOL     ow 5813   4.111   7.021   1.579 -0.2174 -0.0975  0.2533
 1454SOL     hw 5814   4.156   6.951   1.626 -0.3597 -0.1777  0.2720
 1454SOL     hw 5815   4.077   6.978   1.501 -0.9921 -0.2345  0.6557
 1454SOL     vw 5816   4.112   7.006   1.575 -0.3386 -0.1261  0.3089
 1455SOL     ow 5817   5.462   4.304   6.465 -0.0257 -0.2524  0.5536
 1455SOL     hw 5818   5.389   4.302   6.403  1.3168 -1.7486 -1.0919
 1455SOL     hw 5819   5.461   4.217   6.506  1.5265 -0.7752 -0.4188
 1455SOL     vw 5820   5.452   4.292   6.462  0.3562 -0.5188  0.2081
 1456SOL     ow 5821   2.615   5.774   6.363  0.6664  0.1256  0.3823
 1456SOL     hw 5822   2.531   5.743   6.399  0.7207 -0.1294  0.2902
 1456SOL     hw 5823   2.657   5.695   6.330  1.0869  0.2081  0.7134
 1456SOL     vw 5824   2.609   5.760   6.363  0.7291  0.1025  0.4141
 1457SOL     ow 5825   5.507   3.254   0.515  0.4244 -0.1445  0.1487
 1457SOL     hw 5826   5.589   3.204   0.509  0.0765 -0.6425 -0.7002
 1457SOL     hw 5827   5.443   3.191   0.549  0.0583 -0.1824 -0.6011
 1457SOL     vw 5828   5.509   3.239   0.519  0.3300 -0.2152 -0.0622
 1458SOL     ow 5829   1.589   4.739   3.997  0.0794  0.3677 -0.2274
 1458SOL     hw 5830   1.644   4.815   4.019  0.1925  0.3815 -0.5585
 1458SOL     hw 5831   1.520   4.740   4.063  0.7829  0.0319  0.5295
 1458SOL     vw 5832   1.587   4.749   4.009  0.1872  0.3252 -0.1714
 1459SOL     ow 5833   5.330   0.378   2.460  0.3294 -0.9161  0.0563
 1459SOL     hw 5834   5.415   0.348   2.493  0.8742  0.2999 -0.2264
 1459SOL     hw 5835   5.347   0.464   2.422 -1.2660 -0.0564  1.1613
 1459SOL     vw 5836   5.344   0.385   2.459  0.1907 -0.6422  0.1649
 1460SOL     ow 5837   6.500   1.479   2.301  0.2824 -0.6637 -0.7947
 1460SOL     hw 5838   6.511   1.519   2.387  0.3941 -2.8435  0.2788
 1460SOL     hw 5839   6.479   1.552   2.243  0.8965  0.9695  0.9286
 1460SOL     vw 5840   6.499   1.494   2.305  0.3784 -0.7358 -0.4257
 1461SOL     ow 5841   3.347   1.911   3.811 -0.1548 -0.2149  0.2631
 1461SOL     hw 5842   3.355   1.895   3.717 -0.1907  0.2930  0.1717
 1461SOL     hw 5843   3.295   1.838   3.844 -0.2574 -0.3225 -0.1336
 1461SOL     vw 5844   3.342   1.899   3.803 -0.1731 -0.1621  0.1987
 1462SOL     ow 5845   4.082   3.315   3.198 -0.5886  0.3053 -0.0491
 1462SOL     hw 5846   4.004   3.308   3.252 -1.5245  0.4912 -1.3163
 1462SOL     hw 5847   4.123   3.228   3.204  1.3576  1.2905  3.7610
 1462SOL     vw 5848   4.077   3.302   3.206 -0.4554  0.4598  0.2865
 1463SOL     ow 5849   5.515   3.734   1.641  0.4326 -0.0489  0.1017
 1463SOL     hw 5850   5.461   3.769   1.570  0.9314 -0.0969 -0.3129
 1463SOL     hw 5851   5.562   3.661   1.601  0.2778 -0.4532  0.6462
 1463SOL     vw 5852   5.514   3.729   1.626  0.4783 -0.1085  0.1189
 1464SOL     ow 5853   3.113   6.584   0.923 -0.1716  0.2882  0.6298
 1464SOL     hw 5854   3.201   6.619   0.911 -0.1461  0.7134  1.8817
 1464SOL     hw 5855   3.127   6.492   0.947 -0.0117  0.5707  1.6604
 1464SOL     vw 5856   3.126   6.577   0.925 -0.1470  0.3815  0.9310
 1465SOL     ow 5857   6.027   6.360   5.950 -0.5596 -0.0868 -0.0256
 1465SOL     hw 5858   5.968   6.433   5.931 -0.0969  0.2651 -0.1208
 1465SOL     hw 5859   5.971   6.283   5.943 -1.0612  0.2562  0.1010
 1465SOL     vw 5860   6.011   6.360   5.947 -0.5646  0.0050 -0.0215
 1466SOL     ow 5861   1.959   4.224   5.563 -0.6030 -0.8399 -0.0595
 1466SOL     hw 5862   2.050   4.249   5.543 -0.6750 -1.5777 -1.3941
 1466SOL     hw 5863   1.908   4.262   5.492 -1.8269  2.3053  2.2871
 1466SOL     vw 5864   1.964   4.232   5.551 -0.7740 -0.5224  0.0739
 1467SOL     ow 5865   4.767   4.056   4.957  0.0783 -0.0987  0.3876
 1467SOL     hw 5866   4.862   4.062   4.968  0.2984  0.9100 -1.6673
 1467SOL     hw 5867   4.752   3.967   4.925  0.4710  0.0800 -0.3153
 1467SOL     vw 5868   4.778   4.045   4.954  0.1590  0.0577  0.0238
 1468SOL     ow 5869   1.678   0.798   7.007 -0.1922 -0.1732 -0.6607
 1468SOL     hw 5870   1.660   0.730   6.942 -1.5266 -0.5297  0.0542
 1468SOL     hw 5871   1.649   0.760   7.090  1.1579  0.4033  0.1158
 1468SOL     vw 5872   1.672   0.784   7.009 -0.1902 -0.1442 -0.4640
 1469SOL     ow 5873   6.656   4.457   4.993  0.1791  0.1811 -0.1238
 1469SOL     hw 5874   6.637   4.484   5.083  0.5981  2.5373 -0.6535
 1469SOL     hw 5875   6.573   4.468   4.947  0.0069 -0.8562 -0.0691
 1469SOL     vw 5876   6.642   4.462   4.998  0.2117  0.3550 -0.1864
 1470SOL     ow 5877   6.234   5.344   4.608 -0.2120 -0.3122 -0.4175
 1470SOL     hw 5878   6.198   5.258   4.585  2.0293 -0.9000 -2.2819
 1470SOL     hw 5879   6.162   5.405   4.594 -0.9447 -1.5319 -2.5405
 1470SOL     vw 5880   6.220   5.340   4.603 -0.0126 -0.5507 -0.9434
 1471SOL     ow 5881   1.340   5.195   5.376 -0.2367  0.1560  0.5864
 1471SOL     hw 5882   1.391   5.128   5.420  0.6138  0.9730  0.8616
 1471SOL     hw 5883   1.252   5.156   5.368  0.1322 -0.8218  1.0868
 1471SOL     vw 5884   1.335   5.181   5.381 -0.0758  0.1347  0.6886
 1472SOL     ow 5885   4.107   5.850   4.070 -0.1102  0.1058  0.5032
 1472SOL     hw 5886   4.153   5.922   4.028  2.3382 -1.7672 -0.2846
 1472SOL     hw 5887   4.052   5.813   4.000  0.1296  0.0351  0.3504
 1472SOL     vw 5888   4.106   5.854   4.055  0.2444 -0.1509  0.3788
 1473SOL     ow 5889   3.701   0.761   6.049  0.2630 -0.3806  0.0530
 1473SOL     hw 5890   3.770   0.825   6.034 -1.0429  0.9472 -0.5233
 1473SOL     hw 5891   3.648   0.799   6.120 -1.2855 -0.1349 -1.1873
 1473SOL     vw 5892   3.703   0.775   6.057 -0.1135 -0.1730 -0.1869
 1474SOL     ow 5893   0.249   6.086   0.310  0.0120  0.4484  0.8126
 1474SOL     hw 5894   0.191   6.095   0.235 -0.4504  1.0124  1.2381
 1474SOL     hw 5895   0.337   6.086   0.272 -0.0595  3.4519  0.4670
 1474SOL     vw 5896   0.253   6.087   0.295 -0.0584  0.9191  0.8232
 1475SOL     ow 5897   4.633   0.673   0.246  0.2104 -0.1160  0.5122
 1475SOL     hw 5898   4.710   0.665   0.302 -0.8769 -2.1247  1.8471
 1475SOL     hw 5899   4.559   0.663   0.305 -1.0165 -0.8551 -1.0618
 1475SOL     vw 5900   4.633   0.670   0.261 -0.0949 -0.4785  0.4806
 1476SOL     ow 5901   0.842   6.866   1.680  0.7513 -0.0754  0.0814
 1476SOL     hw 5902   0.855   6.916   1.599 -0.7475 -0.7179 -0.5968
 1476SOL     hw 5903   0.876   6.779   1.660 -3.7656 -1.7522 -1.6870
 1476SOL     vw 5904   0.848   6.861   1.666 -0.0424 -0.3812 -0.2414
 1477SOL     ow 5905   3.547   1.407   0.221 -0.2422 -0.0140  0.8664
 1477SOL     hw 5906   3.579   1.492   0.191 -0.6101 -0.6453 -1.4716
 1477SOL     hw 5907   3.458   1.402   0.186 -0.8346 -0.7003  2.3914
 1477SOL     vw 5908   3.540   1.418   0.213 -0.3690 -0.1878  0.7591
 1478SOL     ow 5909   2.442   6.136   1.860 -0.3539 -0.0465  0.1424
 1478SOL     hw 5910   2.514   6.106   1.804 -1.5325  0.0529 -1.4965
 1478SOL     hw 5911   2.484   6.196   1.922  1.2629 -1.4209  0.4589
 1478SOL     vw 5912   2.457   6.140   1.860 -0.2961 -0.2148 -0.0321
 1479SOL     ow 5913   2.396   4.651   3.465  0.0131  0.1372 -0.3674
 1479SOL     hw 5914   2.384   4.567   3.422  1.2969 -0.4404  0.3277
 1479SOL     hw 5915   2.399   4.630   3.559  1.5972  0.7659 -0.2446
 1479SOL     vw 5916   2.395   4.637   3.472  0.3915  0.1440 -0.2594
 1480SOL     ow 5917   1.643   0.832   3.324 -0.3080  0.2772 -0.4980
 1480SOL     hw 5918   1.684   0.784   3.396 -0.2157 -0.6718 -1.1544
 1480SOL     hw 5919   1.700   0.908   3.310  0.5505 -0.3582 -0.5782
 1480SOL     vw 5920   1.656   0.835   3.331 -0.1826  0.0682 -0.5951
 1481SOL     ow 5921   2.673   0.650   3.848 -0.3387  0.2764  0.7078
 1481SOL     hw 5922   2.712   0.574   3.805  0.6828  0.2724  1.6083
 1481SOL     hw 5923   2.700   0.643   3.940  1.2736  2.6286  0.5078
 1481SOL     vw 5924   2.682   0.639   3.855  0.0089  0.5862  0.8003
 1482SOL     ow 5925   3.217   2.153   6.330 -0.5148  0.2252  0.0363
 1482SOL     hw 5926   3.282   2.145   6.400  1.1009  2.1125 -1.1523
 1482SOL     hw 5927   3.262   2.121   6.252 -1.5877  0.0511 -0.5254
 1482SOL     vw 5928   3.232   2.148   6.329 -0.4432  0.4512 -0.1945
 1483SOL     ow 5929   5.797   6.168   3.201 -0.0119  0.6817  0.5851
 1483SOL     hw 5930   5.736   6.203   3.136  0.1576 -1.3339 -0.7317
 1483SOL     hw 5931   5.745   6.164   3.282 -1.9792 -1.6017 -0.6369
 1483SOL     vw 5932   5.782   6.172   3.203 -0.2491  0.1144  0.2502
 1484SOL     ow 5933   6.278   3.325   6.933  0.0305  0.7351  0.2444
 1484SOL     hw 5934   6.370   3.340   6.957  0.8154  0.3363 -2.2902
 1484SOL     hw 5935   6.279   3.242   6.885 -2.2426 -1.0550  2.9765
 1484SOL     vw 5936   6.290   3.316   6.930 -0.1657  0.4463  0.2706
 1485SOL     ow 5937   4.722   1.117   6.935 -0.1372 -0.3041  0.1296
 1485SOL     hw 5938   4.816   1.112   6.950 -0.1792  0.8057  0.9045
 1485SOL     hw 5939   4.682   1.078   7.013 -0.3187  0.3238  0.3589
 1485SOL     vw 5940   4.729   1.111   6.947 -0.1667 -0.0748  0.2625
 1486SOL     ow 5941   0.559   4.251   4.646  0.2998 -0.6306 -0.5253
 1486SOL     hw 5942   0.515   4.171   4.675  0.3918 -1.1223 -1.7042
 1486SOL     hw 5943   0.493   4.319   4.654  0.1268 -0.8716  0.1905
 1486SOL     vw 5944   0.545   4.249   4.651  0.2891 -0.7272 -0.5863
 1487SOL     ow 5945   3.411   3.394   3.235 -0.6516  0.2350  0.7526
 1487SOL     hw 5946   3.389   3.432   3.150 -1.9230  0.9566  1.3592
 1487SOL     hw 5947   3.404   3.300   3.222  0.1370  0.2961 -0.1776
 1487SOL     vw 5948   3.407   3.387   3.222 -0.7154  0.3383  0.7100
 1488SOL     ow 5949   4.931   1.756   6.833  0.0180 -0.2058 -0.0660
 1488SOL     hw 5950   4.960   1.762   6.742 -1.2042  0.0651 -0.4666
 1488SOL     hw 5951   4.856   1.697   6.831 -1.4854  1.5785  0.3404
 1488SOL     vw 5952   4.925   1.749   6.821 -0.3417  0.0654 -0.0656
 1489SOL     ow 5953   6.930   5.736   5.754 -0.3847 -0.3204  0.1490
 1489SOL     hw 5954   6.943   5.820   5.798  1.5710 -0.5493  0.0874
 1489SOL     hw 5955   6.916   5.759   5.662  2.5635 -0.0785 -0.3279
 1489SOL     vw 5956   6.930   5.750   5.748  0.2620 -0.3185  0.0780
 1490SOL     ow 5957   1.465   5.284   3.177 -0.4612 -0.0669 -0.5114
 1490SOL     hw 5958   1.427   5.251   3.095 -0.4071 -1.1891 -0.1035
 1490SOL     hw 5959   1.447   5.215   3.241 -0.5079  0.7987  0.4343
 1490SOL     vw 5960   1.457   5.270   3.174 -0.4602 -0.1006 -0.3327
 1491SOL     ow 5961   1.727   5.148   0.071 -0.5355 -0.2523  1.0353
 1491SOL     hw 5962   1.780   5.100   0.008 -0.3110  0.2719  0.8277
 1491SOL     hw 5963   1.641   5.156   0.029 -0.1250  0.8966  0.4087
 1491SOL     vw 5964   1.722   5.143   0.057 -0.4518 -0.0319  0.9253
 1492SOL     ow 5965   1.704   4.789   4.353  0.0668 -0.6274 -0.5921
 1492SOL     hw 5966   1.772   4.757   4.294  2.6710  0.5345  1.5792
 1492SOL     hw 5967   1.713   4.884   4.352  0.9516 -0.5746  2.3361
 1492SOL     vw 5968   1.714   4.797   4.345  0.5271 -0.4671  0.0806
 1493SOL     ow 5969   6.205   0.802   2.124  0.1167  0.5928 -0.5080
 1493SOL     hw 5970   6.149   0.724   2.124 -1.4227  1.6241  0.9920
 1493SOL     hw 5971   6.281   0.777   2.177  0.5774 -0.4522 -1.6030
 1493SOL     vw 5972   6.208   0.788   2.131 -0.0257  0.5910 -0.4545
 1494SOL     ow 5973   0.555   6.440   6.406  0.1488 -0.0833 -0.0048
 1494SOL     hw 5974   0.564   6.495   6.484  0.6551  0.3311 -0.3507
 1494SOL     hw 5975   0.467   6.401   6.415 -0.1114  0.5691  0.3781
 1494SOL     vw 5976   0.544   6.442   6.418  0.1813  0.0575  0.0002
 1495SOL     ow 5977   6.875   0.875   1.157 -0.2640  0.2460  0.0192
 1495SOL     hw 5978   6.936   0.885   1.230 -1.8084 -1.8535  1.7601
 1495SOL     hw 5979   6.789   0.873   1.198 -1.2210 -0.6760 -1.8986
 1495SOL     vw 5980   6.872   0.876   1.172 -0.5939 -0.1526 -0.0041
 1496SOL     ow 5981   4.727   3.337   1.319  0.1805 -0.0472  0.2812
 1496SOL     hw 5982   4.634   3.314   1.323  0.1396  0.0391 -0.1208
 1496SOL     hw 5983   4.759   3.293   1.240  0.6796 -0.7752  0.8672
 1496SOL     vw 5984   4.719   3.328   1.309  0.2410 -0.1320  0.3055
 1497SOL     ow 5985   0.676   0.232   1.949 -0.1705  0.4619 -0.0457
 1497SOL     hw 5986   0.606   0.204   1.890  1.7246  0.4050 -2.4302
 1497SOL     hw 5987   0.684   0.161   2.012 -0.3941 -0.8821 -1.4675
 1497SOL     vw 5988   0.668   0.219   1.950  0.0500  0.2771 -0.5479
 1498SOL     ow 5989   0.268   5.479   0.008  0.0171  0.7802  0.4358
 1498SOL     hw 5990   0.356   5.448   0.029 -0.2910 -0.3556  0.1727
 1498SOL     hw 5991   0.240   5.528   0.085  0.8460  1.0702  0.5576
 1498SOL     vw 5992   0.276   5.481   0.021  0.0858  0.6688  0.4171
 1499SOL     ow 5993   4.998   6.465   2.732 -0.1330 -0.7000  0.6037
 1499SOL     hw 5994   5.084   6.437   2.702 -0.3540  0.2077 -0.9987
 1499SOL     hw 5995   4.940   6.393   2.710 -0.1701 -0.3291 -0.5990
 1499SOL     vw 5996   5.001   6.452   2.725 -0.1671 -0.5312  0.2338
 1500SOL     ow 5997   5.391   6.994   5.445  0.0940  0.1561  0.6530
 1500SOL     hw 5998   5.436   7.048   5.510  0.4059 -0.7866  1.2499
 1500SOL     hw 5999   5.385   6.907   5.486 -0.0543 -0.3580 -0.4173
 1500SOL     vw 6000   5.397   6.990   5.459  0.1154 -0.0360  0.5906
 1501SOL     ow 6001   4.023   3.306   1.082 -0.0509 -0.2892  0.5424
 1501SOL     hw 6002   4.021   3.211   1.091 -1.6571 -0.3756 -0.4975
 1501SOL     hw 6003   4.042   3.322   0.990  1.5904  0.4578  0.9521
 1501SOL     vw 6004   4.026   3.296   1.071 -0.0463 -0.2021  0.4593
 1502SOL     ow 6005   5.291   6.476   4.337 -0.1230 -0.3185 -0.6123
 1502SOL     hw 6006   5.304   6.532   4.261  0.6421 -0.6941 -0.7561
 1502SOL     hw 6007   5.230   6.526   4.392  2.9829  2.2813  0.8262
 1502SOL     vw 6008   5.284   6.490   4.335  0.3879 -0.0250 -0.4418
 1503SOL     ow 6009   2.058   1.410   4.298 -0.0005 -0.2885  0.0015
 1503SOL     hw 6010   1.974   1.395   4.341  0.4231 -1.4006  0.4763
 1503SOL     hw 6011   2.056   1.502   4.272 -1.6693 -0.4923 -0.6760
 1503SOL     vw 6012   2.047   1.420   4.301 -0.1647 -0.4621 -0.0255
 1504SOL     ow 6013   6.832   2.737   6.545 -0.6420 -0.3276 -0.1383
 1504SOL     hw 6014   6.865   2.807   6.601  0.3400 -1.8573  1.2819
 1504SOL     hw 6015   6.752   2.706   6.588 -0.5662 -0.6922 -0.2517
 1504SOL     vw 6016   6.826   2.742   6.558 -0.5026 -0.5776  0.0341
 1505SOL     ow 6017   6.939   0.221   1.586 -0.4518  0.6140 -0.0998
 1505SOL     hw 6018   6.898   0.282   1.648 -2.0311  0.7957 -1.2804
 1505SOL     hw 6019   6.886   0.227   1.507  0.8530 -0.4624 -1.1020
 1505SOL     vw 6020   6.927   0.230   1.584 -0.4883  0.4960 -0.3878
 1506SOL     ow 6021   3.468   6.768   6.075  0.1672  0.0173  0.2547
 1506SOL     hw 6022   3.450   6.842   6.017 -0.6249 -0.0281  0.4263
 1506SOL     hw 6023   3.417   6.696   6.037  2.3185 -0.9591 -0.9653
 1506SOL     vw 6024   3.459   6.768   6.062  0.3464 -0.1173  0.1163
 1507SOL     ow 6025   2.429   0.175   4.006 -0.2231 -0.2799  0.7898
 1507SOL     hw 6026   2.442   0.248   3.946  0.2638 -0.9396  0.0629
 1507SOL     hw 6027   2.406   0.216   4.090  1.6821  0.7916  0.8487
 1507SOL     vw 6028   2.428   0.190   4.010  0.0925 -0.2255  0.7017
 1508SOL     ow 6029   5.364   6.997   1.471  0.4701 -0.3241 -0.2223
 1508SOL     hw 6030   5.271   7.008   1.455  0.1035 -1.5936  0.9084
 1508SOL     hw 6031   5.393   7.082   1.504 -0.3376 -0.0014 -0.3377
 1508SOL     vw 6032   5.356   7.010   1.474  0.3152 -0.4492 -0.0884
 1509SOL     ow 6033   3.788   4.449   1.788 -0.2698 -0.7858 -0.5333
 1509SOL     hw 6034   3.723   4.379   1.787 -1.1359 -0.0001 -0.8479
 1509SOL     hw 6035   3.739   4.528   1.764  0.2809  0.2737  1.5187
 1509SOL     vw 6036   3.773   4.450   1.785 -0.3116 -0.5422 -0.3040
 1510SOL     ow 6037   2.747   0.985   6.039 -0.3408 -0.2451 -0.5686
 1510SOL     hw 6038   2.830   0.937   6.034 -0.8580 -1.2389 -0.0976
 1510SOL     hw 6039   2.693   0.945   5.971 -0.7559 -0.2833 -0.2170
 1510SOL     vw 6040   2.751   0.973   6.030 -0.4640 -0.3813 -0.4599
 1511SOL     ow 6041   4.997   6.719   4.092  0.2517 -0.0889  0.0636
 1511SOL     hw 6042   5.060   6.648   4.104 -0.3036 -0.5658  0.2536
 1511SOL     hw 6043   4.952   6.725   4.176  0.0848  0.2866 -0.0502
 1511SOL     vw 6044   4.999   6.710   4.105  0.1564 -0.1023  0.0737
 1512SOL     ow 6045   2.720   0.680   0.366  0.0468  0.4165 -0.0415
 1512SOL     hw 6046   2.777   0.629   0.309  0.4808  0.5807  0.2369
 1512SOL     hw 6047   2.663   0.729   0.307 -1.2362 -1.3271 -0.3108
 1512SOL     vw 6048   2.720   0.680   0.351 -0.0653  0.2081 -0.0403
 1513SOL     ow 6049   5.137   4.200   3.380  0.1381  0.0596  0.2476
 1513SOL     hw 6050   5.081   4.157   3.315  0.0939  1.0612 -0.3923
 1513SOL     hw 6051   5.194   4.130   3.412 -1.1463 -0.8828  0.5799
 1513SOL     vw 6052   5.137   4.185   3.376 -0.0372  0.0675  0.2071
 1514SOL     ow 6053   3.463   1.745   4.101  0.1124 -0.2656  0.4154
 1514SOL     hw 6054   3.389   1.694   4.067 -1.1474  0.7986  1.4836
 1514SOL     hw 6055   3.531   1.736   4.033 -0.0937 -3.1772  0.4637
 1514SOL     vw 6056   3.462   1.737   4.087 -0.0811 -0.5093  0.5624
 1515SOL     ow 6057   0.252   0.246   7.120  0.5872 -0.5946 -0.0663
 1515SOL     hw 6058   0.163   0.255   7.152  0.9722 -1.0851  1.2285
 1515SOL     hw 6059   0.307   0.268   7.195  1.5384 -1.2635 -0.5392
 1515SOL     vw 6060   0.248   0.250   7.134  0.7635 -0.7475  0.0420
 1516SOL     ow 6061   4.677   4.527   0.196  0.7030  0.1818  1.3393
 1516SOL     hw 6062   4.751   4.537   0.136 -1.2804 -0.3707 -1.3844
 1516SOL     hw 6063   4.697   4.449   0.247  1.4670 -0.6557 -0.2004
 1516SOL     vw 6064   4.690   4.518   0.195  0.5417 -0.0012  0.7768
 1517SOL     ow 6065   5.882   2.765   4.132  0.0726  0.1070 -0.4446
 1517SOL     hw 6066   5.883   2.780   4.037 -1.3394  0.6081 -0.4056
 1517SOL     hw 6067   5.849   2.676   4.141  0.3707 -0.0022 -0.4242
 1517SOL     vw 6068   5.878   2.755   4.120 -0.0741  0.1587 -0.4368
 1518SOL     ow 6069   3.726   6.630   4.537 -0.3445 -0.2612  0.2228
 1518SOL     hw 6070   3.799   6.633   4.475 -0.8226  0.8163 -0.3318
 1518SOL     hw 6071   3.724   6.717   4.576 -0.8953 -0.5052  0.7581
 1518SOL     vw 6072   3.735   6.642   4.534 -0.4804 -0.1514  0.2203
 1519SOL     ow 6073   6.306   1.595   5.898  0.1480  0.0328 -0.6153
 1519SOL     hw 6074   6.334   1.513   5.855 -0.2600 -0.4603  0.0393
 1519SOL     hw 6075   6.236   1.568   5.957 -0.6247  1.0167 -1.0696
 1519SOL     vw 6076   6.301   1.580   5.900 -0.0076  0.0976 -0.5889
 1520SOL     ow 6077   6.437   6.122   3.742 -0.1565 -0.3047  0.1909
 1520SOL     hw 6078   6.362   6.074   3.706  0.9354 -3.1123  1.3970
 1520SOL     hw 6079   6.441   6.095   3.834  0.3037  2.5122  1.0850
 1520SOL     vw 6080   6.428   6.112   3.749  0.0479 -0.3037  0.4679
 1521SOL     ow 6081   0.622   0.610   3.161  0.9989 -0.1374  0.9272
 1521SOL     hw 6082   0.667   0.624   3.078 -0.1560 -0.5832  0.1917
 1521SOL     hw 6083   0.665   0.669   3.222  0.7358  1.5245 -0.4021
 1521SOL     vw 6084   0.633   0.619   3.158  0.8118  0.0230  0.6547
 1522SOL     ow 6085   4.111   0.092   1.780  0.1369 -0.0710  0.3980
 1522SOL     hw 6086   4.197   0.056   1.804  0.0359 -0.6778 -0.1118
 1522SOL     hw 6087   4.065   0.103   1.863  0.5861 -0.0570  0.6480
 1522SOL     vw 6088   4.117   0.089   1.794  0.1829 -0.1492  0.3636
 1523SOL     ow 6089   1.202   2.197   1.563 -0.1628 -0.6716 -0.1953
 1523SOL     hw 6090   1.223   2.211   1.470 -0.0985 -1.2447 -0.2670
 1523SOL     hw 6091   1.286   2.182   1.605 -0.0847  0.5588  0.1399
 1523SOL     vw 6092   1.216   2.197   1.556 -0.1439 -0.5851 -0.1605
 1524SOL     ow 6093   5.381   6.693   2.343  0.1648  0.5168  0.7298
 1524SOL     hw 6094   5.317   6.763   2.356 -0.1875  1.4011 -4.0771
 1524SOL     hw 6095   5.465   6.739   2.331  0.9792 -0.3607  2.5799
 1524SOL     vw 6096   5.384   6.709   2.343  0.2260  0.5174  0.3397
 1525SOL     ow 6097   5.322   1.199   1.833 -0.0209  0.2523 -0.1680
 1525SOL     hw 6098   5.391   1.251   1.791 -0.8482  2.2242  0.7719
 1525SOL     hw 6099   5.250   1.200   1.770 -0.3560  1.0491  0.2137
 1525SOL     vw 6100   5.322   1.206   1.819 -0.1743  0.6176  0.0063
 1526SOL     ow 6101   5.630   1.646   3.700  0.2388 -0.6244  0.2807
 1526SOL     hw 6102   5.688   1.590   3.751  0.6494 -0.9352 -0.4995
 1526SOL     hw 6103   5.542   1.614   3.720  0.2638  0.3022  2.0093
 1526SOL     vw 6104   5.626   1.634   3.709  0.2964 -0.5431  0.4060
 1527SOL     ow 6105   3.649   6.615   3.917  0.0329 -0.8145 -0.0194
 1527SOL     hw 6106   3.730   6.666   3.926 -0.2097 -0.6440  1.4019
 1527SOL     hw 6107   3.583   6.680   3.891 -0.4002 -0.2154  2.3370
 1527SOL     vw 6108   3.651   6.631   3.915 -0.0561 -0.7131  0.4790
 1528SOL     ow 6109   6.923   6.584   2.967  0.5636  0.2705 -0.0186
 1528SOL     hw 6110   6.896   6.550   2.882  2.1991  0.9850 -0.8664
 1528SOL     hw 6111   6.883   6.524   3.030 -1.6981  0.4256 -1.1884
 1528SOL     vw 6112   6.914   6.572   2.964  0.4809  0.3853 -0.2848
 1529SOL     ow 6113   2.887   6.864   2.824  0.2123  0.5259 -0.3232
 1529SOL     hw 6114   2.867   6.773   2.805  1.1681  0.5629 -1.7082
 1529SOL     hw 6115   2.982   6.871   2.809  0.3267  1.5219  0.7261
 1529SOL     vw 6116   2.897   6.853   2.819  0.3535  0.6623 -0.3675
 1530SOL     ow 6117   6.453   2.360   2.137  0.3384  0.3246  0.6306
 1530SOL     hw 6118   6.502   2.405   2.067 -1.1331 -0.7254 -1.1780
 1530SOL     hw 6119   6.396   2.428   2.173  1.1068  0.8810  0.8346
 1530SOL     vw 6120   6.452   2.375   2.132  0.2453  0.2594  0.4188
 1531SOL     ow 6121   2.422   4.216   1.188 -0.5590 -0.2819  0.3931
 1531SOL     hw 6122   2.466   4.286   1.140  0.1289 -0.7257  0.3557
 1531SOL     hw 6123   2.329   4.225   1.166 -0.1693 -1.0533 -1.8033
 1531SOL     vw 6124   2.416   4.226   1.179 -0.4168 -0.4420  0.0983
 1532SOL     ow 6125   3.762   2.904   2.449  0.0688  0.3060  0.2394
 1532SOL     hw 6126   3.732   2.813   2.446  0.7232  0.0637  0.7979
 1532SOL     hw 6127   3.727   2.938   2.531  1.4298 -0.0422  1.0086
 1532SOL     vw 6128   3.754   2.896   2.460  0.3346  0.2280  0.4147
 1533SOL     ow 6129   0.083   0.469   5.815  0.0008 -0.1028 -0.0853
 1533SOL     hw 6130   0.045   0.472   5.903 -0.4039  0.0928 -0.2609
 1533SOL     hw 6131   0.122   0.556   5.803 -1.7985  0.6555 -0.8873
 1533SOL     vw 6132   0.083   0.481   5.825 -0.2900  0.0231 -0.2146
 1534SOL     ow 6133   1.158   3.016   0.006 -0.8276 -0.1243 -0.1171
 1534SOL     hw 6134   1.071   3.026   0.044 -0.3572 -3.0281  2.0629
 1534SOL     hw 6135   1.217   3.047   0.075 -0.0599 -1.5824 -0.0887
 1534SOL     vw 6136   1.155   3.022   0.020 -0.6643 -0.6998  0.1745
 1535SOL     ow 6137   5.709   1.430   3.533 -0.4825 -0.5417  0.7355
 1535SOL     hw 6138   5.745   1.460   3.449 -0.2445 -0.7677  0.7542
 1535SOL     hw 6139   5.683   1.511   3.578 -0.2166 -0.3883  0.6200
 1535SOL     vw 6140   5.710   1.445   3.528 -0.4160 -0.5513  0.7228
 1536SOL     ow 6141   3.615   0.838   3.989 -0.8456  0.0007 -0.6584
 1536SOL     hw 6142   3.667   0.913   3.958 -0.6362 -0.1920 -0.7773
 1536SOL     hw 6143   3.534   0.877   4.023 -1.1371  0.2036 -1.5738
 1536SOL     vw 6144   3.611   0.853   3.990 -0.8564  0.0021 -0.7949
 1537SOL     ow 6145   0.861   7.120   1.499  0.4278  0.1858 -0.3973
 1537SOL     hw 6146   0.838   7.092   1.411  1.1669 -2.5711  0.1925
 1537SOL     hw 6147   0.955   7.103   1.507 -0.0472 -2.0348  1.6377
 1537SOL     vw 6148   0.870   7.114   1.489  0.4626 -0.4709 -0.0511
 1538SOL     ow 6149   2.382   1.050   0.120  0.2563 -0.2333  0.3183
 1538SOL     hw 6150   2.334   1.112   0.176 -1.1783 -0.9747 -0.0408
 1538SOL     hw 6151   2.454   1.102   0.084 -1.0936  1.3569 -0.2398
 1538SOL     vw 6152   2.385   1.065   0.122 -0.1111 -0.1214  0.1973
 1539SOL     ow 6153   1.381   2.571   1.810 -0.3198 -0.1730  0.0658
 1539SOL     hw 6154   1.445   2.507   1.780 -0.3600 -1.5266  2.5735
 1539SOL     hw 6155   1.398   2.578   1.904 -1.2453  2.4981  0.1106
 1539SOL     vw 6156   1.392   2.564   1.819 -0.4472  0.0007  0.4026
 1540SOL     ow 6157   0.837   4.407   0.139  0.2083  0.0921 -0.4014
 1540SOL     hw 6158   0.822   4.470   0.068 -2.0920 -0.8223 -0.7985
 1540SOL     hw 6159   0.802   4.324   0.106  0.6150 -0.7463  1.1741
 1540SOL     vw 6160   0.831   4.405   0.125 -0.0415 -0.1392 -0.2459
 1541SOL     ow 6161   5.146   4.937   4.079 -0.5264  0.0219 -0.1357
 1541SOL     hw 6162   5.177   4.937   3.989 -0.3803  3.9440 -0.2769
 1541SOL     hw 6163   5.059   4.898   4.075  0.5954 -2.5418 -1.3738
 1541SOL     vw 6164   5.139   4.932   4.067 -0.3591  0.2012 -0.3178
 1542SOL     ow 6165   6.355   0.927   6.470  0.3351  0.2929 -0.4506
 1542SOL     hw 6166   6.414   0.983   6.420  0.9385  0.5172  0.4898
 1542SOL     hw 6167   6.404   0.905   6.550 -0.0574 -1.2060 -0.5887
 1542SOL     vw 6168   6.369   0.931   6.474  0.3629  0.1247 -0.3450
 1543SOL     ow 6169   2.106   1.612   6.400  0.8740  0.1679  0.3459
 1543SOL     hw 6170   2.139   1.556   6.470  1.6243 -0.2309 -0.3128
 1543SOL     hw 6171   2.120   1.562   6.320 -0.1177  0.5479 -0.0888
 1543SOL     vw 6172   2.112   1.598   6.399  0.8422  0.1655  0.2017
 1544SOL     ow 6173   6.314   2.289   4.007 -0.0798 -0.0321 -0.0012
 1544SOL     hw 6174   6.229   2.271   4.048  0.9914 -1.1462  1.9027
 1544SOL     hw 6175   6.370   2.217   4.037  1.6149  0.8253 -0.9741
 1544SOL     vw 6176   6.311   2.277   4.017  0.2851 -0.0660  0.1216
 1545SOL     ow 6177   7.076   6.949   1.471  0.7461 -0.3996 -0.0487
 1545SOL     hw 6178   6.980   6.944   1.472  0.6278  1.3156 -0.0745
 1545SOL     hw 6179   7.102   6.907   1.553 -0.0960  0.0431  0.4607
 1545SOL     vw 6180   7.067   6.943   1.482  0.6194 -0.1152  0.0150
 1546SOL     ow 6181   0.911   1.433   3.895 -0.2324  0.1410  0.1224
 1546SOL     hw 6182   0.908   1.342   3.925  0.7633  0.3554  0.8788
 1546SOL     hw 6183   0.946   1.427   3.806  1.2953 -0.1108  0.7092
 1546SOL     vw 6184   0.915   1.420   3.887  0.1005  0.1360  0.2996
 1547SOL     ow 6185   1.649   0.639   3.523 -0.3120 -0.0530  0.7186
 1547SOL     hw 6186   1.744   0.632   3.528 -0.3617 -1.0422  0.4854
 1547SOL     hw 6187   1.626   0.705   3.589  0.6639  1.4534 -0.3802
 1547SOL     vw 6188   1.658   0.647   3.532 -0.1899  0.0153  0.5429
 1548SOL     ow 6189   3.111   4.636   2.247 -0.2915  0.2015 -0.3845
 1548SOL     hw 6190   3.099   4.633   2.342 -2.4869  2.9201 -0.4484
 1548SOL     hw 6191   3.068   4.557   2.215 -2.6695  0.9554  0.7204
 1548SOL     vw 6192   3.104   4.625   2.256 -0.8948  0.6597 -0.2471
 1549SOL     ow 6193   5.442   4.839   6.455 -0.5220  0.6017 -0.4010
 1549SOL     hw 6194   5.422   4.762   6.400 -0.2228  0.2354 -0.0040
 1549SOL     hw 6195   5.376   4.836   6.524 -1.0575  1.2095 -0.8737
 1549SOL     vw 6196   5.431   4.828   6.457 -0.5531  0.6335 -0.4108
 1550SOL     ow 6197   6.016   7.140   1.186  0.2909 -0.4253 -0.2507
 1550SOL     hw 6198   5.945   7.141   1.249 -0.3109 -1.0071 -0.9001
 1550SOL     hw 6199   5.976   7.171   1.104  0.9678 -0.0161 -0.4343
 1550SOL     vw 6200   6.001   7.145   1.183  0.3011 -0.4482 -0.3605
 1551SOL     ow 6201   6.918   5.522   4.120  0.4960 -0.3705 -0.1650
 1551SOL     hw 6202   6.909   5.480   4.035 -1.4237 -1.5368  0.5616
 1551SOL     hw 6203   6.930   5.615   4.100 -0.7213 -0.5130 -1.7058
 1551SOL     vw 6204   6.918   5.529   4.106  0.0820 -0.5434 -0.2723
 1552SOL     ow 6205   1.020   5.018   6.724  0.3021  0.0424  0.1045
 1552SOL     hw 6206   0.926   5.026   6.704  0.5592 -0.1126 -1.2961
 1552SOL     hw 6207   1.033   4.924   6.737  0.9960 -0.6214 -4.1097
 1552SOL     vw 6208   1.009   5.007   6.723  0.4275 -0.0658 -0.6363
 1553SOL     ow 6209   1.133   0.489   1.077 -0.2064 -0.1221  0.3572
 1553SOL     hw 6210   1.171   0.430   1.142  0.2599 -1.1410 -0.8154
 1553SOL     hw 6211   1.208   0.523   1.028 -0.5550  0.6410  0.3289
 1553SOL     vw 6212   1.148   0.486   1.079 -0.1909 -0.1559  0.1988
 1554SOL     ow 6213   6.307   6.483   5.945  0.3357  0.3954 -0.1171
 1554SOL     hw 6214   6.387   6.510   5.991  0.3074  2.0633 -0.9652
 1554SOL     hw 6215   6.327   6.496   5.853 -0.1726 -1.3215 -0.4939
 1554SOL     vw 6216   6.320   6.489   5.939  0.2649  0.3889 -0.2789
 1555SOL     ow 6217   1.290   0.011   4.544  0.3270 -0.8302 -0.4935
 1555SOL     hw 6218   1.242   0.022   4.461 -0.7183 -0.4633  0.1433
 1555SOL     hw 6219   1.249  -0.064   4.586  1.7384 -1.8640 -0.8841
 1555SOL     vw 6220   1.279   0.002   4.538  0.3753 -0.9182 -0.4609
 1556SOL     ow 6221   5.129   7.053   3.018  0.6584 -0.6579 -0.0440
 1556SOL     hw 6222   5.068   7.122   3.044  0.9148 -0.4449 -0.0010
 1556SOL     hw 6223   5.163   7.019   3.101  0.4766 -0.8825 -0.0643
 1556SOL     vw 6224   5.125   7.058   3.033  0.6680 -0.6592 -0.0410
 1557SOL     ow 6225   1.195   3.756   3.278  0.0533  0.2034  0.2280
 1557SOL     hw 6226   1.245   3.782   3.200  0.6121  0.0227  0.5241
 1557SOL     hw 6227   1.252   3.777   3.351 -0.0355 -0.6109  0.5393
 1557SOL     vw 6228   1.209   3.762   3.277  0.1153  0.0721  0.3082
 1558SOL     ow 6229   1.212   2.620   4.572 -0.2809 -0.2053  0.1379
 1558SOL     hw 6230   1.213   2.678   4.649  2.1535 -0.4907  0.4279
 1558SOL     hw 6231   1.170   2.672   4.503 -1.4131  0.5158  1.3255
 1558SOL     vw 6232   1.207   2.634   4.573 -0.1091 -0.1478  0.3331
 1559SOL     ow 6233   2.264   4.058   3.561 -0.4521  0.1606  0.0262
 1559SOL     hw 6234   2.293   3.968   3.546 -2.1751 -0.2826 -0.9263
 1559SOL     hw 6235   2.321   4.111   3.506 -0.7802 -0.5866 -1.0664
 1559SOL     vw 6236   2.275   4.053   3.552 -0.7228  0.0033 -0.2437
 1560SOL     ow 6237   6.242   0.315   6.723 -0.3091  0.4587 -0.3039
 1560SOL     hw 6238   6.265   0.400   6.688 -2.4328  1.5698  0.7557
 1560SOL     hw 6239   6.278   0.315   6.812  2.0255 -0.9237 -1.1613
 1560SOL     vw 6240   6.250   0.326   6.730 -0.2813  0.4229 -0.2770
 1561SOL     ow 6241   1.383   1.424   0.381 -0.4956 -0.3254  0.1345
 1561SOL     hw 6242   1.393   1.411   0.475 -0.1808 -0.2371  0.1158
 1561SOL     hw 6243   1.399   1.337   0.344  0.1432 -0.2020  0.1117
 1561SOL     vw 6244   1.387   1.411   0.388 -0.3698 -0.2974  0.1290
 1562SOL     ow 6245   1.955   1.654   3.649 -0.4870  0.0211  0.0390
 1562SOL     hw 6246   1.894   1.650   3.575 -0.4295 -0.6857  0.0219
 1562SOL     hw 6247   1.954   1.565   3.685 -1.6652  0.7041  1.8102
 1562SOL     vw 6248   1.947   1.641   3.644 -0.6348  0.0181  0.2704
 1563SOL     ow 6249   3.797   4.049   4.780 -0.3225 -0.2065 -0.5924
 1563SOL     hw 6250   3.776   3.996   4.857 -1.2167  0.5568 -0.2892
 1563SOL     hw 6251   3.893   4.045   4.773 -0.1653  0.2451  0.9620
 1563SOL     vw 6252   3.807   4.042   4.789 -0.4197 -0.0463 -0.3474
 1564SOL     ow 6253   0.974   3.661   3.468  0.2434 -0.6159 -0.0996
 1564SOL     hw 6254   1.026   3.689   3.544 -1.2509  1.1560  0.3398
 1564SOL     hw 6255   0.893   3.626   3.505 -0.1687 -0.4904 -0.8554
 1564SOL     vw 6256   0.970   3.660   3.483 -0.0081 -0.3655 -0.1411
 1565SOL     ow 6257   2.061   2.253   1.392  0.0258  0.2792 -0.3818
 1565SOL     hw 6258   2.033   2.324   1.450  0.9760 -0.0965  0.5714
 1565SOL     hw 6259   2.116   2.198   1.447  0.7691 -0.2226 -1.5988
 1565SOL     vw 6260   2.064   2.255   1.407  0.2493  0.1633 -0.4166
 1566SOL     ow 6261   1.596   3.170   1.308  0.4180  0.0530  0.4707
 1566SOL     hw 6262   1.627   3.080   1.315  0.7277  0.0326 -0.8191
 1566SOL     hw 6263   1.556   3.189   1.393 -1.7063 -2.0689  0.0814
 1566SOL     vw 6264   1.594   3.160   1.320  0.1786 -0.2297  0.2491
 1567SOL     ow 6265   2.351   1.735   5.280 -0.7156  0.5242  0.4124
 1567SOL     hw 6266   2.318   1.686   5.205  1.1402 -2.8215  1.6193
 1567SOL     hw 6267   2.438   1.765   5.253  0.3679 -1.5115  1.4106
 1567SOL     vw 6268   2.358   1.733   5.266 -0.3278 -0.1858  0.7033
 1568SOL     ow 6269   7.009   1.637   0.279  0.3849  0.0108  0.3987
 1568SOL     hw 6270   6.992   1.623   0.372  1.4053 -1.8820  0.3693
 1568SOL     hw 6271   7.014   1.548   0.242  0.6286  0.7015 -1.3291
 1568SOL     vw 6272   7.008   1.623   0.287  0.5519 -0.1479  0.1668
 1569SOL     ow 6273   0.489   0.819   3.471 -0.5052  0.0510  0.0750
 1569SOL     hw 6274   0.483   0.763   3.549  2.8396  2.6192  2.5118
 1569SOL     hw 6275   0.560   0.781   3.419 -1.9518 -0.9952 -1.1981
 1569SOL     vw 6276   0.498   0.807   3.475 -0.2548  0.2519  0.2285
 1570SOL     ow 6277   3.789   5.225   1.611 -0.0849  0.2004 -0.6040
 1570SOL     hw 6278   3.820   5.157   1.551 -0.4500 -0.9083  0.4077
 1570SOL     hw 6279   3.868   5.256   1.655  0.0651  0.2927 -0.9400
 1570SOL     vw 6280   3.803   5.220   1.609 -0.1132  0.0665 -0.5149
 1571SOL     ow 6281   0.640   5.912   1.030 -0.3314  0.4645  0.0109
 1571SOL     hw 6282   0.608   5.994   0.992  2.4331  1.1835 -1.0804
 1571SOL     hw 6283   0.681   5.939   1.113 -1.7060 -0.2792  0.9668
 1571SOL     vw 6284   0.641   5.927   1.036 -0.1480  0.4611 -0.0069
 1572SOL     ow 6285   6.959   1.119   1.426  0.6865 -0.2312  0.8562
 1572SOL     hw 6286   6.988   1.031   1.402  1.7920 -0.2968  2.3116
 1572SOL     hw 6287   6.947   1.115   1.521  2.6137  1.6893  1.2345
 1572SOL     vw 6288   6.961   1.107   1.435  1.0867  0.0135  1.0981
 1573SOL     ow 6289   0.782   2.425   3.372 -0.4928  0.0240 -0.6618
 1573SOL     hw 6290   0.742   2.434   3.286 -2.1918  0.2441  0.0966
 1573SOL     hw 6291   0.816   2.512   3.392  1.2002 -0.3684 -1.6697
 1573SOL     vw 6292   0.781   2.437   3.364 -0.4936  0.0012 -0.6948
 1574SOL     ow 6293   6.969   2.384   3.459  0.2871  0.8880  0.1525
 1574SOL     hw 6294   6.944   2.476   3.464  0.4775  0.9901 -0.6218
 1574SOL     hw 6295   6.918   2.350   3.385 -0.1678  0.2414  0.7440
 1574SOL     vw 6296   6.959   2.392   3.450  0.2522  0.8161  0.1285
 1575SOL     ow 6297   4.779   5.029   1.321  0.2369 -0.2252 -0.0954
 1575SOL     hw 6298   4.709   5.007   1.382  0.1108 -0.6282 -0.3825
 1575SOL     hw 6299   4.857   5.041   1.376  0.0994 -0.4698  0.1525
 1575SOL     vw 6300   4.780   5.028   1.336  0.2022 -0.3104 -0.1006
 1576SOL     ow 6301   2.797   2.379   2.632 -0.2153 -0.2264  0.6678
 1576SOL     hw 6302   2.768   2.301   2.584 -0.4237  0.5007 -0.4226
 1576SOL     hw 6303   2.882   2.400   2.595  0.2593 -0.4610  1.6004
 1576SOL     vw 6304   2.804   2.372   2.621 -0.1801 -0.1614  0.6469
 1577SOL     ow 6305   4.694   6.715   4.088 -0.7908 -0.2454  0.0403
 1577SOL     hw 6306   4.609   6.742   4.053 -0.4638  1.0726  0.2416
 1577SOL     hw 6307   4.706   6.768   4.167 -0.1328 -1.0038  0.4662
 1577SOL     vw 6308   4.684   6.725   4.094 -0.6609 -0.1717  0.1230
 1578SOL     ow 6309   6.692   4.211   0.118  0.2971  0.3910 -0.9447
 1578SOL     hw 6310   6.625   4.261   0.071 -0.5304 -0.3420 -0.5680
 1578SOL     hw 6311   6.749   4.177   0.049  0.2794  1.0064 -1.2687
 1578SOL     vw 6312   6.691   4.214   0.103  0.1855  0.3757 -0.9378
 1579SOL     ow 6313   1.780   4.327   6.219 -0.0417  0.3001  0.4016
 1579SOL     hw 6314   1.706   4.296   6.271  0.1805  0.6248  0.9069
 1579SOL     hw 6315   1.812   4.404   6.265 -0.1707  0.9084 -0.4936
 1579SOL     vw 6316   1.774   4.333   6.232 -0.0294  0.4232  0.3502
 1580SOL     ow 6317   7.057   0.455   6.399  0.4951 -0.1141  0.0501
 1580SOL     hw 6318   7.036   0.548   6.390  0.5348 -0.0919  0.1774
 1580SOL     hw 6319   6.972   0.413   6.413  0.4995 -0.0668  0.2263
 1580SOL     vw 6320   7.043   0.462   6.400  0.5012 -0.1049  0.0899
 1581SOL     ow 6321   3.217   2.264   4.194  0.6586  0.0569 -0.5832
 1581SOL     hw 6322   3.226   2.358   4.175 -1.2323  0.3406 -0.3556
 1581SOL     hw 6323   3.149   2.260   4.261  2.8234 -1.3204  1.7049
 1581SOL     vw 6324   3.209   2.276   4.201  0.6948 -0.0874 -0.2513
 1582SOL     ow 6325   2.745   6.342   3.973  0.2364 -0.1630 -0.1651
 1582SOL     hw 6326   2.725   6.257   4.011  0.3483 -0.2104 -0.2142
 1582SOL     hw 6327   2.840   6.350   3.979  0.0946  0.9214  1.9303
 1582SOL     vw 6328   2.755   6.332   3.979  0.2325 -0.0262  0.1048
 1583SOL     ow 6329   4.358   4.949   4.823 -0.0123 -0.2279  0.1250
 1583SOL     hw 6330   4.284   4.923   4.768 -0.2781 -2.0927  1.2832
 1583SOL     hw 6331   4.328   4.934   4.912  1.7670 -1.0535  0.6142
 1583SOL     vw 6332   4.344   4.944   4.827  0.1872 -0.5829  0.3421
 1584SOL     ow 6333   4.744   2.348   6.577 -0.4220 -0.1010  0.1462
 1584SOL     hw 6334   4.711   2.357   6.487  0.5459  0.3124 -0.1885
 1584SOL     hw 6335   4.839   2.363   6.569 -0.5429  1.8349  1.5062
 1584SOL     vw 6336   4.752   2.351   6.564 -0.3102  0.2089  0.2816
 1585SOL     ow 6337   5.754   0.507   5.343  0.1479 -0.5009 -0.2660
 1585SOL     hw 6338   5.660   0.521   5.348  0.4884  1.9002  2.7461
 1585SOL     hw 6339   5.767   0.417   5.375 -1.0860 -0.8026 -0.5640
 1585SOL     vw 6340   5.744   0.497   5.348  0.0298 -0.2239  0.0918
 1586SOL     ow 6341   6.226   0.696   0.859  0.1725 -0.4483 -0.1237
 1586SOL     hw 6342   6.216   0.657   0.946 -1.5059 -0.2436 -0.1782
 1586SOL     hw 6343   6.304   0.750   0.865  0.7295 -1.3190  0.9031
 1586SOL     vw 6344   6.235   0.698   0.871  0.0243 -0.5362  0.0046
 1587SOL     ow 6345   3.291   6.151   6.541 -0.0293 -0.1671 -0.6437
 1587SOL     hw 6346   3.249   6.227   6.501  1.5268  0.3531 -1.3645
 1587SOL     hw 6347   3.315   6.179   6.629 -0.7100 -0.3076 -0.4042
 1587SOL     vw 6348   3.288   6.165   6.547  0.0862 -0.1168 -0.7071
 1588SOL     ow 6349   0.033   5.377   6.981 -0.2446 -0.6232 -0.0677
 1588SOL     hw 6350   0.081   5.384   6.899 -1.7408 -0.4185 -0.9766
 1588SOL     hw 6351  -0.058   5.363   6.954 -0.8382 -0.1453  1.5500
 1588SOL     vw 6352   0.027   5.376   6.967 -0.5203 -0.5329  0.0257
 1589SOL     ow 6353   4.963   1.627   3.885  0.1854 -0.1032 -0.8092
 1589SOL     hw 6354   4.965   1.714   3.925  0.3942 -0.3060 -0.3822
 1589SOL     hw 6355   4.944   1.645   3.792  1.3029  0.4752 -0.9402
 1589SOL     vw 6356   4.961   1.641   3.878  0.3603 -0.0537 -0.7701
 1590SOL     ow 6357   1.711   2.127   3.473  0.1549  0.0177  0.3272
 1590SOL     hw 6358   1.779   2.194   3.467  0.6408 -0.5239 -0.3135
 1590SOL     hw 6359   1.735   2.075   3.549  1.1699 -0.9255 -0.6031
 1590SOL     vw 6360   1.723   2.129   3.482  0.3529 -0.1781  0.1198
 1591SOL     ow 6361   2.560   6.938   3.777 -0.0119 -0.0473  0.2473
 1591SOL     hw 6362   2.539   6.899   3.861  0.2923 -0.2797  0.2178
 1591SOL     hw 6363   2.476   6.948   3.732 -0.0628 -0.9504  0.1301
 1591SOL     vw 6364   2.546   6.934   3.782  0.0216 -0.1972  0.2279
 1592SOL     ow 6365   2.171   6.874   6.039  0.4247 -0.0396 -0.6676
 1592SOL     hw 6366   2.165   6.779   6.025 -2.2911 -0.0087 -0.1459
 1592SOL     hw 6367   2.149   6.912   5.954 -0.5421  0.1172 -0.3513
 1592SOL     vw 6368   2.167   6.866   6.026 -0.0612 -0.0148 -0.5569
 1593SOL     ow 6369   2.372   2.023   5.381  0.5112  0.4177 -0.1068
 1593SOL     hw 6370   2.364   2.116   5.401  1.4873  0.6288 -0.6248
 1593SOL     hw 6371   2.449   2.017   5.324  0.1498 -0.6450 -0.5062
 1593SOL     vw 6372   2.381   2.034   5.376  0.5924  0.3054 -0.2279
 1594SOL     ow 6373   0.988   6.921   1.031 -0.8802 -0.0150  0.6859
 1594SOL     hw 6374   1.052   6.850   1.040  0.1392  0.7695 -0.0328
 1594SOL     hw 6375   0.918   6.884   0.977 -0.4219 -0.5174  0.4273
 1594SOL     vw 6376   0.987   6.907   1.025 -0.6852  0.0222  0.5569
 1595SOL     ow 6377   1.781   5.043   4.427  0.4236 -0.7337  0.2512
 1595SOL     hw 6378   1.699   5.090   4.409  0.7984 -0.6107 -1.2074
 1595SOL     hw 6379   1.844   5.080   4.365  1.0806 -2.2103  0.0039
 1595SOL     vw 6380   1.778   5.054   4.417  0.5597 -0.9122  0.0262
 1596SOL     ow 6381   3.015   1.303   5.212  0.0742 -0.3646  0.1078
 1596SOL     hw 6382   2.989   1.381   5.164  1.7792  0.1573 -0.0272
 1596SOL     hw 6383   3.083   1.333   5.272  1.5690 -1.9233 -0.7364
 1596SOL     vw 6384   3.020   1.317   5.214  0.4964 -0.5015 -0.0215
 1597SOL     ow 6385   4.372   0.511   2.759 -0.0531 -0.1242  0.4165
 1597SOL     hw 6386   4.373   0.606   2.761  0.4610 -0.0119 -2.2032
 1597SOL     hw 6387   4.458   0.485   2.792  0.6231  0.4292 -0.8671
 1597SOL     vw 6388   4.383   0.520   2.764  0.1042 -0.0364 -0.0986
 1598SOL     ow 6389   0.428   3.530   1.477  0.0778  0.0836  0.1516
 1598SOL     hw 6390   0.488   3.604   1.480  0.1053  0.0531  0.4397
 1598SOL     hw 6391   0.360   3.551   1.542  2.4600 -2.1481  3.7594
 1598SOL     vw 6392   0.427   3.542   1.486  0.3957 -0.2149  0.6657
 1599SOL     ow 6393   1.924   4.130   6.344  0.2197 -0.4097 -0.0847
 1599SOL     hw 6394   1.876   4.207   6.312  1.4438  0.5223  0.2266
 1599SOL     hw 6395   2.016   4.149   6.323  0.7523 -0.9737  1.5727
 1599SOL     vw 6396   1.930   4.143   6.337  0.4516 -0.3612  0.1750
 1600SOL     ow 6397   5.360   3.828   2.904  0.1953  0.3633  0.0496
 1600SOL     hw 6398   5.419   3.903   2.902  0.6485  0.0179 -1.6588
 1600SOL     hw 6399   5.376   3.783   2.821  1.1058 -2.5279  1.6171
 1600SOL     vw 6400   5.370   3.832   2.893  0.3750 -0.0638  0.0310
 1601SOL     ow 6401   5.111   4.344   2.842 -0.1354  0.5076 -0.1199
 1601SOL     hw 6402   5.077   4.430   2.866  2.0868  0.8907  2.0511
 1601SOL     hw 6403   5.035   4.286   2.845 -1.0314  1.6914  2.2959
 1601SOL     vw 6404   5.097   4.348   2.846  0.0396  0.7145  0.4853
 1602SOL     ow 6405   5.734   4.847   6.231 -0.7121  0.3098 -0.3484
 1602SOL     hw 6406   5.658   4.901   6.253  0.3344  1.6145  0.1676
 1602SOL     hw 6407   5.731   4.774   6.293 -3.2839 -1.4879 -2.3320
 1602SOL     vw 6408   5.724   4.844   6.242 -0.9134  0.2449 -0.5417
 1603SOL     ow 6409   2.186   3.696   2.936 -0.1605 -0.6702 -0.4833
 1603SOL     hw 6410   2.236   3.777   2.940 -0.1654 -0.6627 -0.5831
 1603SOL     hw 6411   2.153   3.692   2.847  1.5592 -1.8060 -1.1260
 1603SOL     vw 6412   2.188   3.706   2.925  0.0658 -0.8192 -0.5811
 1604SOL     ow 6413   2.243   6.054   1.642  0.4934  0.0632  0.0043
 1604SOL     hw 6414   2.214   6.124   1.583  0.0474 -0.0009  0.1483
 1604SOL     hw 6415   2.310   6.007   1.592  1.4765  1.1610  0.2556
 1604SOL     vw 6416   2.248   6.057   1.627  0.5642  0.1998  0.0566
 1605SOL     ow 6417   3.478   0.215   4.430  0.3286  0.3424 -0.1394
 1605SOL     hw 6418   3.410   0.273   4.463 -1.2456 -2.6620  2.4289
 1605SOL     hw 6419   3.444   0.182   4.347 -0.5485  0.1812  0.2804
 1605SOL     vw 6420   3.465   0.218   4.423  0.0052 -0.0752  0.2553
 1606SOL     ow 6421   7.037   2.950   4.743 -0.0774  0.2520  0.1105
 1606SOL     hw 6422   7.112   3.008   4.731  0.9614 -0.4531  2.6143
 1606SOL     hw 6423   6.994   2.948   4.657  0.9042  3.1797 -0.5399
 1606SOL     vw 6424   7.041   2.957   4.730  0.1891  0.5450  0.3550
 1607SOL     ow 6425   3.452   6.811   1.505 -0.1894 -0.1867  0.1457
 1607SOL     hw 6426   3.528   6.757   1.526 -0.0391  0.1801  0.5552
 1607SOL     hw 6427   3.406   6.823   1.588 -0.8012 -0.5494 -0.1241
 1607SOL     vw 6428   3.456   6.805   1.519 -0.2502 -0.1862  0.1641
 1608SOL     ow 6429   5.199   5.022   3.778  0.3532  0.3165 -0.0300
 1608SOL     hw 6430   5.210   5.113   3.804  0.7415  0.5213 -0.8907
 1608SOL     hw 6431   5.105   5.010   3.772  0.3207  0.9436 -0.8742
 1608SOL     vw 6432   5.188   5.032   3.781  0.4001  0.4263 -0.2550
 1609SOL     ow 6433   3.864   1.491   6.982  0.3260  0.0891  0.2946
 1609SOL     hw 6434   3.935   1.468   6.922  0.6976  0.9789  0.3777
 1609SOL     hw 6435   3.851   1.412   7.035  0.1239 -0.6449 -0.8107
 1609SOL     vw 6436   3.872   1.478   6.981  0.3483  0.1096  0.1600
 1610SOL     ow 6437   5.728   0.680   6.050  0.4773  0.2069  0.0164
 1610SOL     hw 6438   5.708   0.683   6.143  1.5791  1.4040  0.2483
 1610SOL     hw 6439   5.821   0.656   6.046 -0.1953 -2.6112 -0.9036
 1610SOL     vw 6440   5.738   0.677   6.062  0.5338 -0.0070 -0.0744
 1611SOL     ow 6441   5.292   6.607   2.109  0.3811  0.0144 -0.2736
 1611SOL     hw 6442   5.340   6.660   2.046  1.5428 -0.4854  0.1672
 1611SOL     hw 6443   5.332   6.628   2.193 -0.9745  0.4792  0.2879
 1611SOL     vw 6444   5.303   6.617   2.112  0.3557  0.0098 -0.1414
 1612SOL     ow 6445   5.739   5.906   3.107  0.1842  0.4350  0.0976
 1612SOL     hw 6446   5.723   5.985   3.158  0.0175 -0.1421  0.9579
 1612SOL     hw 6447   5.652   5.872   3.087  0.2657 -0.0437  0.5471
 1612SOL     vw 6448   5.726   5.912   3.111  0.1731  0.2959  0.2704
 1613SOL     ow 6449   4.102   6.115   2.550 -0.3950 -0.2071  0.3347
 1613SOL     hw 6450   4.192   6.136   2.577  0.2927 -1.4546 -0.8889
 1613SOL     hw 6451   4.085   6.029   2.587  0.5945 -1.9991 -3.0251
 1613SOL     vw 6452   4.112   6.107   2.559 -0.1733 -0.6082 -0.2700
 1614SOL     ow 6453   4.405   3.518   6.483  0.4016 -0.1313 -0.6744
 1614SOL     hw 6454   4.498   3.507   6.499  0.5910  3.3284  1.5059
 1614SOL     hw 6455   4.363   3.447   6.532  1.7905 -0.4414  0.0975
 1614SOL     vw 6456   4.412   3.507   6.492  0.6099  0.2843 -0.2849
 1615SOL     ow 6457   3.015   1.421   0.931  0.2984  0.3949  0.0329
 1615SOL     hw 6458   2.999   1.347   0.872  0.2715 -3.0999  3.9234
 1615SOL     hw 6459   3.110   1.429   0.933  0.5435 -1.8250  1.8215
 1615SOL     vw 6460   3.026   1.412   0.923  0.3272 -0.3591  0.7822
 1616SOL     ow 6461   3.774   1.618   6.704  0.2603  0.3307 -0.3429
 1616SOL     hw 6462   3.808   1.677   6.638 -0.7310 -0.0574 -1.2247
 1616SOL     hw 6463   3.766   1.534   6.659  2.8176 -0.8913  1.1855
 1616SOL     vw 6464   3.778   1.614   6.689  0.4668  0.1182 -0.2577
 1617SOL     ow 6465   5.019   5.683   6.038  0.1275  0.5497 -0.2926
 1617SOL     hw 6466   5.025   5.618   5.968  2.8978  0.6240 -0.2300
 1617SOL     hw 6467   4.952   5.745   6.007 -1.1427 -1.2122 -1.2563
 1617SOL     vw 6468   5.011   5.683   6.025  0.3254  0.3271 -0.4115
 1618SOL     ow 6469   4.932   6.161   0.672 -0.2152 -0.7470 -0.3731
 1618SOL     hw 6470   4.983   6.094   0.718 -0.7103 -0.4740  0.5833
 1618SOL     hw 6471   4.858   6.113   0.635 -1.6631 -0.4569  1.9882
 1618SOL     vw 6472   4.929   6.146   0.673 -0.4718 -0.6728  0.0647
 1619SOL     ow 6473   5.572   3.281   3.438  0.4823 -0.4063 -0.2371
 1619SOL     hw 6474   5.523   3.202   3.461  1.3946 -1.2055 -0.9389
 1619SOL     hw 6475   5.508   3.352   3.446 -0.8389 -1.4140 -1.2215
 1619SOL     vw 6476   5.557   3.280   3.442  0.4282 -0.6447 -0.4597
 1620SOL     ow 6477   6.186   0.160   6.100 -0.0006  0.0149 -0.0223
 1620SOL     hw 6478   6.178   0.074   6.061  0.5236 -0.9965  1.9420
 1620SOL     hw 6479   6.119   0.213   6.057  1.7695 -0.3718 -3.6103
 1620SOL     vw 6480   6.176   0.156   6.089  0.3021 -0.1695 -0.2365
 1621SOL     ow 6481   2.097   1.901   5.248 -0.2929  0.4748 -0.4129
 1621SOL     hw 6482   2.010   1.927   5.279 -0.7864  1.1992 -2.2454
 1621SOL     hw 6483   2.092   1.910   5.152  0.6405 -2.9886 -0.9355
 1621SOL     vw 6484   2.085   1.905   5.239 -0.2348  0.1134 -0.7236
 1622SOL     ow 6485   6.852   4.032   0.331 -0.0986 -0.0283 -0.0375
 1622SOL     hw 6486   6.871   3.938   0.326  2.3019  0.3059  1.1946
 1622SOL     hw 6487   6.929   4.073   0.291 -0.3493  1.4466  0.9400
 1622SOL     vw 6488   6.865   4.025   0.325  0.1850  0.2105  0.2540
 1623SOL     ow 6489   3.564   4.426   5.280 -0.1805 -0.2194 -0.0936
 1623SOL     hw 6490   3.583   4.382   5.363 -1.6753 -0.2150  0.2834
 1623SOL     hw 6491   3.646   4.422   5.232  0.5899 -0.6458  1.1939
 1623SOL     vw 6492   3.577   4.419   5.285 -0.2762 -0.2749  0.1261
 1624SOL     ow 6493   0.683   1.624   3.986 -0.1319  0.0858  0.0253
 1624SOL     hw 6494   0.607   1.568   4.002  0.4195 -1.1304 -1.3937
 1624SOL     hw 6495   0.649   1.713   3.994 -0.9767 -0.3893  2.6243
 1624SOL     vw 6496   0.668   1.628   3.989 -0.1706 -0.1374  0.1808
 1625SOL     ow 6497   3.422   7.085   4.478  0.0923 -0.5220 -0.2993
 1625SOL     hw 6498   3.414   7.151   4.409 -2.9917 -2.2895 -1.8367
 1625SOL     hw 6499   3.449   7.134   4.555  0.0254  2.1467 -1.8404
 1625SOL     vw 6500   3.425   7.100   4.479 -0.3234 -0.4029 -0.7055
 1626SOL     ow 6501   4.838   3.439   2.061  0.6825 -0.4318 -0.1721
 1626SOL     hw 6502   4.800   3.475   1.980  0.1807  0.3786  0.4197
 1626SOL     hw 6503   4.854   3.347   2.039  0.2841 -0.2980 -1.1086
 1626SOL     vw 6504   4.835   3.431   2.047  0.5636 -0.3072 -0.2176
 1627SOL     ow 6505   0.593   4.326   6.718  0.1591  0.3726  0.4746
 1627SOL     hw 6506   0.603   4.282   6.802 -0.1414  0.4129  0.5312
 1627SOL     hw 6507   0.499   4.330   6.703  0.1979  0.6300  0.2769
 1627SOL     vw 6508   0.582   4.321   6.727  0.1246  0.4115  0.4561
 1628SOL     ow 6509   3.987   5.693   3.870 -0.8455  0.1418  0.2293
 1628SOL     hw 6510   4.021   5.605   3.849 -1.3517 -0.2916  1.1815
 1628SOL     hw 6511   3.898   5.677   3.902 -1.1031  1.0538 -0.0258
 1628SOL     vw 6512   3.980   5.679   3.872 -0.9464  0.2048  0.3214
 1629SOL     ow 6513   1.387   1.602   4.445 -0.0150  0.7109  0.4567
 1629SOL     hw 6514   1.331   1.562   4.511 -1.3373  1.5472 -0.1220
 1629SOL     hw 6515   1.402   1.691   4.476 -0.1073  0.9020 -0.0335
 1629SOL     vw 6516   1.382   1.608   4.458 -0.2016  0.8464  0.3157
 1630SOL     ow 6517   3.671   1.033   2.821  0.6252  0.3300 -0.2953
 1630SOL     hw 6518   3.600   1.009   2.761  1.8068 -0.1616 -1.5359
 1630SOL     hw 6519   3.701   0.950   2.857 -0.6276  0.6626  1.7255
 1630SOL     vw 6520   3.665   1.019   2.818  0.6158  0.3091 -0.1924
 1631SOL     ow 6521   4.299   2.519   3.086  0.3587  0.4978 -0.3108
 1631SOL     hw 6522   4.244   2.456   3.040 -1.0084  0.7735  0.8840
 1631SOL     hw 6523   4.387   2.504   3.051 -0.0603 -1.5440 -0.5991
 1631SOL     vw 6524   4.303   2.509   3.075  0.1230  0.2648 -0.1912
 1632SOL     ow 6525   1.125   0.802   1.976  0.2333  0.1268  0.5250
 1632SOL     hw 6526   1.147   0.719   1.933  0.9513 -0.4651  1.9782
 1632SOL     hw 6527   1.190   0.863   1.943 -0.3282  0.1634 -0.5952
 1632SOL     vw 6528   1.136   0.799   1.966  0.2539  0.0535  0.5690
 1633SOL     ow 6529   1.565   0.972   2.758  0.8515 -0.8447  0.4760
 1633SOL     hw 6530   1.579   0.970   2.664  1.4678  0.2154  0.5312
 1633SOL     hw 6531   1.516   1.053   2.774 -0.5791 -1.7545  0.9206
 1633SOL     vw 6532   1.560   0.982   2.748  0.7440 -0.8249  0.5420
 1634SOL     ow 6533   1.288   5.120   6.783  0.5647  0.3676  0.5431
 1634SOL     hw 6534   1.361   5.069   6.749 -0.3476  0.7327 -2.2866
 1634SOL     hw 6535   1.277   5.091   6.873  0.9754 -3.4079 -0.4501
 1634SOL     vw 6536   1.296   5.110   6.790  0.4985 -0.0823  0.0389
 1635SOL     ow 6537   2.029   2.821   2.631 -0.2496 -0.0500 -0.1347
 1635SOL     hw 6538   2.087   2.745   2.633 -0.6879 -0.4590 -1.6674
 1635SOL     hw 6539   2.044   2.860   2.545  0.8964  2.3772  1.0943
 1635SOL     vw 6540   2.038   2.816   2.620 -0.1563  0.2164 -0.1748
 1636SOL     ow 6541   5.602   0.881   5.433 -0.5499 -0.0088  0.0378
 1636SOL     hw 6542   5.530   0.924   5.387 -0.7759 -0.0853  0.3185
 1636SOL     hw 6543   5.675   0.883   5.371 -0.5784  0.7258  0.0190
 1636SOL     vw 6544   5.602   0.887   5.419 -0.5836  0.0780  0.0725
 1637SOL     ow 6545   2.923   3.275   0.579  0.6407  0.0499 -0.4750
 1637SOL     hw 6546   2.983   3.261   0.653  0.6358 -0.3668 -0.5471
 1637SOL     hw 6547   2.875   3.193   0.572 -0.4348  0.6140  0.0254
 1637SOL     vw 6548   2.925   3.263   0.588  0.4981  0.0694 -0.4185
 1638SOL     ow 6549   4.653   1.458   4.100 -0.3136  0.5534 -0.3602
 1638SOL     hw 6550   4.690   1.543   4.126  3.3206 -0.4395 -1.6773
 1638SOL     hw 6551   4.601   1.430   4.175  1.2494  2.4141  1.5377
 1638SOL     vw 6552   4.651   1.466   4.113  0.3722  0.6679 -0.2835
 1639SOL     ow 6553   0.589   4.950   4.661 -0.0185 -0.1526 -0.7443
 1639SOL     hw 6554   0.643   4.933   4.584 -1.6624 -0.7329 -1.8223
 1639SOL     hw 6555   0.650   4.950   4.734  1.3769 -1.1793 -1.8630
 1639SOL     vw 6556   0.604   4.948   4.660 -0.0513 -0.3645 -1.0345
 1640SOL     ow 6557   6.174   0.858   5.267 -0.3965 -0.1985 -0.5917
 1640SOL     hw 6558   6.225   0.787   5.227  0.2103  0.3841 -0.8837
 1640SOL     hw 6559   6.090   0.818   5.289 -0.0990 -0.9827 -0.8352
 1640SOL     vw 6560   6.170   0.843   5.265 -0.2768 -0.2251 -0.6626
 1641SOL     ow 6561   3.507   4.572   0.472  0.5398  0.2622  0.2479
 1641SOL     hw 6562   3.565   4.526   0.410  0.2310  1.6101 -1.0984
 1641SOL     hw 6563   3.530   4.535   0.557 -0.0666 -2.7941 -0.7551
 1641SOL     vw 6564   3.518   4.561   0.475  0.4190  0.0367 -0.0621
 1642SOL     ow 6565   2.696   7.106   0.403 -0.1781 -0.2444  0.1027
 1642SOL     hw 6566   2.646   7.098   0.483 -1.1299 -2.1383 -0.6300
 1642SOL     hw 6567   2.756   7.179   0.419 -1.2449  0.2593  2.0192
 1642SOL     vw 6568   2.698   7.115   0.415 -0.4445 -0.4275  0.2589
 1643SOL     ow 6569   6.607   2.684   6.685 -0.2558  0.5087 -0.3638
 1643SOL     hw 6570   6.542   2.748   6.658 -0.8533  0.4620  0.8778
 1643SOL     hw 6571   6.563   2.600   6.676 -0.1831  0.4355 -0.0404
 1643SOL     vw 6572   6.593   2.682   6.680 -0.3250  0.4929 -0.1574
 1644SOL     ow 6573   1.740   5.066   3.228  0.2150  0.6895  0.6464
 1644SOL     hw 6574   1.834   5.073   3.213 -0.1185  1.6635 -1.2146
 1644SOL     hw 6575   1.711   5.157   3.242 -0.5537  0.4692  0.5144
 1644SOL     vw 6576   1.748   5.079   3.228  0.0696  0.7889  0.3834
 1645SOL     ow 6577   4.729   7.055   5.120 -0.1762  0.1617  0.1023
 1645SOL     hw 6578   4.783   7.089   5.190 -0.2972 -0.6122  0.5870
 1645SOL     hw 6579   4.656   7.012   5.164  1.3409 -3.1489 -0.2816
 1645SOL     vw 6580   4.726   7.053   5.135  0.0081 -0.3774  0.1152
 1646SOL     ow 6581   5.687   1.181   4.939  0.5212 -0.4504 -0.5282
 1646SOL     hw 6582   5.636   1.244   4.888  1.0034 -0.0760 -0.5488
 1646SOL     hw 6583   5.631   1.160   5.014  0.8943  1.0361  0.1996
 1646SOL     vw 6584   5.673   1.186   4.942  0.6342 -0.2049 -0.4351
 1647SOL     ow 6585   0.625   5.013   1.601  0.3607  0.0183 -0.7202
 1647SOL     hw 6586   0.657   4.936   1.555 -0.2718  0.3945 -1.8349
 1647SOL     hw 6587   0.692   5.079   1.588  1.4220 -0.6153  1.1515
 1647SOL     vw 6588   0.638   5.012   1.593  0.4173 -0.0157 -0.6204
 1648SOL     ow 6589   1.470   5.766   2.875 -0.1141  0.4474 -0.6051
 1648SOL     hw 6590   1.383   5.764   2.916  0.7722  0.7472  1.3848
 1648SOL     hw 6591   1.514   5.841   2.915  0.8479  0.7435 -2.1211
 1648SOL     vw 6592   1.464   5.776   2.885  0.1297  0.5262 -0.5426
 1649SOL     ow 6593   4.480   4.123   2.334 -0.5424 -0.6323 -0.0886
 1649SOL     hw 6594   4.471   4.183   2.408 -1.9439 -2.4835  1.3796
 1649SOL     hw 6595   4.574   4.111   2.323 -0.2947 -0.4759  1.5817
 1649SOL     vw 6596   4.491   4.129   2.343 -0.6945 -0.8562  0.3256
 1650SOL     ow 6597   3.596   1.143   4.519  0.3681  0.2685  0.0892
 1650SOL     hw 6598   3.639   1.058   4.532 -0.9774 -0.4274  0.1048
 1650SOL     hw 6599   3.553   1.161   4.602  1.0097  1.1966  0.2358
 1650SOL     vw 6600   3.596   1.134   4.532  0.2753  0.2991  0.1106
 1651SOL     ow 6601   1.118   6.320   3.576 -0.1412 -0.2285  0.2183
 1651SOL     hw 6602   1.085   6.363   3.497 -0.3275 -0.9186 -0.0817
 1651SOL     hw 6603   1.186   6.260   3.545  0.2933  0.0137  0.6657
 1651SOL     vw 6604   1.123   6.318   3.562 -0.1084 -0.2878  0.2377
 1652SOL     ow 6605   3.815   0.691   0.278 -0.3840  0.5164 -0.0069
 1652SOL     hw 6606   3.827   0.759   0.212 -0.2114  0.8101  0.3247
 1652SOL     hw 6607   3.721   0.679   0.285 -0.4926  1.7793  1.0050
 1652SOL     vw 6608   3.804   0.698   0.270 -0.3756  0.7218  0.1704
 1653SOL     ow 6609   1.680   1.018   6.844 -0.1157 -0.0693  0.1121
 1653SOL     hw 6610   1.686   1.099   6.896  0.4852  0.0159 -0.0882
 1653SOL     hw 6611   1.665   0.950   6.910 -1.5915  0.3121  0.2047
 1653SOL     vw 6612   1.679   1.020   6.860 -0.2311 -0.0077  0.0980
 1654SOL     ow 6613   2.670   3.588   5.512  0.2308  0.2911 -0.5437
 1654SOL     hw 6614   2.724   3.667   5.506  0.4153  0.2591  0.5171
 1654SOL     hw 6615   2.677   3.561   5.603 -1.3410  0.1002 -0.4562
 1654SOL     vw 6616   2.678   3.595   5.523  0.0477  0.2617 -0.3922
 1655SOL     ow 6617   4.939   3.657   4.447 -0.0844  0.4507 -0.0883
 1655SOL     hw 6618   4.982   3.571   4.447 -0.4635  0.2451 -1.3037
 1655SOL     hw 6619   5.011   3.720   4.439  0.1883  0.2549  0.7258
 1655SOL     vw 6620   4.954   3.654   4.446 -0.0982  0.3977 -0.1414
 1656SOL     ow 6621   4.176   2.517   4.858  0.0383 -0.0189  0.2617
 1656SOL     hw 6622   4.245   2.473   4.809  0.5582 -0.7929  1.6298
 1656SOL     hw 6623   4.206   2.607   4.867  0.8152 -0.3108  0.7016
 1656SOL     vw 6624   4.189   2.523   4.853  0.2093 -0.1596  0.5007
 1657SOL     ow 6625   4.876   3.134   5.807  0.2045 -0.0097  0.3247
 1657SOL     hw 6626   4.804   3.075   5.786 -0.5713  0.7737  0.7575
 1657SOL     hw 6627   4.930   3.134   5.728 -0.6647 -0.0226 -0.2776
 1657SOL     vw 6628   4.874   3.126   5.794 -0.0126  0.0921  0.3021
 1658SOL     ow 6629   1.078   3.872   1.560  0.0256 -0.1680 -0.1718
 1658SOL     hw 6630   1.064   3.831   1.646 -2.6001 -0.2647 -0.5635
 1658SOL     hw 6631   1.112   3.801   1.505 -0.0960 -0.6006  0.3012
 1658SOL     vw 6632   1.081   3.857   1.564 -0.3368 -0.2378 -0.1611
 1659SOL     ow 6633   0.609   5.085   3.539  0.1966  0.1311  0.2681
 1659SOL     hw 6634   0.582   5.025   3.470  0.4367 -0.8783  1.0288
 1659SOL     hw 6635   0.558   5.059   3.615  0.0938  1.0872  0.5394
 1659SOL     vw 6636   0.599   5.073   3.540  0.2147  0.1240  0.4041
 1660SOL     ow 6637   0.542   0.279   0.399 -0.3483 -0.0218  0.3179
 1660SOL     hw 6638   0.544   0.190   0.363  1.4097  0.1393 -0.0793
 1660SOL     hw 6639   0.449   0.303   0.400 -0.6781 -1.0992 -1.4705
 1660SOL     vw 6640   0.530   0.271   0.395 -0.1598 -0.1427  0.0295
 1661SOL     ow 6641   1.486   0.043   4.722  0.2199 -0.1893 -0.1947
 1661SOL     hw 6642   1.420   0.028   4.654  1.7452 -0.6387 -1.6737
 1661SOL     hw 6643   1.474  -0.028   4.785 -0.5286 -0.4230 -0.5969
 1661SOL     vw 6644   1.476   0.032   4.721  0.3224 -0.2794 -0.4430
 1662SOL     ow 6645   0.898   5.863   2.429 -0.1745  0.1288  0.2214
 1662SOL     hw 6646   0.992   5.867   2.447 -0.2559  0.0096  0.6868
 1662SOL     hw 6647   0.869   5.784   2.473 -0.3603 -0.2419 -0.5605
 1662SOL     vw 6648   0.907   5.853   2.437 -0.2098  0.0641  0.1798
 1663SOL     ow 6649   7.180   1.200   2.806 -0.0908 -0.6172 -0.2430
 1663SOL     hw 6650   7.130   1.277   2.781  1.3490  0.2478 -0.5852
 1663SOL     hw 6651   7.230   1.228   2.883  0.0790 -1.3722 -0.0704
 1663SOL     vw 6652   7.180   1.213   2.813  0.1216 -0.6027 -0.2654
 1664SOL     ow 6653   6.099   0.458   2.314  0.4383  0.0265  0.6169
 1664SOL     hw 6654   6.069   0.475   2.403  0.4605  1.6560  0.3484
 1664SOL     hw 6655   6.194   0.451   2.321  0.4878  0.6627  0.6669
 1664SOL     vw 6656   6.107   0.459   2.326  0.4475  0.3254  0.5879
 1665SOL     ow 6657   3.206   6.115   6.929 -0.4203 -0.5939  0.2973
 1665SOL     hw 6658   3.128   6.139   6.979 -1.4471 -1.2400 -0.9544
 1665SOL     hw 6659   3.228   6.027   6.958 -1.2658 -1.1350 -0.6494
 1665SOL     vw 6660   3.199   6.107   6.939 -0.6673 -0.7503  0.0072
 1666SOL     ow 6661   5.243   1.545   5.776 -0.2227 -0.3882 -0.4288
 1666SOL     hw 6662   5.169   1.507   5.729  0.2565 -0.6698 -0.9760
 1666SOL     hw 6663   5.290   1.469   5.811 -0.3838 -0.1953  0.2201
 1666SOL     vw 6664   5.240   1.530   5.774 -0.1807 -0.3999 -0.4153
 1667SOL     ow 6665   0.718   1.864   6.405  0.2483  0.2516 -0.0003
 1667SOL     hw 6666   0.770   1.903   6.335 -0.6233  1.6775  0.1036
 1667SOL     hw 6667   0.782   1.845   6.474  0.6573  2.1763  0.2156
 1667SOL     vw 6668   0.733   1.867   6.405  0.1873  0.6938  0.0420
 1668SOL     ow 6669   0.397   2.165   2.004 -0.1657  0.3013  0.0568
 1668SOL     hw 6670   0.329   2.128   2.062 -0.0019 -0.2662 -0.1034
 1668SOL     hw 6671   0.427   2.244   2.049  1.5407 -1.2895  1.9019
 1668SOL     vw 6672   0.392   2.170   2.018  0.0810  0.0166  0.2791
 1669SOL     ow 6673   3.220   6.785   1.343 -0.1333  0.5450  0.0881
 1669SOL     hw 6674   3.290   6.720   1.350 -1.9372 -1.7637 -1.7139
 1669SOL     hw 6675   3.266   6.869   1.338  2.4819 -0.8208 -0.7127
 1669SOL     vw 6676   3.236   6.788   1.343 -0.0261  0.0603 -0.2553
 1670SOL     ow 6677   6.596   3.921   2.961 -0.4319  0.2589 -0.3440
 1670SOL     hw 6678   6.653   3.984   2.916 -3.0228  0.8414 -3.1851
 1670SOL     hw 6679   6.654   3.848   2.983  1.6399  1.3048 -1.9204
 1670SOL     vw 6680   6.611   3.920   2.958 -0.5002  0.4736 -0.9267
 1671SOL     ow 6681   0.007   2.120   2.913 -0.5056 -0.2460  0.0042
 1671SOL     hw 6682  -0.009   2.028   2.934 -2.0055  0.3108  1.4881
 1671SOL     hw 6683  -0.080   2.160   2.911  0.1364  1.2088 -0.3445
 1671SOL     vw 6684  -0.007   2.113   2.915 -0.6188  0.0194  0.1539
 1672SOL     ow 6685   7.079   0.875   1.363  0.8675 -0.4722  0.5805
 1672SOL     hw 6686   7.108   0.874   1.454 -0.4967 -0.0473  1.0399
 1672SOL     hw 6687   7.156   0.846   1.314  1.4081 -1.4611  1.9219
 1672SOL     vw 6688   7.093   0.871   1.369  0.7589 -0.5466  0.8181
 1673SOL     ow 6689   1.065   6.187   6.073  0.2471  0.9703 -0.0834
 1673SOL     hw 6690   1.091   6.260   6.017 -0.3465 -0.0989 -1.8265
 1673SOL     hw 6691   1.069   6.110   6.017  0.4099 -0.3014  1.5772
 1673SOL     vw 6692   1.069   6.187   6.059  0.1903  0.6616 -0.0942
 1674SOL     ow 6693   6.393   2.221   4.371 -0.0221  0.2526  0.1879
 1674SOL     hw 6694   6.486   2.210   4.391  0.2982 -4.0018 -2.3804
 1674SOL     hw 6695   6.347   2.169   4.438 -0.4309  0.9944  0.4922
 1674SOL     vw 6696   6.399   2.213   4.382 -0.0339 -0.2108 -0.1111
 1675SOL     ow 6697   3.810   2.441   0.078  0.6811  0.5242 -0.7454
 1675SOL     hw 6698   3.861   2.508   0.124  1.3383 -1.2862  1.3811
 1675SOL     hw 6699   3.768   2.487   0.005 -1.4729  3.9859  2.3237
 1675SOL     vw 6700   3.811   2.456   0.074  0.4836  0.7422 -0.0599
 1676SOL     ow 6701   1.962   2.960   6.190 -0.0761 -0.2276  0.2289
 1676SOL     hw 6702   1.873   2.995   6.192  0.4312  1.4699 -2.3862
 1676SOL     hw 6703   2.009   3.007   6.259 -0.7821  0.1507  0.4541
 1676SOL     vw 6704   1.957   2.971   6.200 -0.1023  0.0464 -0.0865
 1677SOL     ow 6705   3.631   2.575   2.428 -0.3109  0.5981  0.3493
 1677SOL     hw 6706   3.581   2.538   2.501 -1.0015 -2.5620 -1.5468
 1677SOL     hw 6707   3.713   2.525   2.429 -0.2377  0.6820 -0.8668
 1677SOL     vw 6708   3.635   2.563   2.438 -0.3924  0.1923 -0.0613
 1678SOL     ow 6709   2.153   1.074   7.181  1.2924 -0.0564 -0.5236
 1678SOL     hw 6710   2.156   1.141   7.113 -0.9915  0.3801 -0.2500
 1678SOL     hw 6711   2.237   1.083   7.226  1.5239  1.8163 -1.2397
 1678SOL     vw 6712   2.165   1.084   7.178  1.0216  0.2483 -0.5820
 1679SOL     ow 6713   1.327   4.510   4.543  0.3695  0.4207 -0.1686
 1679SOL     hw 6714   1.419   4.488   4.529 -0.1928 -1.4731 -1.2263
 1679SOL     hw 6715   1.280   4.454   4.483 -1.5571  0.5809  1.1168
 1679SOL     vw 6716   1.333   4.500   4.534  0.0411  0.1919 -0.1388
 1680SOL     ow 6717   0.255   5.729   1.449  0.0174  0.0677  0.2274
 1680SOL     hw 6718   0.218   5.662   1.507 -1.0180 -0.1259 -0.6344
 1680SOL     hw 6719   0.277   5.802   1.508  0.2606 -0.6422  1.0407
 1680SOL     vw 6720   0.253   5.730   1.464 -0.0871 -0.0515  0.2210
 1681SOL     ow 6721   4.667   7.059   6.928 -0.0784  0.2119  0.0131
 1681SOL     hw 6722   4.576   7.066   6.955 -0.7989 -2.9848 -1.1902
 1681SOL     hw 6723   4.666   7.074   6.834  1.0190  2.0298  0.2269
 1681SOL     vw 6724   4.655   7.062   6.919 -0.0286  0.0298 -0.1178
 1682SOL     ow 6725   5.542   6.537   5.207  0.1899 -0.4267  0.1633
 1682SOL     hw 6726   5.479   6.466   5.194  0.1189 -0.4464  0.5769
 1682SOL     hw 6727   5.541   6.586   5.125  0.3488 -0.9906 -0.1839
 1682SOL     vw 6728   5.534   6.534   5.195  0.2015 -0.5040  0.1721
 1683SOL     ow 6729   0.248   0.288   5.756 -0.1777 -0.2610 -0.6271
 1683SOL     hw 6730   0.187   0.360   5.770 -1.7221 -1.4576 -0.9139
 1683SOL     hw 6731   0.280   0.265   5.844 -0.4617  0.0976 -0.4295
 1683SOL     vw 6732   0.245   0.294   5.770 -0.4189 -0.3716 -0.6385
 1684SOL     ow 6733   0.477   5.720   6.902  1.0253 -0.0832 -0.2586
 1684SOL     hw 6734   0.448   5.633   6.930  2.3183  0.3355  2.7142
 1684SOL     hw 6735   0.424   5.780   6.954  2.9500  0.7791  0.8059
 1684SOL     vw 6736   0.466   5.717   6.913  1.4498  0.0858  0.2739
 1685SOL     ow 6737   6.439   0.993   3.702 -0.6160 -0.5796  0.4099
 1685SOL     hw 6738   6.499   0.967   3.772  2.2094 -0.7905 -1.8921
 1685SOL     hw 6739   6.385   1.062   3.741  1.7355  0.2560  2.4555
 1685SOL     vw 6740   6.440   0.999   3.716  0.0670 -0.4972  0.3761
 1686SOL     ow 6741   3.271   2.065   0.113  0.7297 -0.8667  0.3678
 1686SOL     hw 6742   3.229   1.985   0.083 -0.9280  0.7613 -1.9474
 1686SOL     hw 6743   3.359   2.062   0.075  0.6028 -1.4666  0.1130
 1686SOL     vw 6744   3.277   2.054   0.104  0.4942 -0.7311  0.0287
 1687SOL     ow 6745   0.057   4.341   7.143  0.1879 -0.1605  0.0841
 1687SOL     hw 6746  -0.018   4.315   7.090 -0.2617 -0.0548  0.6477
 1687SOL     hw 6747   0.035   4.430   7.173  0.5010 -0.1599  0.3139
 1687SOL     vw 6748   0.044   4.350   7.140  0.1699 -0.1459  0.1888
 1688SOL     ow 6749   0.229   0.705   5.789  0.0081 -0.1940 -0.0249
 1688SOL     hw 6750   0.322   0.704   5.810 -0.2012  1.0956  1.1644
 1688SOL     hw 6751   0.208   0.798   5.777 -0.7934 -0.5739 -2.0244
 1688SOL     vw 6752   0.238   0.717   5.790 -0.1253 -0.0740 -0.1318
 1689SOL     ow 6753   5.126   4.966   5.239  0.1358 -0.1615  0.6579
 1689SOL     hw 6754   5.069   5.042   5.250 -1.5254 -1.4373  1.3397
 1689SOL     hw 6755   5.205   5.001   5.197 -0.4661  1.9565  1.1666
 1689SOL     vw 6756   5.129   4.981   5.235 -0.1628 -0.0503  0.8149
 1690SOL     ow 6757   0.718   4.164   4.422 -0.1096  0.6074  0.1810
 1690SOL     hw 6758   0.702   4.089   4.365  0.6752  0.8772 -0.4080
 1690SOL     hw 6759   0.645   4.163   4.484 -0.5477 -0.1544 -0.3341
 1690SOL     vw 6760   0.706   4.154   4.423 -0.0639  0.5424  0.0353
 1691SOL     ow 6761   3.391   6.254   6.779  0.3701 -0.4563 -0.0379
 1691SOL     hw 6762   3.335   6.203   6.837 -1.6934  0.1608 -1.3820
 1691SOL     hw 6763   3.377   6.345   6.805 -0.9018 -0.1354 -1.6582
 1691SOL     vw 6764   3.382   6.259   6.790 -0.0700 -0.3324 -0.4289
 1692SOL     ow 6765   2.172   7.087   5.123 -0.0788  0.2410 -0.0390
 1692SOL     hw 6766   2.246   7.028   5.134 -0.1142 -0.1938 -1.8253
 1692SOL     hw 6767   2.211   7.175   5.129  0.6158  0.0206 -0.9802
 1692SOL     vw 6768   2.187   7.091   5.125  0.0081  0.1545 -0.3986
 1693SOL     ow 6769   6.062   0.358   4.551  0.6288  0.2410 -0.4101
 1693SOL     hw 6770   6.153   0.333   4.563  0.7336  0.4934 -0.6859
 1693SOL     hw 6771   6.030   0.300   4.481  0.6960  0.4434 -0.6088
 1693SOL     vw 6772   6.070   0.347   4.543  0.6516  0.3010 -0.4725
 1694SOL     ow 6773   6.451   0.368   3.739  0.4822 -0.0224 -0.0288
 1694SOL     hw 6774   6.359   0.350   3.758  0.6481 -2.2739 -1.0197
 1694SOL     hw 6775   6.464   0.459   3.767 -2.5145  1.0354 -1.5788
 1694SOL     vw 6776   6.441   0.378   3.745  0.1087 -0.1799 -0.3639
 1695SOL     ow 6777   2.585   5.281   0.524 -0.2608  0.3682  0.5020
 1695SOL     hw 6778   2.579   5.311   0.615  1.2817  0.9730  0.4384
 1695SOL     hw 6779   2.675   5.249   0.515 -0.3666  0.3906 -0.8300
 1695SOL     vw 6780   2.596   5.281   0.535 -0.0713  0.4508  0.3178
 1696SOL     ow 6781   1.672   6.888   6.959 -0.5647  0.2313 -0.1440
 1696SOL     hw 6782   1.744   6.920   7.012 -1.7828  0.4581  1.4634
 1696SOL     hw 6783   1.622   6.966   6.935  0.3479  0.2243 -2.3166
 1696SOL     vw 6784   1.675   6.902   6.963 -0.6050  0.2601 -0.2189
 1697SOL     ow 6785   4.920   5.502   4.202  0.1876  0.4006 -0.6824
 1697SOL     hw 6786   4.869   5.582   4.193  0.9711  0.7482 -2.6492
 1697SOL     hw 6787   4.887   5.446   4.131 -0.1631 -0.9337  0.5003
 1697SOL     vw 6788   4.909   5.505   4.191  0.2444  0.2706 -0.7856
 1698SOL     ow 6789   3.748   0.650   4.258 -0.1700  0.0618 -0.5119
 1698SOL     hw 6790   3.669   0.705   4.250  0.2627  0.6748 -0.6064
 1698SOL     hw 6791   3.816   0.698   4.211  0.8211  0.5944  1.3981
 1698SOL     vw 6792   3.746   0.663   4.251  0.0179  0.2129 -0.2723
 1699SOL     ow 6793   6.504   6.064   4.014 -0.3700 -0.5224 -0.1853
 1699SOL     hw 6794   6.488   6.120   4.090 -0.9118  2.1423 -2.1396
 1699SOL     hw 6795   6.599   6.063   4.003 -0.2369 -1.4624  0.8337
 1699SOL     vw 6796   6.515   6.071   4.023 -0.4239 -0.2952 -0.3085
 1700SOL     ow 6797   3.863   2.387   4.286 -0.3789  0.3078 -0.3418
 1700SOL     hw 6798   3.778   2.344   4.291  0.1625 -0.6741  1.4260
 1700SOL     hw 6799   3.922   2.330   4.336  1.3482  0.9268 -1.5566
 1700SOL     vw 6800   3.860   2.374   4.293 -0.0795  0.2599 -0.2687
 1701SOL     ow 6801   0.968   5.059   7.025 -0.3550  0.4150 -0.0186
 1701SOL     hw 6802   0.963   4.970   6.990  2.3340  0.2523 -0.2188
 1701SOL     hw 6803   0.924   5.054   7.110 -2.4531 -0.4311 -1.0766
 1701SOL     vw 6804   0.962   5.046   7.031 -0.2771  0.2820 -0.1848
 1702SOL     ow 6805   5.875   1.302   3.722 -0.3822  0.0339  0.5828
 1702SOL     hw 6806   5.826   1.335   3.646  1.0074  0.4427 -0.1680
 1702SOL     hw 6807   5.858   1.208   3.721  0.5474 -0.1550 -0.9744
 1702SOL     vw 6808   5.866   1.294   3.712 -0.0761  0.0629  0.2782
 1703SOL     ow 6809   2.182   4.021   1.318 -0.1863  0.2400 -0.4538
 1703SOL     hw 6810   2.093   3.989   1.336  0.0289 -0.1504 -0.0595
 1703SOL     hw 6811   2.213   3.966   1.246  0.3439 -0.7601  0.5101
 1703SOL     vw 6812   2.174   4.009   1.311 -0.0881  0.0565 -0.2746
 1704SOL     ow 6813   2.694   7.083   2.649 -0.8809 -0.6119  0.1795
 1704SOL     hw 6814   2.630   7.020   2.617 -1.2676  0.5878 -1.5438
 1704SOL     hw 6815   2.716   7.136   2.572  0.1569  0.7291  1.3448
 1704SOL     vw 6816   2.689   7.082   2.634 -0.7951 -0.2768  0.1057
 1705SOL     ow 6817   2.029   2.616   5.258 -0.0468  0.0452  0.0956
 1705SOL     hw 6818   2.108   2.658   5.224 -0.2452 -1.1562 -2.0253
 1705SOL     hw 6819   2.059   2.569   5.336  1.6669 -1.4016 -1.3539
 1705SOL     vw 6820   2.043   2.615   5.264  0.1531 -0.3042 -0.3753
 1706SOL     ow 6821   5.362   1.592   5.508  0.0790 -0.0183  0.1282
 1706SOL     hw 6822   5.323   1.579   5.595 -0.7354 -2.6639 -0.5420
 1706SOL     hw 6823   5.446   1.547   5.512  0.5202  0.7586 -0.1647
 1706SOL     vw 6824   5.368   1.585   5.520  0.0298 -0.2648  0.0010
 1707SOL     ow 6825   3.175   5.287   6.086 -0.2329 -0.0417 -0.3590
 1707SOL     hw 6826   3.184   5.300   6.181 -2.6860 -1.1867  0.1154
 1707SOL     hw 6827   3.265   5.289   6.053  0.6806  0.5631  1.9591
 1707SOL     vw 6828   3.188   5.289   6.094 -0.4362 -0.1130  0.0095
 1708SOL     ow 6829   3.335   4.583   3.324  0.7035 -0.9600 -0.5839
 1708SOL     hw 6830   3.422   4.555   3.354  1.2290  0.1849 -1.0073
 1708SOL     hw 6831   3.351   4.661   3.271 -0.6366 -0.4311 -0.2573
 1708SOL     vw 6832   3.349   4.589   3.321  0.5960 -0.7391 -0.5965
 1709SOL     ow 6833   3.838   0.035   1.674  0.0195 -0.5327  0.1324
 1709SOL     hw 6834   3.765   0.079   1.631  0.2968  0.2734  0.4615
 1709SOL     hw 6835   3.817   0.041   1.768  1.2406  1.0972  0.3442
 1709SOL     vw 6836   3.826   0.041   1.681  0.2173 -0.2113  0.2037
 1710SOL     ow 6837   5.316   4.281   6.055  0.4153  0.4977  0.0549
 1710SOL     hw 6838   5.290   4.271   6.146 -1.7816 -1.3641 -0.6812
 1710SOL     hw 6839   5.296   4.372   6.034 -1.6306  0.2673  0.7603
 1710SOL     vw 6840   5.310   4.292   6.064 -0.1445  0.2215  0.0505
 1711SOL     ow 6841   4.850   3.646   5.030 -0.2480 -0.1037  0.7626
 1711SOL     hw 6842   4.807   3.712   4.975  1.2977 -0.1185 -0.5296
 1711SOL     hw 6843   4.884   3.582   4.968 -0.4143 -1.3319  1.9089
 1711SOL     vw 6844   4.849   3.646   5.015 -0.0660 -0.2676  0.7434
 1712SOL     ow 6845   0.787   4.394   2.484 -0.2538  0.1117  0.3734
 1712SOL     hw 6846   0.833   4.472   2.516  1.7973 -0.7024 -0.4039
 1712SOL     hw 6847   0.696   4.421   2.479  0.0385  1.7464  2.2712
 1712SOL     vw 6848   0.781   4.408   2.488  0.0553  0.2198  0.5213
 1713SOL     ow 6849   7.104   1.408   1.393 -0.1514 -0.5102  0.3180
 1713SOL     hw 6850   7.169   1.356   1.347 -0.2145 -1.3326  1.1272
 1713SOL     hw 6851   7.064   1.463   1.325 -1.1192 -2.5781 -0.8880
 1713SOL     vw 6852   7.107   1.409   1.378 -0.2871 -0.8916  0.2655
 1714SOL     ow 6853   6.622   6.707   2.299  0.0480 -0.3512 -0.2872
 1714SOL     hw 6854   6.549   6.646   2.287  0.2251 -0.0827 -3.3141
 1714SOL     hw 6855   6.583   6.780   2.348 -1.0587 -1.2844  0.2875
 1714SOL     vw 6856   6.607   6.709   2.304 -0.0746 -0.4389 -0.6107
 1715SOL     ow 6857   2.162   4.296   1.184 -0.2928 -0.2063 -0.0564
 1715SOL     hw 6858   2.140   4.212   1.223  0.2342  0.1893  1.1253
 1715SOL     hw 6859   2.080   4.346   1.188  0.2667  0.6609  2.7777
 1715SOL     vw 6860   2.148   4.292   1.189 -0.1494 -0.0396  0.4734
 1716SOL     ow 6861   6.435   5.592   7.036  0.4152  0.4163 -0.6181
 1716SOL     hw 6862   6.412   5.643   6.958  0.5600  1.2459 -0.1341
 1716SOL     hw 6863   6.400   5.643   7.109  0.8482 -0.0205 -0.0968
 1716SOL     vw 6864   6.427   5.606   7.035  0.4916  0.4680 -0.4857
 1717SOL     ow 6865   3.801   5.797   2.673 -0.3343  0.6160 -0.2858
 1717SOL     hw 6866   3.743   5.807   2.749 -1.5610  1.1080 -1.2506
 1717SOL     hw 6867   3.884   5.836   2.701 -0.4667 -0.0218  1.1004
 1717SOL     vw 6868   3.804   5.804   2.687 -0.5137  0.5968 -0.2303
 1718SOL     ow 6869   2.949   6.655   1.809  0.6986 -0.0043 -0.0888
 1718SOL     hw 6870   3.019   6.602   1.847  0.2866 -0.0039  0.6876
 1718SOL     hw 6871   2.877   6.647   1.872 -0.1071 -0.2635 -1.0273
 1718SOL     vw 6872   2.949   6.647   1.822  0.5379 -0.0384 -0.1103
 1719SOL     ow 6873   6.022   6.215   1.140  0.3209  0.3338  0.0122
 1719SOL     hw 6874   5.955   6.148   1.131 -0.8666  1.6136 -1.2793
 1719SOL     hw 6875   5.976   6.290   1.178  1.4537  0.6757  0.7818
 1719SOL     vw 6876   6.007   6.216   1.144  0.3138  0.5479 -0.0566
 1720SOL     ow 6877   2.875   0.519   0.210 -0.0564 -0.5888  0.0358
 1720SOL     hw 6878   2.888   0.578   0.136  0.2292  0.5034  0.9429
 1720SOL     hw 6879   2.964   0.502   0.243 -0.3106  0.6211  1.4137
 1720SOL     vw 6880   2.889   0.524   0.204 -0.0522 -0.2851  0.3373
 1721SOL     ow 6881   0.205   3.554   4.898 -0.0451  0.4502 -0.3829
 1721SOL     hw 6882   0.157   3.620   4.948 -0.5091 -1.6943  2.2141
 1721SOL     hw 6883   0.138   3.496   4.862  0.4284 -0.0727 -0.4510
 1721SOL     vw 6884   0.190   3.555   4.900 -0.0438  0.0983 -0.0494
 1722SOL     ow 6885   6.482   5.493   5.441 -0.7306  0.1216 -0.8294
 1722SOL     hw 6886   6.469   5.482   5.535  0.0100 -1.5562 -0.8903
 1722SOL     hw 6887   6.544   5.566   5.434 -1.3711  0.7608 -0.0735
 1722SOL     vw 6888   6.488   5.501   5.453 -0.7172 -0.0153 -0.7379
 1723SOL     ow 6889   4.402   1.366   5.237 -0.0275 -0.8798  0.1381
 1723SOL     hw 6890   4.397   1.309   5.160  0.8022 -0.4458 -0.2579
 1723SOL     hw 6891   4.410   1.306   5.311  1.9575 -1.3247 -0.3573
 1723SOL     vw 6892   4.403   1.350   5.236  0.3438 -0.8812  0.0205
 1724SOL     ow 6893   4.719   2.611   6.016  0.1495 -0.2754  0.2663
 1724SOL     hw 6894   4.674   2.648   5.940 -0.5459 -1.2499  0.1768
 1724SOL     hw 6895   4.675   2.526   6.030  1.5948 -1.0102  0.5147
 1724SOL     vw 6896   4.707   2.604   6.008  0.2484 -0.5008  0.2873
 1725SOL     ow 6897   1.725   0.136   4.642  0.0151 -0.0605  0.0916
 1725SOL     hw 6898   1.701   0.172   4.556  1.6376 -1.5798 -1.0534
 1725SOL     hw 6899   1.642   0.110   4.681 -0.6255 -1.5252 -2.0531
 1725SOL     vw 6900   1.711   0.138   4.636  0.1446 -0.4542 -0.3421
 1726SOL     ow 6901   5.800   0.920   5.250 -0.4363 -0.3496 -0.1879
 1726SOL     hw 6902   5.760   0.858   5.190  0.2173 -2.1194  1.1085
 1726SOL     hw 6903   5.867   0.868   5.296  1.0015  1.6351  0.0799
 1726SOL     vw 6904   5.804   0.905   5.248 -0.1607 -0.3212  0.0184
 1727SOL     ow 6905   2.917   0.009   2.855 -0.2011  0.4303  0.0857
 1727SOL     hw 6906   2.971   0.013   2.934 -1.5788  0.4178  1.0712
 1727SOL     hw 6907   2.899   0.101   2.835  0.3204  0.4408 -0.3438
 1727SOL     vw 6908   2.922   0.022   2.863 -0.3141  0.4300  0.1591
 1728SOL     ow 6909   5.652   0.697   5.652  0.6303 -0.4586  0.4332
 1728SOL     hw 6910   5.630   0.755   5.579 -0.8118 -1.1887  0.2414
 1728SOL     hw 6911   5.700   0.624   5.612  0.0602 -0.7327  0.2306
 1728SOL     vw 6912   5.655   0.695   5.637  0.3648 -0.5911  0.3812
 1729SOL     ow 6913   5.254   3.449   6.293 -0.1285 -0.2389 -0.5051
 1729SOL     hw 6914   5.330   3.503   6.314 -0.6845 -0.0999  1.2635
 1729SOL     hw 6915   5.270   3.366   6.337 -1.0654 -0.1487  0.0203
 1729SOL     vw 6916   5.266   3.445   6.301 -0.3254 -0.2087 -0.2024
 1730SOL     ow 6917   0.631   5.946   6.830  0.5466 -0.3348  0.3665
 1730SOL     hw 6918   0.719   5.983   6.831 -0.4384  2.6499 -2.9305
 1730SOL     hw 6919   0.590   5.980   6.909  1.7068  0.0395  0.8292
 1730SOL     vw 6920   0.637   5.955   6.840  0.5697  0.1082 -0.0076
 1731SOL     ow 6921   2.378   5.213   2.344  0.4622  0.1787  0.0208
 1731SOL     hw 6922   2.341   5.144   2.399  1.0413 -0.6024 -0.5473
 1731SOL     hw 6923   2.336   5.201   2.259 -0.3308  1.2956  0.2273
 1731SOL     vw 6924   2.367   5.202   2.340  0.4340  0.2232 -0.0268
 1732SOL     ow 6925   0.517   2.494   0.692  0.0202  0.0213  0.0241
 1732SOL     hw 6926   0.511   2.430   0.763 -2.0581  0.3534  0.1843
 1732SOL     hw 6927   0.608   2.487   0.661  0.3150 -1.7363  1.1918
 1732SOL     vw 6928   0.528   2.485   0.697 -0.2151 -0.1668  0.1993
 1733SOL     ow 6929   2.442   4.577   1.621 -0.5002 -0.7565 -0.1426
 1733SOL     hw 6930   2.384   4.637   1.667 -1.0387 -0.4299 -1.2311
 1733SOL     hw 6931   2.464   4.622   1.540  0.9768 -1.0410  0.0726
 1733SOL     vw 6932   2.437   4.591   1.617 -0.3765 -0.7508 -0.2577
 1734SOL     ow 6933   4.241   6.522   5.119 -0.4991 -0.0285  0.1946
 1734SOL     hw 6934   4.247   6.569   5.035  0.5428 -0.6835 -0.1279
 1734SOL     hw 6935   4.217   6.589   5.182 -3.4721  0.1020 -0.9257
 1734SOL     vw 6936   4.239   6.537   5.116 -0.7539 -0.0978  0.0045
 1735SOL     ow 6937   0.836   6.654   1.345  0.3101 -0.3227  0.1990
 1735SOL     hw 6938   0.822   6.608   1.262  2.0510 -0.5965  0.0163
 1735SOL     hw 6939   0.861   6.585   1.407  0.5025  0.0649  0.5579
 1735SOL     vw 6940   0.838   6.638   1.342  0.5651 -0.3076  0.2223
 1736SOL     ow 6941   0.633   0.177   6.717 -0.1863  0.4207  0.2758
 1736SOL     hw 6942   0.685   0.243   6.764 -0.1044  0.5491  0.0074
 1736SOL     hw 6943   0.683   0.161   6.637  0.1036 -0.4129  0.6181
 1736SOL     vw 6944   0.647   0.184   6.712 -0.1373  0.3277  0.2859
 1737SOL     ow 6945   1.593   5.867   0.939  0.5673  0.2366  0.5106
 1737SOL     hw 6946   1.573   5.820   0.858  0.3586  0.0733  0.6554
 1737SOL     hw 6947   1.508   5.882   0.979  0.5012  1.9394 -0.1849
 1737SOL     vw 6948   1.579   5.863   0.933  0.5310  0.4396  0.4380
 1738SOL     ow 6949   5.499   1.728   5.287 -0.1954 -0.0101 -0.4666
 1738SOL     hw 6950   5.559   1.798   5.262 -2.1476  2.1424  0.4514
 1738SOL     hw 6951   5.534   1.650   5.245  0.9093  1.8958 -3.4033
 1738SOL     vw 6952   5.512   1.727   5.278 -0.3071  0.5255 -0.7329
 1739SOL     ow 6953   5.211   2.144   2.807  0.0030  0.8370 -0.2664
 1739SOL     hw 6954   5.235   2.055   2.833 -1.0820  0.3962 -0.7162
 1739SOL     hw 6955   5.293   2.192   2.807  0.8141 -0.4962 -1.3348
 1739SOL     vw 6956   5.225   2.138   2.811 -0.0331  0.6030 -0.4668
 1740SOL     ow 6957   6.192   3.468   4.811 -0.0754 -0.0924 -0.3473
 1740SOL     hw 6958   6.151   3.438   4.892  1.5712 -0.2112  0.4699
 1740SOL     hw 6959   6.172   3.561   4.806  0.2090  0.0135  0.4456
 1740SOL     vw 6960   6.184   3.476   4.821  0.1793 -0.0941 -0.1349
 1741SOL     ow 6961   0.273   4.247   6.998  0.3880  0.0039 -0.0859
 1741SOL     hw 6962   0.301   4.329   6.956  0.8816  0.5387  1.2537
 1741SOL     hw 6963   0.197   4.272   7.051  1.2668 -0.1275  1.2805
 1741SOL     vw 6964   0.266   4.261   6.999  0.5691  0.0572  0.2713
 1742SOL     ow 6965   0.379   1.611   1.379 -0.3378 -0.2002 -0.1992
 1742SOL     hw 6966   0.455   1.557   1.356 -1.8384 -2.1871 -0.8253
 1742SOL     hw 6967   0.353   1.652   1.297 -0.6429 -0.4616 -0.2321
 1742SOL     vw 6968   0.386   1.609   1.365 -0.5760 -0.4969 -0.2860
 1743SOL     ow 6969   6.889   1.603   0.897 -0.0349 -0.2308  0.4885
 1743SOL     hw 6970   6.877   1.655   0.977 -1.1329  1.4591 -0.6937
 1743SOL     hw 6971   6.817   1.539   0.900  0.9584 -1.3487  1.6550
 1743SOL     vw 6972   6.878   1.601   0.908 -0.0486 -0.1553  0.4865
 1744SOL     ow 6973   5.305   5.148   5.474 -0.6222  0.1702 -0.2751
 1744SOL     hw 6974   5.272   5.232   5.441  2.1533  0.6288 -2.2265
 1744SOL     hw 6975   5.350   5.170   5.555 -1.3798  0.2502  0.1324
 1744SOL     vw 6976   5.306   5.162   5.480 -0.3557  0.2410 -0.4787
 1745SOL     ow 6977   0.122   5.479   1.362 -0.4023  0.3937 -0.1819
 1745SOL     hw 6978   0.047   5.476   1.303 -1.9818  3.2254  1.4911
 1745SOL     hw 6979   0.190   5.524   1.312 -0.2268 -0.9354 -1.2075
 1745SOL     vw 6980   0.121   5.485   1.348 -0.5875  0.5920 -0.0964
 1746SOL     ow 6981   4.391   3.762   6.277 -0.5266  0.1658  0.0419
 1746SOL     hw 6982   4.393   3.791   6.186 -0.3278 -0.2890 -0.0975
 1746SOL     hw 6983   4.428   3.836   6.326 -0.9865  0.5632 -0.2007
 1746SOL     vw 6984   4.396   3.776   6.272 -0.5610  0.1581 -0.0083
 1747SOL     ow 6985   4.344   1.094   2.048  0.2451 -0.6993  0.7447
 1747SOL     hw 6986   4.364   1.120   2.138  0.6110 -0.6780  0.6570
 1747SOL     hw 6987   4.249   1.078   2.048  0.2497 -0.7242  1.1383
 1747SOL     vw 6988   4.334   1.095   2.060  0.2942 -0.6998  0.7851
 1748SOL     ow 6989   2.910   5.859   3.343 -0.5230  0.4706  0.0252
 1748SOL     hw 6990   2.983   5.912   3.375 -1.8199  1.8249  0.9028
 1748SOL     hw 6991   2.951   5.778   3.311  1.2579  0.7986  1.3120
 1748SOL     vw 6992   2.925   5.855   3.343 -0.4593  0.6926  0.3107
 1749SOL     ow 6993   4.805   6.815   6.926  0.1768 -0.6511  0.2225
 1749SOL     hw 6994   4.878   6.753   6.922 -0.3530 -1.3030  0.5026
 1749SOL     hw 6995   4.738   6.777   6.869  0.3566  0.3722 -0.7179
 1749SOL     vw 6996   4.806   6.802   6.918  0.1307 -0.6022  0.1354
 1750SOL     ow 6997   5.966   4.140   4.372  0.6370 -0.1345 -0.4328
 1750SOL     hw 6998   6.033   4.184   4.320  1.4063  1.3460  1.6798
 1750SOL     hw 6999   6.012   4.071   4.419  0.5551  0.3263  0.3582
 1750SOL     vw 7000   5.981   4.137   4.371  0.7277  0.1216 -0.0498
 1751SOL     ow 7001   4.945   6.419   0.719 -0.1111 -0.0099  0.0720
 1751SOL     hw 7002   4.945   6.475   0.641 -1.4976 -2.2470 -1.6595
 1751SOL     hw 7003   4.949   6.329   0.684 -4.5173 -1.3398  2.2802
 1751SOL     vw 7004   4.946   6.414   0.704 -0.8755 -0.4807  0.1349
 1752SOL     ow 7005   0.370   4.707   3.807 -0.0573  0.1790  0.3648
 1752SOL     hw 7006   0.277   4.716   3.789 -0.3092  0.8941  1.8835
 1752SOL     hw 7007   0.377   4.707   3.903  1.5501  0.7201  0.2834
 1752SOL     vw 7008   0.359   4.708   3.818  0.1215  0.3448  0.5544
 1753SOL     ow 7009   4.966   2.760   2.271  0.5091  0.5962 -0.1634
 1753SOL     hw 7010   4.983   2.849   2.238 -0.1492  1.4911  1.7613
 1753SOL     hw 7011   5.048   2.714   2.258  1.8454  2.3622  1.3579
 1753SOL     vw 7012   4.979   2.766   2.265  0.5987  0.9472  0.2912
 1754SOL     ow 7013   3.302   5.881   0.685  0.4317  0.0744  0.1116
 1754SOL     hw 7014   3.370   5.837   0.634  1.7433  0.0689  1.7979
 1754SOL     hw 7015   3.321   5.974   0.675 -0.0295  0.1279 -0.3365
 1754SOL     vw 7016   3.313   5.887   0.677  0.5440  0.0808  0.2750
 1755SOL     ow 7017   1.842   0.906   2.478  0.6497  0.1150 -0.1818
 1755SOL     hw 7018   1.850   0.875   2.569 -0.4056 -0.5964 -0.3143
 1755SOL     hw 7019   1.932   0.926   2.452  0.9221  0.7821  1.1706
 1755SOL     vw 7020   1.855   0.904   2.487  0.5465  0.1092 -0.0207
 1756SOL     ow 7021   5.841   0.667   6.444 -0.0495  0.2993  0.7389
 1756SOL     hw 7022   5.786   0.638   6.371  2.4172  0.0629 -1.1531
 1756SOL     hw 7023   5.837   0.594   6.506  0.7571 -1.2406 -0.9134
 1756SOL     vw 7024   5.833   0.653   6.442  0.3822  0.0649  0.2711
 1757SOL     ow 7025   3.168   6.378   3.166  0.6301  0.3215 -0.5407
 1757SOL     hw 7026   3.095   6.338   3.118  0.9906 -0.8582 -0.1413
 1757SOL     hw 7027   3.246   6.342   3.125  1.0175  1.6444 -1.0218
 1757SOL     vw 7028   3.169   6.368   3.154  0.7287  0.3402 -0.5513
 1758SOL     ow 7029   4.751   1.297   1.465 -0.0753 -0.4364  0.3075
 1758SOL     hw 7030   4.764   1.370   1.525  1.1846  0.1732 -0.6504
 1758SOL     hw 7031   4.665   1.314   1.425  0.3553  0.7596 -0.1795
 1758SOL     vw 7032   4.741   1.309   1.468  0.1478 -0.1981  0.1169
 1759SOL     ow 7033   6.841   1.544   0.040  0.3031  0.6090  0.6937
 1759SOL     hw 7034   6.803   1.464   0.076  0.4998 -0.1793 -0.7403
 1759SOL     hw 7035   6.768   1.585  -0.007  0.4440  0.7312  0.5817
 1759SOL     vw 7036   6.827   1.539   0.038  0.3476  0.5211  0.4898
 1760SOL     ow 7037   3.837   1.976   1.290  0.1196  0.9731 -0.7558
 1760SOL     hw 7038   3.841   1.918   1.367  0.8652 -1.0411 -2.2344
 1760SOL     hw 7039   3.814   2.062   1.327  0.9360  0.2112  1.7693
 1760SOL     vw 7040   3.834   1.979   1.305  0.3258  0.6069 -0.6177
 1761SOL     ow 7041   2.169   6.285   1.529  0.2469 -0.0560 -0.0878
 1761SOL     hw 7042   2.236   6.343   1.494 -0.6926  0.8331 -0.4453
 1761SOL     hw 7043   2.089   6.308   1.482 -0.7079  0.0842  1.5249
 1761SOL     vw 7044   2.167   6.295   1.518 -0.0030  0.0796  0.0778
 1762SOL     ow 7045   3.019   3.877   4.099  0.3485 -0.2836  0.5041
 1762SOL     hw 7046   3.068   3.951   4.136 -1.0038  0.6909  0.4197
 1762SOL     hw 7047   3.010   3.899   4.006 -0.1063 -0.5314  0.4899
 1762SOL     vw 7048   3.024   3.890   4.092  0.1100 -0.1878  0.4914
 1763SOL     ow 7049   3.801   5.522   2.681 -0.0278  0.2083 -0.2774
 1763SOL     hw 7050   3.888   5.490   2.658 -0.1967 -0.6903  0.3017
 1763SOL     hw 7051   3.813   5.617   2.692  0.8412  0.1120 -0.3393
 1763SOL     vw 7052   3.814   5.531   2.680  0.0646  0.0772 -0.2092
 1764SOL     ow 7053   1.557   3.813   0.509  0.9491 -0.3121  0.4687
 1764SOL     hw 7054   1.527   3.890   0.460  2.5868 -1.5645 -2.8414
 1764SOL     hw 7055   1.538   3.834   0.601 -3.0061  1.9572 -0.6305
 1764SOL     vw 7056   1.551   3.826   0.515  0.6434 -0.1780 -0.1131
 1765SOL     ow 7057   1.789   1.769   1.285  0.0563 -0.2997  0.5501
 1765SOL     hw 7058   1.800   1.763   1.380 -0.8782 -1.1136  0.6339
 1765SOL     hw 7059   1.728   1.698   1.264  0.8011 -0.5876 -0.7604
 1765SOL     vw 7060   1.782   1.758   1.295  0.0312 -0.4450  0.3883
 1766SOL     ow 7061   1.241   6.388   0.659 -0.8247  0.2212 -0.1530
 1766SOL     hw 7062   1.155   6.347   0.666 -1.4083  1.1830 -1.3909
 1766SOL     hw 7063   1.302   6.314   0.658 -1.6554 -0.4939  0.2572
 1766SOL     vw 7064   1.238   6.373   0.660 -1.0113  0.2534 -0.2622
 1767SOL     ow 7065   0.678   5.683   5.801 -0.7077 -0.2490 -0.8081
 1767SOL     hw 7066   0.735   5.641   5.866  0.3070 -1.2014 -2.2470
 1767SOL     hw 7067   0.605   5.717   5.852  0.5170 -0.1032  0.9626
 1767SOL     vw 7068   0.676   5.682   5.816 -0.4122 -0.3555 -0.7641
 1768SOL     ow 7069   2.300   4.385   4.805 -0.3476  0.5550  0.1580
 1768SOL     hw 7070   2.393   4.395   4.785 -0.3455  1.2337  0.4827
 1768SOL     hw 7071   2.299   4.331   4.885 -0.2411  0.4718  0.1041
 1768SOL     vw 7072   2.312   4.379   4.813 -0.3334  0.6335  0.1938
 1769SOL     ow 7073   6.327   0.582   6.657 -0.2195 -0.0828  0.1019
 1769SOL     hw 7074   6.370   0.610   6.738 -0.4979  1.6290 -0.2917
 1769SOL     hw 7075   6.373   0.630   6.588 -0.1048 -1.3781 -0.7637
 1769SOL     vw 7076   6.339   0.592   6.659 -0.2413 -0.0279 -0.0641
 1770SOL     ow 7077   2.597   4.239   0.637 -0.1661  0.1798  0.0493
 1770SOL     hw 7078   2.539   4.228   0.562  1.1327 -1.8496 -0.7381
 1770SOL     hw 7079   2.573   4.168   0.697  1.4316 -0.7142 -0.2982
 1770SOL     vw 7080   2.587   4.228   0.635  0.2161 -0.2060 -0.1005
 1771SOL     ow 7081   7.143   5.352   1.016 -0.2142  0.0050 -0.1662
 1771SOL     hw 7082   7.222   5.298   1.015 -0.0661  0.2031  0.3505
 1771SOL     hw 7083   7.079   5.303   0.966  0.7018  0.5386 -1.9699
 1771SOL     vw 7084   7.145   5.339   1.009 -0.0739  0.1016 -0.3360
 1772SOL     ow 7085   0.209   1.715   5.454  0.1541  0.1950 -0.0781
 1772SOL     hw 7086   0.248   1.794   5.416 -0.7674  0.0285 -1.4608
 1772SOL     hw 7087   0.284   1.659   5.473  0.8111  1.3425  0.8253
 1772SOL     vw 7088   0.224   1.718   5.451  0.1192  0.3244 -0.1414
 1773SOL     ow 7089   6.840   2.973   0.669 -0.1180 -0.7959 -0.5694
 1773SOL     hw 7090   6.866   2.885   0.697  1.8463 -0.0496  0.1542
 1773SOL     hw 7091   6.749   2.981   0.696  0.3954 -1.7236  1.7094
 1773SOL     vw 7092   6.832   2.962   0.676  0.2089 -0.8198 -0.1732
 1774SOL     ow 7093   6.268   4.512   2.450 -0.1425 -0.2541 -0.5187
 1774SOL     hw 7094   6.231   4.430   2.418 -1.2489  0.1360 -0.2902
 1774SOL     hw 7095   6.221   4.529   2.532 -0.8730  1.2442 -1.2073
 1774SOL     vw 7096   6.257   4.503   2.457 -0.3848 -0.0050 -0.5794
 1775SOL     ow 7097   0.800   0.161   0.890  0.2379  0.3383  0.3591
 1775SOL     hw 7098   0.836   0.249   0.878  1.6999 -0.1715  0.8582
 1775SOL     hw 7099   0.707   0.176   0.909  0.0001  1.6478 -1.5203
 1775SOL     vw 7100   0.793   0.175   0.891  0.3994  0.4438  0.1770
 1776SOL     ow 7101   2.940   2.449   5.452  0.2627 -0.2668 -0.2633
 1776SOL     hw 7102   2.871   2.387   5.433  0.9804 -1.2475  0.2587
 1776SOL     hw 7103   2.973   2.476   5.366 -0.5228 -0.0583 -0.5014
 1776SOL     vw 7104   2.935   2.445   5.438  0.2538 -0.3687 -0.2260
 1777SOL     ow 7105   4.605   1.205   3.928  0.1673 -0.0268 -0.9304
 1777SOL     hw 7106   4.537   1.147   3.892  0.5403 -1.0860 -0.0141
 1777SOL     hw 7107   4.602   1.189   4.023 -0.0286  1.8316 -0.5894
 1777SOL     vw 7108   4.596   1.195   3.936  0.1905  0.0786 -0.7645
 1778SOL     ow 7109   6.540   5.125   1.633 -0.9574 -0.1484 -0.3942
 1778SOL     hw 7110   6.498   5.075   1.702  0.8422 -0.8897  0.2191
 1778SOL     hw 7111   6.490   5.104   1.554 -0.6966 -2.3974 -0.0195
 1778SOL     vw 7112   6.528   5.115   1.631 -0.6852 -0.5429 -0.2639
 1779SOL     ow 7113   3.286   4.025   0.177 -0.1816 -0.2593  0.4692
 1779SOL     hw 7114   3.309   3.981   0.095 -0.0983 -1.0913  0.9314
 1779SOL     hw 7115   3.277   4.117   0.153 -1.0421 -0.6130 -0.6620
 1779SOL     vw 7116   3.288   4.032   0.163 -0.2842 -0.4156  0.3809
 1780SOL     ow 7117   2.247   7.177   6.198 -0.4219  0.2812  0.1677
 1780SOL     hw 7118   2.213   7.231   6.270  1.6716 -0.4291  1.7768
 1780SOL     hw 7119   2.316   7.230   6.158  0.2889 -0.3942  0.4753
 1780SOL     vw 7120   2.251   7.191   6.202 -0.0519  0.0982  0.4203
 1781SOL     ow 7121   0.292   2.887   5.199  0.1565 -0.1829  0.0738
 1781SOL     hw 7122   0.344   2.864   5.122  1.0740  1.1550  0.2606
 1781SOL     hw 7123   0.324   2.827   5.268 -2.0097 -2.7391 -0.9664
 1781SOL     vw 7124   0.303   2.876   5.198 -0.0083 -0.3437 -0.0386
 1782SOL     ow 7125   0.709   3.004   2.596 -0.3479  0.3999 -0.0078
 1782SOL     hw 7126   0.766   2.947   2.647 -1.5236 -0.0541  0.8447
 1782SOL     hw 7127   0.738   3.092   2.617  0.5743  0.1618 -0.2413
 1782SOL     vw 7128   0.720   3.008   2.605 -0.3813  0.3086  0.0739
 1783SOL     ow 7129   6.382   7.096   6.095  0.2002 -0.0786  0.0008
 1783SOL     hw 7130   6.408   7.100   6.003  0.0824 -1.7406 -0.1381
 1783SOL     hw 7131   6.401   7.183   6.130  1.0417  0.3124 -1.3833
 1783SOL     vw 7132   6.388   7.108   6.088  0.2956 -0.2465 -0.2003
 1784SOL     ow 7133   3.533   5.172   1.703 -0.2246 -0.1840  0.1161
 1784SOL     hw 7134   3.622   5.191   1.675 -0.1238 -0.3249  0.3435
 1784SOL     hw 7135   3.502   5.254   1.741 -0.2944 -0.0484 -0.2212
 1784SOL     vw 7136   3.541   5.186   1.704 -0.2204 -0.1848  0.1016
 1785SOL     ow 7137   3.960   2.226   0.195  0.4863  0.4336  0.3760
 1785SOL     hw 7138   3.974   2.131   0.188 -1.7009  0.0128  0.7797
 1785SOL     hw 7139   3.992   2.248   0.282  1.3472  0.1585  0.1435
 1785SOL     vw 7140   3.966   2.216   0.206  0.3114  0.3418  0.3986
 1786SOL     ow 7141   6.389   2.049   2.237  0.5374  0.3086  0.3383
 1786SOL     hw 7142   6.339   2.022   2.314  1.3717 -0.0139  0.7790
 1786SOL     hw 7143   6.337   2.018   2.163  0.5960 -0.9839  0.8035
 1786SOL     vw 7144   6.375   2.041   2.237  0.6554  0.0955  0.4578
 1787SOL     ow 7145   3.322   2.420   6.308  0.3945 -0.1667 -0.0741
 1787SOL     hw 7146   3.328   2.452   6.218 -0.8667 -0.3271 -0.2413
 1787SOL     hw 7147   3.330   2.498   6.363  0.7343 -0.0102 -0.3486
 1787SOL     vw 7148   3.324   2.434   6.303  0.2729 -0.1671 -0.1326
 1788SOL     ow 7149   0.678   3.583   1.904 -0.2333  0.4806  0.0025
 1788SOL     hw 7150   0.695   3.565   1.811 -0.5987  1.5987 -0.2972
 1788SOL     hw 7151   0.697   3.677   1.914  0.9076  0.1506  1.3152
 1788SOL     vw 7152   0.683   3.593   1.893 -0.1310  0.5846  0.1362
 1789SOL     ow 7153   1.918   0.616   2.859  0.4007 -0.0134 -0.2125
 1789SOL     hw 7154   2.011   0.619   2.836  0.5919 -0.9800  0.3974
 1789SOL     hw 7155   1.882   0.695   2.819  1.7120  1.0365  0.5765
 1789SOL     vw 7156   1.926   0.627   2.850  0.5990 -0.0024 -0.0279
 1790SOL     ow 7157   5.982   6.369   3.337  0.1799  0.5848 -0.3680
 1790SOL     hw 7158   5.983   6.338   3.428 -0.0006  2.9491  0.5009
 1790SOL     hw 7159   5.892   6.396   3.321  0.0014 -0.5974 -1.5942
 1790SOL     vw 7160   5.971   6.369   3.347  0.1328  0.7405 -0.4151
 1791SOL     ow 7161   5.106   6.492   2.333  0.1391 -0.0037 -0.2224
 1791SOL     hw 7162   5.050   6.570   2.327 -0.6274 -0.4719  0.6738
 1791SOL     hw 7163   5.075   6.446   2.411  0.5393 -1.2424 -0.7750
 1791SOL     vw 7164   5.095   6.496   2.342  0.0908 -0.2291 -0.1770
 1792SOL     ow 7165   6.171   1.103   2.025 -0.2630  0.8392 -0.5721
 1792SOL     hw 7166   6.080   1.123   2.002 -0.3672  1.0794  0.0338
 1792SOL     hw 7167   6.216   1.188   2.020 -0.4845  1.0710  0.9977
 1792SOL     vw 7168   6.165   1.117   2.021 -0.3059  0.9015 -0.2850
 1793SOL     ow 7169   7.091   5.715   3.538 -0.3461  0.3665 -0.2670
 1793SOL     hw 7170   7.103   5.625   3.571  2.8772  0.4025 -0.9813
 1793SOL     hw 7171   7.041   5.704   3.457  1.1223 -1.0164 -1.0510
 1793SOL     vw 7172   7.086   5.701   3.532  0.2730  0.1886 -0.4647
 1794SOL     ow 7173   0.436   5.662   2.660 -0.0530 -0.2428  0.2465
 1794SOL     hw 7174   0.487   5.624   2.732 -0.1268 -0.8922 -0.0447
 1794SOL     hw 7175   0.426   5.754   2.685 -2.3930 -0.9842  2.4438
 1794SOL     vw 7176   0.442   5.669   2.673 -0.3715 -0.4263  0.4979
 1795SOL     ow 7177   6.449   2.860   2.911 -0.1474 -0.0511  0.5749
 1795SOL     hw 7178   6.535   2.870   2.870  1.1130  0.5697  3.1199
 1795SOL     hw 7179   6.419   2.950   2.925 -0.3487 -0.2312  1.3306
 1795SOL     vw 7180   6.457   2.873   2.908 -0.0074  0.0069  1.0103
 1796SOL     ow 7181   6.101   1.795   5.748  0.1737 -0.4977 -0.3637
 1796SOL     hw 7182   6.035   1.748   5.697  0.5920  0.2411 -1.6466
 1796SOL     hw 7183   6.060   1.878   5.772  0.1147 -0.6780  0.1679
 1796SOL     vw 7184   6.087   1.800   5.744  0.2213 -0.4240 -0.4628
 1797SOL     ow 7185   3.355   5.029   1.041 -0.4751 -0.5685 -0.4576
 1797SOL     hw 7186   3.450   5.024   1.042 -0.4828 -0.7880 -0.7520
 1797SOL     hw 7187   3.335   5.090   0.971 -0.5433 -0.3156 -0.2182
 1797SOL     vw 7188   3.365   5.036   1.032 -0.4849 -0.5641 -0.4649
 1798SOL     ow 7189   3.089   5.870   0.441  0.1328 -0.1424  0.4218
 1798SOL     hw 7190   3.127   5.884   0.528  1.6670  0.3582 -0.2911
 1798SOL     hw 7191   3.091   5.956   0.399  1.5591 -0.7569 -0.8990
 1798SOL     vw 7192   3.094   5.883   0.447  0.5234 -0.1571  0.1535
 1799SOL     ow 7193   6.946   5.371   3.876 -0.2559  0.2036 -0.0665
 1799SOL     hw 7194   6.961   5.458   3.839  1.0975  0.2270  0.4632
 1799SOL     hw 7195   7.031   5.326   3.867 -0.7653 -0.8516  0.2100
 1799SOL     vw 7196   6.959   5.376   3.870 -0.1445  0.0672  0.0399
 1800SOL     ow 7197   2.201   4.818   5.282  0.2631  0.1535 -0.2257
 1800SOL     hw 7198   2.134   4.749   5.282  1.7247 -1.3146 -0.5705
 1800SOL     hw 7199   2.276   4.779   5.237  2.2013  0.9047  2.1354
 1800SOL     vw 7200   2.202   4.804   5.276  0.7117  0.0591  0.0405
 1801SOL     ow 7201   0.988   4.957   1.808  0.2430 -0.1510  0.6118
 1801SOL     hw 7202   0.918   5.013   1.841  0.4412  1.3699 -1.3300
 1801SOL     hw 7203   1.049   5.017   1.765  0.0877 -1.8536 -2.2899
 1801SOL     vw 7204   0.987   4.972   1.806  0.2486 -0.1750 -0.0272
 1802SOL     ow 7205   2.408   0.801   6.837  0.3471  0.2031  0.4009
 1802SOL     hw 7206   2.433   0.893   6.843 -0.7130  0.4790  0.8367
 1802SOL     hw 7207   2.343   0.798   6.766 -1.1216  0.1594  1.7038
 1802SOL     vw 7208   2.403   0.812   6.828  0.0136  0.2338  0.6301
 1803SOL     ow 7209   5.367   3.356   0.277 -0.3484 -0.1558 -0.1942
 1803SOL     hw 7210   5.275   3.331   0.266 -0.6117  0.7041  0.0045
 1803SOL     hw 7211   5.388   3.405   0.198 -0.1431 -0.0966 -0.1029
 1803SOL     vw 7212   5.358   3.359   0.265 -0.3557 -0.0345 -0.1559
 1804SOL     ow 7213   0.050   3.622   3.926  0.3251 -0.4593  1.2105
 1804SOL     hw 7214   0.040   3.665   3.841  2.0792  1.6772  1.9947
 1804SOL     hw 7215   0.054   3.694   3.989  1.5064 -1.8610  2.8282
 1804SOL     vw 7216   0.049   3.638   3.923  0.7124 -0.3623  1.5273
 1805SOL     ow 7217   5.330   4.892   4.490 -0.2144  0.1381 -0.2025
 1805SOL     hw 7218   5.268   4.948   4.536  0.8793  0.9094  0.3921
 1805SOL     hw 7219   5.412   4.903   4.539  0.8668  0.6019 -2.0408
 1805SOL     vw 7220   5.333   4.901   4.503  0.0725  0.3009 -0.3664
 1806SOL     ow 7221   5.310   0.199   2.018  0.1775  1.1314  0.0252
 1806SOL     hw 7222   5.253   0.142   1.967  0.6009  0.1356  0.6456
 1806SOL     hw 7223   5.278   0.287   2.000 -0.2272  0.7322 -1.2692
 1806SOL     vw 7224   5.299   0.203   2.009  0.1802  0.9474 -0.0638
 1807SOL     ow 7225   5.382   3.481   3.450  0.3929 -0.1517  0.6650
 1807SOL     hw 7226   5.316   3.510   3.513 -0.0548 -0.8136  0.5138
 1807SOL     hw 7227   5.341   3.492   3.364  0.4254 -0.6705  0.5769
 1807SOL     vw 7228   5.368   3.486   3.447  0.3383 -0.3076  0.6336
 1808SOL     ow 7229   2.773   2.334   1.430 -0.4470 -0.3297 -0.6884
 1808SOL     hw 7230   2.800   2.256   1.479 -1.6216  0.7962  1.9503
 1808SOL     hw 7231   2.840   2.400   1.449 -0.8688  0.0996 -0.6688
 1808SOL     vw 7232   2.785   2.332   1.439 -0.6577 -0.1245 -0.3376
 1809SOL     ow 7233   2.176   0.120   1.554 -0.0610  0.1658 -0.0109
 1809SOL     hw 7234   2.236   0.101   1.627 -0.8951  1.2061  0.9839
 1809SOL     hw 7235   2.129   0.199   1.581  0.0666  0.9755 -1.9909
 1809SOL     vw 7236   2.178   0.128   1.568 -0.1541  0.4099 -0.1409
 1810SOL     ow 7237   6.664   4.061   6.191 -0.0891  0.5387  0.1402
 1810SOL     hw 7238   6.722   3.994   6.229 -0.2146 -0.3270 -1.1145
 1810SOL     hw 7239   6.586   4.012   6.166 -0.0087  1.0726 -1.1933
 1810SOL     vw 7240   6.662   4.046   6.193 -0.0954  0.4950 -0.2012
 1811SOL     ow 7241   4.779   6.740   4.630  0.2915 -0.0917 -0.0221
 1811SOL     hw 7242   4.847   6.792   4.672  0.9501 -0.3342 -0.7704
 1811SOL     hw 7243   4.775   6.659   4.682 -0.3988  0.4827  0.8484
 1811SOL     vw 7244   4.788   6.736   4.642  0.2873 -0.0479 -0.0060
 1812SOL     ow 7245   5.814   4.181   1.429  0.1314  0.3329 -0.2949
 1812SOL     hw 7246   5.823   4.276   1.442  1.7254  0.3325 -1.1208
 1812SOL     hw 7247   5.899   4.154   1.395  0.0641 -1.5861  0.9177
 1812SOL     vw 7248   5.827   4.190   1.426  0.3331  0.0796 -0.2438
 1813SOL     ow 7249   4.154   6.460   6.627  0.0263  0.5901 -0.1901
 1813SOL     hw 7250   4.153   6.497   6.538 -1.2625  1.3252  0.1066
 1813SOL     hw 7251   4.237   6.490   6.664  0.2045  0.9701 -0.8724
 1813SOL     vw 7252   4.165   6.469   6.620 -0.1202  0.7370 -0.2410
 1814SOL     ow 7253   5.771   2.375   5.078  0.0573 -0.0781 -0.3092
 1814SOL     hw 7254   5.819   2.454   5.055  0.2558 -0.1680 -0.1987
 1814SOL     hw 7255   5.834   2.304   5.066  1.0844  0.0840  3.2197
 1814SOL     vw 7256   5.785   2.376   5.073  0.2189 -0.0684  0.1712
 1815SOL     ow 7257   5.776   1.344   4.370 -0.0496  0.5265 -0.4696
 1815SOL     hw 7258   5.718   1.270   4.389 -1.2566  1.6985  0.5444
 1815SOL     hw 7259   5.836   1.346   4.445 -0.1386  0.6991 -0.4041
 1815SOL     vw 7260   5.777   1.334   4.382 -0.2210  0.7039 -0.3271
 1816SOL     ow 7261   5.386   3.825   1.939  0.2540 -0.2546  0.1547
 1816SOL     hw 7262   5.437   3.847   2.017  0.3541 -1.0747  0.3236
 1816SOL     hw 7263   5.339   3.906   1.917  1.9833  0.6960 -0.2797
 1816SOL     vw 7264   5.387   3.839   1.946  0.4954 -0.2375  0.1197
 1817SOL     ow 7265   1.543   4.610   3.230 -0.4835  0.1884  0.4872
 1817SOL     hw 7266   1.516   4.521   3.252  0.7562 -0.7400 -1.4906
 1817SOL     hw 7267   1.635   4.602   3.207 -0.3086  2.0305  0.4134
 1817SOL     vw 7268   1.552   4.597   3.230 -0.2968  0.3088  0.2164
 1818SOL     ow 7269   2.458   3.198   2.268 -0.1978  0.0668  0.1128
 1818SOL     hw 7270   2.444   3.265   2.335  1.4833 -0.2987  0.8692
 1818SOL     hw 7271   2.382   3.140   2.277 -1.6483  1.7750 -0.5150
 1818SOL     vw 7272   2.446   3.199   2.278 -0.1675  0.2440  0.1297
 1819SOL     ow 7273   4.377   1.687   3.466 -0.1063 -0.1242  0.4013
 1819SOL     hw 7274   4.296   1.671   3.513 -0.4584  0.9329  0.1970
 1819SOL     hw 7275   4.406   1.601   3.437 -0.6738 -0.6128  1.2488
 1819SOL     vw 7276   4.370   1.674   3.468 -0.2277 -0.0492  0.4863
 1820SOL     ow 7277   6.223   2.707   4.339  0.4762  0.1370 -0.1507
 1820SOL     hw 7278   6.238   2.738   4.428  0.8248 -0.3940 -0.0213
 1820SOL     hw 7279   6.274   2.626   4.332 -2.0455 -1.6141  0.2440
 1820SOL     vw 7280   6.231   2.700   4.349  0.1893 -0.1640 -0.0818
 1821SOL     ow 7281   0.917   1.950   0.241  0.5099 -0.1078 -0.1589
 1821SOL     hw 7282   0.932   1.985   0.329  1.7065  0.2414 -0.4800
 1821SOL     hw 7283   0.993   1.978   0.191 -0.3911  0.1421 -1.4506
 1821SOL     vw 7284   0.929   1.958   0.246  0.5489 -0.0287 -0.3717
 1822SOL     ow 7285   1.778   0.807   2.731  0.0928 -0.3716 -0.3240
 1822SOL     hw 7286   1.711   0.859   2.775  1.1841  0.2475  0.6663
 1822SOL     hw 7287   1.733   0.728   2.702 -0.8997 -0.3076  0.9735
 1822SOL     vw 7288   1.763   0.803   2.733  0.1059 -0.2815 -0.0221
 1823SOL     ow 7289   3.324   6.083   4.978 -0.0372 -0.3026 -0.6370
 1823SOL     hw 7290   3.252   6.099   5.039 -1.6468  0.4490 -2.5888
 1823SOL     hw 7291   3.333   5.988   4.976 -1.2531 -0.4441 -0.5855
 1823SOL     vw 7292   3.315   6.072   4.986 -0.4100 -0.2220 -0.8874
 1824SOL     ow 7293   2.542   0.661   2.442  0.6838  0.1301  0.2939
 1824SOL     hw 7294   2.517   0.646   2.533 -0.4802  1.1243  0.1692
 1824SOL     hw 7295   2.466   0.631   2.391  1.0712  0.1648 -0.3197
 1824SOL     vw 7296   2.528   0.655   2.447  0.5814  0.2659  0.1965
 1825SOL     ow 7297   4.603   0.030   4.916  0.0142 -0.2750 -0.5018
 1825SOL     hw 7298   4.652   0.000   4.993  0.6592 -1.0979 -1.2088
 1825SOL     hw 7299   4.623   0.124   4.910 -0.6740 -0.0258  0.7706
 1825SOL     vw 7300   4.612   0.038   4.925  0.0083 -0.3507 -0.4270
 1826SOL     ow 7301   1.443   0.605   3.269  0.2067  0.1652 -0.8204
 1826SOL     hw 7302   1.447   0.546   3.344  0.4381  0.0142 -0.9494
 1826SOL     hw 7303   1.356   0.591   3.232  0.3237 -0.2346 -0.9585
 1826SOL     vw 7304   1.432   0.595   3.274  0.2527  0.0925 -0.8556
 1827SOL     ow 7305   6.424   3.571   2.703 -0.6676 -0.0461 -0.3104
 1827SOL     hw 7306   6.413   3.512   2.777 -0.7391  0.5420  0.1564
 1827SOL     hw 7307   6.518   3.569   2.684 -0.8664 -1.5300 -1.3390
 1827SOL     vw 7308   6.435   3.563   2.710 -0.7033 -0.1642 -0.3846
 1828SOL     ow 7309   3.591   0.596   3.869  0.1973 -0.0012 -0.1706
 1828SOL     hw 7310   3.523   0.553   3.920  1.6052  0.4359  2.2320
 1828SOL     hw 7311   3.603   0.681   3.911  2.4510 -0.2164 -0.2307
 1828SOL     vw 7312   3.584   0.601   3.881  0.6803  0.0280  0.1385
 1829SOL     ow 7313   2.219   7.170   3.985 -0.4258 -0.6744  0.1445
 1829SOL     hw 7314   2.297   7.225   3.991 -0.2949 -0.8904  0.4688
 1829SOL     hw 7315   2.230   7.121   3.904 -0.5788 -0.1671 -0.1818
 1829SOL     vw 7316   2.231   7.171   3.975 -0.4287 -0.6360  0.1444
 1830SOL     ow 7317   1.626   5.914   4.090  0.0136  0.8549 -0.2729
 1830SOL     hw 7318   1.596   5.995   4.051  0.6024  1.3098  0.1899
 1830SOL     hw 7319   1.595   5.918   4.181  2.3605  1.9005  0.5847
 1830SOL     vw 7320   1.618   5.925   4.097  0.4010  1.0529 -0.0989
 1831SOL     ow 7321   6.637   5.547   4.111 -0.1886  0.0827  0.0393
 1831SOL     hw 7322   6.589   5.615   4.064  0.6401 -0.2794 -1.3794
 1831SOL     hw 7323   6.588   5.466   4.095 -0.3091  0.0779  0.4205
 1831SOL     vw 7324   6.624   5.545   4.103 -0.0949  0.0343 -0.0975
 1832SOL     ow 7325   6.227   6.731   6.888  0.2933  0.5518 -0.2074
 1832SOL     hw 7326   6.248   6.817   6.852 -1.6503  0.2062 -2.3814
 1832SOL     hw 7327   6.197   6.679   6.813 -3.4720 -0.4136  1.6865
 1832SOL     vw 7328   6.226   6.735   6.874 -0.4597  0.3786 -0.2441
 1833SOL     ow 7329   6.737   1.759   0.690 -0.3841 -0.0402  0.5341
 1833SOL     hw 7330   6.691   1.758   0.774 -3.2032 -0.0222 -0.9191
 1833SOL     hw 7331   6.703   1.835   0.644  0.5292 -0.4813 -0.9445
 1833SOL     vw 7332   6.727   1.769   0.695 -0.6356 -0.0960  0.1473
 1834SOL     ow 7333   1.274   3.906   6.039 -0.1685 -0.3320  0.1582
 1834SOL     hw 7334   1.344   3.941   5.983 -0.6186 -0.4146 -0.4576
 1834SOL     hw 7335   1.312   3.908   6.127  1.3221 -2.0833 -0.3641
 1834SOL     vw 7336   1.289   3.911   6.043 -0.0312 -0.5739  0.0079
 1835SOL     ow 7337   4.681   7.115   0.476 -0.0559  0.0251 -0.0861
 1835SOL     hw 7338   4.721   7.030   0.496 -0.1503  0.0509  0.2299
 1835SOL     hw 7339   4.643   7.104   0.389 -0.5633 -0.4410  0.1818
 1835SOL     vw 7340   4.681   7.102   0.467 -0.1352 -0.0329 -0.0091
 1836SOL     ow 7341   1.615   5.111   4.773  0.0355  0.2182  0.8154
 1836SOL     hw 7342   1.701   5.095   4.734  0.4816  2.6875  0.6093
 1836SOL     hw 7343   1.553   5.098   4.702  0.4064  0.0795  0.5157
 1836SOL     vw 7344   1.619   5.107   4.759  0.1433  0.5255  0.7486
 1837SOL     ow 7345   1.181   3.699   1.383  0.1514 -0.3615  0.2695
 1837SOL     hw 7346   1.182   3.746   1.299  1.6977  0.8705  0.9263
 1837SOL     hw 7347   1.140   3.615   1.363  2.6669 -1.1292 -2.3125
 1837SOL     vw 7348   1.176   3.694   1.369  0.6874 -0.3002  0.0154
 1838SOL     ow 7349   3.490   2.009   4.077  0.1068 -0.7402 -0.2918
 1838SOL     hw 7350   3.466   2.061   4.154 -2.1118 -3.1363  0.7918
 1838SOL     hw 7351   3.489   1.918   4.108  2.3984 -1.5995 -2.4208
 1838SOL     vw 7352   3.487   2.004   4.091  0.1163 -1.1698 -0.4296
 1839SOL     ow 7353   5.787   1.509   3.876 -0.0430  0.4300  0.6634
 1839SOL     hw 7354   5.797   1.422   3.838 -3.3473  0.0988  0.2166
 1839SOL     hw 7355   5.747   1.494   3.961 -0.3287  1.4804  0.7329
 1839SOL     vw 7356   5.783   1.496   3.882 -0.5164  0.5249  0.6137
 1840SOL     ow 7357   6.879   4.643   5.016 -0.4008  0.1896 -0.3212
 1840SOL     hw 7358   6.892   4.626   5.109  1.2427 -2.5409 -0.9362
 1840SOL     hw 7359   6.905   4.734   5.003 -2.2857  1.1786  2.0966
 1840SOL     vw 7360   6.884   4.652   5.026 -0.4327 -0.0401 -0.0834
 1841SOL     ow 7361   4.229   2.742   2.461 -0.4069 -0.1280  0.0924
 1841SOL     hw 7362   4.264   2.709   2.379 -1.9171 -0.8185 -0.3182
 1841SOL     hw 7363   4.229   2.666   2.519 -2.2402 -0.4771 -0.2906
 1841SOL     vw 7364   4.234   2.728   2.458 -0.8483 -0.2652 -0.0123
 1842SOL     ow 7365   1.506   0.982   6.215 -0.3933  0.2855 -0.0817
 1842SOL     hw 7366   1.515   1.063   6.165 -1.1051  0.7671  0.5436
 1842SOL     hw 7367   1.535   0.913   6.155  1.0792  1.0694 -0.3133
 1842SOL     vw 7368   1.511   0.983   6.200 -0.2930  0.4525 -0.0298
 1843SOL     ow 7369   6.548   4.327   6.210  0.0029  0.4337 -0.3727
 1843SOL     hw 7370   6.559   4.401   6.271  0.2899  1.8979 -2.1301
 1843SOL     hw 7371   6.456   4.300   6.221  0.1554  0.3799  0.9757
 1843SOL     vw 7372   6.537   4.333   6.220  0.0610  0.6199 -0.4265
 1844SOL     ow 7373   1.272   5.316   2.169  0.9160  0.0518  0.0270
 1844SOL     hw 7374   1.223   5.391   2.136  1.5389 -0.0770 -1.2430
 1844SOL     hw 7375   1.208   5.267   2.222  0.5407  1.5183  0.9852
 1844SOL     vw 7376   1.257   5.319   2.171  0.9487  0.2284 -0.0143
 1845SOL     ow 7377   2.714   3.214   5.698 -0.0360  0.0435 -0.1667
 1845SOL     hw 7378   2.777   3.204   5.769 -1.8947 -0.9412  1.4374
 1845SOL     hw 7379   2.652   3.142   5.710 -0.4524 -0.1630 -2.8131
 1845SOL     vw 7380   2.714   3.203   5.709 -0.3363 -0.1138 -0.3042
 1846SOL     ow 7381   5.749   4.018   2.114 -0.2676 -0.4710 -0.2308
 1846SOL     hw 7382   5.726   4.097   2.162  1.5433 -0.0332 -0.0272
 1846SOL     hw 7383   5.828   3.986   2.157  0.0792 -1.3623 -1.4950
 1846SOL     vw 7384   5.756   4.024   2.126  0.0169 -0.5310 -0.3707
 1847SOL     ow 7385   3.614   2.989   2.221 -0.2643  0.3375  0.1934
 1847SOL     hw 7386   3.641   2.948   2.303 -0.0445 -1.8257 -0.9043
 1847SOL     hw 7387   3.519   2.975   2.217 -0.2269  0.1542 -0.0734
 1847SOL     vw 7388   3.605   2.982   2.231 -0.2304  0.0280  0.0132
 1848SOL     ow 7389   3.461   5.294   6.049 -0.0328 -0.2689 -0.2983
 1848SOL     hw 7390   3.459   5.264   6.140 -0.7421  0.2490 -0.1305
 1848SOL     hw 7391   3.434   5.385   6.054  1.2887  0.1687 -0.8898
 1848SOL     vw 7392   3.457   5.302   6.062  0.0480 -0.1426 -0.3541
 1849SOL     ow 7393   2.050   2.148   0.951 -0.2807  0.2012  0.3670
 1849SOL     hw 7394   2.141   2.160   0.924 -0.1914  0.9235  0.9409
 1849SOL     hw 7395   2.008   2.106   0.876  0.6850 -0.8325  0.3776
 1849SOL     vw 7396   2.056   2.144   0.938 -0.1416  0.1600  0.4441
 1850SOL     ow 7397   4.841   3.521   1.606  0.2748  0.1347  0.3697
 1850SOL     hw 7398   4.805   3.608   1.590 -0.3878  0.0661  1.3651
 1850SOL     hw 7399   4.821   3.503   1.698  2.4434 -0.1374  0.8287
 1850SOL     vw 7400   4.833   3.530   1.616  0.4733  0.0898  0.5617
 1851SOL     ow 7401   2.562   0.359   6.269 -0.2131 -0.4582 -0.1039
 1851SOL     hw 7402   2.539   0.407   6.349  0.8314 -0.2952  0.1031
 1851SOL     hw 7403   2.607   0.281   6.300 -4.4043 -3.2322 -0.2420
 1851SOL     vw 7404   2.565   0.355   6.284 -0.6282 -0.8027 -0.0949
 1852SOL     ow 7405   1.684   4.423   5.985  0.3555  0.2140 -0.6352
 1852SOL     hw 7406   1.642   4.507   6.004 -0.2684 -0.3185  0.4013
 1852SOL     hw 7407   1.722   4.395   6.069  0.5330 -0.5565 -0.9618
 1852SOL     vw 7408   1.684   4.431   5.999  0.2965  0.0422 -0.5414
 1853SOL     ow 7409   4.168   0.212   3.049  0.1354  0.5982 -0.1732
 1853SOL     hw 7410   4.253   0.169   3.061  0.6071  1.1196 -1.4503
 1853SOL     hw 7411   4.189   0.302   3.024 -0.8133  0.9320  0.1742
 1853SOL     vw 7412   4.182   0.218   3.047  0.0722  0.7110 -0.2958
 1854SOL     ow 7413   6.220   5.470   5.715  0.1082  0.1056  0.2151
 1854SOL     hw 7414   6.156   5.403   5.693 -0.0283 -0.0383  1.0236
 1854SOL     hw 7415   6.173   5.530   5.773  0.7635 -0.1372  1.0195
 1854SOL     vw 7416   6.205   5.469   5.720  0.1767  0.0548  0.4277
 1855SOL     ow 7417   5.837   3.929   3.781 -0.0879 -0.2230 -0.1216
 1855SOL     hw 7418   5.846   3.979   3.862  2.1094 -1.2362  0.3428
 1855SOL     hw 7419   5.744   3.904   3.778 -0.5973  1.4004  1.0893
 1855SOL     vw 7420   5.826   3.932   3.791  0.1347 -0.1423  0.0994
 1856SOL     ow 7421   5.450   4.456   6.810  0.7411 -0.0755  0.0755
 1856SOL     hw 7422   5.430   4.362   6.814  0.5532  0.0082  2.5528
 1856SOL     hw 7423   5.368   4.497   6.782  0.2811 -0.5042  0.7929
 1856SOL     vw 7424   5.436   4.449   6.806  0.6554 -0.1209  0.4971
 1857SOL     ow 7425   2.775   1.750   5.955 -0.0673 -0.4937  0.5883
 1857SOL     hw 7426   2.756   1.843   5.968 -0.6857 -0.2951 -1.4035
 1857SOL     hw 7427   2.858   1.736   6.000  1.2527  1.5878 -0.9809
 1857SOL     vw 7428   2.783   1.760   5.963  0.0254 -0.1929  0.1187
 1858SOL     ow 7429   5.372   4.929   5.751 -0.1010 -0.3327  0.4618
 1858SOL     hw 7430   5.379   5.023   5.734  2.5134 -0.3520  1.0413
 1858SOL     hw 7431   5.339   4.892   5.669  2.7926  0.6857 -1.2838
 1858SOL     vw 7432   5.368   4.936   5.738  0.6258 -0.2010  0.3083
 1859SOL     ow 7433   0.210   2.454   0.279 -0.2110  0.2584  0.1385
 1859SOL     hw 7434   0.154   2.393   0.327 -0.9397  1.8332  1.4000
 1859SOL     hw 7435   0.296   2.444   0.318 -0.1425 -0.4570 -0.1702
 1859SOL     vw 7436   0.214   2.445   0.290 -0.2981  0.3718  0.2642
 1860SOL     ow 7437   0.981   1.786   3.914  0.1997  0.7552  0.8256
 1860SOL     hw 7438   0.962   1.825   3.829  0.2191 -0.5936  0.1794
 1860SOL     hw 7439   1.014   1.859   3.967  1.3142  1.4006 -0.6801
 1860SOL     vw 7440   0.983   1.801   3.910  0.3494  0.6624  0.5416
 1861SOL     ow 7441   7.103   5.801   1.677 -0.6443  0.2571 -0.6446
 1861SOL     hw 7442   7.148   5.885   1.683 -1.4352  0.7040 -0.7821
 1861SOL     hw 7443   7.169   5.736   1.700 -0.4716  1.0360  1.2201
 1861SOL     vw 7444   7.118   5.803   1.681 -0.7257  0.4187 -0.4168
 1862SOL     ow 7445   0.308   2.088   2.780  0.2908  0.4426  0.9346
 1862SOL     hw 7446   0.249   2.057   2.711 -0.8997 -0.1628  2.1844
 1862SOL     hw 7447   0.350   2.165   2.741 -1.9823  1.4426  0.2695
 1862SOL     vw 7448   0.306   2.094   2.766 -0.1662  0.4946  1.0117
 1863SOL     ow 7449   2.376   4.696   5.085 -0.0493  0.2797 -0.2148
 1863SOL     hw 7450   2.468   4.722   5.084  0.7274 -2.2665  0.1867
 1863SOL     hw 7451   2.363   4.648   5.004 -1.2692  1.2182 -0.6200
 1863SOL     vw 7452   2.387   4.693   5.074 -0.1078  0.0675 -0.2158
 1864SOL     ow 7453   4.226   4.515   6.264  0.6897 -0.0968 -0.3029
 1864SOL     hw 7454   4.243   4.606   6.286  2.0162 -0.1108 -1.1403
 1864SOL     hw 7455   4.133   4.502   6.283  0.8214  0.9946  1.2413
 1864SOL     vw 7456   4.216   4.525   6.269  0.8821  0.0453 -0.2096
 1865SOL     ow 7457   3.856   2.794   5.939 -0.2270  0.3086 -0.1867
 1865SOL     hw 7458   3.774   2.814   5.984  0.1320 -1.8265  1.5762
 1865SOL     hw 7459   3.829   2.748   5.859 -0.7829  1.8376 -0.9129
 1865SOL     vw 7460   3.842   2.790   5.935 -0.2528  0.2288 -0.0501
 1866SOL     ow 7461   2.304   0.611   1.719 -0.2125 -0.3916 -0.6054
 1866SOL     hw 7462   2.211   0.602   1.698 -0.8154  2.5108  0.2991
 1866SOL     hw 7463   2.317   0.556   1.797 -0.9480 -1.4209 -1.1837
 1866SOL     vw 7464   2.293   0.603   1.727 -0.3892 -0.1445 -0.5624
 1867SOL     ow 7465   3.180   3.119   2.198  0.2580  0.0371 -0.6446
 1867SOL     hw 7466   3.125   3.160   2.131 -2.2242  1.1398  1.8820
 1867SOL     hw 7467   3.193   3.187   2.264  0.6713 -1.6329  1.0935
 1867SOL     vw 7468   3.174   3.133   2.198 -0.0150 -0.0377 -0.0820
 1868SOL     ow 7469   3.480   0.752   2.792 -0.0550  0.0282  0.3006
 1868SOL     hw 7470   3.563   0.742   2.839  0.8875  2.3295 -0.6873
 1868SOL     hw 7471   3.505   0.748   2.700 -1.5214 -2.0887 -0.0471
 1868SOL     vw 7472   3.495   0.750   2.786 -0.1242  0.0525  0.1246
 1869SOL     ow 7473   4.857   0.899   3.743  0.5351  0.1120 -0.0612
 1869SOL     hw 7474   4.949   0.872   3.736  0.3513 -0.9223  1.0396
 1869SOL     hw 7475   4.855   0.989   3.710  1.8088 -0.0928 -0.7484
 1869SOL     vw 7476   4.869   0.907   3.738  0.6785 -0.0515 -0.0064
 1870SOL     ow 7477   5.409   2.276   1.873 -0.1777 -0.1960  0.1597
 1870SOL     hw 7478   5.415   2.248   1.964  1.9279  0.7340  0.3556
 1870SOL     hw 7479   5.414   2.371   1.875  2.6781 -0.2094 -0.9960
 1870SOL     vw 7480   5.410   2.285   1.885  0.4768 -0.0750  0.0330
 1871SOL     ow 7481   2.876   0.256   2.749 -0.1167  0.1864 -0.8714
 1871SOL     hw 7482   2.869   0.282   2.657 -0.5548  1.5547 -0.4755
 1871SOL     hw 7483   2.792   0.282   2.788  0.2518  0.0915  0.0155
 1871SOL     vw 7484   2.864   0.263   2.742 -0.1260  0.3544 -0.7021
 1872SOL     ow 7485   4.097   6.220   5.241  0.0193  0.6159  0.2777
 1872SOL     hw 7486   4.109   6.156   5.311 -0.3687  0.0269 -0.1796
 1872SOL     hw 7487   4.019   6.190   5.195 -1.4165  2.5747  1.2885
 1872SOL     vw 7488   4.088   6.208   5.244 -0.2213  0.7966  0.3507
 1873SOL     ow 7489   5.335   1.091   6.001  0.0686  0.4511  0.2628
 1873SOL     hw 7490   5.282   1.031   5.949  0.8256 -0.2586  0.2677
 1873SOL     hw 7491   5.300   1.083   6.090 -1.7200  2.2379 -0.2168
 1873SOL     vw 7492   5.324   1.082   6.006 -0.0677  0.5932  0.2003
 1874SOL     ow 7493   4.943   0.885   4.123 -0.2455  0.0284  0.3556
 1874SOL     hw 7494   5.027   0.839   4.128 -0.4666 -0.3834  0.3386
 1874SOL     hw 7495   4.924   0.910   4.213  0.6862  1.5801  0.1555
 1874SOL     vw 7496   4.952   0.882   4.136 -0.1519  0.1788  0.3269
 1875SOL     ow 7497   5.710   4.165   4.171  0.1338 -0.0481 -0.0157
 1875SOL     hw 7498   5.727   4.218   4.093 -1.5927  0.9100  0.2135
 1875SOL     hw 7499   5.651   4.096   4.140  0.4606 -0.4166  0.1809
 1875SOL     vw 7500   5.705   4.163   4.156 -0.0510  0.0296  0.0403
 1876SOL     ow 7501   5.773   0.004   0.480  0.2926 -0.3043  0.3121
 1876SOL     hw 7502   5.829   0.082   0.483  0.7977 -0.5645 -1.5174
 1876SOL     hw 7503   5.824  -0.064   0.524  1.3839 -0.4909 -1.1840
 1876SOL     vw 7504   5.787   0.005   0.486  0.5031 -0.3633 -0.1267
 1877SOL     ow 7505   0.242   6.696   3.335 -0.1270 -0.2273 -0.2307
 1877SOL     hw 7506   0.297   6.654   3.401 -0.2852  0.9812  0.6907
 1877SOL     hw 7507   0.303   6.744   3.279 -0.1176 -0.1233 -0.1303
 1877SOL     vw 7508   0.257   6.697   3.337 -0.1467 -0.0539 -0.0958
 1878SOL     ow 7509   3.224   2.129   3.969  0.0402  0.2826 -0.4456
 1878SOL     hw 7510   3.215   2.174   4.053 -0.2255 -0.0592 -0.2886
 1878SOL     hw 7511   3.141   2.144   3.924  0.1876  0.4805 -0.6616
 1878SOL     vw 7512   3.212   2.137   3.974  0.0247  0.2637 -0.4534
 1879SOL     ow 7513   2.964   0.797   0.551  0.2448 -0.2913 -0.2256
 1879SOL     hw 7514   3.026   0.724   0.546  0.1725 -0.2852 -1.6067
 1879SOL     hw 7515   2.999   0.854   0.618  0.9730 -0.9910  0.0037
 1879SOL     vw 7516   2.977   0.795   0.559  0.3312 -0.3828 -0.3776
 1880SOL     ow 7517   5.275   4.894   5.490  0.4555 -0.4677 -0.4568
 1880SOL     hw 7518   5.359   4.859   5.459  0.5236  0.6287 -1.5748
 1880SOL     hw 7519   5.278   4.987   5.467 -0.3113 -0.0004  1.1655
 1880SOL     vw 7520   5.287   4.902   5.483  0.3633 -0.2611 -0.3901
 1881SOL     ow 7521   4.868   2.784   4.151  0.0235 -0.8702  0.1634
 1881SOL     hw 7522   4.844   2.830   4.231 -1.3132  0.6224 -1.0255
 1881SOL     hw 7523   4.851   2.692   4.171  1.0759 -0.7068  2.0341
 1881SOL     vw 7524   4.862   2.778   4.164 -0.0138 -0.6517  0.2534
 1882SOL     ow 7525   4.434   0.605   0.017  0.4014  0.6111  0.0176
 1882SOL     hw 7526   4.338   0.609   0.008  0.4329  0.5910 -0.3130
 1882SOL     hw 7527   4.454   0.511   0.013  0.4377  0.6161  0.0803
 1882SOL     vw 7528   4.424   0.593   0.016  0.4103  0.6092 -0.0177
 1883SOL     ow 7529   1.115   0.841   6.307 -0.3673  0.0051  0.1984
 1883SOL     hw 7530   1.032   0.796   6.327 -1.1939  0.0217 -2.7768
 1883SOL     hw 7531   1.183   0.780   6.337 -1.4442 -1.0434  0.5744
 1883SOL     vw 7532   1.113   0.827   6.314 -0.6185 -0.1310 -0.1447
 1884SOL     ow 7533   4.606   3.696   1.141  0.0636  0.4033 -0.2159
 1884SOL     hw 7534   4.629   3.721   1.231 -1.3425 -2.3801  1.0598
 1884SOL     hw 7535   4.514   3.670   1.146  0.2527 -0.8862 -2.1881
 1884SOL     vw 7536   4.597   3.696   1.154 -0.0968 -0.1341 -0.3077
 1885SOL     ow 7537   2.563   7.016   0.682 -0.1670 -0.0966 -0.3200
 1885SOL     hw 7538   2.517   6.958   0.743 -1.2951 -0.4410 -1.4432
 1885SOL     hw 7539   2.644   6.970   0.662  0.4646  0.2570  1.2685
 1885SOL     vw 7540   2.567   7.002   0.687 -0.2325 -0.0956 -0.2586
 1886SOL     ow 7541   4.066   1.121   2.724  0.0273  0.2903  0.4401
 1886SOL     hw 7542   4.158   1.107   2.748  0.0137  0.5396  0.6448
 1886SOL     hw 7543   4.020   1.045   2.759  0.3978 -0.6980 -1.1482
 1886SOL     vw 7544   4.072   1.109   2.732  0.0744  0.1929  0.2575
 1887SOL     ow 7545   1.429   1.516   5.216  0.3237 -0.2923  0.2554
 1887SOL     hw 7546   1.342   1.521   5.256  0.1078  1.3452 -0.3393
 1887SOL     hw 7547   1.478   1.587   5.259  0.9883 -0.4364 -0.2641
 1887SOL     vw 7548   1.424   1.526   5.227  0.3828 -0.0953  0.1085
 1888SOL     ow 7549   3.348   3.214   4.290 -0.6081 -0.0554  0.2853
 1888SOL     hw 7550   3.284   3.281   4.265 -1.4713 -0.5169  1.1870
 1888SOL     hw 7551   3.301   3.159   4.353  0.8416 -0.1117  1.3575
 1888SOL     vw 7552   3.333   3.215   4.295 -0.5308 -0.1237  0.5460
 1889SOL     ow 7553   2.296   3.527   0.688  0.1198  0.1388  0.2931
 1889SOL     hw 7554   2.295   3.529   0.592  0.7105 -2.3313  0.1603
 1889SOL     hw 7555   2.373   3.475   0.710 -1.4488 -1.6709  1.9743
 1889SOL     vw 7556   2.306   3.520   0.678 -0.0093 -0.4259  0.4974
 1890SOL     ow 7557   1.089   6.270   6.308 -0.0356  0.7500  0.2910
 1890SOL     hw 7558   1.060   6.264   6.217  1.0393  1.2747 -0.1087
 1890SOL     hw 7559   1.133   6.355   6.314 -0.0655  0.7045  1.2922
 1890SOL     vw 7560   1.091   6.280   6.297  0.1022  0.8130  0.3703
 1891SOL     ow 7561   4.669   0.834   3.969 -0.0891 -0.0016 -0.3037
 1891SOL     hw 7562   4.590   0.843   4.022 -0.0099  2.4582 -0.4514
 1891SOL     hw 7563   4.740   0.862   4.028  0.4282 -0.4457 -0.7085
 1891SOL     vw 7564   4.668   0.839   3.984 -0.0105  0.2643 -0.3766
 1892SOL     ow 7565   1.488   5.513   2.306  0.1510 -0.1168 -0.0248
 1892SOL     hw 7566   1.545   5.588   2.324  0.9878 -1.1479  1.9331
 1892SOL     hw 7567   1.444   5.496   2.389  1.2160 -2.7681  0.1077
 1892SOL     vw 7568   1.490   5.521   2.319  0.4019 -0.6030  0.2511
 1893SOL     ow 7569   2.223   5.379   5.170  0.1368  0.0867  0.0076
 1893SOL     hw 7570   2.246   5.292   5.138 -0.5324  0.1642 -0.7168
 1893SOL     hw 7571   2.301   5.432   5.154  1.0609 -0.6667  1.7113
 1893SOL     vw 7572   2.236   5.375   5.164  0.1704 -0.0024  0.1369
 1894SOL     ow 7573   4.618   1.067   7.184 -0.0242  0.1467 -1.0233
 1894SOL     hw 7574   4.713   1.058   7.195 -0.1885 -0.7659 -0.1931
 1894SOL     hw 7575   4.597   1.149   7.229  0.1005 -0.7449  0.7707
 1894SOL     vw 7576   4.628   1.077   7.192 -0.0296 -0.0914 -0.6773
 1895SOL     ow 7577   1.674   0.571   2.673 -0.1138  0.3113 -0.1152
 1895SOL     hw 7578   1.597   0.524   2.641  0.1026  0.7269 -1.2588
 1895SOL     hw 7579   1.723   0.505   2.723 -0.4653 -0.3384 -0.6136
 1895SOL     vw 7580   1.670   0.556   2.676 -0.1316  0.2804 -0.3318
 1896SOL     ow 7581   6.673   4.125   3.708  0.2210 -0.4476 -0.1369
 1896SOL     hw 7582   6.726   4.072   3.767 -1.6318 -1.6013  0.5615
 1896SOL     hw 7583   6.583   4.097   3.724 -0.5052  0.4121 -2.3034
 1896SOL     vw 7584   6.668   4.114   3.718 -0.1192 -0.4864 -0.3304
 1897SOL     ow 7585   5.118   2.182   2.538 -0.6170  0.2700  0.5097
 1897SOL     hw 7586   5.161   2.148   2.616 -0.8791  0.6048  0.8020
 1897SOL     hw 7587   5.184   2.176   2.469 -0.1782  0.5807  0.9053
 1897SOL     vw 7588   5.132   2.177   2.539 -0.5937  0.3552  0.6005
 1898SOL     ow 7589   0.431   0.466   6.103  0.4534  0.7638  0.2129
 1898SOL     hw 7590   0.492   0.458   6.176 -1.3619  0.6287  1.8096
 1898SOL     hw 7591   0.359   0.520   6.137 -0.9166 -0.0923 -1.1523
 1898SOL     vw 7592   0.429   0.472   6.117  0.0331  0.6330  0.2439
 1899SOL     ow 7593   6.398   0.696   4.077  0.5813 -0.2525 -0.3227
 1899SOL     hw 7594   6.401   0.669   3.985 -0.1996 -0.0999 -0.3978
 1899SOL     hw 7595   6.307   0.724   4.091  0.3246 -1.5375  0.8520
 1899SOL     vw 7596   6.386   0.696   4.067  0.4447 -0.4019 -0.1776
 1900SOL     ow 7597   1.430   4.255   0.720  0.1197 -0.0057 -0.3397
 1900SOL     hw 7598   1.514   4.211   0.715 -0.3994 -1.2090  0.9943
 1900SOL     hw 7599   1.418   4.275   0.813 -0.5419  1.2473 -0.6563
 1900SOL     vw 7600   1.439   4.252   0.731 -0.0361  0.0007 -0.2055
 1901SOL     ow 7601   6.510   6.577   6.106  0.0149 -0.3593 -0.4953
 1901SOL     hw 7602   6.527   6.564   6.199 -1.7682 -0.7660 -0.1935
 1901SOL     hw 7603   6.579   6.527   6.062  1.7779  1.0378  0.5501
 1901SOL     vw 7604   6.521   6.569   6.113  0.0124 -0.2284 -0.3176
 1902SOL     ow 7605   2.709   6.302   5.164  0.4358 -0.1128  0.3974
 1902SOL     hw 7606   2.683   6.370   5.102 -1.2957 -0.3985  0.7639
 1902SOL     hw 7607   2.627   6.265   5.195  1.3029 -2.7595 -0.2037
 1902SOL     vw 7608   2.695   6.306   5.160  0.3216 -0.5000  0.3667
 1903SOL     ow 7609   4.566   0.193   4.614 -0.3569  0.0105 -0.0828
 1903SOL     hw 7610   4.614   0.227   4.690 -1.6944 -0.3902  0.9811
 1903SOL     hw 7611   4.579   0.259   4.546  1.6965 -0.0994  0.1490
 1903SOL     vw 7612   4.574   0.206   4.615 -0.2623 -0.0569  0.0880
 1904SOL     ow 7613   6.312   2.158   1.502  0.2996 -0.0980  0.0401
 1904SOL     hw 7614   6.239   2.101   1.479  1.9452 -1.8703 -1.0354
 1904SOL     hw 7615   6.279   2.247   1.486 -1.1277 -0.9042 -1.8302
 1904SOL     vw 7616   6.298   2.162   1.497  0.3285 -0.4380 -0.3485
 1905SOL     ow 7617   4.242   1.708   1.409 -0.5711  0.3428  0.3704
 1905SOL     hw 7618   4.281   1.758   1.481  0.6767  1.8806 -1.2551
 1905SOL     hw 7619   4.203   1.774   1.352 -0.2986 -0.6753 -1.0617
 1905SOL     vw 7620   4.242   1.723   1.411 -0.3707  0.4114 -0.0330
 1906SOL     ow 7621   5.502   4.225   5.856  0.1141 -0.0768 -0.0460
 1906SOL     hw 7622   5.537   4.285   5.791  0.1192  0.3966  0.3861
 1906SOL     hw 7623   5.426   4.186   5.814  0.1965  0.1220 -0.3839
 1906SOL     vw 7624   5.497   4.227   5.842  0.1256  0.0119 -0.0334
 1907SOL     ow 7625   2.986   3.516   0.413  0.7070 -0.1772  0.6846
 1907SOL     hw 7626   3.016   3.566   0.337  3.8070 -1.8575  0.6449
 1907SOL     hw 7627   2.986   3.578   0.485  1.3573  0.5999  0.0229
 1907SOL     vw 7628   2.990   3.530   0.412  1.2019 -0.2964  0.5920
 1908SOL     ow 7629   5.070   6.521   1.389  0.0142  0.0914 -0.3085
 1908SOL     hw 7630   5.058   6.431   1.421  0.3808  0.0160 -0.3844
 1908SOL     hw 7631   4.981   6.549   1.367 -0.2443  0.1492  0.7674
 1908SOL     vw 7632   5.056   6.513   1.390  0.0284  0.0889 -0.1765
 1909SOL     ow 7633   4.872   6.624   3.836  0.6908  0.2728 -0.3848
 1909SOL     hw 7634   4.850   6.626   3.742  1.1502  1.6001 -0.4883
 1909SOL     hw 7635   4.934   6.551   3.844  0.1674 -0.2569 -0.9974
 1909SOL     vw 7636   4.877   6.614   3.824  0.6824  0.3781 -0.4791
 1910SOL     ow 7637   4.774   0.684   5.366 -0.1059  0.2924 -0.0334
 1910SOL     hw 7638   4.730   0.606   5.334  2.0879 -0.6350 -1.0133
 1910SOL     hw 7639   4.806   0.729   5.288  0.3798  1.1074  0.6011
 1910SOL     vw 7640   4.772   0.680   5.352  0.2477  0.2776 -0.0792
 1911SOL     ow 7641   6.229   3.717   3.732  0.0618 -0.1817 -0.5092
 1911SOL     hw 7642   6.318   3.684   3.744  0.2477  0.1728 -0.8668
 1911SOL     hw 7643   6.178   3.674   3.801 -0.2603 -3.1769 -2.4693
 1911SOL     vw 7644   6.234   3.707   3.743  0.0439 -0.5301 -0.8149
 1912SOL     ow 7645   5.820   4.424   5.958  0.1744 -0.2487 -0.1770
 1912SOL     hw 7646   5.817   4.452   6.049 -1.1152  1.2378 -0.6375
 1912SOL     hw 7647   5.899   4.370   5.952  0.9544  0.6311  1.5212
 1912SOL     vw 7648   5.830   4.421   5.969  0.1073  0.0637 -0.0138
 1913SOL     ow 7649   4.247   5.733   4.340 -0.0340  0.2037 -0.5007
 1913SOL     hw 7650   4.300   5.676   4.395  0.1040  0.1212 -0.7168
 1913SOL     hw 7651   4.238   5.814   4.391 -2.2226 -0.8180  0.8451
 1913SOL     vw 7652   4.253   5.736   4.354 -0.3045  0.0582 -0.3517
 1914SOL     ow 7653   4.125   2.620   5.990 -0.2646  0.0403 -0.1664
 1914SOL     hw 7654   4.138   2.559   6.063 -0.4909  1.2471  0.9187
 1914SOL     hw 7655   4.185   2.590   5.922 -1.3335 -2.2080 -0.2090
 1914SOL     vw 7656   4.134   2.608   5.991 -0.4356 -0.0972 -0.0286
 1915SOL     ow 7657   3.116   0.575   0.522  0.1530  0.1891 -0.3095
 1915SOL     hw 7658   3.134   0.496   0.572 -0.6622 -0.2690 -0.7284
 1915SOL     hw 7659   3.119   0.547   0.431 -0.8197  0.4820 -0.4426
 1915SOL     vw 7660   3.119   0.561   0.517 -0.0829  0.1673 -0.3823
 1916SOL     ow 7661   7.074   3.803   5.203 -0.8275 -0.4244  0.0392
 1916SOL     hw 7662   7.100   3.739   5.268 -0.8457 -1.0659 -0.5724
 1916SOL     hw 7663   7.104   3.887   5.238 -0.0129 -0.8681  0.4301
 1916SOL     vw 7664   7.081   3.806   5.216 -0.7226 -0.5676  0.0103
 1917SOL     ow 7665   4.298   0.348   3.456 -0.6336 -0.1840 -0.5338
 1917SOL     hw 7666   4.279   0.254   3.463 -0.4953 -0.2052 -0.4474
 1917SOL     hw 7667   4.242   0.389   3.523  0.0471 -0.3033  0.1256
 1917SOL     vw 7668   4.288   0.341   3.466 -0.5255 -0.2025 -0.4356
 1918SOL     ow 7669   6.170   0.234   3.501 -0.2629 -0.2308  0.2293
 1918SOL     hw 7670   6.128   0.315   3.472  0.1165 -0.3411 -0.6601
 1918SOL     hw 7671   6.168   0.239   3.596 -1.7982  0.0175  0.2051
 1918SOL     vw 7672   6.164   0.246   3.510 -0.4156 -0.2126  0.1088
 1919SOL     ow 7673   6.776   5.237   4.741  0.0595 -0.2517  0.2108
 1919SOL     hw 7674   6.780   5.333   4.745  0.6606 -0.2639  0.0014
 1919SOL     hw 7675   6.815   5.208   4.823  1.2907 -0.3326 -0.3889
 1919SOL     vw 7676   6.781   5.246   4.752  0.3014 -0.2639  0.1042
 1920SOL     ow 7677   6.963   4.828   4.382 -0.1995 -0.3795 -0.4091
 1920SOL     hw 7678   6.940   4.742   4.346  1.5417 -0.5328 -1.2668
 1920SOL     hw 7679   6.999   4.877   4.308  1.5832  0.0161  0.6368
 1920SOL     vw 7680   6.965   4.823   4.367  0.2656 -0.3476 -0.3843
 1921SOL     ow 7681   7.003   3.119   2.671 -0.3388  0.0840 -0.3333
 1921SOL     hw 7682   6.959   3.084   2.593 -1.2395  2.3156 -0.9135
 1921SOL     hw 7683   7.047   3.198   2.640 -0.7971  1.0751  1.4205
 1921SOL     vw 7684   7.003   3.125   2.656 -0.5181  0.5091 -0.1786
 1922SOL     ow 7685   2.735   2.493   1.174 -0.5822 -0.5566  0.0679
 1922SOL     hw 7686   2.750   2.492   1.079  0.6462 -2.5859  0.2087
 1922SOL     hw 7687   2.794   2.561   1.207 -0.9281  0.0816 -0.6051
 1922SOL     vw 7688   2.745   2.502   1.166 -0.4658 -0.7402 -0.0024
 1923SOL     ow 7689   0.472   2.716   0.178 -0.1456  0.1314 -0.4118
 1923SOL     hw 7690   0.509   2.710   0.266 -2.5049 -2.4329  0.5504
 1923SOL     hw 7691   0.544   2.694   0.120  0.8154 -0.8246  1.0748
 1923SOL     vw 7692   0.486   2.712   0.182 -0.3301 -0.3330 -0.0887
 1924SOL     ow 7693   0.570   7.143   6.849 -0.0998 -0.8742  0.2427
 1924SOL     hw 7694   0.610   7.221   6.810 -3.1012  0.9281  0.3534
 1924SOL     hw 7695   0.563   7.080   6.777  3.4002 -1.6103  0.4109
 1924SOL     vw 7696   0.574   7.145   6.834 -0.0340 -0.7336  0.2794
 1925SOL     ow 7697   3.735   5.137   5.928 -0.6154  0.0840 -0.3862
 1925SOL     hw 7698   3.706   5.056   5.971  1.4885  0.1487  1.3281
 1925SOL     hw 7699   3.751   5.111   5.837 -0.5275 -1.3147  0.0005
 1925SOL     vw 7700   3.734   5.123   5.921 -0.3263 -0.0923 -0.1087
 1926SOL     ow 7701   0.860   6.064   6.863 -0.5406 -0.4281 -0.2442
 1926SOL     hw 7702   0.866   6.052   6.958 -1.2993 -1.0541 -0.2567
 1926SOL     hw 7703   0.921   6.000   6.827  1.5747  1.4402 -0.1568
 1926SOL     vw 7704   0.869   6.054   6.871 -0.3616 -0.2644 -0.2344
 1927SOL     ow 7705   4.484   0.517   2.484 -0.7522  0.4693  0.5467
 1927SOL     hw 7706   4.444   0.516   2.571 -0.1291  0.0700  0.8306
 1927SOL     hw 7707   4.486   0.610   2.461 -0.5190  0.6189  1.1466
 1927SOL     vw 7708   4.479   0.529   2.492 -0.6394  0.4363  0.6632
 1928SOL     ow 7709   5.232   6.939   2.754 -0.8513  0.5808 -0.3127
 1928SOL     hw 7710   5.318   6.926   2.713 -0.5007 -0.9082  0.8083
 1928SOL     hw 7711   5.244   7.014   2.812 -0.3086  0.4171 -0.2035
 1928SOL     vw 7712   5.245   6.947   2.756 -0.7331  0.3629 -0.1503
 1929SOL     ow 7713   1.030   3.727   6.347 -0.3738  0.1144  0.4632
 1929SOL     hw 7714   1.102   3.666   6.363 -1.1915 -0.6515  1.3377
 1929SOL     hw 7715   1.054   3.805   6.396  0.0638  0.0104  0.4184
 1929SOL     vw 7716   1.043   3.729   6.356 -0.4240 -0.0004  0.5727
 1930SOL     ow 7717   6.934   5.276   2.412 -0.6475 -0.3289 -0.0748
 1930SOL     hw 7718   6.916   5.357   2.365  0.7065 -0.0064 -0.0649
 1930SOL     hw 7719   7.018   5.246   2.378 -0.5597 -1.0947  0.7698
 1930SOL     vw 7720   6.942   5.283   2.401 -0.4570 -0.3874  0.0380
 1931SOL     ow 7721   0.340   3.208   0.742  0.3948 -0.5371  0.2397
 1931SOL     hw 7722   0.423   3.198   0.789  0.0347  0.5057  1.1432
 1931SOL     hw 7723   0.313   3.298   0.760 -0.8679 -0.8108 -0.1572
 1931SOL     vw 7724   0.347   3.219   0.751  0.1807 -0.4357  0.3066
 1932SOL     ow 7725   6.337   2.581   4.042  0.0985  0.0352  0.1224
 1932SOL     hw 7726   6.314   2.548   4.129  0.2112  0.9973  0.5274
 1932SOL     hw 7727   6.254   2.583   3.994 -0.6664  2.9034  1.3779
 1932SOL     vw 7728   6.323   2.577   4.047  0.0126  0.5404  0.3412
 1933SOL     ow 7729   2.913   0.081   1.036 -0.0756 -0.0331  0.2890
 1933SOL     hw 7730   2.972   0.154   1.054  0.8055 -0.4747 -0.7108
 1933SOL     hw 7731   2.904   0.036   1.120 -0.0875  0.8149  0.7579
 1933SOL     vw 7732   2.920   0.085   1.049  0.0390  0.0205  0.2190
 1934SOL     ow 7733   3.901   6.339   6.652 -0.4361 -0.1610 -0.3318
 1934SOL     hw 7734   3.834   6.314   6.715 -0.4572 -0.7754 -0.5849
 1934SOL     hw 7735   3.903   6.434   6.654 -1.0876 -0.1525 -0.0904
 1934SOL     vw 7736   3.893   6.348   6.661 -0.5248 -0.2410 -0.3335
 1935SOL     ow 7737   1.821   6.916   4.464  0.0878  0.3343 -0.0916
 1935SOL     hw 7738   1.746   6.857   4.472  0.3497  0.1446  1.0905
 1935SOL     hw 7739   1.898   6.859   4.464  0.2605  0.5216 -1.3953
 1935SOL     vw 7740   1.821   6.901   4.465  0.1451  0.3340 -0.1078
 1936SOL     ow 7741   0.883   5.488   5.663 -0.4802  0.1660  0.2792
 1936SOL     hw 7742   0.919   5.452   5.744 -2.1315  1.7590  1.8062
 1936SOL     hw 7743   0.960   5.521   5.616  0.6028 -1.5675  0.7362
 1936SOL     vw 7744   0.898   5.488   5.667 -0.5552  0.1476  0.5412
 1937SOL     ow 7745   5.414   5.844   6.673  0.2917  0.6058 -0.2241
 1937SOL     hw 7746   5.407   5.755   6.638  3.5554  0.6801 -1.4451
 1937SOL     hw 7747   5.398   5.901   6.598 -2.8383  1.2083  0.7695
 1937SOL     vw 7748   5.411   5.840   6.659  0.3092  0.6950 -0.2542
 1938SOL     ow 7749   0.449   3.478   4.893  0.1288 -0.5562  0.4964
 1938SOL     hw 7750   0.360   3.514   4.891  0.7158  1.0255  0.8990
 1938SOL     hw 7751   0.495   3.523   4.822  0.6233 -1.3293  0.3155
 1938SOL     vw 7752   0.444   3.489   4.883  0.2715 -0.4495  0.5255
 1939SOL     ow 7753   0.700   3.858   3.475  0.6784 -0.0242 -0.7341
 1939SOL     hw 7754   0.754   3.861   3.554  1.5564  0.0486 -1.3336
 1939SOL     hw 7755   0.663   3.947   3.468 -3.0072 -1.0587  2.0115
 1939SOL     vw 7756   0.702   3.870   3.485  0.3079 -0.1513 -0.4511
 1940SOL     ow 7757   4.995   6.262   1.452  0.4170 -0.1685  0.2474
 1940SOL     hw 7758   5.088   6.245   1.457  1.2413  2.6001 -2.4685
 1940SOL     hw 7759   4.973   6.251   1.360 -2.0103 -0.8162  0.8212
 1940SOL     vw 7760   5.004   6.259   1.441  0.2053  0.1113 -0.0353
 1941SOL     ow 7761   0.823   0.689   0.248  0.0527 -0.8649  0.2088
 1941SOL     hw 7762   0.835   0.780   0.221  0.0236 -0.1554  2.3867
 1941SOL     hw 7763   0.898   0.671   0.305  0.5965 -2.5626 -0.9668
 1941SOL     vw 7764   0.834   0.699   0.252  0.1206 -0.9953  0.3410
 1942SOL     ow 7765   4.292   5.275   3.913 -0.4718 -0.6691 -0.1942
 1942SOL     hw 7766   4.330   5.256   3.998 -1.3970  1.3022  0.7335
 1942SOL     hw 7767   4.199   5.252   3.922 -0.7394  0.3012 -0.3823
 1942SOL     vw 7768   4.285   5.270   3.925 -0.6292 -0.2809 -0.0964
 1943SOL     ow 7769   2.346   4.941   6.044  0.2739 -0.0604  0.3908
 1943SOL     hw 7770   2.442   4.941   6.042  0.2791  0.6762  0.2016
 1943SOL     hw 7771   2.323   4.908   6.131  0.6664 -1.5374 -0.0304
 1943SOL     vw 7772   2.355   4.937   6.055  0.3264 -0.1581  0.3102
 1944SOL     ow 7773   2.896   0.595   1.699  0.3272  0.1239  0.7876
 1944SOL     hw 7774   2.851   0.594   1.783 -0.9828 -1.5375  0.1288
 1944SOL     hw 7775   2.955   0.520   1.702  1.0496  0.6656  0.5896
 1944SOL     vw 7776   2.898   0.585   1.710  0.2497 -0.0238  0.6745
 1945SOL     ow 7777   7.081   4.223   6.032 -0.1145 -0.1067 -0.2851
 1945SOL     hw 7778   7.049   4.156   5.971  0.9893 -0.7587 -0.1689
 1945SOL     hw 7779   7.125   4.174   6.101  0.7244  0.7357 -0.1979
 1945SOL     vw 7780   7.082   4.208   6.033  0.1416 -0.0815 -0.2582
 1946SOL     ow 7781   1.492   5.202   2.306  0.1700  0.4390  0.8991
 1946SOL     hw 7782   1.508   5.133   2.241 -0.3853 -0.7244  1.9474
 1946SOL     hw 7783   1.559   5.188   2.373 -0.3960  0.4522  1.4793
 1946SOL     vw 7784   1.503   5.191   2.306  0.0221  0.2873  1.1140
 1947SOL     ow 7785   6.902   6.969   3.340  0.0674 -0.0766 -0.6630
 1947SOL     hw 7786   6.848   7.048   3.345  0.3826  0.1328 -0.5668
 1947SOL     hw 7787   6.905   6.935   3.429 -0.0864 -0.2123 -0.7081
 1947SOL     vw 7788   6.895   6.975   3.352  0.0887 -0.0670 -0.6564
 1948SOL     ow 7789   4.613   0.397   2.227  0.3080  0.0231  0.5581
 1948SOL     hw 7790   4.609   0.487   2.197 -2.3956 -0.2746 -0.2699
 1948SOL     hw 7791   4.665   0.351   2.161 -1.3600  0.3357 -1.0555
 1948SOL     vw 7792   4.619   0.403   2.215 -0.2689  0.0251  0.2359
 1949SOL     ow 7793   6.664   4.068   2.084  0.4411 -0.1238  1.0344
 1949SOL     hw 7794   6.721   4.028   2.019 -1.3948  0.1848 -0.8734
 1949SOL     hw 7795   6.662   4.005   2.156 -0.9774 -2.7730 -1.1291
 1949SOL     vw 7796   6.671   4.054   2.085  0.0119 -0.4327  0.4972
 1950SOL     ow 7797   0.353   5.211   4.322  0.6426 -0.7620 -0.4065
 1950SOL     hw 7798   0.286   5.184   4.259  0.4557 -1.0031 -0.1130
 1950SOL     hw 7799   0.383   5.128   4.361  0.6503 -0.6082 -0.0781
 1950SOL     vw 7800   0.348   5.196   4.319  0.6189 -0.7737 -0.3245
 1951SOL     ow 7801   2.705   2.760   4.455 -0.1759  0.1990 -0.3125
 1951SOL     hw 7802   2.789   2.799   4.481  0.0234 -0.0155 -0.6447
 1951SOL     hw 7803   2.662   2.829   4.404 -0.3884  0.4673  0.2202
 1951SOL     vw 7804   2.710   2.775   4.452 -0.1776  0.2060 -0.2861
 1952SOL     ow 7805   6.239   1.889   4.324 -0.2598  0.1965 -0.0284
 1952SOL     hw 7806   6.148   1.874   4.298  0.0628  1.7675 -2.4511
 1952SOL     hw 7807   6.234   1.948   4.398 -1.2116 -0.0850  0.1453
 1952SOL     vw 7808   6.226   1.895   4.330 -0.3428  0.3667 -0.3250
 1953SOL     ow 7809   6.534   6.901   6.267  0.4425 -0.2856 -0.2051
 1953SOL     hw 7810   6.550   6.857   6.350  0.9576 -2.5553 -1.4252
 1953SOL     hw 7811   6.607   6.963   6.259  0.4356 -0.1059  0.9693
 1953SOL     vw 7812   6.546   6.904   6.277  0.5097 -0.5612 -0.2117
 1954SOL     ow 7813   4.735   5.696   0.142 -0.4145  0.4249  0.1304
 1954SOL     hw 7814   4.810   5.650   0.104 -1.3035 -0.3036 -0.7988
 1954SOL     hw 7815   4.708   5.758   0.074 -0.7860  0.5298  0.3696
 1954SOL     vw 7816   4.741   5.698   0.128 -0.5808  0.3426  0.0393
 1955SOL     ow 7817   2.035   3.130   5.998  0.0887 -0.3495 -0.2933
 1955SOL     hw 7818   2.025   3.070   6.072  0.3567  0.0760  0.0970
 1955SOL     hw 7819   1.948   3.136   5.960 -0.7248  1.5056  1.6374
 1955SOL     vw 7820   2.022   3.123   6.003  0.0167 -0.0485  0.0129
 1956SOL     ow 7821   0.308   0.409   0.385 -0.3430  0.5878  0.2865
 1956SOL     hw 7822   0.215   0.415   0.364 -0.4154 -0.8114  0.1560
 1956SOL     hw 7823   0.312   0.426   0.479 -0.6903  0.9576  0.2376
 1956SOL     vw 7824   0.297   0.412   0.394 -0.3983  0.4520  0.2628
 1957SOL     ow 7825   5.473   4.649   5.857 -0.2528  0.0972 -0.0845
 1957SOL     hw 7826   5.537   4.583   5.830  1.3681  1.0605  1.1579
 1957SOL     hw 7827   5.400   4.599   5.893  1.4356 -1.0616  1.9245
 1957SOL     vw 7828   5.472   4.634   5.858  0.1841  0.0713  0.3445
 1958SOL     ow 7829   5.837   5.983   6.152  0.7137 -0.4088  0.2512
 1958SOL     hw 7830   5.751   6.004   6.190  0.2028  1.7659 -1.8371
 1958SOL     hw 7831   5.898   6.040   6.199  0.7909 -0.8680  0.7163
 1958SOL     vw 7832   5.834   5.993   6.163  0.6566 -0.1829  0.0372
 1959SOL     ow 7833   5.795   6.621   5.250 -0.3369  0.1378  0.3004
 1959SOL     hw 7834   5.803   6.644   5.343  1.7350 -0.4072  0.3157
 1959SOL     hw 7835   5.704   6.595   5.240 -0.8068  0.9664  2.0013
 1959SOL     vw 7836   5.784   6.620   5.261 -0.1256  0.1755  0.5269
 1960SOL     ow 7837   0.494   0.659   5.920 -0.2532  0.7450 -0.2828
 1960SOL     hw 7838   0.494   0.740   5.972  0.7673  0.3805  0.3133
 1960SOL     hw 7839   0.481   0.589   5.984  0.7286  0.3107 -0.5343
 1960SOL     vw 7840   0.493   0.661   5.936  0.0110  0.6396 -0.2375
 1961SOL     ow 7841   3.378   6.103   0.044 -0.5618 -0.3092 -0.2036
 1961SOL     hw 7842   3.300   6.066   0.002  0.8500 -2.6663 -0.9775
 1961SOL     hw 7843   3.435   6.027   0.058  1.3375  1.2419  0.8967
 1961SOL     vw 7844   3.376   6.088   0.040 -0.1248 -0.4156 -0.1605
 1962SOL     ow 7845   3.579   0.184   5.766 -0.6448  0.0883  0.1530
 1962SOL     hw 7846   3.627   0.255   5.725  0.8633 -0.2182  1.2963
 1962SOL     hw 7847   3.518   0.227   5.826 -2.7801  0.5297 -2.1822
 1962SOL     vw 7848   3.577   0.199   5.768 -0.7275  0.1061 -0.0043
 1963SOL     ow 7849   3.152   5.906   1.734 -0.4080  0.0030 -0.9171
 1963SOL     hw 7850   3.217   5.916   1.664  0.7178 -0.1138  0.0755
 1963SOL     hw 7851   3.086   5.972   1.715  1.6617  2.4559 -0.1763
 1963SOL     vw 7852   3.152   5.916   1.723  0.0137  0.3111 -0.6884
 1964SOL     ow 7853   2.222   6.822   0.503 -0.0129 -0.1647  0.0496
 1964SOL     hw 7854   2.220   6.726   0.512 -1.8870 -0.1744 -0.0914
 1964SOL     hw 7855   2.141   6.851   0.544 -0.5734  1.1697 -1.9064
 1964SOL     vw 7856   2.211   6.813   0.510 -0.3341  0.0100 -0.2271
 1965SOL     ow 7857   0.425   2.591   0.976 -0.7608  0.7424  0.1086
 1965SOL     hw 7858   0.375   2.510   0.987 -1.9619  1.2563 -1.2671
 1965SOL     hw 7859   0.467   2.604   1.061 -2.3260 -0.1482  1.0723
 1965SOL     vw 7860   0.424   2.582   0.989 -1.1258  0.6926  0.0543
 1966SOL     ow 7861   2.571   0.578   6.869 -0.6808 -0.3521  0.1954
 1966SOL     hw 7862   2.540   0.668   6.861  0.3842  0.1202  1.1440
 1966SOL     hw 7863   2.536   0.547   6.952  0.2665 -0.2509  0.6478
 1966SOL     vw 7864   2.562   0.586   6.879 -0.4152 -0.2764  0.3803
 1967SOL     ow 7865   3.670   6.736   2.815  0.2500  0.4309 -0.0685
 1967SOL     hw 7866   3.588   6.720   2.770  0.6204 -0.1604 -0.5520
 1967SOL     hw 7867   3.730   6.766   2.746  0.4505  0.8094  0.2659
 1967SOL     vw 7868   3.667   6.738   2.800  0.3253  0.4027 -0.0882
 1968SOL     ow 7869   3.884   0.641   6.251  0.9094 -0.2808  0.0597
 1968SOL     hw 7870   3.902   0.570   6.312  0.1040 -0.7185 -0.2102
 1968SOL     hw 7871   3.861   0.716   6.307  0.6505 -0.5433  0.3032
 1968SOL     vw 7872   3.884   0.642   6.266  0.7690 -0.3732  0.0558
 1969SOL     ow 7873   4.979   4.006   3.252 -0.5505 -0.2624  0.2845
 1969SOL     hw 7874   4.897   4.022   3.204  0.1097  0.2594 -0.7230
 1969SOL     hw 7875   4.952   3.964   3.333 -1.6041 -3.2791 -1.4566
 1969SOL     vw 7876   4.965   4.003   3.256 -0.6027 -0.5915 -0.0782
 1970SOL     ow 7877   2.520   0.381   3.825 -0.1115 -0.0029  0.0005
 1970SOL     hw 7878   2.469   0.449   3.781 -1.4004 -0.1185  1.2261
 1970SOL     hw 7879   2.601   0.375   3.775 -0.3993  1.7174 -0.7401
 1970SOL     vw 7880   2.524   0.389   3.813 -0.3195  0.2088  0.0645
 1971SOL     ow 7881   0.481   5.445   6.907 -0.0940 -0.3265  0.6838
 1971SOL     hw 7882   0.557   5.435   6.849  0.6342 -0.7421  1.6786
 1971SOL     hw 7883   0.440   5.358   6.907  0.0926 -0.4162  1.0325
 1971SOL     vw 7884   0.486   5.432   6.900  0.0267 -0.3932  0.8609
 1972SOL     ow 7885   4.973   4.865   0.570 -0.3886 -0.3307  0.6089
 1972SOL     hw 7886   5.045   4.869   0.507 -1.7955  0.9239 -1.0165
 1972SOL     hw 7887   4.988   4.939   0.629  0.2608 -0.7724  1.0142
 1972SOL     vw 7888   4.985   4.875   0.569 -0.4888 -0.2236  0.4480
 1973SOL     ow 7889   5.069   0.682   7.175 -0.2948  0.0658  0.5358
 1973SOL     hw 7890   5.092   0.742   7.104 -0.5176 -0.0118  0.3958
 1973SOL     hw 7891   5.151   0.637   7.196 -0.8544 -2.3798 -1.9878
 1973SOL     vw 7892   5.083   0.684   7.169 -0.3982 -0.2671  0.1848
 1974SOL     ow 7893   7.101   7.032   4.514  0.0418  0.1740 -0.0412
 1974SOL     hw 7894   7.083   7.007   4.423  0.7821 -0.5883 -0.0003
 1974SOL     hw 7895   7.036   7.098   4.535 -0.9647 -0.5831 -0.7130
 1974SOL     vw 7896   7.090   7.037   4.505  0.0067 -0.0265 -0.1247
 1975SOL     ow 7897   4.868   4.870   2.468  0.4805 -0.5579 -0.2440
 1975SOL     hw 7898   4.911   4.929   2.406  0.9327  0.2990  0.8570
 1975SOL     hw 7899   4.909   4.890   2.552  0.2944 -2.1091  0.2388
 1975SOL     vw 7900   4.879   4.880   2.471  0.5157 -0.6497 -0.0350
 1976SOL     ow 7901   3.824   4.137   5.562  0.1112 -0.0671 -0.3842
 1976SOL     hw 7902   3.797   4.068   5.623  1.2458 -0.7359 -0.6208
 1976SOL     hw 7903   3.748   4.196   5.557 -0.1053 -0.1591  1.4330
 1976SOL     vw 7904   3.810   4.136   5.569  0.2323 -0.1674 -0.1755
 1977SOL     ow 7905   2.370   0.682   0.072  0.2237  0.1822  0.1686
 1977SOL     hw 7906   2.316   0.627   0.129 -0.9643  0.7631 -0.3684
 1977SOL     hw 7907   2.405   0.621   0.007  0.4173 -0.2332  0.6470
 1977SOL     vw 7908   2.368   0.666   0.071  0.0924  0.2041  0.1609
 1978SOL     ow 7909   7.074   6.855   2.946  0.0862  0.2806  0.0738
 1978SOL     hw 7910   7.152   6.847   3.001 -0.4614 -0.0679  0.8149
 1978SOL     hw 7911   7.073   6.947   2.918  0.4130  0.4394  0.5763
 1978SOL     vw 7912   7.084   6.866   2.949  0.0570  0.2553  0.2379
 1979SOL     ow 7913   6.482   5.449   5.718  0.0652 -0.7312  0.5003
 1979SOL     hw 7914   6.388   5.465   5.731  0.1282  0.8086 -0.6982
 1979SOL     hw 7915   6.495   5.360   5.750 -2.2206 -1.8088 -1.2473
 1979SOL     vw 7916   6.471   5.440   5.724 -0.2282 -0.6704  0.1116
 1980SOL     ow 7917   3.727   1.047   4.929  0.5624  0.0771  0.4235
 1980SOL     hw 7918   3.655   1.081   4.875 -2.2953 -1.9385  2.6273
 1980SOL     hw 7919   3.789   1.011   4.865 -0.7058  1.2691 -1.5929
 1980SOL     vw 7920   3.725   1.046   4.913  0.0181 -0.0317  0.4482
 1981SOL     ow 7921   0.062   0.309   3.146  0.1775 -0.1411  0.1453
 1981SOL     hw 7922   0.132   0.259   3.103  0.1503 -0.1868  0.1534
 1981SOL     hw 7923   0.020   0.358   3.076  0.3610  0.0592  0.1740
 1981SOL     vw 7924   0.066   0.309   3.131  0.1981 -0.1207  0.1501
 1982SOL     ow 7925   0.432   1.667   2.686 -0.1014  0.3555  0.1139
 1982SOL     hw 7926   0.426   1.757   2.654  0.8249  0.0627 -0.9172
 1982SOL     hw 7927   0.390   1.614   2.618 -0.6517 -0.0084  0.7189
 1982SOL     vw 7928   0.426   1.672   2.673 -0.0518  0.2688  0.0577
 1983SOL     ow 7929   0.031   3.015   5.941 -0.8686 -0.4082 -0.5757
 1983SOL     hw 7930  -0.037   2.978   5.997 -2.5254  1.9166 -0.9008
 1983SOL     hw 7931  -0.012   3.087   5.895  2.2372  2.5177  0.6634
 1983SOL     vw 7932   0.017   3.020   5.942 -0.6774  0.2846 -0.4551
 1984SOL     ow 7933   2.234   1.194   5.788  0.2032  0.0086 -0.6106
 1984SOL     hw 7934   2.313   1.180   5.840 -0.5610  1.1290  0.9359
 1984SOL     hw 7935   2.206   1.106   5.763  0.9901 -0.5234  0.2967
 1984SOL     vw 7936   2.241   1.181   5.792  0.2061  0.0862 -0.2868
 1985SOL     ow 7937   3.726   6.767   3.073  0.0059 -0.4845  0.3369
 1985SOL     hw 7938   3.708   6.762   2.979 -0.5453  0.6104  0.3674
 1985SOL     hw 7939   3.700   6.682   3.107  0.5415 -1.0233 -0.5525
 1985SOL     vw 7940   3.721   6.755   3.065  0.0038 -0.4110  0.2236
 1986SOL     ow 7941   5.783   4.649   6.409  0.3275 -0.1933  0.1685
 1986SOL     hw 7942   5.843   4.702   6.461 -0.4100  0.5949  0.2280
 1986SOL     hw 7943   5.764   4.573   6.464 -0.3221  0.5525  1.0032
 1986SOL     vw 7944   5.788   4.646   6.423  0.1447  0.0088  0.2866
 1987SOL     ow 7945   2.152   6.198   1.900  0.2782 -0.1684 -0.5023
 1987SOL     hw 7946   2.138   6.186   1.994 -0.0830 -0.3390 -0.5747
 1987SOL     hw 7947   2.160   6.293   1.889  1.4498 -0.2142 -0.1528
 1987SOL     vw 7948   2.151   6.209   1.911  0.3850 -0.1967 -0.4658
 1988SOL     ow 7949   4.101   5.650   2.076 -0.2725  0.1171  0.2331
 1988SOL     hw 7950   4.037   5.704   2.029  0.4159  1.1579  0.4370
 1988SOL     hw 7951   4.052   5.574   2.106 -1.2162  0.4909 -0.3297
 1988SOL     vw 7952   4.086   5.647   2.074 -0.3061  0.3037  0.1857
 1989SOL     ow 7953   3.010   6.669   1.236  0.0428  0.1966 -0.2038
 1989SOL     hw 7954   3.091   6.705   1.272  0.6880 -0.6851 -0.7393
 1989SOL     hw 7955   2.957   6.648   1.313  0.8053 -0.3090  0.1932
 1989SOL     vw 7956   3.014   6.671   1.251  0.2285  0.0138 -0.2221
 1990SOL     ow 7957   0.556   3.651   2.243 -0.1136  0.1947 -0.1812
 1990SOL     hw 7958   0.524   3.670   2.155  0.7483  1.0047 -0.3411
 1990SOL     hw 7959   0.491   3.592   2.280 -0.7607  0.2597 -1.1724
 1990SOL     vw 7960   0.544   3.646   2.236 -0.0852  0.3103 -0.3332
 1991SOL     ow 7961   0.233   6.072   5.105 -0.9707  0.0094 -0.4901
 1991SOL     hw 7962   0.240   6.136   5.034 -3.4263  0.5365 -0.3392
 1991SOL     hw 7963   0.184   5.999   5.066  0.5414 -1.1896 -0.2364
 1991SOL     vw 7964   0.228   6.071   5.090 -1.0952 -0.0792 -0.4370
 1992SOL     ow 7965   6.853   3.501   0.574 -0.2130 -0.5053  0.4293
 1992SOL     hw 7966   6.857   3.591   0.603 -1.5177 -0.5563  0.8299
 1992SOL     hw 7967   6.926   3.492   0.513 -0.2596  0.9074  0.1385
 1992SOL     vw 7968   6.863   3.511   0.569 -0.3915 -0.3257  0.4438
 1993SOL     ow 7969   0.618   1.367   6.426  0.6622 -0.1623 -0.0823
 1993SOL     hw 7970   0.688   1.402   6.481  1.5743 -0.8518 -0.7591
 1993SOL     hw 7971   0.644   1.276   6.410  0.0550 -0.1834 -1.0562
 1993SOL     vw 7972   0.630   1.359   6.431  0.7024 -0.2562 -0.3002
 1994SOL     ow 7973   3.388   2.077   6.145  0.3182 -0.4403 -0.4075
 1994SOL     hw 7974   3.345   2.000   6.108 -2.7884  1.2663 -0.6060
 1994SOL     hw 7975   3.398   2.137   6.071  0.6732  0.2217  0.1670
 1994SOL     vw 7976   3.384   2.075   6.130 -0.0448 -0.1278 -0.3581
 1995SOL     ow 7977   0.774   3.796   6.509  0.1708 -0.9724  0.1674
 1995SOL     hw 7978   0.726   3.864   6.462  1.0835 -0.0479  0.5520
 1995SOL     hw 7979   0.712   3.763   6.574 -0.2530 -0.4746  0.0178
 1995SOL     vw 7980   0.759   3.801   6.511  0.2353 -0.7848  0.1984
 1996SOL     ow 7981   1.546   0.706   2.359 -0.1484  0.4374  0.2048
 1996SOL     hw 7982   1.562   0.613   2.375 -0.6485  0.3464  0.1984
 1996SOL     hw 7983   1.467   0.707   2.304 -0.0065  0.8566  0.0063
 1996SOL     vw 7984   1.537   0.694   2.354 -0.1957  0.4807  0.1777
 1997SOL     ow 7985   3.925   2.869   4.294 -0.2252  0.2252  0.2253
 1997SOL     hw 7986   3.927   2.947   4.239  2.5675 -0.3337 -0.6002
 1997SOL     hw 7987   3.891   2.800   4.236 -0.4458  0.3196  0.2398
 1997SOL     vw 7988   3.921   2.870   4.279  0.1140  0.1638  0.1187
 1998SOL     ow 7989   6.394   0.068   3.617  0.0684  0.2888 -0.2664
 1998SOL     hw 7990   6.341  -0.011   3.613 -0.3894  0.5359  0.5812
 1998SOL     hw 7991   6.482   0.037   3.635 -0.6047  0.0424  3.3710
 1998SOL     vw 7992   6.399   0.054   3.619 -0.0808  0.2889  0.3254
 1999SOL     ow 7993   0.105   0.525   0.030 -0.0132  0.2801 -0.5784
 1999SOL     hw 7994   0.047   0.497  -0.040 -0.5829 -1.2226  0.4484
 1999SOL     hw 7995   0.075   0.477   0.107  1.0901  1.2857  0.5208
 1999SOL     vw 7996   0.094   0.515   0.031  0.0572  0.2145 -0.2979
 2000SOL     ow 7997   2.093   0.154   4.187 -0.5222  0.4026 -0.0447
 2000SOL     hw 7998   2.026   0.173   4.252 -0.6945  0.9360 -0.3704
 2000SOL     hw 7999   2.130   0.240   4.164  0.6394  0.0692  0.5115
 2000SOL     vw 8000   2.089   0.168   4.192 -0.3916  0.4290 -0.0143
 2001SOL     ow 8001   4.473   4.204   5.016  0.1959 -0.3131  0.3593
 2001SOL     hw 8002   4.397   4.158   4.982  0.8092 -0.8030 -0.3885
 2001SOL     hw 8003   4.485   4.167   5.104 -0.5583 -0.0656  0.5690
 2001SOL     vw 8004   4.465   4.193   5.023  0.1776 -0.3452  0.2882
 2002SOL     ow 8005   4.820   2.622   5.119  0.5217 -0.3842  0.0989
 2002SOL     hw 8006   4.759   2.649   5.187 -0.3575 -0.5193 -0.6306
 2002SOL     hw 8007   4.780   2.544   5.080  1.1386 -0.4555 -0.4111
 2002SOL     vw 8008   4.807   2.615   5.123  0.4873 -0.4114 -0.0644
 2003SOL     ow 8009   5.209   1.721   3.905 -0.3855  0.0958 -0.2901
 2003SOL     hw 8010   5.214   1.709   4.000  0.9560 -0.2338 -0.3798
 2003SOL     hw 8011   5.132   1.670   3.879 -1.6103  1.3323  0.7671
 2003SOL     vw 8012   5.199   1.713   3.914 -0.3703  0.2154 -0.1626
 2004SOL     ow 8013   5.332   4.351   4.015  0.0339 -0.4328  0.0277
 2004SOL     hw 8014   5.412   4.344   3.962  0.1536 -1.4341  0.3313
 2004SOL     hw 8015   5.310   4.261   4.038 -0.8881 -0.1239  0.4011
 2004SOL     vw 8016   5.340   4.339   4.011 -0.0720 -0.5243  0.1168
 2005SOL     ow 8017   1.731   6.540   0.266  0.3154 -0.4788  0.2818
 2005SOL     hw 8018   1.746   6.520   0.358  0.2495 -1.5005  0.0803
 2005SOL     hw 8019   1.819   6.539   0.227  0.2369 -1.2125  0.1141
 2005SOL     vw 8020   1.745   6.537   0.273  0.2964 -0.7102  0.2331
 2006SOL     ow 8021   2.970   2.237   3.276 -0.5008  0.3052 -0.6730
 2006SOL     hw 8022   2.953   2.146   3.255 -0.1028  0.1028 -0.1199
 2006SOL     hw 8023   3.033   2.266   3.210 -1.1901  0.4001 -1.3049
 2006SOL     vw 8024   2.976   2.229   3.264 -0.5392  0.2910 -0.6835
 2007SOL     ow 8025   4.262   2.301   5.032 -0.1889 -0.6082 -0.0857
 2007SOL     hw 8026   4.223   2.214   5.035  0.2204 -0.7862  0.2346
 2007SOL     hw 8027   4.211   2.348   4.966  1.5531 -2.0896 -2.7008
 2007SOL     vw 8028   4.250   2.296   5.024  0.0949 -0.8271 -0.3886
 2008SOL     ow 8029   2.871   3.716   3.828  0.2279  0.2723 -0.4882
 2008SOL     hw 8030   2.915   3.784   3.777  0.6808  1.1717  1.0494
 2008SOL     hw 8031   2.782   3.748   3.840  0.2058  0.2020 -0.4610
 2008SOL     vw 8032   2.865   3.729   3.823  0.2848  0.3816 -0.2817
 2009SOL     ow 8033   0.414   6.877   4.354 -0.3926 -0.3455 -0.6207
 2009SOL     hw 8034   0.438   6.924   4.274 -0.8446  3.3228  1.1769
 2009SOL     hw 8035   0.490   6.889   4.412 -0.3728 -2.2908 -0.1769
 2009SOL     vw 8036   0.427   6.885   4.351 -0.4496 -0.1180 -0.3250
 2010SOL     ow 8037   5.807   0.847   5.813 -0.1615 -0.3847  0.0853
 2010SOL     hw 8038   5.882   0.869   5.758  0.1774 -0.0445  0.6810
 2010SOL     hw 8039   5.755   0.787   5.759  1.3646 -1.9449  0.2591
 2010SOL     vw 8040   5.810   0.842   5.798  0.0844 -0.5457  0.1867
 2011SOL     ow 8041   5.660   0.390   2.037  0.0650  0.0909 -0.5566
 2011SOL     hw 8042   5.571   0.414   2.014  0.2057  0.9825 -0.2191
 2011SOL     hw 8043   5.698   0.357   1.955 -0.5235 -0.1576 -0.7349
 2011SOL     vw 8044   5.654   0.389   2.023  0.0060  0.1757 -0.5356
 2012SOL     ow 8045   0.707   4.999   5.322 -0.7507 -0.6446 -0.4251
 2012SOL     hw 8046   0.721   5.028   5.412  0.2207  0.3304 -0.8833
 2012SOL     hw 8047   0.688   5.079   5.273  1.8217 -0.7160 -1.6762
 2012SOL     vw 8048   0.706   5.013   5.327 -0.2831 -0.5255 -0.6506
 2013SOL     ow 8049   3.013   4.362   2.206 -0.0392 -0.1657  0.1071
 2013SOL     hw 8050   3.064   4.304   2.150  2.3051  0.8247  1.1116
 2013SOL     hw 8051   2.996   4.309   2.285 -0.8647 -0.5814 -0.3292
 2013SOL     vw 8052   3.017   4.347   2.209  0.1611 -0.0901  0.1820
 2014SOL     ow 8053   4.134   0.984   1.701  0.2437 -0.6462  0.6584
 2014SOL     hw 8054   4.112   0.983   1.795  0.0557 -0.8223  0.6131
 2014SOL     hw 8055   4.174   0.899   1.685  1.4745 -0.1215  0.8570
 2014SOL     vw 8056   4.136   0.973   1.712  0.3815 -0.6002  0.6786
 2015SOL     ow 8057   0.570   6.756   2.197 -0.3052 -0.0180  0.0044
 2015SOL     hw 8058   0.503   6.729   2.134 -2.0337  0.2586  1.6189
 2015SOL     hw 8059   0.538   6.840   2.231  0.8198  0.0815  0.8984
 2015SOL     vw 8060   0.557   6.764   2.193 -0.3849  0.0317  0.3353
 2016SOL     ow 8061   6.300   1.609   4.296  0.0824 -0.0032  0.1734
 2016SOL     hw 8062   6.287   1.552   4.372  0.0072 -0.5830 -0.2672
 2016SOL     hw 8063   6.280   1.697   4.328  1.6000 -0.0079  1.2653
 2016SOL     vw 8064   6.296   1.613   4.310  0.2728 -0.0803  0.2592
 2017SOL     ow 8065   5.239   5.641   1.544 -0.2521  0.0704  0.1784
 2017SOL     hw 8066   5.291   5.620   1.466 -0.2283  0.6296  0.0341
 2017SOL     hw 8067   5.217   5.734   1.533 -0.4037  0.1063  0.7496
 2017SOL     vw 8068   5.243   5.651   1.532 -0.2692  0.1490  0.2347
 2018SOL     ow 8069   6.117   2.923   4.782  1.6472  0.5861 -0.8536
 2018SOL     hw 8070   6.077   2.940   4.867  0.4153 -0.1133 -1.2554
 2018SOL     hw 8071   6.205   2.892   4.801  1.1295 -0.2840  0.1982
 2018SOL     vw 8072   6.123   2.921   4.796  1.4164  0.3790 -0.7677
 2019SOL     ow 8073   4.782   4.650   0.704 -0.1707 -0.4866 -0.3315
 2019SOL     hw 8074   4.692   4.652   0.736  1.0749  0.9592  3.6009
 2019SOL     hw 8075   4.808   4.558   0.713 -1.1724 -0.9142 -1.4951
 2019SOL     vw 8076   4.774   4.638   0.709 -0.1383 -0.3524  0.0338
 2020SOL     ow 8077   2.347   3.651   0.971 -0.1126  0.0461 -0.2280
 2020SOL     hw 8078   2.315   3.718   1.030 -1.9167 -1.3780  0.4877
 2020SOL     hw 8079   2.329   3.568   1.015 -0.6495 -1.0464 -2.3384
 2020SOL     vw 8080   2.341   3.649   0.985 -0.4214 -0.2860 -0.4120
 2021SOL     ow 8081   2.013   1.243   6.964 -0.5089  0.0425  0.2100
 2021SOL     hw 8082   1.922   1.271   6.954  0.0927  1.2637 -3.2288
 2021SOL     hw 8083   2.045   1.292   7.041 -2.4909  0.1947  0.9902
 2021SOL     vw 8084   2.005   1.253   6.973 -0.6908  0.2238 -0.1407
 2022SOL     ow 8085   1.832   1.861   1.012  0.1380  0.2578 -0.1907
 2022SOL     hw 8086   1.892   1.788   1.024  0.0290 -0.1166 -1.7206
 2022SOL     hw 8087   1.834   1.879   0.918  0.1027  2.1862  0.1258
 2022SOL     vw 8088   1.840   1.854   1.002  0.1190  0.4628 -0.3508
 2023SOL     ow 8089   2.044   2.916   2.391  0.1767  0.3105 -0.2267
 2023SOL     hw 8090   2.044   2.827   2.358  0.6297 -0.0348  0.6572
 2023SOL     hw 8091   2.117   2.959   2.346  0.2598  0.0957 -0.2960
 2023SOL     vw 8092   2.054   2.910   2.381  0.2475  0.2365 -0.1192
 2024SOL     ow 8093   2.372   3.800   1.768 -0.1505 -0.2784  0.1293
 2024SOL     hw 8094   2.363   3.847   1.851  2.2015 -0.5206  0.5908
 2024SOL     hw 8095   2.450   3.747   1.779  0.9771  0.6196 -2.6580
 2024SOL     vw 8096   2.381   3.800   1.780  0.3085 -0.1919 -0.1776
 2025SOL     ow 8097   3.069   6.095   0.295 -0.1863 -0.0067 -0.1177
 2025SOL     hw 8098   3.067   6.078   0.201 -0.4452  0.1848 -0.1499
 2025SOL     hw 8099   3.008   6.169   0.307  0.4551  0.4976  0.0923
 2025SOL     vw 8100   3.060   6.103   0.284 -0.1359  0.0851 -0.0942
 2026SOL     ow 8101   4.412   7.061   6.998 -0.3490 -0.1262 -0.4048
 2026SOL     hw 8102   4.356   7.136   7.017 -2.7166 -1.4374 -1.6789
 2026SOL     hw 8103   4.359   7.005   6.942  1.5366 -2.4760 -0.0329
 2026SOL     vw 8104   4.398   7.064   6.993 -0.4125 -0.6092 -0.5240
 2027SOL     ow 8105   6.334   3.814   3.057 -0.1188 -0.1921  0.0904
 2027SOL     hw 8106   6.358   3.727   3.089 -0.0277 -0.5569 -0.9524
 2027SOL     hw 8107   6.238   3.812   3.053 -0.0922 -1.4876 -3.1452
 2027SOL     vw 8108   6.325   3.803   3.061 -0.1035 -0.4112 -0.4741
 2028SOL     ow 8109   5.792   5.579   1.787  0.5774  0.3425  0.3963
 2028SOL     hw 8110   5.840   5.587   1.870 -0.8652 -0.9910  1.4273
 2028SOL     hw 8111   5.853   5.534   1.729  0.7336 -1.0913  1.5897
 2028SOL     vw 8112   5.806   5.574   1.791  0.4077 -0.0224  0.6898
 2029SOL     ow 8113   4.813   6.469   1.274 -0.0533 -0.5564 -0.1251
 2029SOL     hw 8114   4.725   6.505   1.284 -0.1083  0.1220 -2.3884
 2029SOL     hw 8115   4.802   6.374   1.283 -1.0779 -0.5055 -0.7221
 2029SOL     vw 8116   4.800   6.461   1.277 -0.1960 -0.4604 -0.5025
 2030SOL     ow 8117   2.763   4.617   2.875 -0.1829 -0.0286  0.0694
 2030SOL     hw 8118   2.788   4.553   2.808 -0.9975  0.4529 -0.7197
 2030SOL     hw 8119   2.670   4.600   2.890 -0.4607  1.0917 -0.2999
 2030SOL     vw 8120   2.754   4.606   2.868 -0.3269  0.1824 -0.0833
 2031SOL     ow 8121   3.326   6.889   1.718  0.0516  0.7071 -0.1902
 2031SOL     hw 8122   3.317   6.984   1.710 -1.5039  0.7416  1.3328
 2031SOL     hw 8123   3.417   6.875   1.745  0.3100  1.7588 -0.4835
 2031SOL     vw 8124   3.337   6.900   1.720 -0.1196  0.8504 -0.0280
 2032SOL     ow 8125   1.860   5.894   3.879  0.3794  0.0939 -0.1601
 2032SOL     hw 8126   1.812   5.861   3.803 -0.7496 -0.0245  0.5725
 2032SOL     hw 8127   1.863   5.989   3.866 -0.5846  0.1678  0.0501
 2032SOL     vw 8128   1.854   5.902   3.867  0.1032  0.0880 -0.0359
 2033SOL     ow 8129   4.918   3.405   3.895  0.2640 -0.5685  0.6274
 2033SOL     hw 8130   4.962   3.487   3.917 -1.9197  0.2489  2.3567
 2033SOL     hw 8131   4.825   3.427   3.895 -0.3016 -2.6002 -1.0531
 2033SOL     vw 8132   4.911   3.418   3.898 -0.0989 -0.7287  0.6338
 2034SOL     ow 8133   2.423   5.897   2.110  0.4466 -0.9068  0.3220
 2034SOL     hw 8134   2.496   5.875   2.053  1.5650 -1.9210  2.0568
 2034SOL     hw 8135   2.447   5.982   2.148  0.0643 -0.6025 -0.0924
 2034SOL     vw 8136   2.435   5.905   2.107  0.5438 -1.0004  0.4964
 2035SOL     ow 8137   5.371   4.951   5.092  0.1662 -0.4454 -0.3608
 2035SOL     hw 8138   5.407   4.981   5.008 -1.5288  0.2383 -0.8792
 2035SOL     hw 8139   5.444   4.961   5.154  0.5583  2.0621 -1.1206
 2035SOL     vw 8140   5.386   4.956   5.089 -0.0057 -0.0243 -0.5293
 2036SOL     ow 8141   1.860   5.487   6.457 -0.0754 -0.6506  0.6295
 2036SOL     hw 8142   1.795   5.452   6.397 -2.2193  0.0456  2.4299
 2036SOL     hw 8143   1.853   5.582   6.449  0.6905 -0.5575  0.9143
 2036SOL     vw 8144   1.851   5.495   6.448 -0.2571 -0.5467  0.9046
 2037SOL     ow 8145   2.599   3.739   3.073  0.1606  0.4974  0.9206
 2037SOL     hw 8146   2.582   3.785   2.990  2.9908  1.4347  0.7337
 2037SOL     hw 8147   2.554   3.791   3.139 -1.1740  0.3986  0.1311
 2037SOL     vw 8148   2.591   3.752   3.071  0.3579  0.6080  0.7917
 2038SOL     ow 8149   4.883   1.431   6.087  0.1728  0.7597 -0.0752
 2038SOL     hw 8150   4.828   1.359   6.058 -2.7851  2.0149  1.8384
 2038SOL     hw 8151   4.931   1.396   6.162 -1.3697  0.7344  0.9473
 2038SOL     vw 8152   4.882   1.417   6.093 -0.4210  0.9220  0.3119
 2039SOL     ow 8153   6.117   3.844   6.826  0.0730  0.1277  0.3316
 2039SOL     hw 8154   6.096   3.799   6.907 -2.0899  1.2253  0.4474
 2039SOL     hw 8155   6.094   3.936   6.842  0.4433  0.5225 -1.2119
 2039SOL     vw 8156   6.111   3.850   6.839 -0.1636  0.3246  0.1431
 2040SOL     ow 8157   7.035   6.826   0.810  0.4728 -0.0123  0.5616
 2040SOL     hw 8158   7.042   6.751   0.870  0.8666  1.1093  1.9631
 2040SOL     hw 8159   7.118   6.827   0.763  0.3789 -0.5852  0.3765
 2040SOL     vw 8160   7.047   6.816   0.812  0.5124  0.0601  0.7221
 2041SOL     ow 8161   4.679   5.075   6.556 -0.0611 -0.3893 -0.0784
 2041SOL     hw 8162   4.674   5.057   6.650  1.8028  1.3638  0.4221
 2041SOL     hw 8163   4.598   5.039   6.520 -1.1823 -0.4082  2.3085
 2041SOL     vw 8164   4.668   5.068   6.564  0.0370 -0.1605  0.3026
 2042SOL     ow 8165   3.132   6.544   1.624  0.5981  0.4169  0.4717
 2042SOL     hw 8166   3.123   6.454   1.657  2.3083  0.1519  0.3188
 2042SOL     hw 8167   3.191   6.536   1.549 -0.9607  1.4048 -0.9244
 2042SOL     vw 8168   3.138   6.531   1.619  0.6181  0.5126  0.2673
 2043SOL     ow 8169   6.907   3.781   0.308 -0.4000  0.0905  0.2915
 2043SOL     hw 8170   6.974   3.744   0.251  0.4669  0.3159  1.1412
 2043SOL     hw 8171   6.830   3.726   0.294  0.0807 -0.4220 -0.3861
 2043SOL     vw 8172   6.905   3.769   0.298 -0.2224  0.0526  0.3142
 2044SOL     ow 8173   4.375   3.855   6.025 -0.1629  0.1620 -0.0931
 2044SOL     hw 8174   4.396   3.814   5.941  2.0328  1.3937 -0.2061
 2044SOL     hw 8175   4.279   3.864   6.024 -0.2138 -0.0866 -2.3401
 2044SOL     vw 8176   4.365   3.851   6.014  0.1199  0.2917 -0.4046
 2045SOL     ow 8177   4.352   5.850   0.213  0.0190 -0.6585  0.1225
 2045SOL     hw 8178   4.388   5.899   0.139 -0.1954  0.0715  0.4945
 2045SOL     hw 8179   4.289   5.910   0.253  1.8196 -0.0979  2.3409
 2045SOL     vw 8180   4.348   5.864   0.208  0.2284 -0.4883  0.4643
 2046SOL     ow 8181   3.437   0.288   2.118 -0.0941 -0.0361 -0.4558
 2046SOL     hw 8182   3.442   0.218   2.184 -0.9492  1.1460  0.9211
 2046SOL     hw 8183   3.349   0.280   2.082  0.1401 -0.2542 -0.9902
 2046SOL     vw 8184   3.426   0.277   2.122 -0.1758  0.0911 -0.3446
 2047SOL     ow 8185   4.043   6.278   2.326 -0.0633  0.2452  0.3202
 2047SOL     hw 8186   4.055   6.233   2.409 -2.0605  0.8263  0.9746
 2047SOL     hw 8187   4.059   6.210   2.259  1.0414 -0.3507  1.1579
 2047SOL     vw 8188   4.047   6.263   2.328 -0.1810  0.2432  0.5170
 2048SOL     ow 8189   5.816   2.383   6.597  0.1981 -0.1330 -0.2603
 2048SOL     hw 8190   5.803   2.371   6.691  0.4890  2.4314  0.1862
 2048SOL     hw 8191   5.883   2.320   6.573  0.4004 -0.5525  1.3368
 2048SOL     vw 8192   5.823   2.373   6.606  0.2632  0.1500  0.0093
 2049SOL     ow 8193   1.961   1.242   3.409 -0.3272  0.1375 -0.1459
 2049SOL     hw 8194   2.053   1.234   3.387  0.0436  0.7775  1.0955
 2049SOL     hw 8195   1.920   1.166   3.367  1.1260 -1.4796  1.1635
 2049SOL     vw 8196   1.967   1.231   3.401 -0.0865  0.0086  0.1906
 2050SOL     ow 8197   5.862   1.656   0.389 -0.5062  0.3496 -0.0291
 2050SOL     hw 8198   5.847   1.742   0.427 -0.1031  1.9773 -3.2212
 2050SOL     hw 8199   5.947   1.629   0.424 -1.1717  0.6629  1.9111
 2050SOL     vw 8200   5.871   1.664   0.398 -0.5407  0.6057 -0.1942
 2051SOL     ow 8201   6.672   1.378   2.046 -0.2765 -0.3556 -0.0503
 2051SOL     hw 8202   6.765   1.391   2.024 -0.2572  0.1660  0.3238
 2051SOL     hw 8203   6.626   1.389   1.963 -0.0101 -0.5191 -0.2210
 2051SOL     vw 8204   6.678   1.381   2.032 -0.2387 -0.3083 -0.0234
 2052SOL     ow 8205   2.911   5.282   4.246 -0.5623  0.2861  0.5339
 2052SOL     hw 8206   2.967   5.337   4.301 -1.4468  2.0460 -0.2252
 2052SOL     hw 8207   2.827   5.327   4.246 -1.0320 -0.5411 -0.9391
 2052SOL     vw 8208   2.908   5.295   4.253 -0.7410  0.4091  0.2391
 2053SOL     ow 8209   1.848   3.098   2.400 -0.0605  0.1581 -0.1106
 2053SOL     hw 8210   1.909   3.025   2.391 -0.2003  0.3007 -2.9672
 2053SOL     hw 8211   1.776   3.063   2.452  0.0907 -1.6224 -1.0307
 2053SOL     vw 8212   1.847   3.084   2.406 -0.0590 -0.0581 -0.6089
 2054SOL     ow 8213   3.036   2.665   1.620  0.5760 -0.8486  0.8436
 2054SOL     hw 8214   3.016   2.704   1.705  0.7748 -0.1261  0.5717
 2054SOL     hw 8215   3.132   2.665   1.615  0.6036  1.7382 -0.4994
 2054SOL     vw 8216   3.046   2.670   1.631  0.6058 -0.4119  0.6306
 2055SOL     ow 8217   0.883   4.005   5.911  0.4088 -0.0276 -0.5713
 2055SOL     hw 8218   0.954   4.059   5.946 -0.5653 -0.4450  2.3571
 2055SOL     hw 8219   0.815   4.069   5.887 -0.0770  0.2259  1.2854
 2055SOL     vw 8220   0.883   4.021   5.912  0.2162 -0.0491  0.0601
 2056SOL     ow 8221   3.611   5.419   5.870 -0.6338 -0.5085  0.6062
 2056SOL     hw 8222   3.529   5.469   5.873 -2.4746 -2.9892 -2.1450
 2056SOL     hw 8223   3.648   5.439   5.783  0.1722 -1.5531  0.6888
 2056SOL     vw 8224   3.605   5.428   5.859 -0.7703 -0.9737  0.2539
 2057SOL     ow 8225   3.670   2.664   0.945 -0.6960 -0.3864  0.3089
 2057SOL     hw 8226   3.665   2.708   1.030  0.0151 -0.3876  0.3525
 2057SOL     hw 8227   3.579   2.656   0.917 -0.8255  1.5170  0.0858
 2057SOL     vw 8228   3.657   2.668   0.953 -0.6193 -0.1355  0.2853
 2058SOL     ow 8229   0.271   2.208   3.077 -0.5680 -0.4581 -0.2041
 2058SOL     hw 8230   0.338   2.141   3.091  0.7554 -0.0045 -3.5948
 2058SOL     hw 8231   0.316   2.291   3.093 -1.4223 -0.2065  1.1226
 2058SOL     vw 8232   0.285   2.210   3.081 -0.5061 -0.3650 -0.4765
 2059SOL     ow 8233   2.093   3.241   4.801  0.2292 -0.4267 -0.3406
 2059SOL     hw 8234   2.038   3.168   4.830 -1.1279  1.4652  2.2915
 2059SOL     hw 8235   2.032   3.309   4.774  1.3258  0.6987 -0.1344
 2059SOL     vw 8236   2.078   3.241   4.801  0.1949 -0.0286  0.0341
 2060SOL     ow 8237   5.601   0.598   6.283  0.1512 -0.3436 -0.0068
 2060SOL     hw 8238   5.562   0.620   6.368  0.6481  0.8217 -0.0609
 2060SOL     hw 8239   5.529   0.608   6.221  0.2805  0.9234  0.0109
 2060SOL     vw 8240   5.586   0.602   6.286  0.2337 -0.0227 -0.0117
 2061SOL     ow 8241   6.196   0.307   6.415  0.4472 -0.1672 -0.2683
 2061SOL     hw 8242   6.115   0.264   6.390  1.4423 -1.5848 -1.2386
 2061SOL     hw 8243   6.182   0.399   6.395 -0.0298 -0.7344 -3.0226
 2061SOL     vw 8244   6.184   0.313   6.409  0.5157 -0.4290 -0.7596
 2062SOL     ow 8245   3.982   3.501   6.045  0.3755  0.1861  0.0788
 2062SOL     hw 8246   3.906   3.526   6.098  1.4338  1.0161  1.2463
 2062SOL     hw 8247   3.972   3.551   5.964 -0.6634 -0.2323 -0.0713
 2062SOL     vw 8248   3.971   3.511   6.042  0.3781  0.2404  0.2129
 2063SOL     ow 8249   3.884   2.899   3.668  1.2415 -0.1457 -0.6917
 2063SOL     hw 8250   3.906   2.882   3.760  0.5525  0.2230 -0.4504
 2063SOL     hw 8251   3.899   2.816   3.624  1.7944 -0.2667 -0.2929
 2063SOL     vw 8252   3.889   2.886   3.675  1.2236 -0.1130 -0.6074
 2064SOL     ow 8253   6.047   0.533   0.734 -0.5601 -0.0138  0.1978
 2064SOL     hw 8254   5.954   0.551   0.746 -1.2859  0.2372 -4.0033
 2064SOL     hw 8255   6.092   0.604   0.778 -2.3737  0.5087  1.3250
 2064SOL     vw 8256   6.041   0.545   0.741 -0.8953  0.0883 -0.2078
 2065SOL     ow 8257   6.963   4.422   4.805 -0.7341  0.2145  0.2435
 2065SOL     hw 8258   7.023   4.367   4.856 -0.9693  1.1824  1.6001
 2065SOL     hw 8259   6.944   4.370   4.727 -0.1881 -1.2247  1.0333
 2065SOL     vw 8260   6.968   4.408   4.801 -0.6931  0.1523  0.5267
 2066SOL     ow 8261   1.722   6.728   3.163 -0.1899 -0.0553  0.5302
 2066SOL     hw 8262   1.632   6.754   3.181 -0.4761  0.2886 -1.2370
 2066SOL     hw 8263   1.758   6.706   3.249 -1.9474 -0.1963  1.2745
 2066SOL     vw 8264   1.715   6.728   3.177 -0.4596 -0.0284  0.3953
 2067SOL     ow 8265   6.558   6.137   3.486  0.6569 -0.6370 -0.5719
 2067SOL     hw 8266   6.611   6.116   3.408  1.1501  2.2198 -1.1114
 2067SOL     hw 8267   6.481   6.181   3.451 -0.0980 -1.0946  0.4754
 2067SOL     vw 8268   6.555   6.140   3.471  0.6225 -0.3207 -0.5049
 2068SOL     ow 8269   5.694   5.307   1.853 -0.6027  0.0586  0.0978
 2068SOL     hw 8270   5.735   5.393   1.858 -1.5971  0.5386  0.3654
 2068SOL     hw 8271   5.740   5.263   1.782  0.7613  0.3355  0.7716
 2068SOL     vw 8272   5.705   5.313   1.844 -0.5538  0.1583  0.2220
 2069SOL     ow 8273   3.670   6.340   3.842 -0.0217 -0.5279  0.1342
 2069SOL     hw 8274   3.665   6.253   3.880  0.6583 -0.2758  0.8476
 2069SOL     hw 8275   3.630   6.332   3.756  0.8845 -1.7566 -0.1939
 2069SOL     vw 8276   3.664   6.328   3.836  0.1876 -0.6568  0.1851
 2070SOL     ow 8277   0.968   2.301   1.993 -0.0061  0.5489 -0.1065
 2070SOL     hw 8278   0.949   2.394   2.003  0.6287  0.8185 -1.2200
 2070SOL     hw 8279   0.985   2.270   2.082 -0.1886  1.5034  0.2728
 2070SOL     vw 8280   0.968   2.309   2.006  0.0536  0.7104 -0.2034
 2071SOL     ow 8281   4.356   0.913   6.535  0.1701 -0.0405  0.0120
 2071SOL     hw 8282   4.367   0.861   6.615  0.4183 -2.1565 -1.3291
 2071SOL     hw 8283   4.445   0.926   6.503  0.1240  1.3871  0.3872
 2071SOL     vw 8284   4.369   0.908   6.542  0.1967 -0.1314 -0.1156
 2072SOL     ow 8285   3.026   1.952   6.340  0.1187 -0.4268  0.3657
 2072SOL     hw 8286   3.075   2.030   6.314 -2.2467  0.2889 -2.5248
 2072SOL     hw 8287   2.947   1.986   6.382 -0.8049 -1.2120 -0.6661
 2072SOL     vw 8288   3.022   1.967   6.342 -0.3152 -0.4360 -0.1521
 2073SOL     ow 8289   6.653   5.888   4.324 -0.2965 -0.0211 -0.0880
 2073SOL     hw 8290   6.573   5.939   4.336 -0.8781 -0.9692  0.1738
 2073SOL     hw 8291   6.715   5.950   4.285 -1.5885  0.3895 -1.6323
 2073SOL     vw 8292   6.651   5.903   4.320 -0.5436 -0.0920 -0.2573
 2074SOL     ow 8293   3.741   3.207   3.663  0.2775  0.3568  0.5710
 2074SOL     hw 8294   3.646   3.194   3.663  0.4284 -1.0599  2.1703
 2074SOL     hw 8295   3.759   3.251   3.746  1.2839 -1.9925  1.6718
 2074SOL     vw 8296   3.731   3.211   3.674  0.4303 -0.1401  0.9273
 2075SOL     ow 8297   3.187   4.398   6.101  0.8739 -0.4131  0.4918
 2075SOL     hw 8298   3.250   4.445   6.046  2.3622  0.2751  2.6766
 2075SOL     hw 8299   3.234   4.380   6.182 -1.2504 -1.3193  1.5991
 2075SOL     vw 8300   3.201   4.402   6.104  0.7900 -0.4418  0.9263
 2076SOL     ow 8301   2.061   4.415   2.506  0.4700 -0.5966  0.0497
 2076SOL     hw 8302   2.051   4.500   2.463 -0.1490 -0.9339 -0.4877
 2076SOL     hw 8303   1.973   4.378   2.507  0.6938 -1.1262  0.4985
 2076SOL     vw 8304   2.048   4.422   2.500  0.4177 -0.7112  0.0380
 2077SOL     ow 8305   0.454   2.463   0.406  0.4234 -0.6811  0.1274
 2077SOL     hw 8306   0.524   2.406   0.372  0.1973 -0.2996 -1.0121
 2077SOL     hw 8307   0.471   2.467   0.500  3.2548  1.1059 -0.3359
 2077SOL     vw 8308   0.466   2.456   0.414  0.7672 -0.3949 -0.0841
 2078SOL     ow 8309   5.008   1.624   2.827  0.2396 -0.4081 -0.6664
 2078SOL     hw 8310   4.978   1.550   2.775  2.4310 -1.0888 -1.0932
 2078SOL     hw 8311   5.101   1.631   2.806  0.5004  1.2685  0.8239
 2078SOL     vw 8312   5.016   1.615   2.817  0.5629 -0.2767 -0.5260
 2079SOL     ow 8313   0.162   4.183   3.159 -0.9470  0.0719  0.0275
 2079SOL     hw 8314   0.072   4.214   3.173 -0.5206  0.4347  2.3607
 2079SOL     hw 8315   0.169   4.105   3.212  0.8128  1.4566  1.9908
 2079SOL     vw 8316   0.151   4.177   3.168 -0.6585  0.3028  0.5945
 2080SOL     ow 8317   1.384   4.614   6.383 -0.2035 -0.4759 -0.1178
 2080SOL     hw 8318   1.479   4.624   6.385 -0.3044  0.7266  2.7411
 2080SOL     hw 8319   1.357   4.658   6.302  1.5692  0.2353 -0.3613
 2080SOL     vw 8320   1.393   4.621   6.372  0.0170 -0.2234  0.2272
 2081SOL     ow 8321   3.477   2.074   1.569  0.2775  0.1781  0.1908
 2081SOL     hw 8322   3.549   2.061   1.630 -1.0709 -2.1279  1.4002
 2081SOL     hw 8323   3.413   2.006   1.591 -1.0699  0.3788 -2.6280
 2081SOL     vw 8324   3.478   2.063   1.580 -0.0782 -0.0997 -0.0215
 2082SOL     ow 8325   2.825   6.155   4.953  0.4678  0.4593 -0.7112
 2082SOL     hw 8326   2.798   6.214   5.023  0.5686 -0.8223  0.4504
 2082SOL     hw 8327   2.778   6.186   4.875 -3.4119 -0.8282  0.8754
 2082SOL     vw 8328   2.815   6.167   4.952 -0.0308  0.1204 -0.3490
 2083SOL     ow 8329   6.518   5.211   4.678 -0.2497 -0.7007  0.5520
 2083SOL     hw 8330   6.611   5.226   4.695  0.4315 -0.2629 -2.8865
 2083SOL     hw 8331   6.512   5.117   4.660 -0.3650 -0.6428  0.2832
 2083SOL     vw 8332   6.529   5.200   4.678 -0.1752 -0.6354  0.0627
 2084SOL     ow 8333   5.796   1.138   3.421  0.2529 -0.4283 -0.0625
 2084SOL     hw 8334   5.800   1.232   3.402  0.2624 -0.5890 -0.9334
 2084SOL     hw 8335   5.824   1.130   3.512  2.4062  0.2120 -0.6111
 2084SOL     vw 8336   5.800   1.150   3.430  0.5379 -0.3650 -0.2497
 2085SOL     ow 8337   1.626   5.374   0.251 -0.0662  0.1377 -0.2305
 2085SOL     hw 8338   1.562   5.431   0.208 -0.6196  0.1780  0.6155
 2085SOL     hw 8339   1.578   5.336   0.325  0.1966 -1.6488 -0.9317
 2085SOL     vw 8340   1.611   5.376   0.255 -0.1046 -0.0927 -0.2114
 2086SOL     ow 8341   7.111   0.953   2.574  0.4081  0.0065 -0.0391
 2086SOL     hw 8342   7.166   0.912   2.507 -0.1399  1.4455 -1.4539
 2086SOL     hw 8343   7.031   0.902   2.574  0.4862 -0.1203 -0.3601
 2086SOL     vw 8344   7.108   0.941   2.565  0.3459  0.1796 -0.2681
 2087SOL     ow 8345   4.504   1.527   0.617  0.2651 -0.3360  0.7817
 2087SOL     hw 8346   4.497   1.537   0.712  1.8749 -0.1105  0.9023
 2087SOL     hw 8347   4.441   1.590   0.582  0.5942  0.5404  1.6992
 2087SOL     vw 8348   4.495   1.537   0.625  0.5207 -0.1906  0.9186
 2088SOL     ow 8349   7.027   0.008   1.772  0.1655  0.1157  0.2913
 2088SOL     hw 8350   7.049  -0.085   1.765 -0.7503 -0.1801  1.0622
 2088SOL     hw 8351   6.944   0.009   1.820 -0.7595  1.2335 -1.2461
 2088SOL     vw 8352   7.019  -0.004   1.777 -0.0775  0.2241  0.1902
 2089SOL     ow 8353   5.949   0.778   3.399 -0.5188  0.3592 -0.0247
 2089SOL     hw 8354   5.869   0.791   3.449 -0.0515 -1.4718  1.3435
 2089SOL     hw 8355   6.013   0.837   3.441 -0.5148 -0.0680  0.5854
 2089SOL     vw 8356   5.947   0.787   3.411 -0.4566  0.0613  0.2363
 2090SOL     ow 8357   6.802   4.463   7.102 -0.2493  0.0121  0.2432
 2090SOL     hw 8358   6.806   4.434   7.193  0.0121  0.0114  0.2333
 2090SOL     hw 8359   6.823   4.385   7.051  0.7579  0.2807  0.2268
 2090SOL     vw 8360   6.805   4.449   7.107 -0.0818  0.0472  0.2396
 2091SOL     ow 8361   2.547   0.603   2.703  0.0260 -0.3440 -0.0286
 2091SOL     hw 8362   2.560   0.510   2.720  0.4450 -0.5024 -1.1345
 2091SOL     hw 8363   2.527   0.640   2.789 -1.3139 -1.6374  0.2713
 2091SOL     vw 8364   2.546   0.595   2.717 -0.0955 -0.5356 -0.1349
 2092SOL     ow 8365   0.532   3.382   2.030 -0.2998  0.1550 -0.0128
 2092SOL     hw 8366   0.482   3.341   1.959 -0.8571  4.1173 -2.2538
 2092SOL     hw 8367   0.466   3.413   2.092 -0.1584  0.2174  0.1090
 2092SOL     vw 8368   0.517   3.381   2.029 -0.3547  0.6860 -0.2924
 2093SOL     ow 8369   5.530   0.569   5.880 -0.2834  0.3782 -0.0299
 2093SOL     hw 8370   5.459   0.583   5.942 -1.2713  1.2184 -1.2996
 2093SOL     hw 8371   5.608   0.604   5.924 -1.0445  1.3559  0.5747
 2093SOL     vw 8372   5.531   0.576   5.894 -0.5143  0.6180 -0.1178
 2094SOL     ow 8373   5.040   7.143   4.694  0.3685  0.1652 -0.3744
 2094SOL     hw 8374   5.121   7.106   4.660  0.3974 -0.2930  0.1871
 2094SOL     hw 8375   5.010   7.080   4.760 -0.0399  0.7086 -0.0330
 2094SOL     vw 8376   5.047   7.130   4.698  0.3183  0.1762 -0.2553
 2095SOL     ow 8377   4.184   2.574   3.393  0.7863  0.3604 -0.1246
 2095SOL     hw 8378   4.235   2.637   3.443  0.7907  1.1466 -1.0767
 2095SOL     hw 8379   4.097   2.578   3.432  1.3186 -0.6736  1.2316
 2095SOL     vw 8380   4.179   2.583   3.405  0.8571  0.3277 -0.0713
 2096SOL     ow 8381   0.392   4.989   4.484  0.7095  0.2347 -0.2498
 2096SOL     hw 8382   0.460   4.990   4.551 -0.9194  0.8657  1.4969
 2096SOL     hw 8383   0.311   5.007   4.532 -0.6790 -0.2929 -2.2632
 2096SOL     vw 8384   0.390   4.992   4.499  0.3114  0.2482 -0.2851
 2097SOL     ow 8385   1.456   0.046   0.627 -0.8481 -0.3584 -0.2376
 2097SOL     hw 8386   1.514   0.055   0.552  0.1462 -1.5195  0.3497
 2097SOL     hw 8387   1.488   0.112   0.689 -0.6698 -0.4497 -0.2310
 2097SOL     vw 8388   1.468   0.056   0.626 -0.6934 -0.5236 -0.1592
 2098SOL     ow 8389   3.708   1.117   5.244 -0.3971  0.3364  0.3164
 2098SOL     hw 8390   3.758   1.097   5.323 -0.8568  1.5486  0.9522
 2098SOL     hw 8391   3.619   1.135   5.276 -0.8151 -0.0602 -0.5872
 2098SOL     vw 8392   3.703   1.117   5.259 -0.5130  0.4440  0.2811
 2099SOL     ow 8393   6.751   1.953   1.564 -0.1900  0.3628  0.7767
 2099SOL     hw 8394   6.693   2.013   1.518 -1.3625 -0.4506  1.1637
 2099SOL     hw 8395   6.775   1.888   1.498 -0.5249  0.1421  0.8693
 2099SOL     vw 8396   6.747   1.952   1.549 -0.3889  0.2264  0.8399
 2100SOL     ow 8397   3.035   2.459   1.450 -0.2235 -0.3295 -0.7245
 2100SOL     hw 8398   3.050   2.540   1.499 -0.5978 -0.6798 -0.0141
 2100SOL     hw 8399   3.122   2.428   1.426 -0.1296  1.2748 -2.6789
 2100SOL     vw 8400   3.048   2.465   1.453 -0.2605 -0.1639 -0.8886
 2101SOL     ow 8401   6.590   6.990   3.051  0.2804  0.3529  0.1621
 2101SOL     hw 8402   6.556   6.949   2.971  1.3117  0.1101 -0.1666
 2101SOL     hw 8403   6.523   6.972   3.117  0.1813 -0.8909 -0.2447
 2101SOL     vw 8404   6.577   6.982   3.049  0.4034  0.1569  0.0651
 2102SOL     ow 8405   4.209   6.054   5.424 -0.2154 -0.1513  0.1940
 2102SOL     hw 8406   4.291   6.054   5.375  0.7423  0.0991  1.7436
 2102SOL     hw 8407   4.207   6.138   5.469 -1.5431  0.0194 -0.1339
 2102SOL     vw 8408   4.219   6.065   5.423 -0.2642 -0.0958  0.3550
 2103SOL     ow 8409   2.937   0.668   1.431  0.1820  0.1586 -0.2634
 2103SOL     hw 8410   2.844   0.667   1.408 -0.3666 -3.3780  1.3530
 2103SOL     hw 8411   2.972   0.587   1.394  2.6584  1.3377 -0.7133
 2103SOL     vw 8412   2.929   0.658   1.423  0.4364 -0.1525 -0.1096
 2104SOL     ow 8413   1.598   2.713   1.082  0.0044 -0.2127  0.1632
 2104SOL     hw 8414   1.564   2.705   1.171  0.2168  3.2026  0.6971
 2104SOL     hw 8415   1.641   2.799   1.080  1.8804 -1.0519 -2.6641
 2104SOL     vw 8416   1.599   2.723   1.093  0.2799  0.1272 -0.1394
 2105SOL     ow 8417   2.479   4.689   0.462 -0.3975  0.1837 -0.2866
 2105SOL     hw 8418   2.396   4.727   0.492 -0.6503  0.9764 -1.8661
 2105SOL     hw 8419   2.455   4.602   0.430 -0.3058 -0.2504  0.7857
 2105SOL     vw 8420   2.465   4.683   0.462 -0.4188  0.2306 -0.3535
 2106SOL     ow 8421   5.028   0.741   0.280  0.1020 -0.1202  0.0834
 2106SOL     hw 8422   5.023   0.714   0.188  3.1150 -0.9815  0.0806
 2106SOL     hw 8423   5.109   0.703   0.312 -0.4402  0.8653  2.9157
 2106SOL     vw 8424   5.038   0.732   0.272  0.4280 -0.1038  0.4568
 2107SOL     ow 8425   5.987   0.070   3.608  0.1076 -0.1275 -0.3657
 2107SOL     hw 8426   6.047  -0.005   3.610  0.5915  0.2513 -0.4085
 2107SOL     hw 8427   6.032   0.135   3.554 -0.6498 -0.0893 -0.9615
 2107SOL     vw 8428   6.001   0.069   3.601  0.0715 -0.0725 -0.4500
 2108SOL     ow 8429   5.207   6.956   4.950 -0.6690  0.2100 -0.5713
 2108SOL     hw 8430   5.116   6.948   4.920 -1.2773 -2.9004  1.6212
 2108SOL     hw 8431   5.257   6.905   4.886 -0.2923  2.2324 -1.9952
 2108SOL     vw 8432   5.202   6.948   4.937 -0.6998  0.0665 -0.4702
 2109SOL     ow 8433   5.938   6.428   1.258  0.7080 -0.4407 -0.2849
 2109SOL     hw 8434   5.873   6.491   1.227  0.3285 -0.0128  1.3172
 2109SOL     hw 8435   6.018   6.480   1.269  0.8792 -0.6211 -0.6619
 2109SOL     vw 8436   5.940   6.443   1.255  0.6802 -0.4079 -0.1232
 2110SOL     ow 8437   6.112   1.923   6.664  0.0715  0.5175 -0.0645
 2110SOL     hw 8438   6.078   1.992   6.606  0.8194  0.9502  0.0022
 2110SOL     hw 8439   6.180   1.966   6.715 -0.3165  0.0452  0.8845
 2110SOL     vw 8440   6.116   1.938   6.663  0.1190  0.5122  0.0694
 2111SOL     ow 8441   3.045   2.318   6.154 -0.6226 -0.2340 -0.1478
 2111SOL     hw 8442   3.017   2.250   6.092  0.7799 -0.0196 -1.0687
 2111SOL     hw 8443   3.005   2.398   6.121  0.4928 -0.0398 -1.0783
 2111SOL     vw 8444   3.036   2.319   6.141 -0.2904 -0.1802 -0.3920
 2112SOL     ow 8445   5.888   4.676   5.855 -0.4355  0.4833  0.3535
 2112SOL     hw 8446   5.860   4.590   5.884  0.5498  0.5274  1.5202
 2112SOL     hw 8447   5.937   4.660   5.774  0.0022 -0.0880  0.7280
 2112SOL     vw 8448   5.891   4.663   5.848 -0.2477  0.4139  0.5565
 2113SOL     ow 8449   4.712   1.574   6.872 -0.4380 -0.1978 -0.3613
 2113SOL     hw 8450   4.753   1.557   6.957 -0.6728  1.3030  0.0862
 2113SOL     hw 8451   4.640   1.634   6.892 -1.5672 -1.1501 -1.4136
 2113SOL     vw 8452   4.708   1.580   6.886 -0.6177 -0.1254 -0.4413
 2114SOL     ow 8453   5.203   4.703   5.200  0.2216 -0.2929 -1.1300
 2114SOL     hw 8454   5.209   4.610   5.178  1.5937 -0.3414 -0.6235
 2114SOL     hw 8455   5.245   4.748   5.126  1.0561 -0.1961 -0.6082
 2114SOL     vw 8456   5.209   4.697   5.187  0.5128 -0.2866 -0.9944
 2115SOL     ow 8457   0.528   3.747   5.875 -0.2321 -0.1232  0.0314
 2115SOL     hw 8458   0.475   3.719   5.800  1.5081 -2.2700 -0.5148
 2115SOL     hw 8459   0.525   3.843   5.872 -0.7439 -0.1509 -2.4108
 2115SOL     vw 8460   0.521   3.756   5.864 -0.0700 -0.4102 -0.3631
 2116SOL     ow 8461   0.252   5.217   6.075 -0.4552 -0.3878  0.5401
 2116SOL     hw 8462   0.329   5.188   6.124 -0.5741 -0.9413  0.4065
 2116SOL     hw 8463   0.256   5.313   6.079  0.1970 -0.4117  0.5925
 2116SOL     vw 8464   0.263   5.226   6.082 -0.3849 -0.4640  0.5293
 2117SOL     ow 8465   1.064   3.948   6.493 -0.5766  0.5243 -0.0403
 2117SOL     hw 8466   0.981   3.940   6.540  0.7193 -1.3527  2.1621
 2117SOL     hw 8467   1.119   4.000   6.551  0.4948 -0.2130 -0.3703
 2117SOL     vw 8468   1.060   3.954   6.507 -0.2642  0.1794  0.2065
 2118SOL     ow 8469   5.983   6.188   6.276 -0.3355  0.5321 -0.0173
 2118SOL     hw 8470   5.919   6.257   6.290 -1.8541 -0.4397 -1.7033
 2118SOL     hw 8471   6.004   6.157   6.364 -2.6083  0.5406  0.5959
 2118SOL     vw 8472   5.977   6.193   6.289 -0.8359  0.4051 -0.1588
 2119SOL     ow 8473   2.410   7.047   0.463  0.3908  0.0176 -0.1209
 2119SOL     hw 8474   2.343   7.103   0.502 -0.3696 -1.4021  0.7065
 2119SOL     hw 8475   2.452   7.005   0.538 -0.4898 -2.1010 -0.7446
 2119SOL     vw 8476   2.407   7.049   0.478  0.1744 -0.4494 -0.0940
 2120SOL     ow 8477   0.659   4.351   4.931  0.7921  0.2099  0.1845
 2120SOL     hw 8478   0.588   4.294   4.960  0.8464  0.7782  1.5107
 2120SOL     hw 8479   0.718   4.355   5.006  2.4989 -0.6215 -1.0227
 2120SOL     vw 8480   0.658   4.344   4.945  1.0245  0.1752  0.2000
 2121SOL     ow 8481   5.531   5.677   5.253  0.2197  0.3100  0.2200
 2121SOL     hw 8482   5.620   5.711   5.251  0.2609  0.1709 -0.3036
 2121SOL     hw 8483   5.476   5.755   5.266  0.4563  0.3160  1.2512
 2121SOL     vw 8484   5.535   5.692   5.255  0.2563  0.2923  0.2871
 2122SOL     ow 8485   2.859   5.108   6.437  0.4327 -0.2482  0.0501
 2122SOL     hw 8486   2.919   5.055   6.385 -0.0346 -0.3159 -0.4279
 2122SOL     hw 8487   2.860   5.194   6.396  2.2000  0.5394  1.6054
 2122SOL     vw 8488   2.867   5.112   6.425  0.6043 -0.1531  0.1924
 2123SOL     ow 8489   0.651   1.860   2.942 -0.2348  0.6855  0.1000
 2123SOL     hw 8490   0.741   1.876   2.914 -0.8155  1.1492 -1.6084
 2123SOL     hw 8491   0.597   1.884   2.867 -1.7356 -0.6323  0.6836
 2123SOL     vw 8492   0.655   1.865   2.929 -0.5094  0.5728 -0.0484
 2124SOL     ow 8493   5.260   6.909   0.620 -0.7493 -0.4230 -0.1298
 2124SOL     hw 8494   5.278   6.847   0.549 -1.9158 -1.2074  0.2362
 2124SOL     hw 8495   5.165   6.914   0.625 -0.6993  1.4699 -0.1789
 2124SOL     vw 8496   5.250   6.901   0.612 -0.8965 -0.2768 -0.0880
 2125SOL     ow 8497   2.400   3.431   5.689  0.0854  0.5974  0.4317
 2125SOL     hw 8498   2.406   3.342   5.725 -1.3588 -0.8396 -2.4661
 2125SOL     hw 8499   2.485   3.470   5.707  1.3714 -1.9750  0.4682
 2125SOL     vw 8500   2.412   3.424   5.696  0.0644  0.0684  0.0541
 2126SOL     ow 8501   2.532   0.780   1.790 -0.1610  0.6315 -0.0307
 2126SOL     hw 8502   2.598   0.838   1.827 -1.7883  0.7432  3.0585
 2126SOL     hw 8503   2.537   0.700   1.843 -1.8829  0.3206 -0.2487
 2126SOL     vw 8504   2.541   0.777   1.802 -0.6028  0.6053  0.3482
 2127SOL     ow 8505   0.323   1.426   2.893  0.3688  0.0019  0.1372
 2127SOL     hw 8506   0.277   1.405   2.813  1.7830  0.5059 -0.8517
 2127SOL     hw 8507   0.273   1.383   2.962 -0.4754 -1.0296 -1.0803
 2127SOL     vw 8508   0.311   1.418   2.892  0.4440 -0.0677 -0.1540
 2128SOL     ow 8509   2.357   5.315   0.324  0.0441  0.0019  0.0848
 2128SOL     hw 8510   2.369   5.224   0.348 -0.0847 -0.4511 -1.4585
 2128SOL     hw 8511   2.302   5.313   0.245 -0.2146  1.4168  0.1927
 2128SOL     vw 8512   2.352   5.303   0.316 -0.0072  0.1287 -0.1046
 2129SOL     ow 8513   2.114   3.755   0.774  0.6402  0.0095 -0.0711
 2129SOL     hw 8514   2.074   3.829   0.819 -0.5430 -1.0779  0.7741
 2129SOL     hw 8515   2.062   3.746   0.693 -1.0484 -1.4886  1.0923
 2129SOL     vw 8516   2.102   3.763   0.769  0.2612 -0.3316  0.1939
 2130SOL     ow 8517   1.633   1.595   1.145 -0.1157  0.3597 -0.0769
 2130SOL     hw 8518   1.567   1.602   1.076  0.8972  2.9529 -0.8830
 2130SOL     hw 8519   1.716   1.614   1.102  0.9427 -0.7653  1.3450
 2130SOL     vw 8520   1.635   1.598   1.130  0.1576  0.5534  0.0044
 2131SOL     ow 8521   4.104   5.380   0.116 -0.0469  0.1023 -0.5546
 2131SOL     hw 8522   4.059   5.438   0.177  0.9484  1.6004 -1.1829
 2131SOL     hw 8523   4.058   5.296   0.124 -1.5184  0.9552  0.3989
 2131SOL     vw 8524   4.092   5.376   0.125 -0.1097  0.4122 -0.5117
 2132SOL     ow 8525   3.630   1.285   2.929  0.1303 -0.4158  0.2886
 2132SOL     hw 8526   3.643   1.211   2.871 -0.0268  1.0699 -1.7410
 2132SOL     hw 8527   3.555   1.332   2.893 -0.2018  0.3684  1.9098
 2132SOL     vw 8528   3.622   1.282   2.917  0.0658 -0.1164  0.2346
 2133SOL     ow 8529   3.575   7.130   6.227 -0.3909  0.6295  0.3327
 2133SOL     hw 8530   3.602   7.211   6.270  0.2329  0.6035 -0.0034
 2133SOL     hw 8531   3.510   7.157   6.162 -0.2080  0.8550  0.2445
 2133SOL     vw 8532   3.570   7.144   6.224 -0.2846  0.6559  0.2768
 2134SOL     ow 8533   5.818   6.529   4.946 -0.1096  0.3595  0.7307
 2134SOL     hw 8534   5.857   6.530   4.859 -0.0793 -0.1702  0.7300
 2134SOL     hw 8535   5.723   6.534   4.930 -0.1018  0.3074  0.6673
 2134SOL     vw 8536   5.810   6.530   4.932 -0.1044  0.2828  0.7222
 2135SOL     ow 8537   6.310   6.181   1.763 -0.1917 -0.1541  0.4809
 2135SOL     hw 8538   6.348   6.097   1.789  0.7583  0.0437 -0.2377
 2135SOL     hw 8539   6.384   6.233   1.731 -0.4295  1.6744  2.6502
 2135SOL     vw 8540   6.325   6.177   1.762 -0.0975  0.1130  0.6723
 2136SOL     ow 8541   0.654   1.738   2.490  0.7475  0.0058  0.5771
 2136SOL     hw 8542   0.583   1.795   2.518  0.0605 -0.5725  0.0631
 2136SOL     hw 8543   0.610   1.662   2.452  1.6201  0.3506 -1.2524
 2136SOL     vw 8544   0.639   1.735   2.488  0.7720 -0.0250  0.2681
 2137SOL     ow 8545   6.084   2.694   5.523 -0.5235  0.5740  0.2436
 2137SOL     hw 8546   6.024   2.655   5.587 -1.0997  0.4837 -0.3332
 2137SOL     hw 8547   6.110   2.620   5.467  0.2207  0.5928  0.5535
 2137SOL     vw 8548   6.080   2.679   5.524 -0.5014  0.5646  0.2081
 2138SOL     ow 8549   1.303   4.286   6.086  0.2590  0.0046  0.3030
 2138SOL     hw 8550   1.344   4.298   6.172  3.9211  1.9387 -1.4728
 2138SOL     hw 8551   1.260   4.370   6.069  1.4548  0.4697 -0.5712
 2138SOL     vw 8552   1.303   4.299   6.095  0.9000  0.3211 -0.0467
 2139SOL     ow 8553   4.314   0.155   4.681  0.2490 -0.1009  0.6010
 2139SOL     hw 8554   4.406   0.173   4.662  0.0023  0.6790  0.0991
 2139SOL     hw 8555   4.272   0.241   4.682 -0.8177 -0.5569 -1.0121
 2139SOL     vw 8556   4.320   0.169   4.679  0.0756 -0.0582  0.3223
 2140SOL     ow 8557   5.387   4.618   4.010  0.2989  0.6520 -0.0711
 2140SOL     hw 8558   5.352   4.529   4.013 -0.5882  0.9695 -0.6911
 2140SOL     hw 8559   5.349   4.656   3.931  0.5514  1.6287  0.2657
 2140SOL     vw 8560   5.377   4.612   4.000  0.2153  0.8230 -0.1087
 2141SOL     ow 8561   2.372   4.485   1.981  0.1734 -0.1777  0.0156
 2141SOL     hw 8562   2.278   4.502   1.974  0.4593  2.0927  0.9665
 2141SOL     hw 8563   2.413   4.558   1.936  1.5026 -0.9942 -0.1427
 2141SOL     vw 8564   2.365   4.497   1.974  0.3865  0.0141  0.1201
 2142SOL     ow 8565   1.892   0.756   3.133 -0.7043 -0.6669 -0.2204
 2142SOL     hw 8566   1.969   0.799   3.097 -1.0442 -1.1157 -1.5180
 2142SOL     hw 8567   1.823   0.822   3.128 -0.7064 -0.6664 -0.1882
 2142SOL     vw 8568   1.893   0.770   3.128 -0.7493 -0.7261 -0.3873
 2143SOL     ow 8569   4.808   3.701   5.729 -0.1873 -0.3322 -0.2073
 2143SOL     hw 8570   4.721   3.670   5.754 -0.0629  0.4926  1.4447
 2143SOL     hw 8571   4.819   3.783   5.778  1.4025 -0.2641 -0.6016
 2143SOL     vw 8572   4.798   3.708   5.739  0.0389 -0.2143 -0.0412
 2144SOL     ow 8573   5.039   7.070   3.743  0.4755  0.0808 -0.2374
 2144SOL     hw 8574   5.024   7.111   3.657  0.9366 -1.4610 -1.0807
 2144SOL     hw 8575   4.952   7.044   3.773  0.2267  1.2613  0.1143
 2144SOL     vw 8576   5.026   7.072   3.736  0.5035  0.0336 -0.3022
 2145SOL     ow 8577   3.869   3.618   7.148 -0.1922  0.3414  0.1449
 2145SOL     hw 8578   3.785   3.580   7.124 -0.4829 -0.2596  1.9013
 2145SOL     hw 8579   3.906   3.556   7.212  2.2803 -0.1725 -1.6145
 2145SOL     vw 8580   3.863   3.605   7.154  0.0957  0.1942  0.1445
 2146SOL     ow 8581   0.099   6.445   0.732 -0.7547  0.4406  0.1580
 2146SOL     hw 8582   0.141   6.499   0.799  1.6817  0.2832 -1.1461
 2146SOL     hw 8583   0.101   6.356   0.767 -0.5846  0.5359  0.3918
 2146SOL     vw 8584   0.105   6.441   0.745 -0.4108  0.4323  0.0168
 2147SOL     ow 8585   0.895   4.376   4.400 -0.5489 -0.3755  0.2737
 2147SOL     hw 8586   0.964   4.326   4.356  0.5169  1.7438 -0.6158
 2147SOL     hw 8587   0.828   4.311   4.422  0.0035 -1.9355 -2.2553
 2147SOL     vw 8588   0.895   4.361   4.397 -0.3354 -0.3018 -0.1771
 2148SOL     ow 8589   6.051   4.820   2.746 -0.1622  0.4715  0.3709
 2148SOL     hw 8590   6.101   4.843   2.824  1.7429  1.7429 -1.1392
 2148SOL     hw 8591   5.984   4.759   2.777  2.8058 -2.0177  2.4292
 2148SOL     vw 8592   6.048   4.815   2.760  0.4807  0.3109  0.4432
 2149SOL     ow 8593   3.011   1.795   6.113  0.2479  0.5100 -0.0609
 2149SOL     hw 8594   3.030   1.849   6.190  0.4314  0.7963 -0.3012
 2149SOL     hw 8595   3.088   1.806   6.057  0.5267 -0.4478  0.1309
 2149SOL     vw 8596   3.023   1.804   6.115  0.3089  0.4214 -0.0672
 2150SOL     ow 8597   5.154   0.916   3.295 -0.0296  0.0022 -0.4107
 2150SOL     hw 8598   5.136   0.953   3.382 -0.8440 -1.6828  0.1722
 2150SOL     hw 8599   5.187   0.828   3.313  0.0244 -0.2809 -1.8153
 2150SOL     vw 8600   5.156   0.909   3.309 -0.1299 -0.2575 -0.5192
 2151SOL     ow 8601   4.802   6.922   3.906 -0.6967  0.0079  0.3026
 2151SOL     hw 8602   4.821   7.012   3.932  0.0617  1.0337 -3.3319
 2151SOL     hw 8603   4.718   6.927   3.861 -0.9737 -1.2797  0.6256
 2151SOL     vw 8604   4.794   6.934   3.904 -0.6330 -0.0265 -0.1343
 2152SOL     ow 8605   5.369   4.358   2.249 -1.0113 -0.1192 -0.2114
 2152SOL     hw 8606   5.414   4.362   2.165  1.6720  0.8477  1.1802
 2152SOL     hw 8607   5.344   4.266   2.258 -0.2126 -0.4888 -1.5084
 2152SOL     vw 8608   5.371   4.346   2.239 -0.5519 -0.0405 -0.1990
 2153SOL     ow 8609   6.487   3.355   0.541  0.5410 -0.6143  0.0772
 2153SOL     hw 8610   6.484   3.381   0.633  1.7585 -2.0838  0.5987
 2153SOL     hw 8611   6.407   3.305   0.527  0.3175 -0.3230  0.3141
 2153SOL     vw 8612   6.476   3.352   0.551  0.6723 -0.7697  0.1773
 2154SOL     ow 8613   0.622   6.792   1.412 -0.9939  0.1550 -0.3714
 2154SOL     hw 8614   0.695   6.735   1.390  0.7036  1.6014  1.2143
 2154SOL     hw 8615   0.623   6.798   1.507 -0.8899  3.0303 -0.4674
 2154SOL     vw 8616   0.632   6.785   1.421 -0.7562  0.7248 -0.1749
 2155SOL     ow 8617   1.998   2.955   3.118 -0.4949 -0.1559  0.5457
 2155SOL     hw 8618   1.942   2.923   3.189 -0.7492  0.1941  0.5042
 2155SOL     hw 8619   2.073   2.995   3.162 -0.3487 -0.4948  0.6051
 2155SOL     vw 8620   2.000   2.956   3.133 -0.5091 -0.1543  0.5481
 2156SOL     ow 8621   5.650   5.384   3.164 -0.2206 -0.1838 -0.5635
 2156SOL     hw 8622   5.586   5.455   3.155 -0.3490 -0.0961  0.8593
 2156SOL     hw 8623   5.628   5.323   3.093  0.4276  1.5685 -2.3478
 2156SOL     vw 8624   5.638   5.385   3.153 -0.1521  0.0589 -0.6111
 2157SOL     ow 8625   6.677   5.654   3.719  0.0631 -0.0339 -0.1142
 2157SOL     hw 8626   6.596   5.674   3.670 -0.3010  0.3470  0.6384
 2157SOL     hw 8627   6.661   5.686   3.807 -0.1775 -2.6875  0.9154
 2157SOL     vw 8628   6.664   5.661   3.724 -0.0169 -0.3340  0.1210
 2158SOL     ow 8629   5.026   3.789   2.497  0.3050  0.2496  0.4880
 2158SOL     hw 8630   5.067   3.759   2.415 -2.3578  0.3670 -1.0122
 2158SOL     hw 8631   5.015   3.883   2.485 -1.4028  0.0627  0.2803
 2158SOL     vw 8632   5.030   3.797   2.484 -0.2716  0.2403  0.2626
 2159SOL     ow 8633   3.719   5.442   2.926  0.1597  1.1415  0.4312
 2159SOL     hw 8634   3.698   5.349   2.924  0.7445  0.8369  3.3206
 2159SOL     hw 8635   3.752   5.461   2.838 -2.5005 -0.6565 -1.1072
 2159SOL     vw 8636   3.721   5.432   2.914 -0.1142  0.8643  0.6094
 2160SOL     ow 8637   3.095   6.148   5.111  0.4679 -0.1694 -0.2750
 2160SOL     hw 8638   3.064   6.104   5.190  1.5735 -1.7835 -0.6902
 2160SOL     hw 8639   3.107   6.239   5.137 -0.4819 -0.3957  1.0335
 2160SOL     vw 8640   3.092   6.154   5.124  0.4885 -0.4120 -0.1569
 2161SOL     ow 8641   6.359   1.109   5.350 -0.5329 -0.1983 -0.0628
 2161SOL     hw 8642   6.412   1.168   5.404  1.8391 -3.1738  1.1761
 2161SOL     hw 8643   6.394   1.119   5.262  1.6567 -1.4444  0.5789
 2161SOL     vw 8644   6.371   1.118   5.346  0.0689 -0.7553  0.1853
 2162SOL     ow 8645   0.119   0.152   6.656  0.6527 -0.0624 -0.0763
 2162SOL     hw 8646   0.080   0.238   6.675  1.7034  0.4658 -0.2185
 2162SOL     hw 8647   0.074   0.092   6.715  0.3473  0.6968  0.4877
 2162SOL     vw 8648   0.108   0.156   6.666  0.7510  0.1075 -0.0205
 2163SOL     ow 8649   4.626   2.040   4.159  0.0652  0.0987  0.4572
 2163SOL     hw 8650   4.669   2.126   4.157  1.2981 -0.5079 -0.2111
 2163SOL     hw 8651   4.628   2.011   4.068 -1.3959 -0.1479  0.4889
 2163SOL     vw 8652   4.632   2.048   4.147  0.0350 -0.0138  0.3729
 2164SOL     ow 8653   2.220   4.400   1.451  0.6001 -0.4241 -0.5476
 2164SOL     hw 8654   2.148   4.341   1.475  0.0661  0.2930 -0.3273
 2164SOL     hw 8655   2.242   4.376   1.361 -0.9409  0.3266 -1.1609
 2164SOL     vw 8656   2.213   4.389   1.443  0.3265 -0.2303 -0.5994
 2165SOL     ow 8657   0.158   1.060   3.158 -0.5451 -0.5177  0.1157
 2165SOL     hw 8658   0.195   0.988   3.106  0.4505  0.1094 -0.0723
 2165SOL     hw 8659   0.072   1.028   3.185 -0.6256 -1.2991 -0.9904
 2165SOL     vw 8660   0.152   1.046   3.155 -0.4244 -0.5381 -0.0551
 2166SOL     ow 8661   5.891   0.965   6.459 -0.3756  0.0065 -0.3804
 2166SOL     hw 8662   5.937   1.023   6.397 -0.4533 -1.2979 -1.7195
 2166SOL     hw 8663   5.834   1.024   6.508  0.6219  1.2701 -0.6629
 2166SOL     vw 8664   5.890   0.981   6.457 -0.2542  0.0011 -0.5946
 2167SOL     ow 8665   2.836   0.917   3.922 -1.0084  0.0475 -0.1003
 2167SOL     hw 8666   2.834   1.011   3.906 -0.5853  0.0853  0.0497
 2167SOL     hw 8667   2.924   0.900   3.955 -0.7720 -0.5500 -1.0098
 2167SOL     vw 8668   2.847   0.927   3.924 -0.9214 -0.0263 -0.2006
 2168SOL     ow 8669   2.512   1.533   7.171 -0.6158 -0.1208 -0.0220
 2168SOL     hw 8670   2.430   1.532   7.221 -0.9360  2.7847 -0.3432
 2168SOL     hw 8671   2.499   1.469   7.102 -2.7254  0.4160 -0.1715
 2168SOL     vw 8672   2.500   1.524   7.169 -0.9363  0.3333 -0.0839
 2169SOL     ow 8673   6.961   3.249   0.636  0.3666 -0.6140 -0.6107
 2169SOL     hw 8674   6.986   3.176   0.581  0.1390 -0.9181 -0.3135
 2169SOL     hw 8675   6.957   3.213   0.725 -1.2917 -0.6302 -0.6619
 2169SOL     vw 8676   6.963   3.235   0.641  0.1178 -0.6564 -0.5783
 2170SOL     ow 8677   0.427   4.559   3.303 -0.6706 -0.7926  0.8712
 2170SOL     hw 8678   0.353   4.511   3.341 -0.8056 -0.6537  0.7862
 2170SOL     hw 8679   0.390   4.643   3.276 -0.5993 -0.9271  0.3396
 2170SOL     vw 8680   0.412   4.563   3.305 -0.6790 -0.7920  0.7899
 2171SOL     ow 8681   4.430   0.545   3.227 -0.1903  0.8128  0.3914
 2171SOL     hw 8682   4.523   0.540   3.206 -0.4016 -1.2725 -0.2680
 2171SOL     hw 8683   4.385   0.523   3.146 -1.1440 -1.8515  1.5360
 2171SOL     vw 8684   4.436   0.542   3.214 -0.3436  0.1861  0.4554
 2172SOL     ow 8685   5.026   6.452   2.045  0.0439  0.1209 -0.1382
 2172SOL     hw 8686   4.990   6.369   2.013 -1.2447  0.5324  0.1764
 2172SOL     hw 8687   4.953   6.513   2.040  1.0315  1.3144 -0.5696
 2172SOL     vw 8688   5.012   6.449   2.040  0.0043  0.3324 -0.1537
 2173SOL     ow 8689   4.411   6.479   6.703  0.0188 -0.6918 -0.0135
 2173SOL     hw 8690   4.483   6.541   6.706 -0.3928 -0.1048 -1.3892
 2173SOL     hw 8691   4.449   6.398   6.669  0.0955 -0.4670 -0.4712
 2173SOL     vw 8692   4.425   6.476   6.699 -0.0253 -0.5846 -0.2556
 2174SOL     ow 8693   0.314   5.928   4.672 -0.6393  0.3080  0.3735
 2174SOL     hw 8694   0.321   6.021   4.649 -0.4225  0.5516  1.3582
 2174SOL     hw 8695   0.235   5.924   4.726  0.0264  0.1517  1.3620
 2174SOL     vw 8696   0.304   5.940   4.676 -0.5229  0.3197  0.6337
 2175SOL     ow 8697   6.231   2.194   2.029  0.0523  0.2152 -0.4442
 2175SOL     hw 8698   6.296   2.251   2.071 -0.6757  1.7661 -1.3301
 2175SOL     hw 8699   6.164   2.182   2.095 -0.1259  0.9970 -0.4680
 2175SOL     vw 8700   6.231   2.200   2.043 -0.0670  0.5230 -0.5642
 2176SOL     ow 8701   0.280   3.290   2.938 -0.1323  0.2268  0.4586
 2176SOL     hw 8702   0.341   3.351   2.980  0.0784  1.2439 -1.2520
 2176SOL     hw 8703   0.336   3.226   2.894 -0.3499 -0.5517  1.2803
 2176SOL     vw 8704   0.295   3.289   2.938 -0.1332  0.2582  0.3413
 2177SOL     ow 8705   7.067   5.775   4.042  0.5173  0.0547  0.1118
 2177SOL     hw 8706   7.007   5.845   4.068 -2.1845 -2.0967  0.1083
 2177SOL     hw 8707   7.153   5.806   4.069 -0.2165  4.1511 -1.4952
 2177SOL     vw 8708   7.070   5.788   4.049  0.0639  0.3111 -0.1006
 2178SOL     ow 8709   0.480   1.396   3.507  0.1772 -0.5472 -0.1073
 2178SOL     hw 8710   0.479   1.378   3.413  0.9478 -0.8334 -0.0671
 2178SOL     hw 8711   0.455   1.489   3.513 -0.2793 -0.6365 -0.5620
 2178SOL     vw 8712   0.476   1.406   3.495  0.2186 -0.5968 -0.1619
 2179SOL     ow 8713   1.580   6.233   2.454  0.5564  0.6371  0.0760
 2179SOL     hw 8714   1.523   6.157   2.444 -0.4230  1.3573  0.1302
 2179SOL     hw 8715   1.667   6.195   2.470  0.1588 -0.4670 -0.3032
 2179SOL     vw 8716   1.584   6.218   2.455  0.3747  0.5863  0.0333
 2180SOL     ow 8717   0.612   1.988   2.054  0.2941 -0.3968 -0.0567
 2180SOL     hw 8718   0.633   1.934   1.978  0.0798  0.1880 -0.5368
 2180SOL     hw 8719   0.528   2.028   2.032  0.8143  0.7402 -0.0375
 2180SOL     vw 8720   0.603   1.986   2.041  0.3344 -0.1697 -0.1175
 2181SOL     ow 8721   5.856   5.930   4.322  0.4307 -0.1657 -0.2199
 2181SOL     hw 8722   5.765   5.905   4.303  0.1898 -1.0165  1.8014
 2181SOL     hw 8723   5.908   5.883   4.258 -0.5730  1.5398 -2.4583
 2181SOL     vw 8724   5.851   5.921   4.311  0.2666 -0.0527 -0.2487
 2182SOL     ow 8725   2.622   5.611   2.744  0.2044  0.1371 -0.0926
 2182SOL     hw 8726   2.614   5.632   2.837 -0.1026 -1.0193  0.1556
 2182SOL     hw 8727   2.645   5.694   2.702  1.4662  0.4425  1.1564
 2182SOL     vw 8728   2.624   5.625   2.750  0.3304  0.0248  0.1050
 2183SOL     ow 8729   0.072   0.042   6.325  0.4979 -0.1011 -0.2884
 2183SOL     hw 8730   0.059   0.099   6.248  0.1798 -0.3912 -0.4550
 2183SOL     hw 8731  -0.008  -0.010   6.329  1.1052 -1.0936 -0.6072
 2183SOL     vw 8732   0.060   0.043   6.315  0.5360 -0.2703 -0.3524
 2184SOL     ow 8733   2.009   5.042   5.322  0.6645 -0.0130  0.5994
 2184SOL     hw 8734   2.063   4.981   5.272 -0.3691 -0.3768 -0.1145
 2184SOL     hw 8735   1.985   4.993   5.401  2.0927  0.4725  1.3588
 2184SOL     vw 8736   2.013   5.027   5.326  0.7166  0.0029  0.6053
 2185SOL     ow 8737   1.324   5.039   7.051  0.1519 -0.0632  0.3301
 2185SOL     hw 8738   1.389   4.977   7.017 -0.8385 -0.5356 -0.7827
 2185SOL     hw 8739   1.265   4.985   7.104 -0.1040  0.1236  0.2351
 2185SOL     vw 8740   1.325   5.024   7.053 -0.0125 -0.1009  0.1709
 2186SOL     ow 8741   2.635   0.334   2.844 -0.3434  0.4418 -0.1061
 2186SOL     hw 8742   2.603   0.287   2.920 -1.4273  0.0737 -0.7648
 2186SOL     hw 8743   2.579   0.304   2.772  1.2357  0.0465 -1.2525
 2186SOL     vw 8744   2.624   0.324   2.844 -0.2781  0.3411 -0.3442
 2187SOL     ow 8745   6.838   2.249   1.462  0.1217 -0.0133 -0.7114
 2187SOL     hw 8746   6.865   2.207   1.543 -1.0178 -2.6180 -1.5768
 2187SOL     hw 8747   6.920   2.269   1.416  0.7123 -0.6908  0.0350
 2187SOL     vw 8748   6.852   2.246   1.466  0.0494 -0.4463 -0.7271
 2188SOL     ow 8749   6.027   6.213   1.915  0.3858  0.5779  0.0103
 2188SOL     hw 8750   5.981   6.267   1.981 -2.7407 -1.9747  0.1832
 2188SOL     hw 8751   6.036   6.127   1.957  1.8481 -0.0847 -1.5625
 2188SOL     vw 8752   6.022   6.209   1.929  0.1664  0.1533 -0.1745
 2189SOL     ow 8753   5.407   0.704   0.442  0.2343 -0.3775 -0.1932
 2189SOL     hw 8754   5.441   0.702   0.532 -2.0459  2.3982  0.8964
 2189SOL     hw 8755   5.460   0.769   0.397  0.0919 -0.3001 -0.2496
 2189SOL     vw 8756   5.418   0.712   0.448 -0.0851 -0.0011 -0.0569
 2190SOL     ow 8757   6.429   0.148   6.232 -0.1247  0.1030 -0.2945
 2190SOL     hw 8758   6.341   0.184   6.224  0.4919  1.7450 -0.1764
 2190SOL     hw 8759   6.486   0.215   6.193  0.9627 -1.5971 -1.8082
 2190SOL     vw 8760   6.425   0.162   6.225  0.1001  0.0953 -0.4785
 2191SOL     ow 8761   0.265   7.012   1.256 -0.3460 -0.5722 -0.3010
 2191SOL     hw 8762   0.314   6.932   1.275 -1.8509 -1.1447  1.4723
 2191SOL     hw 8763   0.321   7.061   1.196  1.8836 -1.6674  0.7645
 2191SOL     vw 8764   0.279   7.008   1.251 -0.2504 -0.7923  0.0736
 2192SOL     ow 8765   0.170   2.370   2.855 -0.2770  0.2383 -0.4849
 2192SOL     hw 8766   0.112   2.435   2.894 -0.4731  1.0693 -2.0416
 2192SOL     hw 8767   0.155   2.379   2.760  1.7509 -0.1198 -0.8894
 2192SOL     vw 8768   0.160   2.380   2.847 -0.0353  0.3005 -0.7437
 2193SOL     ow 8769   0.175   3.365   3.781  0.5900 -0.3771  0.0076
 2193SOL     hw 8770   0.084   3.336   3.790  0.2339  0.4991 -0.6628
 2193SOL     hw 8771   0.198   3.343   3.691  1.5550 -1.9543  0.5993
 2193SOL     vw 8772   0.166   3.358   3.771  0.6703 -0.4698 -0.0027
 2194SOL     ow 8773   4.362   2.544   5.880  0.0926  0.6528  0.0796
 2194SOL     hw 8774   4.406   2.501   5.954  1.5868 -0.4842 -1.3840
 2194SOL     hw 8775   4.425   2.611   5.851  0.4785 -0.3233 -1.4280
 2194SOL     vw 8776   4.376   2.547   5.886  0.3402  0.3740 -0.3123
 2195SOL     ow 8777   4.943   3.514   2.282  0.4754  0.0800  0.0867
 2195SOL     hw 8778   4.902   3.491   2.198 -0.8601  0.7660  0.5244
 2195SOL     hw 8779   5.033   3.537   2.260  0.4021 -0.6456 -1.0297
 2195SOL     vw 8780   4.949   3.514   2.268  0.2894  0.0747 -0.0027
 2196SOL     ow 8781   0.984   2.299   1.678 -0.9006 -0.3702 -0.1256
 2196SOL     hw 8782   1.064   2.271   1.632 -0.4992  0.7837 -0.1812
 2196SOL     hw 8783   0.955   2.376   1.629 -2.6097 -1.3330 -0.6734
 2196SOL     vw 8784   0.991   2.305   1.666 -1.0732 -0.3449 -0.2052
 2197SOL     ow 8785   2.151   4.524   2.218 -0.4240 -0.5035  0.6537
 2197SOL     hw 8786   2.136   4.599   2.276  0.1076 -0.1872  0.3905
 2197SOL     hw 8787   2.244   4.505   2.228 -0.2039 -0.1063 -0.4955
 2197SOL     vw 8788   2.161   4.532   2.227 -0.3250 -0.4094  0.4673
 2198SOL     ow 8789   1.947   4.345   2.232 -0.4603  0.0688 -0.5381
 2198SOL     hw 8790   2.001   4.420   2.258 -0.8945 -0.6242  2.8655
 2198SOL     hw 8791   1.879   4.382   2.176  0.9715  1.6828 -1.2919
 2198SOL     vw 8792   1.945   4.360   2.228 -0.3287  0.1905 -0.1884
 2199SOL     ow 8793   4.372   1.128   1.722 -0.4121 -0.3280  0.4858
 2199SOL     hw 8794   4.376   1.204   1.663  2.0704 -0.6508  0.1359
 2199SOL     hw 8795   4.287   1.089   1.703 -0.3038  0.3817 -1.8962
 2199SOL     vw 8796   4.362   1.133   1.712 -0.0703 -0.2770  0.1252
 2200SOL     ow 8797   3.888   3.511   5.744  0.4912 -0.3208 -0.0085
 2200SOL     hw 8798   3.981   3.498   5.724  1.1023  1.4874  1.3985
 2200SOL     hw 8799   3.882   3.601   5.776 -1.9221 -0.0765 -0.9127
 2200SOL     vw 8800   3.899   3.521   5.746  0.2534 -0.0499  0.0582
 2201SOL     ow 8801   2.894   4.023   0.888  0.0819  0.1261 -0.0211
 2201SOL     hw 8802   2.908   4.045   0.796 -0.1558  1.0007  0.1435
 2201SOL     hw 8803   2.975   3.979   0.915  0.4369  0.5005 -0.4554
 2201SOL     vw 8804   2.906   4.020   0.879  0.0975  0.2909 -0.0567
 2202SOL     ow 8805   1.152   6.994   4.708  0.2700 -0.3622 -0.0534
 2202SOL     hw 8806   1.133   6.901   4.721 -0.9337 -0.1534 -0.2248
 2202SOL     hw 8807   1.078   7.040   4.748  1.1854  0.5585  0.6486
 2202SOL     vw 8808   1.140   6.988   4.715  0.2319 -0.2131  0.0167
 2203SOL     ow 8809   4.208   6.701   5.346 -0.4013  0.5844 -0.7462
 2203SOL     hw 8810   4.295   6.699   5.385 -0.5945  1.0999 -0.2745
 2203SOL     hw 8811   4.154   6.650   5.406 -0.4726  0.4538 -0.9209
 2203SOL     vw 8812   4.212   6.694   5.359 -0.4358  0.6351 -0.7069
 2204SOL     ow 8813   0.155   4.836   1.488  0.1163 -0.4717 -0.4087
 2204SOL     hw 8814   0.133   4.929   1.492  0.0062 -0.4350 -1.5467
 2204SOL     hw 8815   0.119   4.807   1.405 -0.8619 -1.8094  0.4489
 2204SOL     vw 8816   0.148   4.845   1.478 -0.0273 -0.6435 -0.4457
 2205SOL     ow 8817   3.148   4.456   0.798 -0.0410  0.0537 -0.1947
 2205SOL     hw 8818   3.225   4.501   0.832  0.6180 -1.4955  0.4200
 2205SOL     hw 8819   3.080   4.470   0.864 -0.3495  1.4391 -0.7494
 2205SOL     vw 8820   3.149   4.464   0.811  0.0052  0.0322 -0.1868
 2206SOL     ow 8821   5.100   5.166   3.038 -0.1819  0.1473 -0.0489
 2206SOL     hw 8822   5.167   5.135   2.977 -0.8984  0.1740 -0.8798
 2206SOL     hw 8823   5.025   5.108   3.023 -0.8422  1.0076 -0.1828
 2206SOL     vw 8824   5.099   5.154   3.028 -0.3633  0.2644 -0.1761
 2207SOL     ow 8825   2.847   3.737   6.828  0.1127 -0.0428 -0.0400
 2207SOL     hw 8826   2.803   3.681   6.765 -0.2319 -0.9882  0.9888
 2207SOL     hw 8827   2.785   3.744   6.901  0.3554  1.2954  0.0495
 2207SOL     vw 8828   2.833   3.730   6.830  0.0992  0.0089  0.1075
 2208SOL     ow 8829   7.125   0.014   1.465  0.4304  0.5074  0.4915
 2208SOL     hw 8830   7.136   0.042   1.374 -2.7645  0.8506  0.1036
 2208SOL     hw 8831   7.136  -0.081   1.462  1.7918  0.6545  0.0624
 2208SOL     vw 8832   7.128   0.005   1.452  0.1886  0.5721  0.3837
 2209SOL     ow 8833   5.125   1.679   7.045 -0.2926  0.3811 -0.0860
 2209SOL     hw 8834   5.156   1.601   6.999 -0.8341  0.3887 -0.4723
 2209SOL     hw 8835   5.119   1.653   7.136 -0.5910 -0.0684 -0.2297
 2209SOL     vw 8836   5.129   1.666   7.051 -0.4036  0.3228 -0.1559
 2210SOL     ow 8837   6.797   1.430   3.343  0.0079  0.3324  0.1023
 2210SOL     hw 8838   6.826   1.384   3.421 -1.3134  0.3787  0.6454
 2210SOL     hw 8839   6.849   1.510   3.342  0.4381  0.0700  0.6095
 2210SOL     vw 8840   6.808   1.434   3.353 -0.1097  0.3039  0.2409
 2211SOL     ow 8841   0.121   1.421   6.251  0.5968 -0.0215  0.2779
 2211SOL     hw 8842   0.099   1.505   6.292  2.6419  0.2470  0.8963
 2211SOL     hw 8843   0.036   1.387   6.220 -0.8709  0.4839  3.3361
 2211SOL     vw 8844   0.107   1.427   6.252  0.6730  0.0806  0.7629
 2212SOL     ow 8845   6.724   0.011   1.286  0.7667 -0.1333  0.1121
 2212SOL     hw 8846   6.664  -0.057   1.255 -0.3444  1.8753 -2.6257
 2212SOL     hw 8847   6.669   0.068   1.340  0.7582  0.4960 -0.5492
 2212SOL     vw 8848   6.709   0.010   1.289  0.6189  0.2147 -0.3364
 2213SOL     ow 8849   6.052   5.816   6.819  0.2402  0.6748 -0.6828
 2213SOL     hw 8850   6.013   5.855   6.897  0.3645  0.3435 -0.4485
 2213SOL     hw 8851   5.982   5.815   6.754 -0.3714 -0.5516 -0.0527
 2213SOL     vw 8852   6.038   5.821   6.821  0.1757  0.4692 -0.5689
 2214SOL     ow 8853   6.187   5.923   5.817 -0.1073 -0.3887 -0.6267
 2214SOL     hw 8854   6.215   5.987   5.882  0.3862 -0.7593 -0.4622
 2214SOL     hw 8855   6.244   5.939   5.741 -0.6036 -0.0330 -0.9263
 2214SOL     vw 8856   6.198   5.933   5.816 -0.1078 -0.3908 -0.6444
 2215SOL     ow 8857   5.979   1.958   3.542 -0.3332 -0.0642 -0.2660
 2215SOL     hw 8858   6.003   1.871   3.512 -2.1263 -0.5261 -0.4355
 2215SOL     hw 8859   5.933   1.943   3.625  0.1209  0.8024  0.1617
 2215SOL     vw 8860   5.976   1.945   3.549 -0.5102 -0.0108 -0.2320
 2216SOL     ow 8861   2.168   6.931   6.337  0.4021  0.0197  0.7631
 2216SOL     hw 8862   2.171   6.835   6.341 -1.9431 -0.1140  0.6331
 2216SOL     hw 8863   2.229   6.960   6.406  1.3579 -1.5248  0.6242
 2216SOL     vw 8864   2.177   6.922   6.347  0.2187 -0.2017  0.7277
 2217SOL     ow 8865   0.004   6.330   1.668  0.5663 -0.0077 -0.5840
 2217SOL     hw 8866   0.007   6.236   1.652  0.3073 -0.4111  1.4208
 2217SOL     hw 8867  -0.064   6.363   1.610 -1.0375 -1.4825  0.3903
 2217SOL     vw 8868  -0.004   6.322   1.658  0.3202 -0.2553 -0.1909
 2218SOL     ow 8869   3.652   0.407   4.615  1.0337 -0.1138 -0.3718
 2218SOL     hw 8870   3.580   0.439   4.670  0.9095  0.3845 -0.8116
 2218SOL     hw 8871   3.730   0.415   4.670  0.9718  0.7578 -0.3958
 2218SOL     vw 8872   3.652   0.412   4.630  1.0092  0.0670 -0.4330
 2219SOL     ow 8873   1.971   1.645   1.888 -0.2784  0.2630  0.4861
 2219SOL     hw 8874   1.922   1.649   1.971 -0.4942 -1.1796  0.4500
 2219SOL     hw 8875   1.947   1.561   1.850  0.2507  0.6702 -0.7919
 2219SOL     vw 8876   1.962   1.635   1.894 -0.2370  0.1264  0.3127
 2220SOL     ow 8877   0.068   1.955   6.593  0.0760 -0.3355  0.0119
 2220SOL     hw 8878   0.051   2.046   6.616  1.4445 -0.4470  1.6033
 2220SOL     hw 8879   0.097   1.958   6.502  1.1834  0.9660  0.3807
 2220SOL     vw 8880   0.070   1.968   6.584  0.4027 -0.1785  0.2704
 2221SOL     ow 8881   0.923   0.408   0.903  0.2518 -0.0647 -0.3995
 2221SOL     hw 8882   0.987   0.440   0.966 -0.2909 -2.5888  1.5731
 2221SOL     hw 8883   0.855   0.475   0.903  0.0224 -0.1948  2.1556
 2221SOL     vw 8884   0.923   0.421   0.911  0.1499 -0.4149  0.1979
 2222SOL     ow 8885   0.555   0.724   0.368 -0.4455  0.2315  0.0485
 2222SOL     hw 8886   0.534   0.809   0.406 -0.3655  0.7464 -0.9960
 2222SOL     hw 8887   0.634   0.740   0.316  0.4363 -0.8268  1.0098
 2222SOL     vw 8888   0.563   0.737   0.366 -0.3186  0.1598  0.0375
 2223SOL     ow 8889   1.867   2.079   1.461 -0.3006  0.1179 -0.0094
 2223SOL     hw 8890   1.923   2.155   1.445 -0.2230  0.0617 -0.0030
 2223SOL     hw 8891   1.792   2.114   1.509 -1.2863  0.5917 -1.7840
 2223SOL     vw 8892   1.864   2.094   1.465 -0.4205  0.1732 -0.2428
 2224SOL     ow 8893   1.317   5.508   5.330 -0.5756 -0.5381 -0.0802
 2224SOL     hw 8894   1.358   5.584   5.290 -0.1414  0.0107  1.3259
 2224SOL     hw 8895   1.229   5.505   5.294 -1.2850  1.8131  1.2526
 2224SOL     vw 8896   1.311   5.517   5.320 -0.6118 -0.1557  0.2811
 2225SOL     ow 8897   3.038   6.707   3.117  0.1301 -0.0225  0.2101
 2225SOL     hw 8898   2.961   6.669   3.074  0.2869  0.3897 -0.4495
 2225SOL     hw 8899   3.010   6.722   3.207 -0.2571 -0.7558  0.2164
 2225SOL     vw 8900   3.024   6.704   3.123  0.0997 -0.0648  0.1240
 2226SOL     ow 8901   3.088   3.658   0.169  0.6723 -0.0642  0.1074
 2226SOL     hw 8902   3.172   3.639   0.126  0.1334  0.1737 -1.0899
 2226SOL     hw 8903   3.030   3.684   0.097 -0.2057  0.5561  1.0212
 2226SOL     vw 8904   3.092   3.659   0.154  0.4852  0.0490  0.0700
 2227SOL     ow 8905   2.524   3.341   6.824  0.5933 -0.1131  0.2598
 2227SOL     hw 8906   2.492   3.362   6.736  0.9629  0.6079  0.2959
 2227SOL     hw 8907   2.549   3.425   6.862  2.3702 -0.6157  0.3016
 2227SOL     vw 8908   2.523   3.355   6.817  0.8765 -0.0844  0.2701
 2228SOL     ow 8909   0.554   1.660   6.325 -0.2368  0.2662  0.2650
 2228SOL     hw 8910   0.611   1.725   6.366 -1.8613  2.0508 -0.1549
 2228SOL     hw 8911   0.584   1.656   6.234 -0.2672  0.6114  0.2382
 2228SOL     vw 8912   0.565   1.668   6.318 -0.4551  0.5472  0.2060
 2229SOL     ow 8913   2.968   1.565   3.077 -0.3132 -0.3283 -0.3594
 2229SOL     hw 8914   2.895   1.550   3.138 -0.3221 -1.6933 -0.6807
 2229SOL     hw 8915   3.046   1.540   3.126 -0.3621 -1.9030 -1.0254
 2229SOL     vw 8916   2.968   1.560   3.092 -0.3208 -0.7161 -0.4896
 2230SOL     ow 8917   1.019   4.152   6.297  0.9712 -0.1866 -0.0508
 2230SOL     hw 8918   1.046   4.110   6.215 -1.3440 -2.8738  0.4092
 2230SOL     hw 8919   1.052   4.094   6.365  1.1254  0.9411  0.8582
 2230SOL     vw 8920   1.027   4.139   6.295  0.6860 -0.3922  0.1299
 2231SOL     ow 8921   3.075   3.065   6.768  0.0941 -0.2808  0.3432
 2231SOL     hw 8922   3.037   3.132   6.825  0.5045 -0.3988  0.7573
 2231SOL     hw 8923   3.144   3.111   6.719  0.1412 -0.3207  0.3728
 2231SOL     vw 8924   3.079   3.080   6.769  0.1546 -0.3017  0.4015
 2232SOL     ow 8925   6.516   1.959   5.233  0.2462  0.0219 -0.5192
 2232SOL     hw 8926   6.495   2.001   5.317  0.9396  0.7943 -0.7227
 2232SOL     hw 8927   6.449   1.891   5.224 -0.6093  0.7560  0.0559
 2232SOL     vw 8928   6.504   1.955   5.243  0.2251  0.2207 -0.4702
 2233SOL     ow 8929   5.151   2.318   0.712 -0.2964 -0.0946  0.1153
 2233SOL     hw 8930   5.122   2.293   0.624 -0.4893 -0.1434  0.1926
 2233SOL     hw 8931   5.093   2.389   0.737 -1.2056 -1.0636  0.7964
 2233SOL     vw 8932   5.140   2.324   0.703 -0.4418 -0.2288  0.2154
 2234SOL     ow 8933   0.087   5.734   1.135 -0.6073  0.1245  0.2830
 2234SOL     hw 8934   0.113   5.823   1.112 -1.8743  0.3342 -0.3826
 2234SOL     hw 8935   0.147   5.709   1.205  1.6857  0.4209 -1.4484
 2234SOL     vw 8936   0.099   5.742   1.141 -0.4719  0.1912 -0.0332
 2235SOL     ow 8937   2.389   7.150   5.409  0.4658 -0.0636 -0.8516
 2235SOL     hw 8938   2.477   7.115   5.398 -0.4686 -3.5817  1.2047
 2235SOL     hw 8939   2.332   7.074   5.400 -1.9068  1.0566  2.6945
 2235SOL     vw 8940   2.393   7.135   5.407  0.0294 -0.3798 -0.1123
 2236SOL     ow 8941   6.032   2.208   1.786 -0.0188  0.4342  0.6174
 2236SOL     hw 8942   5.998   2.121   1.771  0.9631  0.2968 -1.0304
 2236SOL     hw 8943   6.114   2.194   1.834  0.4664  0.3759 -0.2016
 2236SOL     vw 8944   6.039   2.195   1.790  0.1745  0.4083  0.2919
 2237SOL     ow 8945   4.683   0.240   0.502  0.0831  0.3484 -0.7037
 2237SOL     hw 8946   4.630   0.315   0.529 -2.2503 -1.3547 -0.2184
 2237SOL     hw 8947   4.768   0.278   0.478 -0.6831  3.0020  0.3834
 2237SOL     vw 8948   4.687   0.255   0.503 -0.3259  0.4738 -0.4963
 2238SOL     ow 8949   4.012   1.936   2.141 -0.0215 -0.1992 -0.0708
 2238SOL     hw 8950   4.102   1.907   2.122 -0.4787 -0.5588 -1.9258
 2238SOL     hw 8951   3.957   1.861   2.119 -1.0204  1.1427 -2.5179
 2238SOL     vw 8952   4.017   1.923   2.135 -0.2136 -0.0696 -0.6384
 2239SOL     ow 8953   1.749   0.706   0.595 -0.9164 -0.3771  0.3128
 2239SOL     hw 8954   1.808   0.762   0.646 -0.7351 -0.1363 -0.1506
 2239SOL     hw 8955   1.674   0.691   0.653  1.0254 -3.5195  2.2793
 2239SOL     vw 8956   1.747   0.712   0.610 -0.6363 -0.7600  0.5111
 2240SOL     ow 8957   0.792   4.406   0.459 -0.3106  0.0022 -0.2531
 2240SOL     hw 8958   0.827   4.339   0.519  0.5609  1.8958  1.4802
 2240SOL     hw 8959   0.699   4.386   0.454 -0.1287 -1.1673  0.4630
 2240SOL     vw 8960   0.784   4.394   0.466 -0.1716  0.0975  0.0701
 2241SOL     ow 8961   4.811   2.323   6.875  1.0125  0.0878  0.0322
 2241SOL     hw 8962   4.778   2.349   6.962  1.0286  0.7709 -0.1605
 2241SOL     hw 8963   4.886   2.380   6.861  0.7629  0.2613 -0.6059
 2241SOL     vw 8964   4.816   2.334   6.885  0.9818  0.2009 -0.0772
 2242SOL     ow 8965   6.729   7.028   3.826 -0.2594  0.1600  0.0645
 2242SOL     hw 8966   6.701   7.107   3.780  0.2615  0.1709 -0.2536
 2242SOL     hw 8967   6.788   6.984   3.764 -0.0900 -0.1817  0.4589
 2242SOL     vw 8968   6.733   7.033   3.812 -0.1683  0.1163  0.0746
 2243SOL     ow 8969   3.122   0.477   0.265  0.1012  0.3177 -0.3527
 2243SOL     hw 8970   3.171   0.532   0.204 -1.0385 -0.3874 -1.9854
 2243SOL     hw 8971   3.166   0.392   0.262  0.0002  0.2611 -0.2431
 2243SOL     vw 8972   3.134   0.473   0.257 -0.0625  0.2172 -0.5537
 2244SOL     ow 8973   1.213   6.911   5.281 -0.4013 -0.1636 -0.3050
 2244SOL     hw 8974   1.203   6.999   5.317 -0.5859 -0.2217 -0.2157
 2244SOL     hw 8975   1.302   6.885   5.306 -0.3440  0.0000 -0.3387
 2244SOL     vw 8976   1.223   6.919   5.289 -0.4181 -0.1497 -0.2975
 2245SOL     ow 8977   5.572   6.530   5.740 -0.4619  0.6405 -0.6816
 2245SOL     hw 8978   5.503   6.581   5.783  0.7869 -0.0986  2.5188
 2245SOL     hw 8979   5.623   6.494   5.813  1.6423 -1.1214 -2.8802
 2245SOL     vw 8980   5.569   6.532   5.755 -0.0196  0.3107 -0.5493
 2246SOL     ow 8981   4.124   4.365   3.379 -0.7157 -0.1806 -0.3655
 2246SOL     hw 8982   4.048   4.398   3.331 -0.2192  2.1118  0.2741
 2246SOL     hw 8983   4.199   4.409   3.339  0.4398 -2.8956 -1.4228
 2246SOL     vw 8984   4.124   4.375   3.367 -0.4978 -0.2365 -0.4206
 2247SOL     ow 8985   3.232   6.279   1.846 -0.7445  0.7141  0.3557
 2247SOL     hw 8986   3.187   6.241   1.771  0.0099 -0.0995  0.2971
 2247SOL     hw 8987   3.325   6.269   1.825 -0.5304  1.0915  1.0994
 2247SOL     vw 8988   3.238   6.273   1.833 -0.6167  0.6566  0.4461
 2248SOL     ow 8989   6.635   1.465   6.666  0.2838 -0.2444  0.0605
 2248SOL     hw 8990   6.594   1.549   6.685 -1.5976 -1.4665  1.8156
 2248SOL     hw 8991   6.633   1.458   6.570  0.4218  1.6306 -0.1109
 2248SOL     vw 8992   6.629   1.475   6.656  0.0536 -0.1583  0.2694
 2249SOL     ow 8993   6.736   2.141   1.927  0.1666 -0.0138  0.0342
 2249SOL     hw 8994   6.663   2.178   1.878  2.0001  0.7210 -2.3072
 2249SOL     hw 8995   6.758   2.060   1.880  2.9877  1.5204 -1.5421
 2249SOL     vw 8996   6.729   2.135   1.915  0.7806  0.2855 -0.4827
 2250SOL     ow 8997   0.575   1.372   2.742 -0.0829  0.5710  0.1283
 2250SOL     hw 8998   0.576   1.284   2.780  0.5421 -0.1303 -1.4115
 2250SOL     hw 8999   0.636   1.366   2.668 -1.3960  1.8074 -1.0956
 2250SOL     vw 9000   0.583   1.359   2.737 -0.1737  0.6416 -0.2364
 2251SOL     ow 9001   2.826   6.378   1.575 -0.1635  0.2788 -0.0466
 2251SOL     hw 9002   2.808   6.371   1.669  0.3573  2.4058  0.2726
 2251SOL     hw 9003   2.740   6.376   1.533 -0.4700  0.2737  0.5751
 2251SOL     vw 9004   2.812   6.377   1.582 -0.1353  0.5586  0.0776
 2252SOL     ow 9005   2.892   0.112   4.088 -0.3306  0.1678 -0.2050
 2252SOL     hw 9006   2.832   0.108   4.162 -0.5479 -0.8219 -0.4164
 2252SOL     hw 9007   2.916   0.020   4.072 -0.7507  0.3020 -1.7376
 2252SOL     vw 9008   2.888   0.099   4.096 -0.4147  0.0550 -0.4351
 2253SOL     ow 9009   5.300   6.750   5.548  0.4371  0.1492  0.5693
 2253SOL     hw 9010   5.267   6.732   5.636  0.4739 -1.6024  0.2447
 2253SOL     hw 9011   5.243   6.699   5.490  0.8153  0.7776 -0.3777
 2253SOL     vw 9012   5.288   6.741   5.552  0.4919  0.0012  0.4015
 2254SOL     ow 9013   3.627   2.197   0.093  0.0829  0.2524  0.6057
 2254SOL     hw 9014   3.563   2.257   0.055 -0.5436 -0.8959 -0.2478
 2254SOL     hw 9015   3.596   2.110   0.066  2.5332 -0.3041 -0.7273
 2254SOL     vw 9016   3.614   2.193   0.084  0.3235  0.0274  0.3172
 2255SOL     ow 9017   0.681   1.698   6.097 -0.1818  0.2114 -0.6165
 2255SOL     hw 9018   0.758   1.653   6.062  0.9731  0.7561  1.1011
 2255SOL     hw 9019   0.675   1.779   6.046  0.2565  0.0600 -0.9108
 2255SOL     vw 9020   0.690   1.703   6.086  0.0284  0.2633 -0.4287
 2256SOL     ow 9021   1.664   0.282   5.050 -0.3661  0.8115 -0.6374
 2256SOL     hw 9022   1.673   0.369   5.010  0.2139  1.9829  1.8559
 2256SOL     hw 9023   1.710   0.289   5.133 -1.5053 -1.4849  0.2738
 2256SOL     vw 9024   1.671   0.295   5.056 -0.4398  0.6631 -0.1881
 2257SOL     ow 9025   1.643   1.031   6.464 -0.0597  0.8426  0.2945
 2257SOL     hw 9026   1.677   1.118   6.442 -0.8355  1.2760  0.7311
 2257SOL     hw 9027   1.591   1.006   6.388  0.4642  0.5941  0.0157
 2257SOL     vw 9028   1.640   1.039   6.451 -0.0929  0.8671  0.3150
 2258SOL     ow 9029   2.000   0.297   1.634 -0.3944 -0.5498 -0.4217
 2258SOL     hw 9030   1.962   0.267   1.716  0.1674 -1.2159 -0.3918
 2258SOL     hw 9031   1.925   0.316   1.577 -0.7748 -1.7212 -0.3327
 2258SOL     vw 9032   1.985   0.295   1.637 -0.3704 -0.7922 -0.4060
 2259SOL     ow 9033   2.339   5.031   2.543 -0.0511 -0.1080 -0.2393
 2259SOL     hw 9034   2.252   4.990   2.544 -0.6447  1.0822 -0.5306
 2259SOL     hw 9035   2.383   4.995   2.620 -1.5239  0.7163  1.0473
 2259SOL     vw 9036   2.333   5.021   2.553 -0.3238  0.1576 -0.1079
 2260SOL     ow 9037   1.745   0.006   5.015  0.0291  0.3404 -0.3893
 2260SOL     hw 9038   1.734   0.099   5.034  0.7827  0.1468  1.0595
 2260SOL     hw 9039   1.801  -0.028   5.085 -2.3581 -1.7695  0.6646
 2260SOL     vw 9040   1.751   0.014   5.026 -0.1864  0.0365 -0.0591
 2261SOL     ow 9041   4.079   5.992   1.321  0.2948 -0.7060  0.2270
 2261SOL     hw 9042   4.158   5.943   1.300  0.5904 -1.2445  2.3357
 2261SOL     hw 9043   4.026   5.932   1.374 -2.1810 -0.8167 -2.1057
 2261SOL     vw 9044   4.082   5.978   1.325  0.0069 -0.7915  0.1975
 2262SOL     ow 9045   0.547   3.317   1.297  0.3350 -0.0661  0.2020
 2262SOL     hw 9046   0.640   3.315   1.275  0.4383  0.1004  0.6148
 2262SOL     hw 9047   0.518   3.226   1.288  0.3756 -0.0164 -0.5852
 2262SOL     vw 9048   0.555   3.305   1.293  0.3540 -0.0376  0.1527
 2263SOL     ow 9049   2.424   6.796   0.273  0.0187 -0.8422  0.0877
 2263SOL     hw 9050   2.439   6.718   0.326 -0.2461  0.9569  3.0259
 2263SOL     hw 9051   2.512   6.832   0.260  0.0145 -0.8517  0.0346
 2263SOL     vw 9052   2.438   6.791   0.278 -0.0167 -0.6061  0.4683
 2264SOL     ow 9053   7.169   4.459   0.667  0.0844  0.0125 -0.1716
 2264SOL     hw 9054   7.224   4.462   0.588 -0.4279  0.7093 -0.5066
 2264SOL     hw 9055   7.102   4.394   0.647  0.3335 -0.2778 -0.0628
 2264SOL     vw 9056   7.168   4.451   0.654  0.0498  0.0663 -0.2015
 2265SOL     ow 9057   3.419   6.819   4.498  0.1489 -0.3433  0.1554
 2265SOL     hw 9058   3.424   6.801   4.592 -3.1853 -0.8357  0.3559
 2265SOL     hw 9059   3.414   6.915   4.493 -0.8380 -0.3532  0.6257
 2265SOL     vw 9060   3.419   6.829   4.510 -0.4212 -0.4094  0.2439
 2266SOL     ow 9061   7.154   6.246   0.536 -0.6651 -0.7211  0.0502
 2266SOL     hw 9062   7.183   6.158   0.513 -1.2680 -0.6660 -0.9754
 2266SOL     hw 9063   7.060   6.246   0.518 -0.8361 -0.1363  0.9010
 2266SOL     vw 9064   7.146   6.235   0.531 -0.7672 -0.6366  0.0272
 2267SOL     ow 9065   2.734   2.823   3.832  0.1819 -0.1118  0.2076
 2267SOL     hw 9066   2.661   2.762   3.834 -0.5180  0.6498 -1.1389
 2267SOL     hw 9067   2.729   2.869   3.916 -1.3914  0.5137 -0.2112
 2267SOL     vw 9068   2.724   2.821   3.844 -0.1179  0.0712 -0.0253
 2268SOL     ow 9069   4.712   6.427   1.596 -0.0352  0.3696 -0.0905
 2268SOL     hw 9070   4.754   6.437   1.511  1.0256  0.1972  0.3991
 2268SOL     hw 9071   4.712   6.515   1.633  3.6263 -0.1491  1.5867
 2268SOL     vw 9072   4.718   6.440   1.589  0.5877  0.2785  0.1954
 2269SOL     ow 9073   1.349   3.049   0.178  0.5039  0.4225  0.2951
 2269SOL     hw 9074   1.346   3.004   0.262 -0.6116  0.5407  0.3421
 2269SOL     hw 9075   1.313   3.136   0.197  1.3370  0.8605 -0.0777
 2269SOL     vw 9076   1.344   3.055   0.192  0.4666  0.4959  0.2521
 2270SOL     ow 9077   3.132   0.341   0.680 -0.0253  0.6822  0.1661
 2270SOL     hw 9078   3.209   0.298   0.717 -1.3696  0.4731  3.0274
 2270SOL     hw 9079   3.087   0.272   0.631  1.2013  0.6409 -0.9548
 2270SOL     vw 9080   3.136   0.326   0.679 -0.0408  0.6492  0.3957
 2271SOL     ow 9081   1.905   5.416   0.101  0.1418 -0.1373  0.3901
 2271SOL     hw 9082   1.912   5.508   0.075 -0.0437 -0.3147 -0.3168
 2271SOL     hw 9083   1.994   5.382   0.095  0.2915  0.1017  1.1007
 2271SOL     vw 9084   1.918   5.424   0.097  0.1370 -0.1292  0.3906
 2272SOL     ow 9085   2.096   6.111   0.904 -0.1788  0.4906  0.0550
 2272SOL     hw 9086   2.072   6.204   0.901  0.2722  0.5789 -1.3964
 2272SOL     hw 9087   2.177   6.105   0.854  0.0710 -0.6169  0.5650
 2272SOL     vw 9088   2.103   6.122   0.897 -0.0863  0.3562 -0.0692
 2273SOL     ow 9089   5.778   1.646   4.347 -0.4345 -0.5902 -0.2884
 2273SOL     hw 9090   5.842   1.713   4.369  0.2706 -1.1574 -0.5871
 2273SOL     hw 9091   5.730   1.631   4.429  0.4533 -0.8528  0.1931
 2273SOL     vw 9092   5.780   1.653   4.361 -0.2244 -0.6996 -0.2644
 2274SOL     ow 9093   2.141   6.969   3.166 -0.3458 -0.6426 -0.1301
 2274SOL     hw 9094   2.098   6.907   3.225  0.0610  1.5231  2.7022
 2274SOL     hw 9095   2.234   6.955   3.179 -0.2503  0.2635  0.2753
 2274SOL     vw 9096   2.147   6.959   3.176 -0.2795 -0.2377  0.2971
 2275SOL     ow 9097   0.115   5.075   1.601 -0.0383 -0.0316 -0.1655
 2275SOL     hw 9098   0.211   5.072   1.610  0.0088  2.5332  0.9473
 2275SOL     hw 9099   0.097   5.160   1.562 -1.8724 -0.7183 -0.9196
 2275SOL     vw 9100   0.126   5.085   1.597 -0.2740  0.2160 -0.1181
 2276SOL     ow 9101   1.470   1.305   6.221  0.0093  0.3879 -0.5138
 2276SOL     hw 9102   1.419   1.361   6.163 -0.2097  1.0831  0.3267
 2276SOL     hw 9103   1.554   1.294   6.176 -0.8538 -0.7656 -1.9068
 2276SOL     vw 9104   1.475   1.311   6.208 -0.1334  0.3274 -0.5867
 2277SOL     ow 9105   6.078   0.562   6.314 -0.1865  0.1152  0.1812
 2277SOL     hw 9106   6.012   0.599   6.373 -0.4465 -0.1544  0.0676
 2277SOL     hw 9107   6.154   0.619   6.323 -1.4454  2.2929 -1.9353
 2277SOL     vw 9108   6.079   0.574   6.323 -0.3867  0.3669 -0.1132
 2278SOL     ow 9109   5.663   7.157   1.819 -0.2179 -0.0830 -0.3944
 2278SOL     hw 9110   5.707   7.239   1.844 -0.1858 -0.3447  0.4161
 2278SOL     hw 9111   5.698   7.091   1.879 -0.0489 -0.7564 -1.2108
 2278SOL     vw 9112   5.674   7.159   1.830 -0.1917 -0.2065 -0.3952
 2279SOL     ow 9113   2.827   4.869   1.821 -0.4190 -0.2359  0.1190
 2279SOL     hw 9114   2.766   4.810   1.776  0.7482 -1.7355  0.4617
 2279SOL     hw 9115   2.771   4.920   1.880 -1.4998 -0.7132 -0.4657
 2279SOL     vw 9116   2.811   4.868   1.823 -0.4076 -0.4966  0.0871
 2280SOL     ow 9117   1.779   6.552   4.603  0.3556  0.4169  0.8905
 2280SOL     hw 9118   1.783   6.500   4.684  1.8010 -0.4291  0.3275
 2280SOL     hw 9119   1.870   6.575   4.585  0.3688 -1.1398 -1.5561
 2280SOL     vw 9120   1.792   6.548   4.611  0.5481  0.0999  0.4935
 2281SOL     ow 9121   6.580   7.184   2.625 -0.5957 -0.1720 -0.7333
 2281SOL     hw 9122   6.637   7.175   2.701  0.4766 -1.3774 -1.6153
 2281SOL     hw 9123   6.492   7.174   2.659 -0.0549 -4.3517  0.0193
 2281SOL     vw 9124   6.576   7.181   2.639 -0.3831 -0.8825 -0.7503
 2282SOL     ow 9125   0.083   5.772   0.615  0.0396 -0.2731 -0.3517
 2282SOL     hw 9126   0.072   5.830   0.539  2.2437 -1.3491 -1.5820
 2282SOL     hw 9127   0.163   5.723   0.597 -0.2169 -1.7135  1.9671
 2282SOL     vw 9128   0.092   5.774   0.603  0.2965 -0.6049 -0.2081
 2283SOL     ow 9129   1.502   2.660   3.921  0.5999 -0.7598  0.6365
 2283SOL     hw 9130   1.568   2.690   3.983  1.8783  0.6754 -1.3208
 2283SOL     hw 9131   1.435   2.728   3.921  0.9878 -0.3672 -0.0965
 2283SOL     vw 9132   1.502   2.673   3.929  0.8197 -0.5186  0.2816
 2284SOL     ow 9133   4.238   5.581   4.060  0.0896  0.1412  0.0041
 2284SOL     hw 9134   4.276   5.499   4.091 -2.7943  0.0029  3.9572
 2284SOL     hw 9135   4.252   5.580   3.965  5.6250 -1.8337  0.4646
 2284SOL     vw 9136   4.245   5.570   4.052  0.4394 -0.1376  0.5865
 2285SOL     ow 9137   3.440   4.959   6.223 -0.0655  0.6946  0.1009
 2285SOL     hw 9138   3.344   4.957   6.224 -0.1152 -0.0930 -1.5007
 2285SOL     hw 9139   3.466   4.894   6.288 -0.6785 -0.4831 -0.7946
 2285SOL     vw 9140   3.430   4.950   6.231 -0.1531  0.4354 -0.2284
 2286SOL     ow 9141   1.607   4.243   6.409  0.1662 -0.4037  0.2351
 2286SOL     hw 9142   1.517   4.272   6.393 -0.0157 -0.5575  0.9357
 2286SOL     hw 9143   1.615   4.242   6.504  0.7542 -0.8682  0.1855
 2286SOL     vw 9144   1.596   4.246   6.419  0.2198 -0.4852  0.3207
 2287SOL     ow 9145   2.607   4.775   6.482 -0.1754  0.2341 -0.4912
 2287SOL     hw 9146   2.609   4.682   6.457 -0.3116 -0.7059  2.6204
 2287SOL     hw 9147   2.530   4.810   6.438  0.7941 -0.6327 -3.0793
 2287SOL     vw 9148   2.597   4.767   6.473 -0.0653 -0.0043 -0.4222
 2288SOL     ow 9149   6.443   5.903   1.072 -0.5240  0.5478 -0.4885
 2288SOL     hw 9150   6.470   5.876   1.160  0.3284  1.9480 -0.2912
 2288SOL     hw 9151   6.477   5.834   1.014 -0.1032  0.1873  0.1739
 2288SOL     vw 9152   6.451   5.890   1.076 -0.3562  0.6847 -0.3751
 2289SOL     ow 9153   5.030   1.137   4.026 -0.3183 -0.2748  0.4249
 2289SOL     hw 9154   5.006   1.045   4.009  1.6261 -0.8704  0.6515
 2289SOL     hw 9155   5.125   1.139   4.014 -0.5169  2.1509 -1.5064
 2289SOL     vw 9156   5.039   1.125   4.022 -0.0880 -0.0333  0.1998
 2290SOL     ow 9157   3.607   1.666   7.002  0.1415  0.6718  0.3795
 2290SOL     hw 9158   3.571   1.634   7.085 -0.9592 -0.1133 -0.3719
 2290SOL     hw 9159   3.598   1.761   7.008  1.1775  0.7141  1.6312
 2290SOL     vw 9160   3.601   1.674   7.014  0.1329  0.5738  0.4456
 2291SOL     ow 9161   4.883   1.010   0.006 -0.0331 -0.0126  0.9065
 2291SOL     hw 9162   4.940   1.031  -0.067 -0.5147  0.2158  0.5942
 2291SOL     hw 9163   4.938   1.020   0.083  0.2013  0.7303  0.6471
 2291SOL     vw 9164   4.897   1.014   0.007 -0.0658  0.1156  0.8311
 2292SOL     ow 9165   6.425   0.136   6.520 -0.0259  0.0495 -0.3399
 2292SOL     hw 9166   6.512   0.106   6.549  0.0633 -0.6611 -1.3012
 2292SOL     hw 9167   6.435   0.154   6.427 -1.3406 -1.8085 -0.8971
 2292SOL     vw 9168   6.438   0.134   6.512 -0.1879 -0.2894 -0.5403
 2293SOL     ow 9169   0.652   2.450   3.149 -0.0550  0.5914  0.1318
 2293SOL     hw 9170   0.700   2.497   3.080  1.2367  1.2134  1.4079
 2293SOL     hw 9171   0.562   2.481   3.140 -0.2978 -0.5732 -2.2897
 2293SOL     vw 9172   0.647   2.461   3.139  0.0834  0.5200 -0.0192
 2294SOL     ow 9173   2.120   1.799   1.660 -0.0910 -0.0965 -0.1523
 2294SOL     hw 9174   2.161   1.724   1.616  0.0367  0.7656 -1.5975
 2294SOL     hw 9175   2.028   1.795   1.633 -0.0247  0.4103 -0.4667
 2294SOL     vw 9176   2.113   1.789   1.650 -0.0653  0.0841 -0.3844
 2295SOL     ow 9177   4.764   3.586   4.228 -0.1269  0.0584  0.5231
 2295SOL     hw 9178   4.824   3.586   4.302 -0.4695  1.4079  0.8249
 2295SOL     hw 9179   4.743   3.493   4.215  0.3875 -0.2543  1.7389
 2295SOL     vw 9180   4.769   3.573   4.236 -0.1047  0.1951  0.7234
 2296SOL     ow 9181   6.873   2.468   1.584  0.2955 -0.2734  0.3699
 2296SOL     hw 9182   6.816   2.535   1.546  1.7375  0.4312 -0.6816
 2296SOL     hw 9183   6.865   2.393   1.524 -0.6654 -0.7446  1.0711
 2296SOL     vw 9184   6.865   2.467   1.571  0.3588 -0.2427  0.3237
 2297SOL     ow 9185   1.445   1.067   6.660 -0.1057 -0.5216 -0.1347
 2297SOL     hw 9186   1.494   1.070   6.742 -0.7853  1.1578  0.2506
 2297SOL     hw 9187   1.511   1.082   6.592 -0.0275  1.7932  0.3815
 2297SOL     vw 9188   1.460   1.069   6.661 -0.1850  0.0054 -0.0157
 2298SOL     ow 9189   3.629   0.768   0.583 -0.4246 -0.0647 -0.1018
 2298SOL     hw 9190   3.651   0.856   0.615 -1.6509  0.3895 -0.4317
 2298SOL     hw 9191   3.567   0.734   0.647  1.6441 -1.6052  1.2047
 2298SOL     vw 9192   3.624   0.775   0.596 -0.3135 -0.2080  0.0270
 2299SOL     ow 9193   2.771   4.275   0.933 -0.3269 -0.2774 -0.4142
 2299SOL     hw 9194   2.810   4.193   0.964 -0.8628 -1.2816 -2.2566
 2299SOL     hw 9195   2.758   4.262   0.840  0.0840  2.1447 -0.8939
 2299SOL     vw 9196   2.775   4.263   0.925 -0.3433 -0.0904 -0.7206
 2300SOL     ow 9197   6.429   3.893   5.447 -0.1162  0.0198 -0.4726
 2300SOL     hw 9198   6.361   3.874   5.381 -0.0447  0.6050 -0.7213
 2300SOL     hw 9199   6.511   3.889   5.398 -0.0497  0.2977 -0.3834
 2300SOL     vw 9200   6.431   3.890   5.432 -0.0980  0.1339 -0.4935
 2301SOL     ow 9201   6.979   4.034   2.491  0.1236 -0.0567  0.2697
 2301SOL     hw 9202   6.902   4.020   2.545  1.0207  0.4898  1.7604
 2301SOL     hw 9203   7.001   3.947   2.456 -0.0096 -0.5719  1.4473
 2301SOL     vw 9204   6.972   4.021   2.493  0.2244 -0.0525  0.6217
 2302SOL     ow 9205   6.051   0.458   1.869  0.1866  0.2171 -0.9791
 2302SOL     hw 9206   6.049   0.376   1.919 -2.0111  0.4007 -0.6877
 2302SOL     hw 9207   6.031   0.433   1.779 -2.6370  0.6021 -0.5265
 2302SOL     vw 9208   6.048   0.444   1.864 -0.4761  0.2921 -0.8808
 2303SOL     ow 9209   6.401   4.573   2.172  0.0977  0.1695  0.4418
 2303SOL     hw 9210   6.406   4.621   2.090 -0.6843  1.4047  1.0882
 2303SOL     hw 9211   6.426   4.484   2.149  2.0343  0.9501 -0.7073
 2303SOL     vw 9212   6.405   4.568   2.158  0.2501  0.4354  0.3755
 2304SOL     ow 9213   3.240   2.362   5.344  0.0447 -0.0072  0.1753
 2304SOL     hw 9214   3.255   2.268   5.349  0.5820 -0.0043 -0.9311
 2304SOL     hw 9215   3.246   2.393   5.434  1.8142 -0.7601  0.3476
 2304SOL     vw 9216   3.243   2.354   5.357  0.3492 -0.1061  0.0520
 2305SOL     ow 9217   1.503   5.567   3.286 -0.1031 -0.3314 -0.5497
 2305SOL     hw 9218   1.552   5.649   3.282  0.1551 -0.4913 -0.6783
 2305SOL     hw 9219   1.417   5.592   3.319 -0.6038  0.2439 -2.2415
 2305SOL     vw 9220   1.498   5.581   3.290 -0.1351 -0.2768 -0.7899
 2306SOL     ow 9221   2.296   0.948   1.669  0.1895 -0.1484  0.1313
 2306SOL     hw 9222   2.211   0.992   1.671  0.1816 -0.1111 -0.7048
 2306SOL     hw 9223   2.359   1.016   1.696  0.1227  0.2542 -0.7057
 2306SOL     vw 9224   2.293   0.963   1.673  0.1798 -0.0904 -0.0894
 2307SOL     ow 9225   3.110   5.588   3.955 -0.2166 -0.0117  0.0046
 2307SOL     hw 9226   3.120   5.630   4.040 -0.2112  4.6625 -2.0068
 2307SOL     hw 9227   3.184   5.527   3.949  1.0252  1.1148  2.4958
 2307SOL     vw 9228   3.121   5.586   3.966 -0.0521  0.7536  0.0678
 2308SOL     ow 9229   2.805   0.830   2.430  0.3323 -0.2245 -0.0368
 2308SOL     hw 9230   2.823   0.787   2.513  1.2985 -1.4724 -0.8520
 2308SOL     hw 9231   2.823   0.923   2.446  3.0678 -0.7476  0.5115
 2308SOL     vw 9232   2.810   0.837   2.443  0.8206 -0.4582 -0.0719
 2309SOL     ow 9233   1.691   1.961   3.185  0.0766 -0.2947  0.0592
 2309SOL     hw 9234   1.647   1.904   3.122  0.5676  0.0408 -0.6045
 2309SOL     hw 9235   1.785   1.952   3.165  0.6421 -2.9293  3.0474
 2309SOL     vw 9236   1.698   1.952   3.174  0.2159 -0.5981  0.3661
 2310SOL     ow 9237   4.012   2.223   4.403 -0.1878  0.2884 -0.3326
 2310SOL     hw 9238   4.100   2.214   4.438  1.1072  2.6516 -2.5695
 2310SOL     hw 9239   4.004   2.153   4.338  0.1247  0.1575 -0.2294
 2310SOL     vw 9240   4.022   2.213   4.399  0.0243  0.5829 -0.6142
 2311SOL     ow 9241   3.460   5.458   1.787 -0.5582  0.7287  0.1821
 2311SOL     hw 9242   3.536   5.516   1.789 -0.6517  0.8467  0.2654
 2311SOL     hw 9243   3.441   5.441   1.879 -0.7407  0.8385  0.1639
 2311SOL     vw 9244   3.468   5.463   1.799 -0.5946  0.7586  0.1906
 2312SOL     ow 9245   6.304   5.669   6.791 -0.3396 -0.2024  0.4850
 2312SOL     hw 9246   6.362   5.618   6.735  0.1439  0.5986  0.2354
 2312SOL     hw 9247   6.244   5.605   6.829 -0.5614 -0.7929 -0.7983
 2312SOL     vw 9248   6.304   5.654   6.788 -0.3049 -0.1745  0.2828
 2313SOL     ow 9249   6.420   1.601   4.051  0.4078 -0.0396  0.2228
 2313SOL     hw 9250   6.370   1.607   4.132 -1.7569  0.7733 -1.0808
 2313SOL     hw 9251   6.451   1.511   4.049 -0.6972 -0.4833  1.2959
 2313SOL     vw 9252   6.417   1.590   4.061 -0.0234  0.0091  0.1922
 2314SOL     ow 9253   4.342   4.512   3.306 -0.3331 -0.6386 -0.2210
 2314SOL     hw 9254   4.375   4.499   3.217 -0.0876  2.5135 -0.6764
 2314SOL     hw 9255   4.335   4.606   3.316  0.4990 -0.8235  3.4420
 2314SOL     vw 9256   4.345   4.522   3.295 -0.1907 -0.2470  0.2023
 2315SOL     ow 9257   1.543   3.981   5.566 -0.1596  0.0863  0.3154
 2315SOL     hw 9258   1.592   3.903   5.539  0.2205  0.8514 -1.3561
 2315SOL     hw 9259   1.500   3.956   5.647 -1.2194 -2.3480 -0.9072
 2315SOL     vw 9260   1.544   3.968   5.573 -0.2493 -0.1340 -0.0663
 2316SOL     ow 9261   7.065   0.424   5.038  0.1206  0.3760 -0.3287
 2316SOL     hw 9262   6.978   0.385   5.046  0.4019 -0.1707  0.1148
 2316SOL     hw 9263   7.050   0.506   4.990 -0.5050 -0.1379 -1.0229
 2316SOL     vw 9264   7.052   0.430   5.033  0.0753  0.2361 -0.3619
 2317SOL     ow 9265   2.253   1.746   3.548 -0.4196  0.2613  0.0284
 2317SOL     hw 9266   2.287   1.744   3.459 -0.0517  0.4150  0.1662
 2317SOL     hw 9267   2.329   1.729   3.604 -0.3883  1.4962  0.3885
 2317SOL     vw 9268   2.267   1.743   3.544 -0.3668  0.4445  0.0941
 2318SOL     ow 9269   4.066   7.066   0.284 -0.0817  0.5669  0.0290
 2318SOL     hw 9270   3.987   7.077   0.230  0.9262  0.2982 -1.5744
 2318SOL     hw 9271   4.034   7.030   0.366 -1.4944 -0.9460 -1.1150
 2318SOL     vw 9272   4.052   7.063   0.288 -0.1349  0.3321 -0.3335
 2319SOL     ow 9273   6.233   0.923   5.810 -0.7774  0.6636  0.1875
 2319SOL     hw 9274   6.279   1.005   5.791 -0.1328  0.0538 -1.0236
 2319SOL     hw 9275   6.258   0.901   5.899  0.9225  0.6030 -0.2751
 2319SOL     vw 9276   6.242   0.931   5.819 -0.4680  0.5752 -0.0334
 2320SOL     ow 9277   0.347   0.115   6.850  0.1611 -0.3872  0.0207
 2320SOL     hw 9278   0.281   0.108   6.780 -0.4405  1.4577  0.3597
 2320SOL     hw 9279   0.407   0.043   6.832 -1.2441 -1.3592 -1.0474
 2320SOL     vw 9280   0.346   0.104   6.838 -0.1037 -0.2720 -0.0753
 2321SOL     ow 9281   2.562   2.682   1.252  0.4807  0.2235 -0.5023
 2321SOL     hw 9282   2.612   2.619   1.201  1.0037 -0.4394  0.7895
 2321SOL     hw 9283   2.625   2.750   1.276  0.7116 -0.4423  0.8455
 2321SOL     vw 9284   2.577   2.683   1.248  0.5801  0.0483 -0.1540
 2322SOL     ow 9285   3.114   5.023   1.837 -0.6183  0.0675 -0.7767
 2322SOL     hw 9286   3.092   5.093   1.898  1.2944  0.2713 -0.2350
 2322SOL     hw 9287   3.143   5.068   1.757  1.9919  0.0611  0.0507
 2322SOL     vw 9288   3.115   5.038   1.834 -0.0217  0.0932 -0.5961
 2323SOL     ow 9289   5.518   4.999   6.267 -0.0610 -0.3810  0.0955
 2323SOL     hw 9290   5.472   5.083   6.260  0.1306 -0.3616 -1.1721
 2323SOL     hw 9291   5.467   4.949   6.331 -1.2042  0.0552 -0.4418
 2323SOL     vw 9292   5.505   5.004   6.275 -0.1864 -0.3207 -0.1428
 2324SOL     ow 9293   0.624   5.791   6.594  0.0898  0.2689 -0.9363
 2324SOL     hw 9294   0.707   5.764   6.555  0.1302 -1.6969  0.3369
 2324SOL     hw 9295   0.560   5.782   6.524  0.4019 -1.6609 -1.0158
 2324SOL     vw 9296   0.627   5.786   6.580  0.1363 -0.2453 -0.7787
 2325SOL     ow 9297   4.306   5.482   2.228  0.3841 -0.8189  0.1016
 2325SOL     hw 9298   4.287   5.394   2.197  1.8366 -0.7781 -0.9887
 2325SOL     hw 9299   4.322   5.471   2.322 -2.3914 -1.2018  0.6218
 2325SOL     vw 9300   4.306   5.469   2.237  0.2098 -0.8638  0.0262
 2326SOL     ow 9301   3.427   4.047   4.649  0.2411 -0.0840 -0.5453
 2326SOL     hw 9302   3.471   4.113   4.702  0.4537  0.4393 -1.3576
 2326SOL     hw 9303   3.498   3.995   4.612  0.2403  1.1265 -2.3333
 2326SOL     vw 9304   3.442   4.049   4.651  0.2692  0.1450 -0.8883
 2327SOL     ow 9305   3.465   5.036   2.474  0.7033  0.1383 -0.2714
 2327SOL     hw 9306   3.550   5.035   2.430  0.6510 -0.6589 -0.3700
 2327SOL     hw 9307   3.487   5.049   2.566  0.9838 -0.7503 -0.2051
 2327SOL     vw 9308   3.479   5.038   2.480  0.7334 -0.0839 -0.2759
 2328SOL     ow 9309   5.353   6.705   0.790  0.5262 -0.0607 -0.5963
 2328SOL     hw 9310   5.320   6.780   0.740  0.4505 -0.8066 -1.6984
 2328SOL     hw 9311   5.427   6.673   0.738  0.2411 -1.0522 -0.3961
 2328SOL     vw 9312   5.359   6.711   0.776  0.4785 -0.2899 -0.7153
 2329SOL     ow 9313   4.530   0.551   3.489 -0.5339  0.5410 -0.2223
 2329SOL     hw 9314   4.578   0.627   3.456 -2.1840  1.6266 -0.2094
 2329SOL     hw 9315   4.461   0.588   3.545 -2.4044 -0.8248 -1.4999
 2329SOL     vw 9316   4.527   0.566   3.492 -0.9983  0.5040 -0.3892
 2330SOL     ow 9317   2.251   3.020   2.240 -0.3641 -0.6028  0.0410
 2330SOL     hw 9318   2.216   3.038   2.152 -1.1962 -1.6783  0.1419
 2330SOL     hw 9319   2.295   2.935   2.232 -0.6249 -0.8053  0.7158
 2330SOL     vw 9320   2.252   3.011   2.227 -0.5084 -0.7714  0.1434
 2331SOL     ow 9321   1.603   4.004   2.985  0.7380  0.5586 -0.2918
 2331SOL     hw 9322   1.546   3.928   3.001  1.6959 -0.5903 -1.9924
 2331SOL     hw 9323   1.643   4.022   3.070  1.1849 -1.4832  0.0021
 2331SOL     vw 9324   1.601   3.996   2.998  0.9234  0.1378 -0.4774
 2332SOL     ow 9325   1.508   6.726   7.183 -0.5430  0.3184 -0.1167
 2332SOL     hw 9326   1.542   6.638   7.164  0.9735  1.2646 -2.1662
 2332SOL     hw 9327   1.542   6.781   7.113 -2.5841  2.3234  0.3387
 2332SOL     vw 9328   1.517   6.722   7.172 -0.6122  0.7079 -0.3271
 2333SOL     ow 9329   2.840   5.067   2.078  0.9131 -0.0822  0.6397
 2333SOL     hw 9330   2.782   5.113   2.138  1.7277 -1.7395  2.8427
 2333SOL     hw 9331   2.913   5.127   2.064  0.7391  0.3080  1.3558
 2333SOL     vw 9332   2.842   5.081   2.084  0.9975 -0.2494  1.0248
 2334SOL     ow 9333   6.887   4.827   4.668 -0.1288 -0.4106 -0.2099
 2334SOL     hw 9334   6.977   4.803   4.687 -0.0694  0.1455  0.2556
 2334SOL     hw 9335   6.834   4.758   4.709  0.1103 -2.8610 -3.6369
 2334SOL     vw 9336   6.892   4.815   4.676 -0.0899 -0.6604 -0.6006
 2335SOL     ow 9337   3.902   6.823   3.295 -0.1771  0.6636  0.1709
 2335SOL     hw 9338   3.915   6.828   3.389 -0.9436 -0.9856  0.4100
 2335SOL     hw 9339   3.981   6.780   3.262 -0.4106  0.1651  0.2411
 2335SOL     vw 9340   3.914   6.818   3.303 -0.3092  0.3803  0.2117
 2336SOL     ow 9341   6.704   5.337   1.594  0.1695 -0.0152 -0.0630
 2336SOL     hw 9342   6.641   5.267   1.609 -0.1879  0.2548 -0.3037
 2336SOL     hw 9343   6.711   5.345   1.499 -0.3781  0.7938 -0.0484
 2336SOL     vw 9344   6.697   5.329   1.584  0.0503  0.1271 -0.0928
 2337SOL     ow 9345   6.005   1.680   3.947  0.1758  0.0245  0.5917
 2337SOL     hw 9346   5.942   1.746   3.978 -0.4392 -0.9259  1.4452
 2337SOL     hw 9347   5.950   1.611   3.909  0.8667  0.5706 -1.4883
 2337SOL     vw 9348   5.989   1.680   3.946  0.1860 -0.0288  0.4297
 2338SOL     ow 9349   5.374   0.614   5.587 -0.0427  0.6938  0.1441
 2338SOL     hw 9350   5.370   0.577   5.499 -0.5034 -0.9922  0.8419
 2338SOL     hw 9351   5.283   0.634   5.608 -0.1708 -0.6027  0.9074
 2338SOL     vw 9352   5.361   0.612   5.578 -0.1204  0.3003  0.3369
 2339SOL     ow 9353   3.344   0.208   5.397  0.2223 -0.4055 -0.3639
 2339SOL     hw 9354   3.272   0.213   5.334 -0.2296 -0.0239  0.1710
 2339SOL     hw 9355   3.301   0.212   5.482  0.8786 -0.2366 -0.0374
 2339SOL     vw 9356   3.329   0.209   5.400  0.2494 -0.3329 -0.2501
 2340SOL     ow 9357   3.100   2.093   3.486  0.7124  0.0718 -1.2641
 2340SOL     hw 9358   3.176   2.066   3.434  1.2387  0.4162 -0.6796
 2340SOL     hw 9359   3.079   2.016   3.539  2.2654  0.7557  0.4627
 2340SOL     vw 9360   3.107   2.079   3.486  0.9868  0.2075 -0.9592
 2341SOL     ow 9361   2.097   5.461   6.616  0.1927 -0.2541  0.5630
 2341SOL     hw 9362   2.142   5.501   6.541 -0.6876 -0.9621 -0.3697
 2341SOL     hw 9363   2.167   5.444   6.679  0.8131  1.2560  0.3262
 2341SOL     vw 9364   2.112   5.464   6.614  0.1585 -0.1483  0.4084
 2342SOL     ow 9365   2.115   6.796   1.307 -0.3696  0.2027 -0.4047
 2342SOL     hw 9366   2.026   6.763   1.307 -1.2206  2.1192  2.3049
 2342SOL     hw 9367   2.165   6.731   1.257 -2.8308 -2.1496 -0.0345
 2342SOL     vw 9368   2.110   6.783   1.301 -0.8067  0.1452  0.0016
 2343SOL     ow 9369   5.284   0.084   1.629 -0.5009  0.5110 -0.6573
 2343SOL     hw 9370   5.249   0.095   1.718  1.6323  1.0542  0.1981
 2343SOL     hw 9371   5.362   0.140   1.628  1.7509 -2.4120 -1.5474
 2343SOL     vw 9372   5.290   0.093   1.641  0.0777  0.1970 -0.6620
 2344SOL     ow 9373   0.910   7.031   1.898 -0.3478  0.4171  0.0633
 2344SOL     hw 9374   0.964   6.962   1.937 -1.4423 -0.3305  0.3060
 2344SOL     hw 9375   0.929   7.109   1.950 -0.2397 -0.0760  0.7830
 2344SOL     vw 9376   0.919   7.032   1.910 -0.4779  0.2534  0.1903
 2345SOL     ow 9377   5.029   3.186   3.780  0.4864  0.5755  0.2179
 2345SOL     hw 9378   4.974   3.173   3.703  1.2076 -0.7139 -0.1175
 2345SOL     hw 9379   4.993   3.263   3.823 -1.2931  0.0323 -0.2305
 2345SOL     vw 9380   5.017   3.194   3.776  0.3467  0.3337  0.1146
 2346SOL     ow 9381   6.661   4.786   4.455  0.7617  0.0625  0.0102
 2346SOL     hw 9382   6.589   4.845   4.475  0.7331 -0.5889  2.0821
 2346SOL     hw 9383   6.632   4.737   4.378 -0.8066  0.1775  0.4928
 2346SOL     vw 9384   6.648   4.787   4.448  0.5507 -0.0086  0.3471
 2347SOL     ow 9385   2.209   1.257   4.451 -0.3280 -0.6294 -0.0380
 2347SOL     hw 9386   2.159   1.318   4.396  0.5467 -0.7258 -0.9688
 2347SOL     hw 9387   2.201   1.293   4.539 -1.5567 -0.3313 -0.2557
 2347SOL     vw 9388   2.201   1.270   4.455 -0.3747 -0.6028 -0.1895
 2348SOL     ow 9389   6.261   3.002   4.392 -0.2172 -0.1125  0.1919
 2348SOL     hw 9390   6.238   3.023   4.483 -0.6974  1.0122 -0.1774
 2348SOL     hw 9391   6.347   3.042   4.379  0.9705 -2.2919  0.8417
 2348SOL     vw 9392   6.269   3.010   4.403 -0.1240 -0.2517  0.2289
 2349SOL     ow 9393   0.586   2.709   0.431  0.2324  0.0817  0.7129
 2349SOL     hw 9394   0.552   2.620   0.442  0.5105 -0.5343 -2.4611
 2349SOL     hw 9395   0.681   2.699   0.426  0.2968  0.6122  0.7454
 2349SOL     vw 9396   0.594   2.696   0.432  0.2775  0.0703  0.2984
 2350SOL     ow 9397   4.967   6.865   4.775 -0.2611 -0.6702 -0.0467
 2350SOL     hw 9398   4.938   6.865   4.867  2.1009  2.0245  0.8719
 2350SOL     hw 9399   5.019   6.786   4.766 -0.4328 -0.9157  1.0013
 2350SOL     vw 9400   4.970   6.855   4.786  0.0277 -0.3471  0.2127
 2351SOL     ow 9401   6.955   1.602   0.554  0.2765  0.4055 -0.0915
 2351SOL     hw 9402   6.897   1.526   0.548  0.0413  0.6817 -2.1881
 2351SOL     hw 9403   7.038   1.567   0.586 -0.1345 -0.5614 -0.0686
 2351SOL     vw 9404   6.959   1.587   0.557  0.1915  0.3145 -0.3650
 2352SOL     ow 9405   4.362   1.867   3.222  0.2894 -0.4241 -0.1302
 2352SOL     hw 9406   4.365   1.773   3.202  2.2328  0.0403 -2.4953
 2352SOL     hw 9407   4.288   1.900   3.170  1.6112 -0.1929 -1.9548
 2352SOL     vw 9408   4.352   1.859   3.212  0.7200 -0.3323 -0.6831
 2353SOL     ow 9409   0.462   0.389   6.941 -0.0232 -0.3871  0.2666
 2353SOL     hw 9410   0.556   0.388   6.959  0.1253 -1.3696 -0.4669
 2353SOL     hw 9411   0.430   0.468   6.984  1.2306  0.2683  0.0391
 2353SOL     vw 9412   0.470   0.399   6.949  0.1618 -0.4302  0.1397
 2354SOL     ow 9413   4.617   4.858   2.274  0.2509 -0.7810 -0.3016
 2354SOL     hw 9414   4.547   4.888   2.215 -1.0916 -0.5502  1.3416
 2354SOL     hw 9415   4.635   4.768   2.247 -2.5955 -1.8113  0.8642
 2354SOL     vw 9416   4.610   4.850   2.263 -0.3018 -0.8864  0.0690
 2355SOL     ow 9417   3.709   7.093   5.617 -0.0801 -0.7867 -0.3709
 2355SOL     hw 9418   3.776   7.065   5.555 -1.2867 -1.1633 -1.5537
 2355SOL     hw 9419   3.626   7.076   5.572 -0.9816 -0.5563  1.1386
 2355SOL     vw 9420   3.706   7.087   5.603 -0.3583 -0.8059 -0.3276
 2356SOL     ow 9421   1.760   3.231   2.149 -0.2153  0.3048  0.4142
 2356SOL     hw 9422   1.806   3.186   2.079 -3.0534 -0.3219 -1.1871
 2356SOL     hw 9423   1.695   3.286   2.105 -1.0545  1.1121  2.5062
 2356SOL     vw 9424   1.757   3.232   2.134 -0.7005  0.3284  0.4790
 2357SOL     ow 9425   6.730   5.384   3.714 -0.2248 -0.2240  0.4150
 2357SOL     hw 9426   6.809   5.372   3.767 -0.4910 -0.3208  0.7957
 2357SOL     hw 9427   6.702   5.474   3.733 -1.1088 -0.7139  1.5370
 2357SOL     vw 9428   6.736   5.394   3.724 -0.3767 -0.3016  0.6133
 2358SOL     ow 9429   1.292   2.856   1.736 -0.3040 -0.3608  0.0053
 2358SOL     hw 9430   1.345   2.875   1.814 -1.1868 -1.3600  0.8844
 2358SOL     hw 9431   1.240   2.936   1.723 -0.0308 -0.1244  0.3335
 2358SOL     vw 9432   1.292   2.869   1.745 -0.3844 -0.4613  0.1646
 2359SOL     ow 9433   6.144   4.796   5.901 -0.3440 -0.7754  0.3737
 2359SOL     hw 9434   6.203   4.722   5.889  0.9434  0.0808  1.1339
 2359SOL     hw 9435   6.193   4.872   5.869 -1.2590 -0.1234  0.4720
 2359SOL     vw 9436   6.159   4.797   5.895 -0.2952 -0.5765  0.4871
 2360SOL     ow 9437   1.133   1.184   0.945  0.1079  0.8160  0.1801
 2360SOL     hw 9438   1.221   1.211   0.920 -0.1765  1.7920  0.2114
 2360SOL     hw 9439   1.129   1.197   1.040  0.0978  0.2543  0.2651
 2360SOL     vw 9440   1.144   1.189   0.954  0.0690  0.8706  0.1954
 2361SOL     ow 9441   2.532   3.594   3.589 -0.5489  0.2726  0.3118
 2361SOL     hw 9442   2.501   3.510   3.555  0.8428 -0.1444 -0.0046
 2361SOL     hw 9443   2.548   3.577   3.682  0.8687 -0.1822  0.0053
 2361SOL     vw 9444   2.530   3.581   3.597 -0.1783  0.1576  0.2296
 2362SOL     ow 9445   5.969   3.653   4.536 -0.4845  0.7389 -0.1623
 2362SOL     hw 9446   6.017   3.570   4.544 -0.4067  0.8973  1.1904
 2362SOL     hw 9447   6.014   3.699   4.465  0.2802  0.1652 -0.0731
 2362SOL     vw 9448   5.982   3.648   4.528 -0.3734  0.6843  0.0277
 2363SOL     ow 9449   2.076   0.050   3.133 -0.1543 -0.2197 -0.0390
 2363SOL     hw 9450   2.082  -0.031   3.183 -0.4885 -0.8042 -0.9428
 2363SOL     hw 9451   2.076   0.023   3.042 -2.0542  0.6611 -0.3544
 2363SOL     vw 9452   2.077   0.036   3.128 -0.4492 -0.1806 -0.1998
 2364SOL     ow 9453   2.307   7.058   3.753 -0.2698 -0.2565  0.4508
 2364SOL     hw 9454   2.241   7.031   3.690 -0.6692 -0.0230  0.7672
 2364SOL     hw 9455   2.351   7.132   3.710 -0.3307 -0.2963  0.3176
 2364SOL     vw 9456   2.304   7.065   3.739 -0.3306 -0.2310  0.4750
 2365SOL     ow 9457   3.004   2.425   5.180 -0.0581 -0.4684 -0.0435
 2365SOL     hw 9458   2.928   2.477   5.153  0.7831 -0.1949 -2.1091
 2365SOL     hw 9459   2.975   2.334   5.170 -1.5540 -0.5471  3.6371
 2365SOL     vw 9460   2.990   2.420   5.175 -0.1445 -0.4427  0.1695
 2366SOL     ow 9461   0.915   0.433   1.920  0.2976 -0.6359  0.5486
 2366SOL     hw 9462   1.002   0.460   1.891  0.7125 -1.4636  0.9867
 2366SOL     hw 9463   0.912   0.457   2.013  0.2654 -1.1046  0.6700
 2366SOL     vw 9464   0.926   0.440   1.929  0.3481 -0.8070  0.6225
 2367SOL     ow 9465   0.015   6.955   1.209  0.0025 -0.1101 -0.1077
 2367SOL     hw 9466  -0.028   6.930   1.290 -0.4661  1.3674  0.1259
 2367SOL     hw 9467   0.107   6.966   1.233  0.4383 -2.5436 -0.4476
 2367SOL     vw 9468   0.021   6.953   1.222 -0.0019 -0.2363 -0.1217
 2368SOL     ow 9469   3.966   5.088   3.518 -0.2995  0.2886  0.5386
 2368SOL     hw 9470   3.998   5.024   3.454  1.4386  2.3082 -0.7359
 2368SOL     hw 9471   3.882   5.052   3.547 -1.1198 -0.8467 -2.7508
 2368SOL     vw 9472   3.959   5.075   3.513 -0.1783  0.4055 -0.0635
 2369SOL     ow 9473   1.965   5.206   6.476 -0.0641 -0.0549  0.1460
 2369SOL     hw 9474   1.967   5.212   6.381  0.7794  1.1081  0.2120
 2369SOL     hw 9475   2.004   5.122   6.496 -0.9818 -0.6706 -0.5435
 2369SOL     vw 9476   1.970   5.196   6.466 -0.0739  0.0169  0.0641
 2370SOL     ow 9477   3.389   7.020   1.344  0.7143  0.5550 -0.2052
 2370SOL     hw 9478   3.430   6.954   1.400 -0.0377 -0.1299 -0.4406
 2370SOL     hw 9479   3.348   7.081   1.405  1.1065  0.6087  0.0096
 2370SOL     vw 9480   3.389   7.019   1.360  0.6669  0.4718 -0.2080
 2371SOL     ow 9481   2.182   2.808   2.951 -0.1036  0.3033 -0.3942
 2371SOL     hw 9482   2.267   2.842   2.978  0.7831 -0.4007 -2.1446
 2371SOL     hw 9483   2.151   2.757   3.027  0.9275  0.7262  0.3283
 2371SOL     vw 9484   2.189   2.806   2.965  0.1494  0.2663 -0.5298
 2372SOL     ow 9485   6.408   1.885   3.747  0.4136  0.1308  0.1052
 2372SOL     hw 9486   6.351   1.814   3.776 -0.1829  0.6774  0.3160
 2372SOL     hw 9487   6.482   1.883   3.807 -0.6529  1.0516  1.5210
 2372SOL     vw 9488   6.410   1.876   3.758  0.1941  0.3243  0.3198
 2373SOL     ow 9489   3.274   5.143   0.773  0.2129 -0.2026 -0.1006
 2373SOL     hw 9490   3.191   5.177   0.738  0.7120 -0.1337 -1.2401
 2373SOL     hw 9491   3.337   5.212   0.757  1.4426 -1.8690 -3.2258
 2373SOL     vw 9492   3.271   5.156   0.766  0.4412 -0.4137 -0.6633
 2374SOL     ow 9493   0.288   5.378   1.759  0.2978  0.1871 -0.0433
 2374SOL     hw 9494   0.347   5.449   1.785  0.0958  1.0042 -1.6745
 2374SOL     hw 9495   0.287   5.319   1.834  1.3453  1.3450  0.9296
 2374SOL     vw 9496   0.296   5.380   1.772  0.4093  0.4475 -0.1301
 2375SOL     ow 9497   4.559   2.966   4.262  0.5589 -0.1808  0.1448
 2375SOL     hw 9498   4.523   3.031   4.323  0.3398 -1.4221  1.3969
 2375SOL     hw 9499   4.511   2.886   4.282  2.4690 -1.3393  0.3529
 2375SOL     vw 9500   4.548   2.964   4.273  0.7820 -0.4973  0.3376
 2376SOL     ow 9501   6.713   3.224   0.497  0.1909  0.2042 -0.4097
 2376SOL     hw 9502   6.637   3.282   0.498  2.2857  3.3010  2.4102
 2376SOL     hw 9503   6.747   3.230   0.408 -1.3813  0.8525 -0.9901
 2376SOL     vw 9504   6.707   3.233   0.486  0.2599  0.6984 -0.1142
 2377SOL     ow 9505   4.773   1.459   0.411  0.7498 -0.2214 -0.0299
 2377SOL     hw 9506   4.749   1.372   0.379 -1.0156  0.4263 -0.6088
 2377SOL     hw 9507   4.857   1.478   0.370 -0.0738 -0.6117 -2.0287
 2377SOL     vw 9508   4.781   1.450   0.401  0.4086 -0.1874 -0.3700
 2378SOL     ow 9509   2.976   1.715   1.000  0.0782  0.0279 -0.7185
 2378SOL     hw 9510   3.069   1.715   0.975  0.3856 -2.9041  0.0409
 2378SOL     hw 9511   2.971   1.777   1.073  1.2427  0.8759 -1.3198
 2378SOL     vw 9512   2.988   1.723   1.006  0.2723 -0.2470 -0.6977
 2379SOL     ow 9513   3.526   6.388   0.389  0.0556  0.0768  0.1518
 2379SOL     hw 9514   3.618   6.368   0.406  0.5705  0.5319 -1.8766
 2379SOL     hw 9515   3.511   6.471   0.435  0.5923 -0.1090  0.6797
 2379SOL     vw 9516   3.536   6.396   0.397  0.1943  0.1123 -0.0461
 2380SOL     ow 9517   5.142   3.546   5.724  0.5101 -0.2735 -0.0904
 2380SOL     hw 9518   5.154   3.464   5.677  0.0532 -0.0120 -0.6775
 2380SOL     hw 9519   5.193   3.610   5.674  0.6972 -0.1595  0.2454
 2380SOL     vw 9520   5.150   3.544   5.711  0.4747 -0.2239 -0.1235
 2381SOL     ow 9521   1.723   5.532   4.898 -0.1829  0.0556 -0.3492
 2381SOL     hw 9522   1.695   5.623   4.886 -0.9543  0.0932  1.4262
 2381SOL     hw 9523   1.702   5.489   4.815 -1.8264  1.0035 -0.4597
 2381SOL     vw 9524   1.717   5.539   4.885 -0.5016  0.1855 -0.1295
 2382SOL     ow 9525   0.459   6.815   3.229 -0.5677  0.0051  0.1238
 2382SOL     hw 9526   0.498   6.729   3.216  1.8079  0.8931  0.8371
 2382SOL     hw 9527   0.467   6.858   3.144 -0.0755  0.1475  0.2406
 2382SOL     vw 9528   0.465   6.810   3.216 -0.1893  0.1409  0.2333
 2383SOL     ow 9529   4.357   5.533   1.941 -0.1068  0.7966  0.6305
 2383SOL     hw 9530   4.349   5.459   1.880 -1.2411  1.5634 -0.1980
 2383SOL     hw 9531   4.444   5.569   1.925 -1.2884  2.6286 -2.5558
 2383SOL     vw 9532   4.367   5.528   1.931 -0.4122  1.1394  0.1008
 2384SOL     ow 9533   5.488   5.789   3.038 -0.0744  0.2271  0.0882
 2384SOL     hw 9534   5.423   5.853   3.011  1.1671  1.6421  0.3442
 2384SOL     hw 9535   5.494   5.728   2.964 -0.9790  0.6282 -0.3226
 2384SOL     vw 9536   5.480   5.789   3.024 -0.0300  0.4666  0.0676
 2385SOL     ow 9537   6.593   3.542   6.371  0.1635 -0.1491  0.8662
 2385SOL     hw 9538   6.504   3.542   6.406 -0.0441 -0.2237  0.3446
 2385SOL     hw 9539   6.588   3.595   6.292  0.2453 -1.3513  0.0220
 2385SOL     vw 9540   6.581   3.549   6.365  0.1471 -0.3175  0.6862
 2386SOL     ow 9541   3.770   2.368   4.898 -0.4379  0.0214 -0.3548
 2386SOL     hw 9542   3.767   2.451   4.946 -0.0506  0.0902 -0.4449
 2386SOL     hw 9543   3.847   2.323   4.932 -0.0434  0.1606 -1.0466
 2386SOL     vw 9544   3.780   2.373   4.908 -0.3347  0.0488 -0.4578
 2387SOL     ow 9545   1.553   7.046   6.300  0.5099  0.3452  0.0890
 2387SOL     hw 9546   1.488   7.069   6.367 -0.3556 -0.2328 -0.5366
 2387SOL     hw 9547   1.620   7.113   6.309 -0.4617  1.3121  0.3543
 2387SOL     vw 9548   1.553   7.058   6.310  0.2675  0.3965  0.0415
 2388SOL     ow 9549   3.018   0.306   7.075  0.3557  0.0375  0.3540
 2388SOL     hw 9550   2.932   0.289   7.038  1.0038 -1.8431 -0.3901
 2388SOL     hw 9551   3.002   0.318   7.169 -0.7531  0.2444  0.1500
 2388SOL     vw 9552   3.005   0.306   7.083  0.2949 -0.1833  0.2289
 2389SOL     ow 9553   5.454   6.551   5.451 -0.4528 -0.3200  0.4337
 2389SOL     hw 9554   5.484   6.560   5.360 -0.6821 -0.1093  0.3775
 2389SOL     hw 9555   5.438   6.641   5.480 -1.1498 -0.4315  0.4211
 2389SOL     vw 9556   5.456   6.564   5.443 -0.5748 -0.3068  0.4249
 2390SOL     ow 9557   5.676   2.603   2.026 -0.0964  0.7056 -0.0419
 2390SOL     hw 9558   5.717   2.689   2.038 -1.1232  1.1004  0.7856
 2390SOL     hw 9559   5.684   2.560   2.111 -1.6369  0.9242  0.2528
 2390SOL     vw 9560   5.682   2.609   2.038 -0.4351  0.7865  0.1062
 2391SOL     ow 9561   3.931   2.240   4.686  0.2623  0.3655 -0.2424
 2391SOL     hw 9562   3.945   2.211   4.596  0.0744  0.1170 -0.1935
 2391SOL     hw 9563   3.928   2.158   4.737  0.5110  0.5113  0.0082
 2391SOL     vw 9564   3.933   2.225   4.681  0.2705  0.3520 -0.2027
 2392SOL     ow 9565   5.064   1.174   0.863  0.1774  0.7796  0.1049
 2392SOL     hw 9566   5.146   1.134   0.834  0.3054  0.1840  1.2188
 2392SOL     hw 9567   5.015   1.189   0.782  0.6508 -0.4879 -0.4506
 2392SOL     vw 9568   5.068   1.170   0.848  0.2565  0.5338  0.1785
 2393SOL     ow 9569   1.921   0.462   0.560 -0.4111  0.1348 -1.2779
 2393SOL     hw 9570   1.987   0.393   0.556 -1.0498 -0.5796 -0.1234
 2393SOL     hw 9571   1.868   0.439   0.636 -1.8963  0.7760 -2.0866
 2393SOL     vw 9572   1.923   0.450   0.569 -0.6914  0.1252 -1.2322
 2394SOL     ow 9573   5.868   1.907   0.457 -0.5287  0.3586  0.4887
 2394SOL     hw 9574   5.952   1.949   0.477 -0.5581  0.6114  0.1038
 2394SOL     hw 9575   5.838   1.951   0.377 -0.2578 -0.8390 -0.2941
 2394SOL     vw 9576   5.875   1.918   0.449 -0.4969  0.2339  0.3346
 2395SOL     ow 9577   7.095   3.636   0.130  0.0691 -0.1251 -1.0379
 2395SOL     hw 9578   7.064   3.650   0.041 -1.3436 -0.0124 -0.5576
 2395SOL     hw 9579   7.187   3.662   0.128 -0.2876  1.1941 -2.1586
 2395SOL     vw 9580   7.103   3.642   0.118 -0.1645  0.0638 -1.1224
 2396SOL     ow 9581   7.060   5.852   4.460  0.7162  0.1406 -0.5496
 2396SOL     hw 9582   7.086   5.927   4.407  1.0311  1.8421  1.8297
 2396SOL     hw 9583   7.009   5.890   4.532 -0.5551 -2.1333 -0.1284
 2396SOL     vw 9584   7.056   5.867   4.463  0.5903  0.0651 -0.1802
 2397SOL     ow 9585   4.959   1.324   6.321 -0.1277 -0.7904 -0.4936
 2397SOL     hw 9586   5.035   1.279   6.357 -0.3425  0.5364  1.8080
 2397SOL     hw 9587   4.887   1.261   6.329 -0.4679 -0.1633  2.8287
 2397SOL     vw 9588   4.959   1.310   6.327 -0.2007 -0.5326  0.2484
 2398SOL     ow 9589   2.252   4.877   3.406  0.1374  0.1356 -0.3438
 2398SOL     hw 9590   2.300   4.797   3.424 -0.9135 -0.8805 -1.8052
 2398SOL     hw 9591   2.225   4.909   3.492  0.7162 -0.9767  0.2745
 2398SOL     vw 9592   2.254   4.871   3.419  0.0752 -0.1450 -0.4549
 2399SOL     ow 9593   1.693   0.313   4.437  0.0055 -0.2891 -0.3451
 2399SOL     hw 9594   1.606   0.290   4.405  0.7428 -1.2527 -1.7253
 2399SOL     hw 9595   1.704   0.405   4.413 -0.5345 -0.2387 -0.3948
 2399SOL     vw 9596   1.683   0.322   4.430  0.0316 -0.4096 -0.5336
 2400SOL     ow 9597   5.439   3.512   6.084 -0.0942  0.0228  0.2054
 2400SOL     hw 9598   5.460   3.594   6.040  0.5186  0.3129  1.0157
 2400SOL     hw 9599   5.477   3.521   6.171 -1.2728 -0.5301  0.8086
 2400SOL     vw 9600   5.447   3.524   6.090 -0.1686 -0.0119  0.3917
 2401SOL     ow 9601   6.160   6.470   3.918 -0.7882 -0.1499  0.5290
 2401SOL     hw 9602   6.202   6.504   3.998 -0.7732  0.1678  0.3894
 2401SOL     hw 9603   6.073   6.510   3.918 -0.1131  1.4481 -0.6196
 2401SOL     vw 9604   6.154   6.480   3.929 -0.6971  0.1030  0.3591
 2402SOL     ow 9605   6.087   0.099   6.581  0.0739  0.4585 -0.5281
 2402SOL     hw 9606   6.089   0.018   6.633  1.5029  1.0714  0.4415
 2402SOL     hw 9607   6.026   0.080   6.509 -2.2468 -0.3086  1.5169
 2402SOL     vw 9608   6.079   0.086   6.578 -0.0439  0.4382 -0.1304
 2403SOL     ow 9609   4.492   6.950   0.071  0.5264  0.0758  0.2495
 2403SOL     hw 9610   4.468   6.985  -0.015 -0.1120 -0.5866  0.1468
 2403SOL     hw 9611   4.525   6.862   0.053  0.5516 -0.0011  0.6652
 2403SOL     vw 9612   4.493   6.943   0.057  0.4456 -0.0217  0.2908
 2404SOL     ow 9613   1.260   6.684   5.064  0.0072 -0.4405 -0.6401
 2404SOL     hw 9614   1.269   6.630   5.142  1.3775 -0.2431 -0.6341
 2404SOL     hw 9615   1.212   6.630   5.001  2.9363 -2.4536 -1.3186
 2404SOL     vw 9616   1.255   6.670   5.066  0.5745 -0.6802 -0.7291
 2405SOL     ow 9617   1.454   1.371   1.174  0.0842  0.1776  0.4661
 2405SOL     hw 9618   1.411   1.289   1.199 -1.1017  0.3010 -0.9676
 2405SOL     hw 9619   1.447   1.373   1.078  1.0307  1.4611  0.3954
 2405SOL     vw 9620   1.447   1.360   1.164  0.0526  0.3632  0.2676
 2406SOL     ow 9621   0.456   0.143   1.828 -0.7050 -0.3943 -0.1817
 2406SOL     hw 9622   0.396   0.109   1.895 -1.5122 -3.1156 -2.0914
 2406SOL     hw 9623   0.399   0.174   1.758  0.1135  0.1801 -0.6076
 2406SOL     vw 9624   0.441   0.143   1.828 -0.7035 -0.6775 -0.4899
 2407SOL     ow 9625   5.785   0.701   3.169 -0.1664  1.0787 -0.0510
 2407SOL     hw 9626   5.700   0.704   3.212 -1.2371  1.3394 -2.0354
 2407SOL     hw 9627   5.765   0.678   3.078  2.0809 -0.8598 -0.1641
 2407SOL     vw 9628   5.771   0.698   3.162 -0.0107  0.8573 -0.3277
 2408SOL     ow 9629   6.046   6.118   4.505 -0.3130  0.3158  0.1277
 2408SOL     hw 9630   5.997   6.115   4.587 -0.3169  1.7602  0.1916
 2408SOL     hw 9631   6.136   6.098   4.530 -0.8145 -2.6245 -0.0264
 2408SOL     vw 9632   6.051   6.115   4.519 -0.3798  0.1183  0.1159
 2409SOL     ow 9633   3.362   4.771   2.636  0.0342 -0.1481  0.4090
 2409SOL     hw 9634   3.376   4.781   2.730  0.7076  1.4988  0.1634
 2409SOL     hw 9635   3.364   4.676   2.622  0.6683 -0.4002  1.9423
 2409SOL     vw 9636   3.364   4.760   2.647  0.2066  0.0358  0.5789
 2410SOL     ow 9637   7.028   1.340   4.371  0.4024  0.5111 -0.0417
 2410SOL     hw 9638   7.090   1.413   4.378  0.3447  0.5359  0.2458
 2410SOL     hw 9639   6.942   1.381   4.363  0.3839  0.4753 -0.0297
 2410SOL     vw 9640   7.025   1.355   4.371  0.3924  0.5096 -0.0019
 2411SOL     ow 9641   6.754   5.383   4.349  0.2663  0.5688 -0.2940
 2411SOL     hw 9642   6.705   5.308   4.315 -0.3406  1.1405 -0.7381
 2411SOL     hw 9643   6.796   5.351   4.428 -2.0632  0.4221  0.9704
 2411SOL     vw 9644   6.753   5.369   4.355 -0.1209  0.6247 -0.1855
 2412SOL     ow 9645   0.946   2.764   5.181  0.7236  0.0229 -0.2927
 2412SOL     hw 9646   1.005   2.785   5.109 -0.1397  0.0110 -1.0185
 2412SOL     hw 9647   0.859   2.762   5.141  0.3109 -0.6796  0.6152
 2412SOL     vw 9648   0.943   2.767   5.166  0.5552 -0.0714 -0.2685
 2413SOL     ow 9649   5.227   6.006   4.310 -0.5725 -0.0652 -0.2191
 2413SOL     hw 9650   5.263   5.920   4.289  0.9719  0.4681  0.1319
 2413SOL     hw 9651   5.232   6.012   4.405 -2.3211 -0.2533 -0.0808
 2413SOL     vw 9652   5.232   5.996   4.320 -0.5996 -0.0200 -0.1545
 2414SOL     ow 9653   3.336   4.366   6.339 -0.1881  0.3639  0.1936
 2414SOL     hw 9654   3.418   4.407   6.365 -0.0014  0.2386 -0.1848
 2414SOL     hw 9655   3.358   4.273   6.330 -0.0886  0.4814 -0.9920
 2414SOL     vw 9656   3.350   4.359   6.341 -0.1504  0.3631 -0.0129
 2415SOL     ow 9657   3.342   1.752   6.322 -0.3121  0.1349  0.2925
 2415SOL     hw 9658   3.258   1.773   6.362 -0.6416  0.1232 -0.3859
 2415SOL     hw 9659   3.336   1.788   6.234  0.6762  0.7848  0.4734
 2415SOL     vw 9660   3.330   1.760   6.316 -0.2251  0.2190  0.2270
 2416SOL     ow 9661   1.957   1.888   2.449  0.1820 -0.0407 -0.6748
 2416SOL     hw 9662   2.031   1.835   2.420  0.2606 -1.6931  2.2231
 2416SOL     hw 9663   1.887   1.825   2.465 -0.9836  1.1936 -0.7332
 2416SOL     vw 9664   1.958   1.873   2.447  0.0386 -0.0959 -0.3000
 2417SOL     ow 9665   3.678   6.526   4.782 -0.0561  0.7353  0.2188
 2417SOL     hw 9666   3.736   6.513   4.706  2.6710  0.6169  2.1860
 2417SOL     hw 9667   3.650   6.617   4.775  1.1313  1.0841 -0.3317
 2417SOL     vw 9668   3.682   6.536   4.771  0.4603  0.7656  0.4058
 2418SOL     ow 9669   6.845   5.469   2.244  0.5441 -0.7588  0.0095
 2418SOL     hw 9670   6.810   5.388   2.207 -0.9609 -0.2670  0.2886
 2418SOL     hw 9671   6.868   5.522   2.167 -1.7586 -0.0914 -0.3191
 2418SOL     vw 9672   6.843   5.466   2.229  0.0415 -0.6058  0.0030
 2419SOL     ow 9673   2.554   6.356   1.976 -0.0349  0.6047  0.3186
 2419SOL     hw 9674   2.525   6.347   2.067 -1.1784  1.2414  0.0376
 2419SOL     hw 9675   2.492   6.418   1.937  2.2707  2.8145 -0.0999
 2419SOL     vw 9676   2.542   6.363   1.983  0.1185  0.9801  0.2263
 2420SOL     ow 9677   5.544   2.640   0.638 -0.5571 -0.3966  0.1536
 2420SOL     hw 9678   5.532   2.653   0.544 -3.8423 -2.1574  0.1893
 2420SOL     hw 9679   5.489   2.707   0.679 -0.9276 -1.0468  0.7478
 2420SOL     vw 9680   5.535   2.651   0.631 -1.0393 -0.7148  0.2367
 2421SOL     ow 9681   0.209   4.438   3.369 -0.0053 -0.0128  0.1028
 2421SOL     hw 9682   0.148   4.505   3.339 -0.1142 -0.0640  0.2081
 2421SOL     hw 9683   0.177   4.357   3.330 -0.1106 -0.0697  0.3055
 2421SOL     vw 9684   0.197   4.436   3.360 -0.0335 -0.0272  0.1433
 2422SOL     ow 9685   3.976   5.403   2.116  0.5109  0.6517  0.1220
 2422SOL     hw 9686   4.032   5.344   2.065  0.5406 -1.1673  2.1485
 2422SOL     hw 9687   3.908   5.430   2.054  1.4695 -0.1092 -1.3425
 2422SOL     vw 9688   3.975   5.399   2.101  0.6413  0.3114  0.1961
 2423SOL     ow 9689   1.987   0.474   3.121  0.4016 -0.2458 -0.1085
 2423SOL     hw 9690   1.978   0.387   3.158  1.1110 -0.6653 -0.8895
 2423SOL     hw 9691   2.077   0.500   3.141  0.6029 -0.2335 -0.9813
 2423SOL     vw 9692   1.997   0.466   3.129  0.5217 -0.2995 -0.3268
 2424SOL     ow 9693   0.719   5.765   3.767 -0.3232  0.4023 -0.0721
 2424SOL     hw 9694   0.644   5.786   3.712 -0.5610 -1.0635 -0.3569
 2424SOL     hw 9695   0.719   5.833   3.834 -0.0435  2.2097 -1.8254
 2424SOL     vw 9696   0.709   5.777   3.769 -0.3177  0.4475 -0.3409
 2425SOL     ow 9697   6.583   2.297   4.101 -0.3498  0.6483  0.5998
 2425SOL     hw 9698   6.621   2.210   4.111  2.0300  1.4888 -0.3053
 2425SOL     hw 9699   6.627   2.350   4.167 -0.0144  1.6285 -0.3707
 2425SOL     vw 9700   6.594   2.292   4.111  0.0083  0.8886  0.3524
 2426SOL     ow 9701   4.869   1.363   3.904 -0.2454 -0.0756  0.4825
 2426SOL     hw 9702   4.918   1.444   3.919 -0.3812  0.0156  0.4403
 2426SOL     hw 9703   4.927   1.293   3.934  0.5244 -0.0790 -0.9122
 2426SOL     vw 9704   4.883   1.364   3.910 -0.1619 -0.0640  0.2929
 2427SOL     ow 9705   3.135   3.906   0.944  0.1548 -0.1000 -0.3894
 2427SOL     hw 9706   3.219   3.949   0.929  1.1212 -1.8348 -0.2249
 2427SOL     hw 9707   3.129   3.841   0.874 -2.6536  2.1212 -2.4603
 2427SOL     vw 9708   3.145   3.903   0.933 -0.0882 -0.0358 -0.6409
 2428SOL     ow 9709   2.409   6.927   6.139  0.1195 -0.1048 -0.2718
 2428SOL     hw 9710   2.453   6.862   6.194 -0.3850 -0.1773  0.0494
 2428SOL     hw 9711   2.431   6.902   6.050 -1.1886 -1.5552 -0.2346
 2428SOL     vw 9712   2.418   6.915   6.135 -0.1198 -0.3054 -0.2244
 2429SOL     ow 9713   1.598   6.741   4.417  0.1140  0.2079  0.1471
 2429SOL     hw 9714   1.518   6.791   4.398  1.0012  1.1726 -1.3037
 2429SOL     hw 9715   1.609   6.683   4.342  0.7466  0.0649  0.3401
 2429SOL     vw 9716   1.589   6.740   4.405  0.3145  0.3164 -0.0191
 2430SOL     ow 9717   1.178   1.842   2.451  0.0022  0.0284 -0.3331
 2430SOL     hw 9718   1.217   1.824   2.365 -0.5655  2.1225 -1.0951
 2430SOL     hw 9719   1.173   1.938   2.455 -0.0310 -0.0169  2.0368
 2430SOL     vw 9720   1.182   1.852   2.440 -0.0771  0.2988 -0.1210
 2431SOL     ow 9721   2.105   1.001   6.910 -0.0915 -0.3738  0.0604
 2431SOL     hw 9722   2.195   1.031   6.896 -0.6175  0.3184 -2.3822
 2431SOL     hw 9723   2.054   1.082   6.920 -0.6225 -0.6963 -0.0094
 2431SOL     vw 9724   2.110   1.016   6.910 -0.2309 -0.3250 -0.2711
 2432SOL     ow 9725   3.579   4.967   6.617 -0.1881  0.2651 -0.5884
 2432SOL     hw 9726   3.546   5.056   6.629 -0.6522  0.1349 -0.8867
 2432SOL     hw 9727   3.634   4.971   6.539 -0.4541  0.2271 -0.7793
 2432SOL     vw 9728   3.582   4.979   6.608 -0.2846  0.2429 -0.6530
 2433SOL     ow 9729   3.758   3.011   3.433  0.3406 -0.2768 -0.2039
 2433SOL     hw 9730   3.765   3.063   3.353 -0.9791 -0.2841 -0.3516
 2433SOL     hw 9731   3.756   2.920   3.402  0.2452 -0.2968 -0.1405
 2433SOL     vw 9732   3.759   3.005   3.418  0.1540 -0.2804 -0.2149
 2434SOL     ow 9733   0.213   7.146   5.667  0.4853 -0.1212 -0.2792
 2434SOL     hw 9734   0.306   7.123   5.662  0.2810 -0.9920 -0.1781
 2434SOL     hw 9735   0.175   7.110   5.587  0.3772  0.9607 -0.7313
 2434SOL     vw 9736   0.220   7.139   5.656  0.4440 -0.0932 -0.3257
 2435SOL     ow 9737   0.644   4.228   6.980 -0.0500 -0.7706 -0.1686
 2435SOL     hw 9738   0.731   4.265   6.969 -0.0772 -0.2194  1.2194
 2435SOL     hw 9739   0.606   4.278   7.054 -2.0845  0.0181 -1.6424
 2435SOL     vw 9740   0.650   4.240   6.989 -0.3221 -0.5937 -0.1800
 2436SOL     ow 9741   1.639   5.734   2.325 -0.3076 -0.6316 -0.7515
 2436SOL     hw 9742   1.680   5.780   2.252  0.5756 -1.4453 -0.7939
 2436SOL     hw 9743   1.556   5.779   2.339  0.5697  1.0504 -0.6999
 2436SOL     vw 9744   1.634   5.746   2.317 -0.0753 -0.5169 -0.7503
 2437SOL     ow 9745   3.459   6.300   4.923  0.1993 -0.2437 -0.3026
 2437SOL     hw 9746   3.408   6.221   4.942  0.0872  0.5025  2.9307
 2437SOL     hw 9747   3.401   6.373   4.943 -0.0088  0.8611 -4.0750
 2437SOL     vw 9748   3.445   6.299   4.928  0.1570  0.0005 -0.3738
 2438SOL     ow 9749   5.661   4.442   6.584 -0.0441 -0.2725  0.3384
 2438SOL     hw 9750   5.729   4.379   6.610 -0.6779 -1.2002 -0.2159
 2438SOL     hw 9751   5.596   4.389   6.538 -0.9499  0.6796  0.5078
 2438SOL     vw 9752   5.662   4.426   6.581 -0.2475 -0.2694  0.2878
 2439SOL     ow 9753   4.654   4.626   1.384  0.5952 -0.6123 -0.0367
 2439SOL     hw 9754   4.629   4.584   1.302 -0.4868  0.9409 -0.5436
 2439SOL     hw 9755   4.581   4.608   1.444  1.0244 -1.0819  0.3573
 2439SOL     vw 9756   4.641   4.618   1.381  0.5088 -0.4692 -0.0516
 2440SOL     ow 9757   7.170   6.628   6.193  0.3996  0.3546 -0.4265
 2440SOL     hw 9758   7.227   6.551   6.182 -1.0909 -0.4983 -3.0418
 2440SOL     hw 9759   7.097   6.596   6.245 -0.4201 -0.2116 -1.8468
 2440SOL     vw 9760   7.168   6.614   6.198  0.0949  0.1671 -0.9589
 2441SOL     ow 9761   5.036   1.239   1.907  0.0688 -0.4341  0.2918
 2441SOL     hw 9762   5.028   1.308   1.841  0.0415 -0.5234  0.2011
 2441SOL     hw 9763   5.018   1.158   1.859 -2.6458 -0.3068  0.9352
 2441SOL     vw 9764   5.032   1.238   1.892 -0.2930 -0.4292  0.3647
 2442SOL     ow 9765   1.454   5.221   0.006 -0.1410  0.0481 -0.8491
 2442SOL     hw 9766   1.392   5.168  -0.043  0.0742 -1.4560  0.4168
 2442SOL     hw 9767   1.476   5.294  -0.052  0.5031 -1.9000 -3.1877
 2442SOL     vw 9768   1.449   5.224  -0.008 -0.0277 -0.4072 -0.9906
 2443SOL     ow 9769   6.974   5.769   1.111  0.5074  0.2302 -0.1262
 2443SOL     hw 9770   7.009   5.802   1.029 -0.2865 -1.5075 -1.2183
 2443SOL     hw 9771   6.915   5.698   1.086 -1.0927  0.7569  1.8374
 2443SOL     vw 9772   6.971   5.764   1.097  0.1919  0.0703 -0.0113
 2444SOL     ow 9773   0.542   0.804   4.732 -0.2108  0.1670  0.5630
 2444SOL     hw 9774   0.589   0.872   4.683  0.8443 -1.4269 -0.7290
 2444SOL     hw 9775   0.493   0.755   4.666 -1.2139 -0.1608  1.5135
 2444SOL     vw 9776   0.542   0.807   4.717 -0.2040 -0.0865  0.5178
 2445SOL     ow 9777   3.291   4.733   0.301  0.1483  0.3492 -0.2612
 2445SOL     hw 9778   3.209   4.778   0.281 -0.4870 -0.5832  0.2270
 2445SOL     hw 9779   3.277   4.642   0.276  0.9616  0.1315  0.0143
 2445SOL     vw 9780   3.279   4.727   0.295  0.1719  0.1976 -0.1604
 2446SOL     ow 9781   6.478   0.267   1.227 -0.0898 -0.1984  0.1477
 2446SOL     hw 9782   6.411   0.330   1.200 -0.6818 -1.2111 -0.8143
 2446SOL     hw 9783   6.442   0.182   1.203  1.1246 -0.8388  0.5281
 2446SOL     vw 9784   6.464   0.264   1.221 -0.0079 -0.4165  0.0710
 2447SOL     ow 9785   3.857   2.139   7.117 -0.2325  0.2158  0.0902
 2447SOL     hw 9786   3.799   2.111   7.045  1.7671 -0.9544 -1.1616
 2447SOL     hw 9787   3.916   2.203   7.076 -1.1592  2.1132  1.5729
 2447SOL     vw 9788   3.857   2.143   7.102 -0.0910  0.3117  0.1206
 2448SOL     ow 9789   5.776   3.859   1.490 -0.7478  0.0095 -0.1168
 2448SOL     hw 9790   5.727   3.780   1.513 -2.0066  0.8765  0.3108
 2448SOL     hw 9791   5.797   3.849   1.398 -0.7692 -0.8840 -0.0320
 2448SOL     vw 9792   5.772   3.847   1.481 -0.9167  0.0060 -0.0492
 2449SOL     ow 9793   5.251   4.493   5.897  0.0908 -0.0241  0.0385
 2449SOL     hw 9794   5.209   4.421   5.850  0.4511 -0.9029  1.0175
 2449SOL     hw 9795   5.179   4.550   5.923 -0.2493 -0.2681 -0.3688
 2449SOL     vw 9796   5.236   4.491   5.895  0.0935 -0.1724  0.1140
 2450SOL     ow 9797   4.896   3.431   5.802 -0.0842  0.7496 -0.0494
 2450SOL     hw 9798   4.880   3.339   5.780  0.0859  1.1130 -1.9272
 2450SOL     hw 9799   4.820   3.458   5.852  0.5656 -0.7984  1.8851
 2450SOL     vw 9800   4.884   3.422   5.805  0.0236  0.5934 -0.0417
 2451SOL     ow 9801   1.544   5.528   2.979 -0.0923  0.9024  0.2555
 2451SOL     hw 9802   1.516   5.459   2.919 -0.6300  0.6705  0.7615
 2451SOL     hw 9803   1.536   5.609   2.929  1.7014  0.4997 -0.7452
 2451SOL     vw 9804   1.539   5.530   2.965  0.0734  0.8187  0.1904
 2452SOL     ow 9805   4.027   6.908   1.048  0.1689  0.3234 -0.6548
 2452SOL     hw 9806   4.108   6.858   1.037  0.6163  0.8942 -0.0241
 2452SOL     hw 9807   3.959   6.852   1.009  0.5776 -1.0060  0.4702
 2452SOL     vw 9808   4.029   6.894   1.041  0.2818  0.2234 -0.4231
 2453SOL     ow 9809   4.461   1.218   6.830 -0.7330  0.3937 -0.8052
 2453SOL     hw 9810   4.414   1.301   6.820 -0.3444  0.9178  1.3047
 2453SOL     hw 9811   4.414   1.173   6.901  1.7849  0.8914  1.3055
 2453SOL     vw 9812   4.448   1.223   6.838 -0.3495  0.5285 -0.2482
 2454SOL     ow 9813   2.484   0.314   5.108  0.3887 -0.5763 -0.1371
 2454SOL     hw 9814   2.446   0.234   5.146  1.6245 -0.6258  1.0570
 2454SOL     hw 9815   2.554   0.282   5.052  1.6050 -0.3159  1.1916
 2454SOL     vw 9816   2.488   0.299   5.105  0.7122 -0.5485  0.1960
 2455SOL     ow 9817   0.361   5.040   1.700 -0.4649  0.5772  0.5361
 2455SOL     hw 9818   0.373   5.077   1.787  0.1605 -1.6570  1.4922
 2455SOL     hw 9819   0.448   5.046   1.659  0.1326 -1.2865  1.3846
 2455SOL     vw 9820   0.374   5.046   1.706 -0.3036  0.0365  0.7742
 2456SOL     ow 9821   1.319   2.354   4.684 -0.2618 -0.1810  0.2606
 2456SOL     hw 9822   1.240   2.367   4.737  0.3621 -1.1205  1.4645
 2456SOL     hw 9823   1.324   2.260   4.670  0.6121 -0.1296  0.1535
 2456SOL     vw 9824   1.309   2.344   4.689 -0.0641 -0.2981  0.4053
 2457SOL     ow 9825   2.744   7.116   3.599  0.0406 -0.3381 -0.3028
 2457SOL     hw 9826   2.755   7.210   3.612 -0.8378 -0.6053  3.0682
 2457SOL     hw 9827   2.695   7.110   3.517 -0.4125  2.1647 -0.3155
 2457SOL     vw 9828   2.739   7.128   3.590 -0.1351 -0.0432  0.1402
 2458SOL     ow 9829   2.291   5.329   2.843 -1.1570  0.0928  0.8004
 2458SOL     hw 9830   2.304   5.409   2.791 -0.3949 -0.5646 -0.0623
 2458SOL     hw 9831   2.232   5.276   2.790 -1.7020  0.1004  1.3961
 2458SOL     vw 9832   2.285   5.332   2.829 -1.1284  0.0074  0.7651
 2459SOL     ow 9833   5.432   5.375   6.058 -1.0733  0.2342 -0.1803
 2459SOL     hw 9834   5.490   5.328   5.998 -1.9561 -1.0867 -0.0276
 2459SOL     hw 9835   5.378   5.430   6.001 -0.7495  0.2907 -0.4408
 2459SOL     vw 9836   5.433   5.376   6.043 -1.1473  0.0672 -0.1945
 2460SOL     ow 9837   1.414   1.380   0.657 -0.2205  0.0014 -0.0251
 2460SOL     hw 9838   1.510   1.384   0.654 -0.0572 -0.3949  2.5408
 2460SOL     hw 9839   1.388   1.466   0.691 -0.5285 -0.8144  1.9316
 2460SOL     vw 9840   1.424   1.392   0.661 -0.2396 -0.1585  0.5716
 2461SOL     ow 9841   6.348   4.799   2.385  0.5498  0.2138 -0.0551
 2461SOL     hw 9842   6.407   4.840   2.448  0.6165  0.6088 -0.3744
 2461SOL     hw 9843   6.328   4.868   2.322 -0.9017  0.3308  0.4955
 2461SOL     vw 9844   6.353   4.813   2.385  0.3669  0.2813 -0.0247
 2462SOL     ow 9845   1.704   4.755   4.632 -0.4243  0.2823 -0.1817
 2462SOL     hw 9846   1.705   4.776   4.538  0.6790 -0.4939 -0.3625
 2462SOL     hw 9847   1.697   4.660   4.635  1.2457  0.1493  0.4701
 2462SOL     vw 9848   1.703   4.745   4.620 -0.0584  0.1621 -0.1197
 2463SOL     ow 9849   0.452   0.796   4.448  0.6939  0.0495  0.8073
 2463SOL     hw 9850   0.427   0.704   4.454 -0.1252  0.1006 -1.1417
 2463SOL     hw 9851   0.538   0.795   4.407 -0.2812  0.1734 -1.3704
 2463SOL     vw 9852   0.460   0.784   4.444  0.4572  0.0726  0.2627
 2464SOL     ow 9853   1.049   5.292   6.844  0.1973 -0.1589 -0.5640
 2464SOL     hw 9854   0.965   5.279   6.889  1.2665 -0.5012  1.4423
 2464SOL     hw 9855   1.074   5.381   6.867  0.5808 -0.1990 -0.8296
 2464SOL     vw 9856   1.041   5.302   6.853  0.3890 -0.2096 -0.3340
 2465SOL     ow 9857   1.631   2.650   0.746  0.0989 -0.4975  0.6197
 2465SOL     hw 9858   1.714   2.685   0.716  0.4109 -2.2603 -0.7213
 2465SOL     hw 9859   1.565   2.694   0.692  0.4468 -1.5160 -0.6894
 2465SOL     vw 9860   1.633   2.660   0.735  0.1860 -0.8645  0.2700
 2466SOL     ow 9861   6.598   5.415   6.402 -0.3259  0.2471  0.2579
 2466SOL     hw 9862   6.687   5.431   6.433 -0.5715  0.0710  1.0759
 2466SOL     hw 9863   6.609   5.356   6.327  0.1277 -1.9721  1.9571
 2466SOL     vw 9864   6.611   5.409   6.396 -0.2985 -0.0689  0.5898
 2467SOL     ow 9865   2.809   5.215   2.509  0.9413 -0.1093 -0.3792
 2467SOL     hw 9866   2.768   5.183   2.428  2.7307 -0.4620 -1.1907
 2467SOL     hw 9867   2.812   5.138   2.566 -0.2937  0.1322  0.0531
 2467SOL     vw 9868   2.804   5.201   2.506  1.0145 -0.1240 -0.4292
 2468SOL     ow 9869   2.695   0.024   3.936  0.5112  0.4069 -0.2236
 2468SOL     hw 9870   2.617   0.076   3.955 -0.2237 -0.0069 -1.9352
 2468SOL     hw 9871   2.765   0.065   3.987 -0.4787  1.8048  0.0514
 2468SOL     vw 9872   2.694   0.036   3.945  0.2836  0.5368 -0.4132
 2469SOL     ow 9873   3.457   4.900   0.519 -0.5938 -0.2375 -0.2098
 2469SOL     hw 9874   3.536   4.948   0.493 -0.1934 -1.7269 -1.8841
 2469SOL     hw 9875   3.391   4.968   0.531  0.9075  1.0602  1.2855
 2469SOL     vw 9876   3.459   4.916   0.517 -0.3428 -0.2627 -0.2334
 2470SOL     ow 9877   4.613   0.827   5.534 -0.0758  0.2448 -0.3465
 2470SOL     hw 9878   4.664   0.775   5.471 -0.4854  1.1614 -1.4681
 2470SOL     hw 9879   4.673   0.841   5.607  0.6973 -0.1365 -0.8881
 2470SOL     vw 9880   4.628   0.822   5.535 -0.0279  0.3155 -0.5662
 2471SOL     ow 9881   5.708   2.472   0.859 -0.1580 -0.4949 -0.2150
 2471SOL     hw 9882   5.732   2.384   0.831  0.1243 -1.1470  1.8769
 2471SOL     hw 9883   5.778   2.498   0.919 -1.3198  0.2638  0.8556
 2471SOL     vw 9884   5.720   2.464   0.863 -0.2739 -0.4808  0.2023
 2472SOL     ow 9885   2.475   7.124   5.657 -0.0507  0.9904  0.0022
 2472SOL     hw 9886   2.554   7.174   5.639  1.0015 -0.2744  0.9075
 2472SOL     hw 9887   2.427   7.124   5.574  2.8677 -1.6185 -1.8841
 2472SOL     vw 9888   2.479   7.131   5.643  0.4731  0.4792 -0.1273
 2473SOL     ow 9889   5.546   1.212   5.174  0.6922  0.2483  0.3882
 2473SOL     hw 9890   5.590   1.183   5.254  1.0673  0.3503  0.2162
 2473SOL     hw 9891   5.456   1.232   5.203  0.9184  0.6166  0.8507
 2473SOL     vw 9892   5.540   1.211   5.188  0.7715  0.3103  0.4268
 2474SOL     ow 9893   3.875   2.725   0.766 -0.6756  0.1355  0.1673
 2474SOL     hw 9894   3.908   2.813   0.784 -0.1498  0.0782 -0.4879
 2474SOL     hw 9895   3.801   2.714   0.826 -0.5157  0.8843  0.5056
 2474SOL     vw 9896   3.869   2.735   0.776 -0.5851  0.2267  0.1255
 2475SOL     ow 9897   0.608   1.460   4.720 -0.0620 -0.1867  0.3441
 2475SOL     hw 9898   0.654   1.454   4.804  0.8127 -0.0687 -0.1231
 2475SOL     hw 9899   0.557   1.541   4.727  3.5901  2.5381 -0.9359
 2475SOL     vw 9900   0.607   1.470   4.732  0.5352  0.1884  0.1137
 2476SOL     ow 9901   3.092   4.612   6.665 -0.2083 -0.0424  0.0773
 2476SOL     hw 9902   3.090   4.700   6.702  0.3690  0.3609 -0.8130
 2476SOL     hw 9903   3.087   4.553   6.741  0.4124  0.7510  0.7480
 2476SOL     vw 9904   3.091   4.616   6.680 -0.0502  0.1154  0.0482
 2477SOL     ow 9905   5.553   5.318   2.084 -0.3204 -0.1104 -0.3340
 2477SOL     hw 9906   5.606   5.323   2.004 -0.7156  1.6435 -0.5337
 2477SOL     hw 9907   5.483   5.256   2.062 -0.5273  0.4777 -1.4382
 2477SOL     vw 9908   5.551   5.311   2.070 -0.3998  0.1986 -0.5060
 2478SOL     ow 9909   4.198   6.003   4.984  0.2796  0.5008  0.2854
 2478SOL     hw 9910   4.249   5.938   4.934  2.2179  1.8544  0.3905
 2478SOL     hw 9911   4.156   5.951   5.053  0.1409 -0.9276 -0.8175
 2478SOL     vw 9912   4.199   5.987   4.987  0.5171  0.4911  0.1538
 2479SOL     ow 9913   2.250   2.702   1.196  0.1520  0.2238  0.4556
 2479SOL     hw 9914   2.243   2.647   1.118  0.3413  0.3119  0.3771
 2479SOL     hw 9915   2.263   2.790   1.162  1.7461  0.0652  0.5914
 2479SOL     vw 9916   2.251   2.706   1.181  0.3873  0.2145  0.4632
 2480SOL     ow 9917   0.435   1.784   4.471 -0.1526  0.4066 -0.1285
 2480SOL     hw 9918   0.487   1.800   4.550  0.9160 -2.5998 -0.0882
 2480SOL     hw 9919   0.461   1.855   4.411 -0.3015  2.2129  1.8144
 2480SOL     vw 9920   0.446   1.796   4.473 -0.0313  0.2482  0.1333
 2481SOL     ow 9921   1.431   4.729   1.245 -0.5680  0.8591 -0.2562
 2481SOL     hw 9922   1.481   4.670   1.188 -1.3669 -1.0055  0.8666
 2481SOL     hw 9923   1.396   4.795   1.185 -0.5618 -0.4569 -1.8111
 2481SOL     vw 9924   1.433   4.730   1.230 -0.6726  0.4394 -0.3132
 2482SOL     ow 9925   0.712   1.956   0.016 -0.0749  0.3029 -0.8183
 2482SOL     hw 9926   0.688   2.048   0.029  2.6347  1.1575 -1.2597
 2482SOL     hw 9927   0.792   1.945   0.068  2.3279 -0.4026 -4.2869
 2482SOL     vw 9928   0.720   1.967   0.025  0.5996  0.3225 -1.3342
 2483SOL     ow 9929   6.890   4.328   3.663 -0.5223  0.6441 -0.1788
 2483SOL     hw 9930   6.966   4.308   3.719  0.4612 -1.3722 -2.0751
 2483SOL     hw 9931   6.923   4.392   3.600 -0.4253 -0.0227 -0.8292
 2483SOL     vw 9932   6.905   4.334   3.662 -0.3796  0.2902 -0.5149
 2484SOL     ow 9933   0.173   1.622   5.053  0.2673  0.2737 -0.4255
 2484SOL     hw 9934   0.124   1.540   5.039 -0.6610  0.6063  0.7356
 2484SOL     hw 9935   0.120   1.671   5.116  1.9896  0.7659  0.6970
 2484SOL     vw 9936   0.160   1.617   5.059  0.3720  0.3825 -0.1245
 2485SOL     ow 9937   0.076   1.641   1.484  0.0025  0.3120  0.0971
 2485SOL     hw 9938   0.016   1.716   1.492  0.1197  0.7364 -2.2120
 2485SOL     hw 9939   0.018   1.565   1.478 -0.4184  0.7439 -2.3975
 2485SOL     vw 9940   0.060   1.641   1.484 -0.0376  0.4249 -0.5367
 2486SOL     ow 9941   5.733   2.192   3.076 -0.1035 -0.5518 -0.0326
 2486SOL     hw 9942   5.700   2.281   3.089  0.4513 -0.4157  0.5104
 2486SOL     hw 9943   5.818   2.204   3.033  1.3349 -0.6181  2.5623
 2486SOL     vw 9944   5.740   2.206   3.072  0.1595 -0.5425  0.3814
 2487SOL     ow 9945   4.094   2.532   0.740  0.0209  0.1764  0.0818
 2487SOL     hw 9946   4.156   2.599   0.711 -0.1559  0.6803  0.8566
 2487SOL     hw 9947   4.149   2.461   0.773  0.2081 -0.0739 -0.7453
 2487SOL     vw 9948   4.109   2.531   0.740  0.0224  0.2098  0.0748
 2488SOL     ow 9949   2.833   4.595   6.559 -0.3309 -0.4067 -0.4837
 2488SOL     hw 9950   2.919   4.595   6.601 -0.4462 -1.7083 -0.1931
 2488SOL     hw 9951   2.787   4.669   6.598  0.6852  0.3727 -0.7232
 2488SOL     vw 9952   2.839   4.605   6.570 -0.2122 -0.4756 -0.4768
 2489SOL     ow 9953   1.779   4.576   3.800 -0.3325 -0.1804 -0.3247
 2489SOL     hw 9954   1.834   4.622   3.736  0.4173  0.2476  0.5936
 2489SOL     hw 9955   1.837   4.509   3.837 -1.0285 -1.0173 -0.7271
 2489SOL     vw 9956   1.794   4.573   3.797 -0.3254 -0.2344 -0.2567
 2490SOL     ow 9957   2.235   1.063   4.235 -0.3279  0.1281  0.1323
 2490SOL     hw 9958   2.315   1.022   4.203 -0.8495  0.4862 -1.7621
 2490SOL     hw 9959   2.233   1.149   4.192 -2.2722 -0.3262 -0.8068
 2490SOL     vw 9960   2.245   1.069   4.225 -0.6534  0.1155 -0.2415
 2491SOL     ow 9961   4.033   3.200   5.507  0.2618  0.3208 -0.3825
 2491SOL     hw 9962   4.050   3.106   5.519  0.8418  0.4214 -0.3618
 2491SOL     hw 9963   4.098   3.228   5.442 -1.1927  0.3087 -1.8910
 2491SOL     vw 9964   4.044   3.191   5.500  0.1464  0.3325 -0.5786
 2492SOL     ow 9965   1.061   0.174   5.924 -0.6227  0.5616 -0.2856
 2492SOL     hw 9966   1.043   0.199   5.833 -0.3291  0.3993 -0.3883
 2492SOL     hw 9967   0.986   0.120   5.949  0.0963 -0.7861 -0.9723
 2492SOL     vw 9968   1.049   0.170   5.915 -0.4891  0.3624 -0.3901
 2493SOL     ow 9969   2.850   6.481   5.688  0.0441  0.0529 -0.8450
 2493SOL     hw 9970   2.818   6.502   5.776 -0.3302  0.4889 -1.0837
 2493SOL     hw 9971   2.889   6.394   5.697  1.8076  0.8926  0.2102
 2493SOL     vw 9972   2.851   6.472   5.701  0.2273  0.2215 -0.7372
 2494SOL     ow 9973   5.873   1.048   3.660  0.2491 -0.8676 -0.2898
 2494SOL     hw 9974   5.958   1.017   3.630  0.2290 -0.9588 -0.2540
 2494SOL     hw 9975   5.815   0.972   3.651 -0.1054 -0.4842 -1.4088
 2494SOL     vw 9976   5.876   1.033   3.655  0.1993 -0.8291 -0.4328
 2495SOL     ow 9977   3.576   4.205   4.792 -0.2541  0.1883 -0.0228
 2495SOL     hw 9978   3.593   4.296   4.766  0.9582 -0.0780 -0.2279
 2495SOL     hw 9979   3.658   4.160   4.775 -0.4945 -0.7240  1.1200
 2495SOL     vw 9980   3.589   4.211   4.786 -0.1259  0.0331  0.1009
 2496SOL     ow 9981   4.086   5.791   5.125 -0.3414  0.0709 -0.0406
 2496SOL     hw 9982   4.040   5.777   5.042 -0.6675  1.5275 -0.1406
 2496SOL     hw 9983   4.137   5.711   5.139  1.2559  0.5107 -2.6381
 2496SOL     vw 9984   4.087   5.779   5.116 -0.1738  0.3209 -0.3965
 2497SOL     ow 9985   1.473   7.101   4.979 -0.2488  0.8277 -0.2687
 2497SOL     hw 9986   1.563   7.134   4.986 -0.2196  0.6648  0.1872
 2497SOL     hw 9987   1.439   7.105   5.069 -0.9009  1.4444 -0.5330
 2497SOL     vw 9988   1.480   7.106   4.992 -0.3310  0.8876 -0.2434
 2498SOL     ow 9989   5.502   6.947   2.343  0.1138  0.0781 -0.5647
 2498SOL     hw 9990   5.414   6.976   2.318  0.0812 -0.5747 -1.2309
 2498SOL     hw 9991   5.488   6.888   2.416 -0.2424 -1.8982 -2.1435
 2498SOL     vw 9992   5.489   6.943   2.349  0.0625 -0.2687 -0.8609
 2499SOL     ow 9993   0.812   3.693   5.843  0.3007  0.2610  0.1366
 2499SOL     hw 9994   0.834   3.612   5.796  0.9315  1.6309 -2.0745
 2499SOL     hw 9995   0.718   3.704   5.830 -0.0610 -0.7768  1.6245
 2499SOL     vw 9996   0.802   3.684   5.835  0.3362  0.3048  0.0412
 2500SOL     ow 9997   4.892   2.756   3.853 -0.0741  0.9467  0.0446
 2500SOL     hw 9998   4.847   2.672   3.866  0.4954  0.7533  0.7846
 2500SOL     hw 9999   4.971   2.733   3.804 -0.0816  1.0946 -0.0360
 2500SOL     vw10000   4.896   2.742   3.848  0.0000  0.9407  0.1316
 2501SOL     ow10001   2.442   0.480   7.095 -0.3587  0.0586  0.0341
 2501SOL     hw10002   2.500   0.448   7.165  0.1706  0.1792 -0.3392
 2501SOL     hw10003   2.387   0.405   7.073 -0.7816  0.1250  0.8270
 2501SOL     vw10004   2.443   0.466   7.101 -0.3446  0.0833  0.0896
 2502SOL     ow10005   5.194   1.735   5.289 -0.1569  0.1816  0.1447
 2502SOL     hw10006   5.107   1.775   5.288 -1.2192 -1.9411  1.4675
 2502SOL     hw10007   5.180   1.646   5.255  1.2739 -0.5731  1.4350
 2502SOL     vw10008   5.180   1.729   5.284 -0.1082 -0.1980  0.4895
 2503SOL     ow10009   6.925   2.204   1.696  0.5455 -0.1726  0.2300
 2503SOL     hw10010   6.876   2.184   1.776  1.3126 -2.3180  0.2499
 2503SOL     hw10011   6.942   2.298   1.700  0.2068 -0.1575  2.3922
 2503SOL     vw10012   6.921   2.213   1.707  0.6022 -0.4537  0.5180
 2504SOL     ow10013   6.188   2.418   1.486 -0.3159  0.2257 -0.0556
 2504SOL     hw10014   6.096   2.429   1.462  0.0656 -0.8371 -2.2029
 2504SOL     hw10015   6.232   2.494   1.449 -0.1103 -0.0544 -0.3911
 2504SOL     vw10016   6.182   2.429   1.478 -0.2382  0.0484 -0.3832
 2505SOL     ow10017   3.481   5.768   0.378  0.1848  0.3886  0.1672
 2505SOL     hw10018   3.395   5.730   0.362  0.1387 -0.2790  1.7686
 2505SOL     hw10019   3.532   5.696   0.416  0.9288  1.2072  0.7760
 2505SOL     vw10020   3.477   5.753   0.381  0.2768  0.4084  0.4588
 2506SOL     ow10021   1.747   1.356   1.291  0.0597 -0.2864 -0.0948
 2506SOL     hw10022   1.800   1.313   1.224  0.4229  0.2779 -0.1773
 2506SOL     hw10023   1.798   1.348   1.371  0.1506  0.0260 -0.1199
 2506SOL     vw10024   1.761   1.350   1.292  0.1196 -0.1708 -0.1090
 2507SOL     ow10025   2.034   5.815   0.842 -0.3263  0.9804  0.2808
 2507SOL     hw10026   2.094   5.744   0.869  1.3775  2.7529  1.4208
 2507SOL     hw10027   1.996   5.784   0.760  1.7255 -0.5057 -0.1934
 2507SOL     vw10028   2.037   5.801   0.835  0.1694  1.0183  0.3687
 2508SOL     ow10029   4.221   5.683   0.061 -0.1627  0.1032 -0.4822
 2508SOL     hw10030   4.240   5.732  -0.019  0.0534  2.2985  0.8347
 2508SOL     hw10031   4.254   5.738   0.132 -2.7498 -0.4714  1.3099
 2508SOL     vw10032   4.228   5.697   0.060 -0.4754  0.3169 -0.0720
 2509SOL     ow10033   2.098   5.205   2.711  0.0760  0.5036 -0.1948
 2509SOL     hw10034   2.046   5.131   2.680 -1.0069  1.5932 -1.0882
 2509SOL     hw10035   2.117   5.256   2.632 -0.7824  2.1358  0.5878
 2509SOL     vw10036   2.094   5.202   2.697 -0.1801  0.8626 -0.2093
 2510SOL     ow10037   5.318   0.523   2.730  0.3001  0.4391  0.5581
 2510SOL     hw10038   5.409   0.538   2.705  0.0140  1.2718 -0.0399
 2510SOL     hw10039   5.319   0.520   2.826  0.9562  0.4395  0.5539
 2510SOL     vw10040   5.330   0.525   2.739  0.3490  0.5490  0.4786
 2511SOL     ow10041   2.994   3.636   4.320 -0.4926  0.2980  0.2978
 2511SOL     hw10042   2.925   3.614   4.383 -0.0203 -2.1658  0.0531
 2511SOL     hw10043   3.064   3.573   4.338 -0.5700 -0.9414 -3.0128
 2511SOL     vw10044   2.994   3.625   4.331 -0.4405 -0.1905 -0.1714
 2512SOL     ow10045   4.898   6.659   2.396 -0.4662 -0.3035 -0.5501
 2512SOL     hw10046   4.827   6.621   2.447  0.6636 -0.9015  0.6441
 2512SOL     hw10047   4.856   6.694   2.318 -1.9796 -1.1294 -0.1387
 2512SOL     vw10048   4.883   6.659   2.392 -0.5167 -0.4914 -0.3383
 2513SOL     ow10049   3.750   1.281   0.435  0.1162 -0.1256  0.8931
 2513SOL     hw10050   3.747   1.325   0.519 -1.9429  0.5110  0.5424
 2513SOL     hw10051   3.819   1.215   0.445  0.0022  0.0063  3.0303
 2513SOL     vw10052   3.758   1.278   0.447 -0.1705 -0.0242  1.1289
 2514SOL     ow10053   2.936   3.175   4.077  0.2629 -0.1259  0.4058
 2514SOL     hw10054   2.855   3.126   4.088  0.4016 -0.4324  0.0855
 2514SOL     hw10055   3.001   3.109   4.052  0.2802  0.3198 -0.7815
 2514SOL     vw10056   2.934   3.160   4.075  0.2834 -0.1076  0.2069
 2515SOL     ow10057   1.597   6.603   6.594  0.2420  0.0589 -0.0396
 2515SOL     hw10058   1.510   6.567   6.613 -0.8591  1.8479 -1.4148
 2515SOL     hw10059   1.638   6.611   6.680 -1.4446  0.3340  0.7891
 2515SOL     vw10060   1.591   6.599   6.608 -0.1258  0.3314 -0.1116
 2516SOL     ow10061   6.366   3.829   2.765 -0.0515  0.3181  0.0324
 2516SOL     hw10062   6.273   3.822   2.747 -0.2339  0.5737  0.8351
 2516SOL     hw10063   6.401   3.742   2.746 -0.2237  0.5359 -1.4400
 2516SOL     vw10064   6.359   3.817   2.760 -0.0982  0.3806 -0.0559
 2517SOL     ow10065   6.672   3.357   0.767  0.5232 -0.5386  0.4863
 2517SOL     hw10066   6.681   3.432   0.826  0.7864  0.7104 -1.0797
 2517SOL     hw10067   6.637   3.287   0.823 -2.0623  1.4132  1.5250
 2517SOL     vw10068   6.669   3.358   0.782  0.2170 -0.1163  0.4167
 2518SOL     ow10069   3.314   7.069   6.925  0.2729  0.1813 -0.1647
 2518SOL     hw10070   3.227   7.033   6.906 -0.1739  0.4665  1.2249
 2518SOL     hw10071   3.357   7.000   6.975  1.4309 -0.5610 -2.0618
 2518SOL     vw10072   3.308   7.055   6.929  0.3666  0.1211 -0.2315
 2519SOL     ow10073   3.042   0.993   0.081  0.4654  0.0951  0.3684
 2519SOL     hw10074   3.041   1.067   0.141  1.2009 -0.2239  0.7978
 2519SOL     hw10075   3.064   1.031  -0.004 -2.0961  0.7643 -0.0587
 2519SOL     vw10076   3.045   1.008   0.078  0.2246  0.1413  0.3687
 2520SOL     ow10077   3.748   0.399   5.726  0.1843 -0.1685  0.1137
 2520SOL     hw10078   3.842   0.382   5.730  0.5229  1.2881 -0.7520
 2520SOL     hw10079   3.740   0.470   5.662 -1.4752 -0.0600  0.4097
 2520SOL     vw10080   3.760   0.406   5.718  0.0100  0.0380  0.0386
 2521SOL     ow10081   3.323   4.157   0.727 -0.0678  0.1376 -0.0422
 2521SOL     hw10082   3.334   4.088   0.661 -1.0081  0.2115 -0.2970
 2521SOL     hw10083   3.347   4.115   0.810 -0.1825 -0.3617 -0.2556
 2521SOL     vw10084   3.327   4.142   0.729 -0.2069  0.0815 -0.1040
 2522SOL     ow10085   3.147   5.164   1.611 -0.2690  0.3967 -0.1627
 2522SOL     hw10086   3.051   5.166   1.608 -0.5960 -2.8650  2.3852
 2522SOL     hw10087   3.172   5.110   1.536 -0.6558 -0.4734  0.3088
 2522SOL     vw10088   3.137   5.157   1.601 -0.3631 -0.1483  0.2357
 2523SOL     ow10089   3.218   2.071   5.891 -0.0618 -0.0197  0.2790
 2523SOL     hw10090   3.133   2.108   5.917  0.4950  0.3737  1.5914
 2523SOL     hw10091   3.261   2.140   5.841  0.1986  0.4361  1.1178
 2523SOL     vw10092   3.212   2.085   5.888  0.0461  0.0923  0.5627
 2524SOL     ow10093   5.903   0.214   2.240  0.4683  0.7537  0.3540
 2524SOL     hw10094   5.969   0.273   2.277  0.5311  0.5536  0.5692
 2524SOL     hw10095   5.925   0.128   2.276  0.7489  0.4831 -0.4427
 2524SOL     vw10096   5.915   0.210   2.250  0.5138  0.6916  0.2774
 2525SOL     ow10097   2.774   6.651   3.979 -0.0062  0.7091  1.0117
 2525SOL     hw10098   2.855   6.662   3.930  0.0226  0.9190  1.1057
 2525SOL     hw10099   2.773   6.725   4.040  0.7564 -0.4362  2.4555
 2525SOL     vw10100   2.784   6.662   3.980  0.0982  0.5856  1.2147
 2526SOL     ow10101   4.106   5.869   3.712 -0.2395 -0.0715 -0.3172
 2526SOL     hw10102   4.152   5.927   3.771  1.1815  1.1398 -2.4763
 2526SOL     hw10103   4.055   5.811   3.769  0.2650  1.6340  1.9854
 2526SOL     vw10104   4.105   5.869   3.727  0.0148  0.3133 -0.2981
 2527SOL     ow10105   6.010   2.196   6.532 -0.2696  0.5633  0.1607
 2527SOL     hw10106   6.092   2.226   6.572 -0.2498  0.5784  0.1082
 2527SOL     hw10107   6.023   2.209   6.438  0.5704 -1.6134 -0.0737
 2527SOL     vw10108   6.023   2.202   6.525 -0.1564  0.2781  0.1228
 2528SOL     ow10109   0.833   2.537   6.717  0.4225  0.3792 -0.1378
 2528SOL     hw10110   0.798   2.545   6.805 -2.3049 -3.5517 -0.6034
 2528SOL     hw10111   0.925   2.514   6.730 -0.1625 -1.1555  1.7920
 2528SOL     vw10112   0.841   2.535   6.730 -0.0145 -0.3420  0.0551
 2529SOL     ow10113   1.498   4.726   1.521 -0.1203  0.2617  0.6443
 2529SOL     hw10114   1.464   4.754   1.605  1.8382 -0.1285  1.6236
 2529SOL     hw10115   1.552   4.800   1.491 -2.0106  1.0486 -1.0746
 2529SOL     vw10116   1.500   4.740   1.528 -0.1113  0.3140  0.5467
 2530SOL     ow10117   6.385   5.202   6.477 -0.0296 -0.2527 -0.7324
 2530SOL     hw10118   6.298   5.197   6.436 -0.1073 -0.2614 -0.5678
 2530SOL     hw10119   6.408   5.110   6.494  0.2949 -0.2939 -1.3607
 2530SOL     vw10120   6.376   5.189   6.474  0.0029 -0.2594 -0.7935
 2531SOL     ow10121   0.135   4.036   0.667  0.1885  0.4240  0.3192
 2531SOL     hw10122   0.045   4.007   0.654  0.9076 -1.8073 -0.0763
 2531SOL     hw10123   0.173   4.037   0.579  1.4294 -1.9125  0.7543
 2531SOL     vw10124   0.128   4.033   0.654  0.4471 -0.1786  0.3245
 2532SOL     ow10125   1.685   0.537   3.114 -0.0729  0.4991 -0.0495
 2532SOL     hw10126   1.612   0.583   3.156 -0.5211  0.7059 -1.0331
 2532SOL     hw10127   1.696   0.457   3.166 -0.1445  1.0731  0.8844
 2532SOL     vw10128   1.677   0.533   3.127 -0.1415  0.6022 -0.0561
 2533SOL     ow10129   2.179   4.206   6.287 -0.0330 -0.3494 -0.3656
 2533SOL     hw10130   2.273   4.198   6.269  0.0620 -0.0586 -0.0178
 2533SOL     hw10131   2.162   4.300   6.284 -0.4059 -0.4294 -0.8691
 2533SOL     vw10132   2.189   4.217   6.285 -0.0697 -0.3216 -0.3860
 2534SOL     ow10133   1.599   6.219   1.438  0.5498  0.1980  0.6137
 2534SOL     hw10134   1.565   6.254   1.355  1.4522  1.4962  0.7705
 2534SOL     hw10135   1.563   6.130   1.442  1.9535 -0.6204 -2.0954
 2534SOL     vw10136   1.590   6.212   1.427  0.8541  0.2613  0.2770
 2535SOL     ow10137   1.293   5.422   5.597 -0.3274 -0.2308 -0.1977
 2535SOL     hw10138   1.237   5.372   5.656 -1.4588  1.7119  0.4713
 2535SOL     hw10139   1.244   5.502   5.580  1.3092  0.5791 -1.3833
 2535SOL     vw10140   1.279   5.426   5.603 -0.2608  0.1323 -0.2658
 2536SOL     ow10141   1.908   7.070   5.196  0.2185 -0.2388  0.0747
 2536SOL     hw10142   1.892   7.100   5.285  1.8177  0.6194  0.1131
 2536SOL     hw10143   2.003   7.071   5.187  0.0883  2.5341 -2.5501
 2536SOL     vw10144   1.918   7.074   5.207  0.4123  0.2403 -0.2668
 2537SOL     ow10145   2.948   2.150   3.829 -0.0727 -0.1887  0.5556
 2537SOL     hw10146   2.912   2.170   3.915 -3.8388  1.8497 -1.2510
 2537SOL     hw10147   2.926   2.059   3.814 -1.9641  0.2129  0.7062
 2537SOL     vw10148   2.941   2.141   3.839 -0.8192  0.1333  0.3371
 2538SOL     ow10149   0.096   4.081   2.513  0.2170  1.0620  0.4697
 2538SOL     hw10150   0.123   3.996   2.547 -1.6597 -0.4612 -1.5679
 2538SOL     hw10151   0.133   4.084   2.425 -3.5223  0.0966 -1.3508
 2538SOL     vw10152   0.105   4.070   2.506 -0.5240  0.7336 -0.0392
 2539SOL     ow10153   2.519   3.989   1.043  0.1724 -0.0057 -0.0786
 2539SOL     hw10154   2.481   4.068   1.081  3.8029  1.6247  0.5509
 2539SOL     hw10155   2.601   3.975   1.091  0.5615 -3.1649 -1.3789
 2539SOL     vw10156   2.525   3.997   1.054  0.7026 -0.2073 -0.1671
 2540SOL     ow10157   2.628   2.475   4.358  0.3712  0.0706  0.5487
 2540SOL     hw10158   2.549   2.517   4.324  0.5680 -0.6693 -0.9166
 2540SOL     hw10159   2.605   2.383   4.365  0.2872  0.2141  2.6981
 2540SOL     vw10160   2.614   2.469   4.355  0.3861 -0.0082  0.6390
 2541SOL     ow10161   2.918   1.203   6.063  0.1146 -0.1931 -0.1215
 2541SOL     hw10162   2.873   1.125   6.029 -1.0752  0.8007 -0.8944
 2541SOL     hw10163   2.921   1.263   5.989  3.0567 -0.2983 -0.2027
 2541SOL     vw10164   2.912   1.201   6.049  0.3458 -0.0759 -0.2341
 2542SOL     ow10165   0.007   0.114   5.822 -0.4400 -0.3236 -0.5224
 2542SOL     hw10166  -0.084   0.132   5.798 -0.4844  1.0675  0.5546
 2542SOL     hw10167   0.009   0.129   5.917  0.7387 -1.1252 -0.4062
 2542SOL     vw10168  -0.005   0.118   5.832 -0.2902 -0.2458 -0.3650
 2543SOL     ow10169   2.487   6.132   2.180 -0.3278 -0.0731  0.1717
 2543SOL     hw10170   2.421   6.135   2.249 -1.6239  1.8465 -1.0690
 2543SOL     hw10171   2.570   6.136   2.226 -1.0457 -1.4262  1.7155
 2543SOL     vw10172   2.489   6.133   2.195 -0.5937  0.0019  0.2118
 2544SOL     ow10173   4.362   5.245   4.861 -0.2456  0.4316  0.3144
 2544SOL     hw10174   4.362   5.341   4.855 -0.1241  0.4338  0.3278
 2544SOL     hw10175   4.270   5.221   4.862 -0.4458  0.2893 -3.7346
 2544SOL     vw10176   4.350   5.255   4.860 -0.2561  0.4132 -0.2179
 2545SOL     ow10177   1.113   5.259   1.227  0.1930  0.1446 -0.1480
 2545SOL     hw10178   1.164   5.180   1.210 -0.6888 -0.3382 -0.6339
 2545SOL     hw10179   1.027   5.241   1.187 -0.1048  1.2363 -0.0237
 2545SOL     vw10180   1.108   5.246   1.219  0.0374  0.2248 -0.1957
 2546SOL     ow10181   4.124   6.633   0.181  0.2761  0.0136 -0.3848
 2546SOL     hw10182   4.175   6.658   0.258 -1.0509 -0.4635  0.6961
 2546SOL     hw10183   4.125   6.537   0.182 -2.7582 -0.1317  1.2474
 2546SOL     vw10184   4.130   6.624   0.191 -0.2995 -0.0684 -0.0268
 2547SOL     ow10185   5.535   0.741   0.718  0.1264  0.1446  0.6982
 2547SOL     hw10186   5.470   0.680   0.752  0.0412  0.0633  0.3974
 2547SOL     hw10187   5.593   0.759   0.791 -0.0475 -0.0346  0.8795
 2547SOL     vw10188   5.534   0.735   0.732  0.0920  0.1102  0.6824
 2548SOL     ow10189   7.059   4.191   0.214 -0.4005  0.3990 -0.4754
 2548SOL     hw10190   7.125   4.255   0.239 -1.1295  1.1175 -0.3585
 2548SOL     hw10191   7.092   4.154   0.132  0.5641  0.1249  0.0211
 2548SOL     vw10192   7.072   4.195   0.206 -0.3693  0.4578 -0.3945
 2549SOL     ow10193   2.920   3.938   0.434  0.1316 -1.0401 -0.2797
 2549SOL     hw10194   2.876   3.947   0.349  0.4682  0.8681 -0.2986
 2549SOL     hw10195   3.010   3.917   0.412  1.0569  2.6506 -0.6547
 2549SOL     vw10196   2.926   3.936   0.420  0.2981 -0.3014 -0.3317
 2550SOL     ow10197   1.609   6.395   6.091 -0.0846  0.1368  0.1295
 2550SOL     hw10198   1.583   6.487   6.097  2.6505  0.9608  0.8135
 2550SOL     hw10199   1.590   6.370   6.001 -1.5038  1.1333  0.1219
 2550SOL     vw10200   1.603   6.403   6.080  0.0891  0.3772  0.2186
 2551SOL     ow10201   6.672   3.901   2.305  0.1673  0.0227  0.0923
 2551SOL     hw10202   6.723   3.858   2.373 -0.2823 -0.0537  0.3791
 2551SOL     hw10203   6.585   3.863   2.312  0.2537 -0.3802 -0.8798
 2551SOL     vw10204   6.667   3.891   2.315  0.1197 -0.0405  0.0020
 2552SOL     ow10205   1.650   3.564   0.637  0.3966 -0.2003  0.0833
 2552SOL     hw10206   1.707   3.494   0.668  0.8313  0.1957  0.2079
 2552SOL     hw10207   1.582   3.571   0.703  0.2972 -0.5684  0.0210
 2552SOL     vw10208   1.649   3.556   0.650  0.4408 -0.1968  0.0916
 2553SOL     ow10209   1.287   5.563   3.566 -0.0463 -0.1001  0.2704
 2553SOL     hw10210   1.291   5.472   3.537  0.0223 -0.5379  1.5553
 2553SOL     hw10211   1.332   5.563   3.651 -0.5901  0.9996  0.5817
 2553SOL     vw10212   1.293   5.551   3.574 -0.1089 -0.0126  0.4810
 2554SOL     ow10213   1.811   1.106   0.099 -0.2069  0.4674  0.0706
 2554SOL     hw10214   1.716   1.098   0.110  0.0841 -1.1257  2.0626
 2554SOL     hw10215   1.839   1.162   0.172  0.4790  0.1304  0.0738
 2554SOL     vw10216   1.802   1.112   0.110 -0.0780  0.2127  0.3338
 2555SOL     ow10217   1.644   4.153   2.706 -0.3929 -0.4534  0.0426
 2555SOL     hw10218   1.616   4.154   2.615  0.5732  0.3368 -0.2607
 2555SOL     hw10219   1.579   4.207   2.752  0.0566  0.5486 -0.4771
 2555SOL     vw10220   1.632   4.160   2.700 -0.2061 -0.2172 -0.0659
 2556SOL     ow10221   5.062   5.568   0.407  0.0532  0.4448 -0.0861
 2556SOL     hw10222   5.094   5.532   0.491  2.8692  2.1258 -0.3038
 2556SOL     hw10223   5.041   5.490   0.355  0.3226 -0.7071  1.4275
 2556SOL     vw10224   5.064   5.553   0.411  0.4601  0.5145  0.0848
 2557SOL     ow10225   4.401   6.262   5.120 -0.1422  0.0709 -0.2171
 2557SOL     hw10226   4.449   6.258   5.202  0.4768 -0.7355 -0.6041
 2557SOL     hw10227   4.460   6.222   5.055 -0.7131  0.4703 -1.0044
 2557SOL     vw10228   4.415   6.256   5.122 -0.1359  0.0172 -0.3722
 2558SOL     ow10229   3.692   6.243   4.682 -0.5230  0.0225  0.2635
 2558SOL     hw10230   3.781   6.209   4.681 -0.1428  0.9923 -0.8108
 2558SOL     hw10231   3.657   6.219   4.596 -0.6278  1.3365 -0.0712
 2558SOL     vw10232   3.699   6.235   4.670 -0.4866  0.3235  0.0777
 2559SOL     ow10233   5.626   1.197   2.135 -0.4418  0.1473  0.4135
 2559SOL     hw10234   5.545   1.165   2.176  0.7022 -0.5114  2.3089
 2559SOL     hw10235   5.636   1.286   2.168 -0.4940  0.2902  0.0395
 2559SOL     vw10236   5.617   1.204   2.145 -0.2978  0.0793  0.6142
 2560SOL     ow10237   2.198   4.224   2.379  0.3306 -0.0422  0.6101
 2560SOL     hw10238   2.173   4.293   2.441 -0.8819  0.0991 -0.0156
 2560SOL     hw10239   2.273   4.260   2.333  0.0005  0.6758  0.6136
 2560SOL     vw10240   2.204   4.238   2.381  0.1271  0.0710  0.5280
 2561SOL     ow10241   2.074   3.970   0.950  0.8961 -0.9956  0.0806
 2561SOL     hw10242   2.003   3.996   1.010  0.1280 -1.4776 -0.5925
 2561SOL     hw10243   2.078   4.042   0.887  1.3277 -0.7538  0.3761
 2561SOL     vw10244   2.065   3.983   0.950  0.8516 -1.0273  0.0308
 2562SOL     ow10245   0.862   5.624   3.961  0.0552 -0.2630 -0.3682
 2562SOL     hw10246   0.818   5.650   4.042  1.8536  1.2348  0.1973
 2562SOL     hw10247   0.824   5.683   3.895 -0.8415 -0.9471 -0.4774
 2562SOL     vw10248   0.851   5.635   3.963  0.1742 -0.1557 -0.3079
 2563SOL     ow10249   0.187   1.862   4.811 -0.1066 -0.2118  0.1529
 2563SOL     hw10250   0.206   1.948   4.848  2.1122 -0.4749 -0.2509
 2563SOL     hw10251   0.098   1.869   4.777 -0.7151  1.2825  1.9104
 2563SOL     vw10252   0.177   1.874   4.812  0.1059 -0.0494  0.3314
 2564SOL     ow10253   5.007   3.349   2.528  0.1743  0.2867 -0.3819
 2564SOL     hw10254   5.020   3.279   2.592 -0.5416  0.4197 -0.0900
 2564SOL     hw10255   5.095   3.364   2.492  0.3947 -0.5458 -0.2289
 2564SOL     vw10256   5.020   3.342   2.531  0.1087  0.1943 -0.3231
 2565SOL     ow10257   1.585   3.382   2.010  0.0201  0.7583  0.0707
 2565SOL     hw10258   1.490   3.386   2.001 -0.1010  1.9585  1.4537
 2565SOL     hw10259   1.612   3.474   2.013  1.3965  0.4616 -1.6346
 2565SOL     vw10260   1.576   3.395   2.009  0.1857  0.8775  0.0283
 2566SOL     ow10261   0.035   0.441   6.150  0.5806 -0.8092 -0.5680
 2566SOL     hw10262   0.003   0.442   6.241 -1.5446 -1.6288 -1.2303
 2566SOL     hw10263   0.104   0.507   6.148 -1.4742  1.5736  0.9327
 2566SOL     vw10264   0.040   0.449   6.162  0.0291 -0.6029 -0.4575
 2567SOL     ow10265   1.433   2.068   3.314  0.0469 -0.1168  0.7316
 2567SOL     hw10266   1.382   2.097   3.390 -0.3550 -0.4255  0.5857
 2567SOL     hw10267   1.367   2.040   3.251  0.3688  0.4692  0.1298
 2567SOL     vw10268   1.417   2.068   3.316  0.0364 -0.0802  0.6330
 2568SOL     ow10269   0.748   0.429   0.194 -0.0194 -0.5255 -0.1424
 2568SOL     hw10270   0.798   0.510   0.196 -1.7920  0.6217  0.3869
 2568SOL     hw10271   0.760   0.394   0.106 -2.0441  2.2401 -1.6559
 2568SOL     vw10272   0.756   0.435   0.183 -0.5204 -0.0093 -0.2723
 2569SOL     ow10273   0.418   2.951   0.561  0.5249  0.1537  0.4585
 2569SOL     hw10274   0.421   2.944   0.466 -0.2434  3.3823  0.0747
 2569SOL     hw10275   0.497   3.001   0.584  0.1521  0.3407  1.3870
 2569SOL     vw10276   0.429   2.957   0.551  0.3744  0.6044  0.5303
 2570SOL     ow10277   5.798   6.891   5.530  0.1603  0.3499 -0.0002
 2570SOL     hw10278   5.737   6.950   5.486 -0.0531  1.1418  1.3117
 2570SOL     hw10279   5.800   6.921   5.621  1.1851 -0.7478  0.3719
 2570SOL     vw10280   5.790   6.903   5.536  0.2670  0.3095  0.2220
 2571SOL     ow10281   2.869   2.718   1.219  0.3087  0.0073  0.2860
 2571SOL     hw10282   2.950   2.681   1.183 -1.0453 -1.1508 -1.7650
 2571SOL     hw10283   2.855   2.798   1.169 -0.7065 -0.7244 -0.6407
 2571SOL     vw10284   2.878   2.724   1.208 -0.0039 -0.2422 -0.1069
 2572SOL     ow10285   4.382   4.621   0.333  0.0971  0.2135 -0.1333
 2572SOL     hw10286   4.288   4.603   0.339  0.2042 -0.1036  0.7970
 2572SOL     hw10287   4.395   4.698   0.388  0.3801  0.2896 -0.3038
 2572SOL     vw10288   4.372   4.629   0.341  0.1488  0.1817 -0.0330
 2573SOL     ow10289   2.729   1.723   6.355  0.2010  0.6685  0.3004
 2573SOL     hw10290   2.796   1.664   6.389 -1.0287 -1.2035 -0.3889
 2573SOL     hw10291   2.659   1.721   6.420 -1.1369 -1.0701 -1.1041
 2573SOL     vw10292   2.729   1.715   6.368 -0.1378  0.1921  0.0243
 2574SOL     ow10293   1.821   3.322   1.123  0.2809 -0.3536  0.0463
 2574SOL     hw10294   1.911   3.316   1.157 -0.0485  2.2123  1.6367
 2574SOL     hw10295   1.827   3.384   1.051 -0.3813  0.9773  1.0913
 2574SOL     vw10296   1.834   3.329   1.118  0.1501  0.1606  0.3941
 2575SOL     ow10297   3.058   2.191   2.113 -0.6157  0.3393 -0.1084
 2575SOL     hw10298   3.090   2.204   2.023 -0.1068 -1.1957 -0.1762
 2575SOL     hw10299   2.965   2.173   2.103 -0.8201  1.3642 -0.2037
 2575SOL     vw10300   3.050   2.190   2.100 -0.5755  0.2720 -0.1299
 2576SOL     ow10301   0.913   6.667   2.630 -0.3275 -0.1916  0.4434
 2576SOL     hw10302   0.940   6.753   2.598 -0.4935 -0.1630  0.3784
 2576SOL     hw10303   0.958   6.605   2.572 -0.3432 -0.1457  0.3820
 2576SOL     vw10304   0.922   6.670   2.618 -0.3515 -0.1819  0.4268
 2577SOL     ow10305   6.540   1.691   6.753 -0.6581  0.2837  0.3575
 2577SOL     hw10306   6.468   1.674   6.814  0.8938 -1.4671  1.8128
 2577SOL     hw10307   6.559   1.784   6.764  0.4005 -0.2086  3.6037
 2577SOL     vw10308   6.533   1.701   6.763 -0.3135 -0.0122  0.9782
 2578SOL     ow10309   4.973   3.022   3.967  0.5013  0.1469 -0.4251
 2578SOL     hw10310   4.991   3.078   3.891  0.7735  1.8987  0.8842
 2578SOL     hw10311   5.056   3.017   4.014 -0.5500  2.4606  1.8828
 2578SOL     vw10312   4.986   3.029   3.963  0.3986  0.6833  0.0520
 2579SOL     ow10313   4.343   5.358   4.183  0.6191  0.0482  0.1577
 2579SOL     hw10314   4.269   5.363   4.243  0.9044  4.3538  0.4339
 2579SOL     hw10315   4.415   5.325   4.237 -0.5740 -2.5653  0.3045
 2579SOL     vw10316   4.343   5.354   4.198  0.4990  0.2716  0.2134
 2580SOL     ow10317   7.158   2.835   0.578 -0.3031 -0.0608  0.2058
 2580SOL     hw10318   7.114   2.902   0.524  0.8671  1.7280  1.3549
 2580SOL     hw10319   7.086   2.790   0.623 -1.1177  0.8518 -0.1410
 2580SOL     vw10320   7.142   2.838   0.577 -0.2563  0.2956  0.3116
 2581SOL     ow10321   4.216   5.151   3.655  0.0071 -0.7863 -0.2529
 2581SOL     hw10322   4.123   5.142   3.631 -0.4852  1.4936  0.5666
 2581SOL     hw10323   4.255   5.197   3.581  0.2586 -0.8056 -0.1306
 2581SOL     vw10324   4.209   5.156   3.642 -0.0248 -0.4883 -0.1286
 2582SOL     ow10325   6.122   5.343   3.165  0.3446 -0.0712  0.1338
 2582SOL     hw10326   6.125   5.425   3.214  1.5886 -0.7965  1.3417
 2582SOL     hw10327   6.076   5.282   3.223 -0.6127 -0.2370 -0.7712
 2582SOL     vw10328   6.116   5.346   3.179  0.3827 -0.1888  0.1738
 2583SOL     ow10329   5.132   2.447   1.331  0.0458  0.1785  0.3059
 2583SOL     hw10330   5.191   2.386   1.287  0.9471  2.3516 -1.6829
 2583SOL     hw10331   5.189   2.507   1.378 -0.4712  2.1991 -1.4863
 2583SOL     vw10332   5.147   2.447   1.331  0.0963  0.7318 -0.1929
 2584SOL     ow10333   4.682   4.243   0.919  0.1523 -0.5206  0.4793
 2584SOL     hw10334   4.655   4.292   0.997 -0.4372  0.6993 -0.4601
 2584SOL     hw10335   4.762   4.286   0.890 -0.2630 -0.2211 -0.2456
 2584SOL     vw10336   4.689   4.255   0.926  0.0198 -0.3200  0.2598
 2585SOL     ow10337   5.657   1.136   5.404  0.7015 -0.2181  0.3209
 2585SOL     hw10338   5.710   1.182   5.469  0.2578 -0.6849  1.0243
 2585SOL     hw10339   5.640   1.050   5.443  0.8966 -0.7047 -0.6558
 2585SOL     vw10340   5.661   1.131   5.418  0.6688 -0.3439  0.2847
 2586SOL     ow10341   5.319   7.167   5.153  0.1061 -0.4574  0.0544
 2586SOL     hw10342   5.338   7.104   5.083 -1.8974 -0.5579 -0.4764
 2586SOL     hw10343   5.368   7.246   5.128  0.1007 -0.7766 -1.0362
 2586SOL     vw10344   5.328   7.169   5.140 -0.1590 -0.5128 -0.1595
 2587SOL     ow10345   5.868   3.247   5.651 -0.6895 -0.3626  0.0242
 2587SOL     hw10346   5.906   3.283   5.571 -0.7243 -0.3191  0.0274
 2587SOL     hw10347   5.884   3.153   5.644 -0.6507 -0.3535 -0.0119
 2587SOL     vw10348   5.875   3.239   5.639 -0.6890 -0.3557  0.0198
 2588SOL     ow10349   2.093   5.789   1.643  0.4195 -0.3434  0.0350
 2588SOL     hw10350   2.153   5.862   1.655  1.1972 -1.0099  0.2992
 2588SOL     hw10351   2.015   5.812   1.694  0.7146  0.2272  0.2271
 2588SOL     vw10352   2.090   5.802   1.651  0.5611 -0.3562  0.0951
 2589SOL     ow10353   6.678   5.101   3.639  1.1838 -0.4792 -0.4209
 2589SOL     hw10354   6.728   5.064   3.567  0.5920 -0.1294 -1.0232
 2589SOL     hw10355   6.635   5.026   3.680  0.6539 -0.5622 -1.1143
 2589SOL     vw10356   6.679   5.087   3.635  1.0357 -0.4442 -0.5920
 2590SOL     ow10357   1.477   6.754   3.252 -0.9483 -0.0607 -0.8653
 2590SOL     hw10358   1.447   6.805   3.328  0.1899  1.0930 -1.1572
 2590SOL     hw10359   1.446   6.665   3.270  0.3354 -0.1224  1.6159
 2590SOL     vw10360   1.469   6.749   3.265 -0.6289  0.0832 -0.5765
 2591SOL     ow10361   1.720   6.647   6.840  0.1214  0.4864  0.2341
 2591SOL     hw10362   1.708   6.732   6.884 -1.8750  0.6158 -0.4571
 2591SOL     hw10363   1.676   6.584   6.897 -2.1617  0.6022 -1.2766
 2591SOL     vw10364   1.713   6.650   6.853 -0.4432  0.5186 -0.0565
 2592SOL     ow10365   4.388   0.592   0.379  0.2461  0.1493 -0.0370
 2592SOL     hw10366   4.435   0.563   0.457 -0.9835 -2.0690 -0.0352
 2592SOL     hw10367   4.401   0.522   0.316 -0.0636  1.1918 -1.3039
 2592SOL     vw10368   4.396   0.579   0.381  0.0432 -0.0058 -0.2039
 2593SOL     ow10369   1.250   1.618   2.603  0.1688 -0.0429  0.5400
 2593SOL     hw10370   1.308   1.640   2.676  1.0830  0.4269 -0.2897
 2593SOL     hw10371   1.226   1.703   2.565  0.7512 -0.3071 -0.4699
 2593SOL     vw10372   1.254   1.632   2.607  0.3663 -0.0157  0.2974
 2594SOL     ow10373   0.061   1.097   4.302  0.5803  0.0670  0.0926
 2594SOL     hw10374   0.083   1.008   4.329 -0.4160 -0.3594 -0.4285
 2594SOL     hw10375   0.144   1.144   4.304  1.2803 -1.0908 -0.4306
 2594SOL     vw10376   0.075   1.091   4.306  0.5412 -0.1420 -0.0453
 2595SOL     ow10377   4.110   4.215   5.431 -0.4889 -0.4223 -0.1720
 2595SOL     hw10378   4.095   4.307   5.409  1.5821 -0.0058  0.0275
 2595SOL     hw10379   4.202   4.211   5.457 -1.2516 -2.0091  2.6536
 2595SOL     vw10380   4.120   4.227   5.431 -0.3164 -0.5765  0.2272
 2596SOL     ow10381   6.909   0.589   1.101 -0.0469  0.2223  0.6890
 2596SOL     hw10382   6.934   0.580   1.009  1.2763  1.1410  0.9324
 2596SOL     hw10383   6.893   0.683   1.112 -0.2358  0.1123  1.3857
 2596SOL     vw10384   6.910   0.600   1.090  0.1028  0.3290  0.8130
 2597SOL     ow10385   2.879   3.764   0.846 -0.0416 -0.2077  0.4648
 2597SOL     hw10386   2.872   3.858   0.862 -3.2886 -0.1964 -0.3189
 2597SOL     hw10387   2.876   3.725   0.933  1.7699  0.3846  0.8248
 2597SOL     vw10388   2.877   3.771   0.859 -0.2310 -0.1280  0.4089
 2598SOL     ow10389   0.467   5.968   2.554 -0.5333  0.4299  0.1292
 2598SOL     hw10390   0.447   6.016   2.634  1.0238 -1.4770  1.7747
 2598SOL     hw10391   0.408   6.006   2.488 -3.8918  0.2881  2.7554
 2598SOL     vw10392   0.457   5.979   2.556 -0.7710  0.1600  0.6927
 2599SOL     ow10393   0.070   0.925   2.844 -0.4596 -0.0360  0.7364
 2599SOL     hw10394   0.161   0.937   2.818 -0.5104  0.7676  0.9064
 2599SOL     hw10395   0.067   0.836   2.880  0.4842  0.2696  1.6328
 2599SOL     vw10396   0.081   0.915   2.846 -0.3418  0.1104  0.8773
 2600SOL     ow10397   2.644   0.414   0.067 -0.2710  0.2933 -0.0970
 2600SOL     hw10398   2.699   0.388  -0.007  0.4003 -1.9654  1.0981
 2600SOL     hw10399   2.700   0.469   0.121  0.2779 -0.5836  0.2458
 2600SOL     vw10400   2.658   0.417   0.065 -0.1099 -0.1204  0.1059
 2601SOL     ow10401   0.189   4.357   5.974  0.3626 -0.0435  0.1898
 2601SOL     hw10402   0.265   4.323   5.926  0.4114  1.8660 -1.2151
 2601SOL     hw10403   0.226   4.416   6.040  0.1669 -0.5669  0.7766
 2601SOL     vw10404   0.204   4.360   5.976  0.3432  0.1392  0.0820
 2602SOL     ow10405   3.095   4.397   6.485  0.5783  0.0778 -0.0608
 2602SOL     hw10406   3.082   4.470   6.546  0.5610  0.2427 -0.2585
 2602SOL     hw10407   3.180   4.416   6.444 -0.4241  1.1938 -1.7384
 2602SOL     vw10408   3.105   4.409   6.488  0.4437  0.2470 -0.3083
 2603SOL     ow10409   2.962   0.515   2.801  0.1471 -0.4215  0.1468
 2603SOL     hw10410   2.938   0.540   2.890  0.3854 -0.6921  0.2887
 2603SOL     hw10411   2.939   0.422   2.795  1.7414 -0.8756  0.5089
 2603SOL     vw10412   2.956   0.506   2.812  0.3890 -0.5171  0.2133
 2604SOL     ow10413   5.694   7.126   2.281  0.5469 -0.2272 -0.0531
 2604SOL     hw10414   5.767   7.122   2.343  1.0252 -1.5915 -0.6733
 2604SOL     hw10415   5.632   7.062   2.314 -0.7556  1.4296  0.8778
 2604SOL     vw10416   5.696   7.117   2.294  0.4382 -0.1886 -0.0120
 2605SOL     ow10417   7.112   6.924   1.755  0.4803 -0.4257 -0.0255
 2605SOL     hw10418   7.039   6.872   1.790  1.4966 -0.8540  1.5324
 2605SOL     hw10419   7.190   6.887   1.796  1.5530  0.3127 -1.3194
 2605SOL     vw10420   7.112   6.912   1.765  0.7558 -0.3848  0.0093
 2606SOL     ow10421   5.323   0.129   2.333 -0.3279  0.3277 -0.6901
 2606SOL     hw10422   5.234   0.095   2.339  0.2492 -1.1152  0.0718
 2606SOL     hw10423   5.320   0.215   2.376 -1.2991  0.2188 -0.5321
 2606SOL     vw10424   5.311   0.136   2.339 -0.3796  0.1230 -0.5687
 2607SOL     ow10425   3.058   6.534   2.258 -0.1248 -0.5386  0.1118
 2607SOL     hw10426   3.012   6.568   2.334 -0.7633 -0.0754 -0.4652
 2607SOL     hw10427   3.004   6.461   2.227 -0.0992 -0.4511 -0.1472
 2607SOL     vw10428   3.045   6.529   2.264 -0.2055 -0.4659  0.0015
 2608SOL     ow10429   2.574   6.533   4.176  0.0569  0.0900  0.6995
 2608SOL     hw10430   2.542   6.455   4.223  0.4008  0.0234  0.8320
 2608SOL     hw10431   2.537   6.607   4.224 -0.6339  0.0028  0.3067
 2608SOL     vw10432   2.565   6.532   4.189  0.0112  0.0699  0.6652
 2609SOL     ow10433   1.510   2.781   5.262 -0.0715  0.0602  0.1667
 2609SOL     hw10434   1.497   2.699   5.215 -0.5702  0.1813  0.0895
 2609SOL     hw10435   1.459   2.771   5.343  0.1537  0.1579  0.3229
 2609SOL     vw10436   1.502   2.769   5.267 -0.1076  0.0890  0.1769
 2610SOL     ow10437   5.688   7.134   0.008 -0.3849 -0.2165 -0.5984
 2610SOL     hw10438   5.646   7.185  -0.062 -0.6399 -1.5447 -1.4623
 2610SOL     hw10439   5.770   7.181   0.026 -1.2182  1.2183 -0.4004
 2610SOL     vw10440   5.693   7.147   0.001 -0.5286 -0.2024 -0.6862
 2611SOL     ow10441   3.718   2.429   4.570  0.5521 -0.1504  0.0670
 2611SOL     hw10442   3.662   2.506   4.563 -1.3519 -1.4346  0.5222
 2611SOL     hw10443   3.713   2.388   4.484 -0.3949 -1.0467  0.5400
 2611SOL     vw10444   3.710   2.434   4.557  0.1758 -0.4381  0.1895
 2612SOL     ow10445   0.617   6.885   1.928 -0.0170  0.0894 -0.5382
 2612SOL     hw10446   0.627   6.871   2.022  2.0948 -0.4417 -0.8012
 2612SOL     hw10447   0.536   6.838   1.906 -0.0284 -0.5870  0.8500
 2612SOL     vw10448   0.607   6.877   1.938  0.2602 -0.0699 -0.3898
 2613SOL     ow10449   2.881   0.205   6.817 -0.1108 -0.4563 -0.4100
 2613SOL     hw10450   2.885   0.114   6.785 -2.1551 -0.3589 -1.1333
 2613SOL     hw10451   2.871   0.257   6.737 -0.7466  0.2361  0.1166
 2613SOL     vw10452   2.880   0.200   6.802 -0.4644 -0.3521 -0.4361
 2614SOL     ow10453   6.727   7.129   2.856 -0.4435 -0.2439 -0.2276
 2614SOL     hw10454   6.651   7.126   2.914  0.7818 -1.4534  1.3988
 2614SOL     hw10455   6.787   7.190   2.899  1.1700 -2.4032  0.7481
 2614SOL     vw10456   6.725   7.137   2.870 -0.0687 -0.6883  0.1158
 2615SOL     ow10457   0.323   0.226   1.583 -0.4024 -0.2856 -0.7386
 2615SOL     hw10458   0.364   0.312   1.594 -0.2161 -0.1036 -2.5798
 2615SOL     hw10459   0.362   0.191   1.503 -3.2589 -0.4319 -2.1838
 2615SOL     vw10460   0.334   0.232   1.574 -0.7547 -0.2809 -1.1722
 2616SOL     ow10461   5.539   6.054   0.588  0.1456 -0.2688  0.1662
 2616SOL     hw10462   5.466   6.090   0.639  0.9068  0.2693  0.8985
 2616SOL     hw10463   5.550   6.115   0.515  0.9843  0.6571  1.0268
 2616SOL     vw10464   5.531   6.067   0.585  0.3567 -0.0758  0.3764
 2617SOL     ow10465   6.561   4.575   2.446  0.5120  0.1581  0.3981
 2617SOL     hw10466   6.642   4.611   2.483  0.2901  0.0113  1.0399
 2617SOL     hw10467   6.591   4.509   2.383  0.9021 -1.2556  1.9931
 2617SOL     vw10468   6.576   4.571   2.443  0.5343 -0.0477  0.6932
 2618SOL     ow10469   4.322   7.158   0.361  0.1430 -0.1317 -0.3625
 2618SOL     hw10470   4.231   7.135   0.339 -0.1001 -0.5540  0.9640
 2618SOL     hw10471   4.370   7.146   0.279 -0.5701 -2.3049 -0.5289
 2618SOL     vw10472   4.316   7.153   0.347  0.0172 -0.4741 -0.2094
 2619SOL     ow10473   5.863   1.612   1.264  0.6561  0.8182  0.5024
 2619SOL     hw10474   5.790   1.630   1.324 -0.5940 -1.9228 -0.0230
 2619SOL     hw10475   5.856   1.679   1.197  1.2874  3.1651  2.6385
 2619SOL     vw10476   5.852   1.623   1.263  0.5746  0.7663  0.7150
 2620SOL     ow10477   6.519   3.455   1.819  0.5167  0.6364  0.0296
 2620SOL     hw10478   6.580   3.512   1.866  0.6252  0.1504  0.4865
 2620SOL     hw10479   6.432   3.490   1.840  0.5803  0.6202  0.3269
 2620SOL     vw10480   6.516   3.467   1.828  0.5393  0.5703  0.1291
 2621SOL     ow10481   0.831   4.029   6.793 -0.2827  0.4337 -0.0893
 2621SOL     hw10482   0.753   3.999   6.838 -0.6194  1.4654  0.0473
 2621SOL     hw10483   0.896   4.044   6.862  0.5987 -1.9245 -0.3283
 2621SOL     vw10484   0.829   4.027   6.808 -0.2108  0.2587 -0.1028
 2622SOL     ow10485   3.107   4.422   6.860  0.4309 -0.1622 -0.4111
 2622SOL     hw10486   3.167   4.400   6.931 -0.1097  0.0759  0.1308
 2622SOL     hw10487   3.075   4.338   6.828 -0.6520 -0.2436  0.7951
 2622SOL     vw10488   3.111   4.408   6.865  0.2167 -0.1416 -0.1805
 2623SOL     ow10489   1.756   5.433   3.180 -0.2757 -0.3032  0.1421
 2623SOL     hw10490   1.789   5.504   3.125  0.4294  0.4325  1.4853
 2623SOL     hw10491   1.824   5.419   3.245 -0.1590 -2.6013 -0.3981
 2623SOL     vw10492   1.769   5.441   3.181 -0.1673 -0.5093  0.2482
 2624SOL     ow10493   0.169   6.927   0.173  0.0305  0.2207  0.5642
 2624SOL     hw10494   0.122   7.011   0.180  1.5998  1.0419  2.0739
 2624SOL     hw10495   0.102   6.865   0.143 -1.3672  1.8379  0.1331
 2624SOL     vw10496   0.154   6.930   0.170  0.0531  0.5424  0.7065
 2625SOL     ow10497   1.628   6.515   7.085  0.5002  0.4622 -0.0777
 2625SOL     hw10498   1.699   6.472   7.133  0.8093 -0.0873 -0.9975
 2625SOL     hw10499   1.573   6.443   7.054 -0.0601  0.8461  0.0183
 2625SOL     vw10500   1.631   6.499   7.087  0.4671  0.4404 -0.1867
 2626SOL     ow10501   3.307   2.695   2.334  0.7734 -0.0613  0.0997
 2626SOL     hw10502   3.305   2.775   2.281 -0.4491 -0.5064 -0.5746
 2626SOL     hw10503   3.346   2.722   2.418  1.1995  1.0247 -0.4353
 2626SOL     vw10504   3.312   2.709   2.338  0.6684  0.0231 -0.0597
 2627SOL     ow10505   3.207   2.314   5.016  0.0230 -0.1402  0.7179
 2627SOL     hw10506   3.248   2.364   4.946  0.0155  0.3689  1.0744
 2627SOL     hw10507   3.258   2.232   5.020 -0.4893 -0.5360 -0.4242
 2627SOL     vw10508   3.219   2.310   5.007 -0.0455 -0.1253  0.6142
 2628SOL     ow10509   6.036   6.731   5.078 -0.1344 -0.0575 -0.3255
 2628SOL     hw10510   6.078   6.779   5.007  1.2311 -0.5387  0.1166
 2628SOL     hw10511   6.067   6.775   5.158 -1.1480  0.0877  0.0037
 2628SOL     vw10512   6.046   6.743   5.080 -0.0882 -0.1018 -0.2239
 2629SOL     ow10513   2.837   1.497   1.169  0.6042  0.4591  0.3219
 2629SOL     hw10514   2.782   1.419   1.158 -0.3763  1.1830  0.0043
 2629SOL     hw10515   2.903   1.470   1.233  0.2232 -0.6078  0.2864
 2629SOL     vw10516   2.838   1.483   1.176  0.4246  0.4139  0.2753
 2630SOL     ow10517   3.389   0.608   2.183  0.6272 -0.5697  0.2686
 2630SOL     hw10518   3.299   0.586   2.205  0.8451 -0.4658  1.3231
 2630SOL     hw10519   3.382   0.669   2.109 -0.2176  0.1618  0.9249
 2630SOL     vw10520   3.376   0.613   2.176  0.5445 -0.4595  0.4944
 2631SOL     ow10521   4.913   6.487   3.035 -0.2907  0.1177  0.6687
 2631SOL     hw10522   4.930   6.533   2.954  1.5606  1.4460  1.7326
 2631SOL     hw10523   4.828   6.520   3.064 -0.8610 -0.2036 -0.5720
 2631SOL     vw10524   4.904   6.498   3.028 -0.1216  0.2506  0.6453
 2632SOL     ow10525   1.876   6.580   2.960  0.0386  0.0928 -0.1073
 2632SOL     hw10526   1.962   6.562   2.999  0.2305 -0.2184 -0.6622
 2632SOL     hw10527   1.847   6.496   2.925  0.5540  0.6391 -1.9608
 2632SOL     vw10528   1.884   6.566   2.960  0.1319  0.1237 -0.4252
 2633SOL     ow10529   4.862   7.005   0.008 -0.5022 -0.3914  0.0118
 2633SOL     hw10530   4.873   6.922   0.056 -2.5079 -0.4937  0.3540
 2633SOL     hw10531   4.866   7.072   0.076  1.5902 -0.0979 -0.3154
 2633SOL     vw10532   4.864   7.003   0.024 -0.4907 -0.3662  0.0136
 2634SOL     ow10533   3.465   0.067   2.261  0.1773 -0.3401 -0.7233
 2634SOL     hw10534   3.399  -0.001   2.273 -0.5698  0.4755 -0.0748
 2634SOL     hw10535   3.543   0.033   2.304  0.2278 -1.3649 -1.5983
 2634SOL     vw10536   3.467   0.054   2.269  0.0855 -0.3677 -0.7532
 2635SOL     ow10537   6.726   5.526   6.962 -0.6107  0.1359 -0.8147
 2635SOL     hw10538   6.733   5.431   6.946 -1.1161  0.0838 -0.7505
 2635SOL     hw10539   6.816   5.558   6.958 -0.1868 -0.6578  1.0865
 2635SOL     vw10540   6.739   5.517   6.960 -0.6216  0.0243 -0.5555
 2636SOL     ow10541   4.690   7.082   6.659 -0.0998  0.0468  0.2806
 2636SOL     hw10542   4.638   7.159   6.635 -0.5728 -0.7696 -1.5816
 2636SOL     hw10543   4.635   7.008   6.631 -0.6693 -1.1378  4.0204
 2636SOL     vw10544   4.676   7.083   6.652 -0.2372 -0.2172  0.5281
 2637SOL     ow10545   3.416   2.120   4.296  0.0221 -0.3233  0.1543
 2637SOL     hw10546   3.420   2.083   4.385  0.3174 -0.1047  0.2309
 2637SOL     hw10547   3.335   2.171   4.295 -0.2413 -0.7371  0.1393
 2637SOL     vw10548   3.406   2.122   4.308  0.0262 -0.3490  0.1626
 2638SOL     ow10549   0.498   4.418   0.436 -0.1566 -0.8332  0.0477
 2638SOL     hw10550   0.449   4.407   0.517 -0.1919  0.5337  0.2461
 2638SOL     hw10551   0.455   4.492   0.392  1.1420 -0.1863 -0.1998
 2638SOL     vw10552   0.486   4.426   0.441  0.0101 -0.5677  0.0412
 2639SOL     ow10553   0.798   6.099   4.883 -0.4910 -0.4773 -0.7574
 2639SOL     hw10554   0.738   6.118   4.956 -0.4156 -2.7969 -0.0064
 2639SOL     hw10555   0.872   6.158   4.897 -1.4785  0.7044 -0.2876
 2639SOL     vw10556   0.800   6.109   4.895 -0.6113 -0.6275 -0.5963
 2640SOL     ow10557   3.893   1.769   6.532 -0.0863  0.2942  0.6335
 2640SOL     hw10558   3.846   1.803   6.456 -1.2494 -4.1226 -0.9144
 2640SOL     hw10559   3.983   1.759   6.502 -0.5395 -1.4278 -0.2773
 2640SOL     vw10560   3.899   1.772   6.518 -0.2996 -0.5158  0.3090
 2641SOL     ow10561   3.199   3.870   4.467 -0.2064 -0.6297 -0.1626
 2641SOL     hw10562   3.180   3.905   4.380 -0.6176 -0.8574 -0.1685
 2641SOL     hw10563   3.198   3.775   4.456  0.2759 -0.6514 -0.0197
 2641SOL     vw10564   3.196   3.862   4.454 -0.1972 -0.6627 -0.1445
 2642SOL     ow10565   3.153   3.851   0.342  0.1265  0.0504  0.0549
 2642SOL     hw10566   3.177   3.926   0.287 -0.2033  0.7134  0.7958
 2642SOL     hw10567   3.158   3.776   0.283  0.9416  0.5845 -0.5827
 2642SOL     vw10568   3.157   3.851   0.327  0.1905  0.2084  0.0685
 2643SOL     ow10569   0.220   5.183   7.170 -0.3421 -0.5377 -0.4055
 2643SOL     hw10570   0.192   5.092   7.170 -1.0214 -0.3305 -0.2488
 2643SOL     hw10571   0.316   5.179   7.162 -0.4743 -1.2279 -2.0842
 2643SOL     vw10572   0.229   5.171   7.169 -0.4491 -0.6013 -0.6063
 2644SOL     ow10573   0.212   4.172   0.901  0.1221 -0.0915  0.2080
 2644SOL     hw10574   0.170   4.211   0.978  1.0817  0.9757  0.2044
 2644SOL     hw10575   0.166   4.212   0.826  0.7303  0.6195  0.2100
 2644SOL     vw10576   0.200   4.183   0.901  0.3289  0.1433  0.2078
 2645SOL     ow10577   4.502   1.995   3.450 -0.2149 -0.0765  0.1708
 2645SOL     hw10578   4.465   2.072   3.494 -0.6586  0.9658 -1.8723
 2645SOL     hw10579   4.575   2.030   3.400  0.3158 -1.2243  0.1302
 2645SOL     vw10580   4.507   2.010   3.449 -0.2036 -0.0905 -0.1040
 2646SOL     ow10581   5.350   2.648   5.046  0.2476  0.4946 -0.7306
 2646SOL     hw10582   5.392   2.615   5.125  1.2839  1.2899 -0.9170
 2646SOL     hw10583   5.359   2.743   5.052 -0.8147  0.6395 -1.1945
 2646SOL     vw10584   5.357   2.656   5.057  0.2439  0.6186 -0.8166
 2647SOL     ow10585   0.987   2.047   0.482  0.5555  0.3034  0.0604
 2647SOL     hw10586   1.027   1.967   0.516 -0.8543 -0.8035 -0.7690
 2647SOL     hw10587   1.053   2.115   0.496  1.4515 -0.8268  1.5576
 2647SOL     vw10588   1.001   2.045   0.488  0.4877  0.0082  0.1485
 2648SOL     ow10589   3.162   3.723   3.313 -0.2050 -0.7302 -0.4472
 2648SOL     hw10590   3.242   3.773   3.325 -1.1970  0.7966  0.0970
 2648SOL     hw10591   3.141   3.735   3.220 -0.7250  0.3719 -0.2083
 2648SOL     vw10592   3.170   3.731   3.302 -0.4046 -0.3834 -0.3437
 2649SOL     ow10593   4.198   5.516   3.796  0.2033  0.3242  0.5782
 2649SOL     hw10594   4.270   5.529   3.734  0.6615 -0.1100  0.9983
 2649SOL     hw10595   4.220   5.433   3.840 -1.9318 -1.2706 -1.1430
 2649SOL     vw10596   4.211   5.507   3.794 -0.0179  0.0565  0.4066
 2650SOL     ow10597   6.677   4.268   0.435 -0.2059 -0.2027  0.3431
 2650SOL     hw10598   6.689   4.264   0.530  0.9443 -0.2907  0.2081
 2650SOL     hw10599   6.588   4.303   0.423  0.0990  1.0142  1.4471
 2650SOL     vw10600   6.667   4.272   0.446 -0.0138 -0.0541  0.4709
 2651SOL     ow10601   1.930   0.104   4.399 -0.0463 -0.4710  0.3134
 2651SOL     hw10602   1.870   0.173   4.429 -0.2248 -0.6215  0.3027
 2651SOL     hw10603   1.873   0.042   4.353  0.2712 -0.0429 -0.6865
 2651SOL     vw10604   1.914   0.105   4.397 -0.0280 -0.4344  0.1800
 2652SOL     ow10605   3.826   3.127   6.752  0.2381  0.2106  0.4122
 2652SOL     hw10606   3.745   3.122   6.701  0.0698  2.7139  0.3072
 2652SOL     hw10607   3.895   3.130   6.687  0.2909 -0.1432  0.4503
 2652SOL     vw10608   3.824   3.127   6.737  0.2228  0.4941  0.4034
 2653SOL     ow10609   1.680   5.299   5.015  0.1244  0.0984 -0.6019
 2653SOL     hw10610   1.684   5.394   5.005  0.3932  0.1962  0.3189
 2653SOL     hw10611   1.750   5.279   5.078 -0.4916 -0.6028 -0.1324
 2653SOL     vw10612   1.690   5.309   5.022  0.0786  0.0186 -0.4184
 2654SOL     ow10613   0.569   5.424   5.673  0.0353 -0.1624 -0.0769
 2654SOL     hw10614   0.500   5.454   5.614 -0.2990 -1.1298 -0.1972
 2654SOL     hw10615   0.525   5.409   5.756  0.4113  0.7176  0.2947
 2654SOL     vw10616   0.554   5.426   5.676  0.0407 -0.1738 -0.0434
 2655SOL     ow10617   4.838   6.164   1.677  0.7687 -0.1125  0.5538
 2655SOL     hw10618   4.895   6.190   1.604 -1.2194 -0.4000 -1.2052
 2655SOL     hw10619   4.822   6.071   1.662 -2.8093  0.6208 -1.0556
 2655SOL     vw10620   4.844   6.155   1.665  0.0343 -0.0536  0.1094
 2656SOL     ow10621   5.281   3.447   0.588  0.3894  0.0781  0.8600
 2656SOL     hw10622   5.267   3.383   0.658  0.5222 -0.2143  0.6179
 2656SOL     hw10623   5.280   3.532   0.634  1.1153 -0.1483  1.3157
 2656SOL     vw10624   5.279   3.450   0.604  0.5026  0.0099  0.8882
 2657SOL     ow10625   3.090   6.036   0.024 -0.0258  0.0087 -0.0854
 2657SOL     hw10626   3.099   5.948  -0.012 -0.8006 -0.9958  1.9904
 2657SOL     hw10627   2.997   6.056   0.017  0.0635  0.4573 -0.0627
 2657SOL     vw10628   3.079   6.027   0.018 -0.1161 -0.0646  0.1912
 2658SOL     ow10629   3.437   0.761   2.516  0.0593 -0.4302  0.4438
 2658SOL     hw10630   3.423   0.805   2.432 -1.5649 -0.5493  0.6137
 2658SOL     hw10631   3.413   0.670   2.499  1.7470 -0.9194  0.5315
 2658SOL     vw10632   3.432   0.755   2.503  0.0677 -0.5105  0.4778
 2659SOL     ow10633   0.039   5.977   0.445  0.2749  0.0946  0.1414
 2659SOL     hw10634   0.103   5.991   0.376 -0.0685 -1.4409 -0.5431
 2659SOL     hw10635  -0.039   5.946   0.398 -0.0178 -0.7969  1.1829
 2659SOL     vw10636   0.037   5.974   0.429  0.1910 -0.2253  0.1885
 2660SOL     ow10637   6.943   6.934   1.104 -0.0214  0.2156 -1.0551
 2660SOL     hw10638   7.035   6.941   1.129  0.5780 -2.4944 -2.1447
 2660SOL     hw10639   6.914   6.852   1.144 -1.3498 -0.0030 -2.3760
 2660SOL     vw10640   6.952   6.924   1.112 -0.1175 -0.1707 -1.3731
 2661SOL     ow10641   3.948   5.273   2.359  0.5087  0.3015  0.5330
 2661SOL     hw10642   3.959   5.338   2.290  0.6895  0.5862  0.8309
 2661SOL     hw10643   4.036   5.242   2.378  0.5390  0.7695  1.1613
 2661SOL     vw10644   3.961   5.278   2.352  0.5366  0.4010  0.6552
 2662SOL     ow10645   1.393   2.765   5.492 -0.6480  0.0250 -0.0865
 2662SOL     hw10646   1.458   2.779   5.560 -0.5003  1.9087 -0.5554
 2662SOL     hw10647   1.344   2.688   5.521 -1.1542  1.2590  2.6000
 2662SOL     vw10648   1.395   2.757   5.505 -0.6953  0.4364  0.2062
 2663SOL     ow10649   3.654   3.319   0.444 -0.1926 -0.3907 -0.0088
 2663SOL     hw10650   3.721   3.385   0.424 -1.0761 -0.0759 -2.2564
 2663SOL     hw10651   3.698   3.235   0.430 -0.0665 -0.1949 -0.8847
 2663SOL     vw10652   3.668   3.317   0.439 -0.2925 -0.3233 -0.4209
 2664SOL     ow10653   4.813   0.648   0.431 -0.4723 -0.5296 -0.4416
 2664SOL     hw10654   4.830   0.555   0.415  0.5169 -0.3392 -0.5470
 2664SOL     hw10655   4.879   0.694   0.380  0.0355  0.1890  0.8234
 2664SOL     vw10656   4.824   0.642   0.422 -0.2747 -0.4097 -0.2886
 2665SOL     ow10657   6.636   1.984   0.575 -0.5182 -0.2463 -0.6418
 2665SOL     hw10658   6.653   2.076   0.594 -1.0414 -0.5193  1.4431
 2665SOL     hw10659   6.541   1.978   0.572 -0.4695 -0.5454 -1.8314
 2665SOL     vw10660   6.626   1.996   0.577 -0.5808 -0.3217 -0.5237
 2666SOL     ow10661   1.495   5.396   4.260  0.2966  0.1765 -0.3954
 2666SOL     hw10662   1.406   5.371   4.285  0.8983  0.7912  2.7826
 2666SOL     hw10663   1.498   5.491   4.274  1.5494  0.1073 -0.1404
 2666SOL     vw10664   1.483   5.405   4.265  0.5413  0.2487  0.0572
 2667SOL     ow10665   0.524   3.603   1.214 -0.0560  0.1631  0.0177
 2667SOL     hw10666   0.520   3.594   1.119  0.2721  1.6205 -0.1617
 2667SOL     hw10667   0.587   3.673   1.229 -0.0163 -0.1224  1.3231
 2667SOL     vw10668   0.532   3.611   1.203 -0.0075  0.3178  0.1662
 2668SOL     ow10669   1.357   1.254   5.113 -0.1562 -0.1774  0.5710
 2668SOL     hw10670   1.265   1.271   5.093 -0.3367 -1.2510  0.4145
 2668SOL     hw10671   1.381   1.181   5.055  0.7073 -0.0982  0.8140
 2668SOL     vw10672   1.349   1.246   5.103 -0.0661 -0.3086  0.5827
 2669SOL     ow10673   2.590   5.545   0.351 -0.3010  0.0118  0.2306
 2669SOL     hw10674   2.538   5.607   0.402 -1.1113 -1.0915  0.7766
 2669SOL     hw10675   2.680   5.563   0.376 -0.2818  2.3530 -1.1498
 2669SOL     vw10676   2.595   5.556   0.361 -0.4053  0.1752  0.1205
 2670SOL     ow10677   5.965   0.755   2.329  0.6145 -0.0915  0.5752
 2670SOL     hw10678   5.953   0.814   2.403  0.2035 -0.0610  0.4857
 2670SOL     hw10679   6.011   0.679   2.366  0.5143 -0.0250  0.8368
 2670SOL     vw10680   5.970   0.753   2.343  0.5469 -0.0787  0.5978
 2671SOL     ow10681   7.047   3.479   0.372 -0.1181  0.0044 -0.2157
 2671SOL     hw10682   7.018   3.396   0.333  0.3983 -0.3000  0.0315
 2671SOL     hw10683   7.079   3.530   0.298  3.3407 -1.5813 -0.0181
 2671SOL     vw10684   7.047   3.475   0.357  0.4063 -0.2450 -0.1570
 2672SOL     ow10685   1.507   4.241   5.922 -0.2352 -0.9821 -0.3745
 2672SOL     hw10686   1.574   4.302   5.952  0.3321 -0.7761 -1.9244
 2672SOL     hw10687   1.431   4.258   5.978 -0.1817  1.3518 -0.8870
 2672SOL     vw10688   1.505   4.251   5.933 -0.1533 -0.6468 -0.6468
 2673SOL     ow10689   0.822   1.014   3.430  0.1580  0.0863 -0.5131
 2673SOL     hw10690   0.908   1.037   3.395  1.6369 -1.8793  1.5409
 2673SOL     hw10691   0.840   0.986   3.520 -2.7524  0.2575  0.2077
 2673SOL     vw10692   0.836   1.013   3.437 -0.0308 -0.1504 -0.1469
 2674SOL     ow10693   2.509   3.047   5.716 -0.4044 -0.4211 -0.4687
 2674SOL     hw10694   2.451   3.102   5.768 -0.2485 -0.2076 -0.5212
 2674SOL     hw10695   2.488   3.068   5.625  2.1268  2.2550 -0.5771
 2674SOL     vw10696   2.499   3.057   5.711 -0.0498 -0.0397 -0.4900
 2675SOL     ow10697   6.419   2.026   4.186 -0.1311  0.2411 -0.0097
 2675SOL     hw10698   6.427   2.098   4.249 -2.0008 -0.0555  0.6290
 2675SOL     hw10699   6.356   1.966   4.226 -1.1229 -0.1286 -1.9896
 2675SOL     vw10700   6.411   2.028   4.199 -0.5085  0.1531 -0.1869
 2676SOL     ow10701   0.484   0.473   3.877 -0.3635  0.7264 -0.4725
 2676SOL     hw10702   0.527   0.433   3.953 -1.2189 -1.5593 -1.1060
 2676SOL     hw10703   0.555   0.494   3.817  0.0833 -0.7581 -0.4944
 2676SOL     vw10704   0.499   0.471   3.879 -0.4174  0.2290 -0.5590
 2677SOL     ow10705   2.964   5.370   3.961 -0.1668  1.0415 -0.6096
 2677SOL     hw10706   2.910   5.377   3.883  0.1305  1.3046 -0.7978
 2677SOL     hw10707   3.014   5.452   3.963  0.2792  0.7734 -0.4813
 2677SOL     vw10708   2.964   5.382   3.951 -0.0688  1.0407 -0.6174
 2678SOL     ow10709   0.157   4.571   1.642  0.0777 -0.0023  0.3759
 2678SOL     hw10710   0.143   4.528   1.726  0.1700  0.2055  0.4963
 2678SOL     hw10711   0.069   4.591   1.610  0.0632  1.8584  1.4153
 2678SOL     vw10712   0.143   4.568   1.649  0.0880  0.2704  0.5289
 2679SOL     ow10713   5.966   1.539   4.169 -0.3272  0.3831  0.0451
 2679SOL     hw10714   5.998   1.605   4.107 -1.4866  2.6446  1.7211
 2679SOL     hw10715   6.044   1.511   4.218  0.3374 -0.3201 -1.3484
 2679SOL     vw10716   5.981   1.544   4.167 -0.3924  0.5887  0.0823
 2680SOL     ow10717   2.005   1.842   6.550 -0.2211  0.3076 -0.0334
 2680SOL     hw10718   1.971   1.926   6.579  0.5776  1.2037 -1.5446
 2680SOL     hw10719   2.066   1.815   6.619  0.4162  1.5650 -0.0704
 2680SOL     vw10720   2.009   1.849   6.563 -0.0315  0.5917 -0.2377
 2681SOL     ow10721   2.972   5.097   5.706 -0.6137 -0.0906 -0.5248
 2681SOL     hw10722   3.014   5.183   5.709 -0.9425  0.0446  0.4222
 2681SOL     hw10723   3.022   5.049   5.640 -1.5867  1.4183 -2.4470
 2681SOL     vw10724   2.984   5.102   5.698 -0.7855  0.1261 -0.6535
 2682SOL     ow10725   3.879   5.117   2.625 -0.1415  0.1689 -0.5579
 2682SOL     hw10726   3.826   5.100   2.702 -0.6416  0.7071 -0.7801
 2682SOL     hw10727   3.937   5.040   2.619 -0.5884 -0.2149 -0.0671
 2682SOL     vw10728   3.880   5.105   2.634 -0.2663  0.1893 -0.5224
 2683SOL     ow10729   2.283   4.200   6.963  0.6741  0.0308 -0.1124
 2683SOL     hw10730   2.283   4.258   7.039  0.8918  2.0924 -1.6108
 2683SOL     hw10731   2.374   4.199   6.933  1.2701 -3.2039  1.3055
 2683SOL     vw10732   2.295   4.207   6.969  0.7814 -0.1240 -0.1230
 2684SOL     ow10733   4.916   1.637   6.410 -0.1843 -0.1578  0.2543
 2684SOL     hw10734   4.852   1.656   6.342 -0.1496  0.5576  0.4218
 2684SOL     hw10735   4.904   1.543   6.428 -1.0093 -0.0874  0.1124
 2684SOL     vw10736   4.906   1.627   6.403 -0.2885 -0.0542  0.2575
 2685SOL     ow10737   5.608   6.736   2.748  0.1843 -0.5920  0.1199
 2685SOL     hw10738   5.633   6.779   2.830  0.4697 -1.2714  0.4016
 2685SOL     hw10739   5.692   6.715   2.706  0.0682 -1.4338  0.2929
 2685SOL     vw10740   5.623   6.739   2.754  0.2065 -0.7927  0.1799
 2686SOL     ow10741   2.677   1.322   5.673 -0.4532  0.2642 -0.0124
 2686SOL     hw10742   2.689   1.361   5.587 -0.0104  1.0239  0.3751
 2686SOL     hw10743   2.684   1.228   5.659  2.6247  0.4579 -0.3783
 2686SOL     vw10744   2.679   1.315   5.660  0.0112  0.3899 -0.0098
 2687SOL     ow10745   6.705   4.242   0.731 -0.2606 -0.2673  0.0595
 2687SOL     hw10746   6.666   4.261   0.816 -0.4200 -0.5327  0.0443
 2687SOL     hw10747   6.698   4.147   0.722 -1.1425 -0.1374 -0.6867
 2687SOL     vw10748   6.699   4.232   0.741 -0.3982 -0.2851 -0.0410
 2688SOL     ow10749   1.915   1.832   6.229  0.8689  0.2049 -0.1314
 2688SOL     hw10750   1.874   1.918   6.242 -1.7601 -0.9766 -0.2003
 2688SOL     hw10751   1.851   1.781   6.181  2.7729 -1.5635 -0.9544
 2688SOL     vw10752   1.901   1.837   6.224  0.7733 -0.1842 -0.2489
 2689SOL     ow10753   3.391   3.164   0.636 -0.0009 -0.1899 -0.0272
 2689SOL     hw10754   3.331   3.111   0.584 -0.3972  0.7413 -0.5390
 2689SOL     hw10755   3.454   3.101   0.671  0.7186 -0.7760 -2.2292
 2689SOL     vw10756   3.391   3.149   0.634  0.0417 -0.1444 -0.3852
 2690SOL     ow10757   1.143   0.968   6.536  0.1638 -0.6648  0.6032
 2690SOL     hw10758   1.175   0.898   6.594  1.2118  0.2549  1.1556
 2690SOL     hw10759   1.135   0.925   6.450 -0.7320 -1.8642  1.2512
 2690SOL     vw10760   1.146   0.953   6.532  0.1839 -0.7017  0.7617
 2691SOL     ow10761   0.839   0.932   2.119 -0.2296  0.3144  0.3467
 2691SOL     hw10762   0.745   0.946   2.114 -0.6450 -1.7699  1.2794
 2691SOL     hw10763   0.864   0.968   2.205 -0.2842  0.3847  0.3328
 2691SOL     vw10764   0.830   0.938   2.130 -0.2916  0.0487  0.4679
 2692SOL     ow10765   5.464   3.920   6.291 -0.3876  0.5612 -0.4556
 2692SOL     hw10766   5.448   3.825   6.290 -0.9045  0.6230  0.5918
 2692SOL     hw10767   5.492   3.938   6.381 -0.3796  1.4197 -0.6277
 2692SOL     vw10768   5.465   3.910   6.303 -0.4549  0.6827 -0.3405
 2693SOL     ow10769   0.167   4.490   0.872 -0.3745  0.2914 -0.0059
 2693SOL     hw10770   0.209   4.463   0.791 -0.6812  0.0481 -0.0862
 2693SOL     hw10771   0.236   4.485   0.938 -0.2204  0.1172 -0.1797
 2693SOL     vw10772   0.182   4.486   0.870 -0.3946  0.2365 -0.0394
 2694SOL     ow10773   5.874   2.478   1.899  0.4125  0.1122  0.4208
 2694SOL     hw10774   5.950   2.525   1.933 -0.2638  0.2460  1.8409
 2694SOL     hw10775   5.799   2.520   1.942 -0.4411 -0.2574 -0.6594
 2694SOL     vw10776   5.874   2.490   1.909  0.2108  0.0811  0.4656
 2695SOL     ow10777   5.983   4.740   1.174 -0.2171 -0.1343 -0.3579
 2695SOL     hw10778   5.907   4.791   1.147 -0.7423 -1.0822 -0.7100
 2695SOL     hw10779   5.975   4.735   1.269 -3.1374 -3.9265 -0.5606
 2695SOL     vw10780   5.972   4.746   1.183 -0.6719 -0.7601 -0.4311
 2696SOL     ow10781   0.346   5.603   1.244 -0.5487  0.2968  0.0375
 2696SOL     hw10782   0.390   5.524   1.275 -2.8582 -1.2192 -0.2827
 2696SOL     hw10783   0.327   5.653   1.323  0.4440  0.3176  0.2862
 2696SOL     vw10784   0.350   5.599   1.259 -0.7224  0.0997  0.0280
 2697SOL     ow10785   5.828   3.488   4.761 -0.1237 -0.3766  0.4467
 2697SOL     hw10786   5.743   3.494   4.805 -1.3130  1.8376 -1.9007
 2697SOL     hw10787   5.818   3.416   4.699 -0.4581  0.1100 -0.0782
 2697SOL     vw10788   5.816   3.479   4.759 -0.3245 -0.0201  0.0675
 2698SOL     ow10789   4.098   4.798   0.071 -0.2502 -0.1822 -0.2844
 2698SOL     hw10790   4.014   4.842   0.056 -0.9221 -1.4940 -0.4810
 2698SOL     hw10791   4.094   4.769   0.162 -0.7568 -1.7610 -0.7881
 2698SOL     vw10792   4.086   4.800   0.081 -0.4058 -0.5634 -0.3768
 2699SOL     ow10793   6.755   6.069   3.710 -0.5418 -0.0903 -0.1094
 2699SOL     hw10794   6.818   6.086   3.780  0.0127 -0.5919 -0.4798
 2699SOL     hw10795   6.793   5.997   3.660 -0.0909  1.3450 -1.9492
 2699SOL     vw10796   6.768   6.062   3.713 -0.4091  0.0329 -0.4010
 2700SOL     ow10797   6.844   4.624   6.857 -0.3356 -0.1353 -0.0682
 2700SOL     hw10798   6.797   4.595   6.778 -1.6442 -0.1523  0.6979
 2700SOL     hw10799   6.921   4.670   6.823 -0.2078 -1.2296 -1.3408
 2700SOL     vw10800   6.848   4.626   6.842 -0.4911 -0.2820 -0.1352
 2701poe    c3110801   2.202   2.431   3.018 -0.6358 -0.0040  0.2404
 2701poe     o210802   2.105   2.359   2.945 -0.1591 -0.1216 -0.2879
 2701poe    c2310803   2.030   2.289   3.042  0.4281 -0.1340  0.1630
 2701poe    c2310804   1.918   2.206   2.976 -0.1186  0.7204 -0.0020
 2701poe     o210805   1.979   2.097   2.911  0.1354  0.5108  0.5782
 2701poe    c2310806   1.875   2.008   2.879  0.5911  0.1047  0.2078
 2701poe    c2310807   1.935   1.871   2.845 -0.1807 -0.1214 -0.2994
 2701poe     o210808   2.001   1.803   2.950 -0.2085  0.2014 -0.0706
 2701poe    c2310809   2.109   1.730   2.896 -0.3171 -0.0448  0.0428
 2701poe    c2310810   2.164   1.634   3.004 -0.0292 -0.3518 -0.3727
 2701poe     o210811   2.098   1.515   3.039  0.0750 -0.2417  0.1991
 2701poe    c3110812   2.135   1.408   2.955 -0.3163  0.1508 -0.4804
 2702poe    c3110813   5.734   0.874   0.944  0.0253 -0.4496 -0.1939
 2702poe     o210814   5.707   0.740   0.912 -0.7080 -0.3666  0.0686
 2702poe    c2310815   5.811   0.655   0.954 -0.0257  0.1603 -0.5191
 2702poe    c2310816   5.767   0.513   0.914  0.1900  0.0745 -0.4506
 2702poe     o210817   5.768   0.494   0.774 -0.0004  0.1391 -0.4599
 2702poe    c2310818   5.703   0.377   0.728  0.1832 -0.2368  0.2151
 2702poe    c2310819   5.638   0.404   0.591 -0.5494  0.0892  0.6255
 2702poe     o210820   5.726   0.393   0.482 -0.7700  0.5949  0.3929
 2702poe    c2310821   5.684   0.490   0.389 -0.8101  0.2179  0.0177
 2702poe    c2310822   5.695   0.445   0.242 -0.6747  0.3429 -0.0102
 2702poe     o210823   5.602   0.345   0.209 -0.4598  0.1199  0.0555
 2702poe    c3110824   5.634   0.266   0.097 -0.0701  0.2263  0.0922
 2703poe    c3110825   3.733   1.731   2.057 -0.0599  0.3743 -0.1647
 2703poe     o210826   3.856   1.748   2.124  0.3455 -0.0713 -0.7795
 2703poe    c2310827   3.887   1.626   2.189 -0.2389  0.2879  0.2000
 2703poe    c2310828   4.027   1.616   2.252 -0.3219  0.1651  0.3677
 2703poe     o210829   4.134   1.665   2.173 -0.3788  0.4693  0.4774
 2703poe    c2310830   4.229   1.734   2.251  0.1417  0.2177  0.0688
 2703poe    c2310831   4.336   1.808   2.169  0.1948  0.0594 -0.0074
 2703poe     o210832   4.261   1.908   2.103 -0.0746 -0.1238  0.0225
 2703poe    c2310833   4.336   1.973   2.003 -0.6002  0.5335  0.0508
 2703poe    c2310834   4.242   2.048   1.907 -0.0379  0.5401 -0.5004
 2703poe     o210835   4.194   2.173   1.952 -0.0833  0.3063  0.1121
 2703poe    c3110836   4.128   2.236   1.845 -0.5170  0.0014  0.1967
 2704poe    c3110837   4.770   6.529   4.896 -0.5308  0.2097 -0.2436
 2704poe     o210838   4.715   6.536   4.766 -0.1713  0.0523 -0.4060
 2704poe    c2310839   4.624   6.431   4.742 -0.5060  0.2667 -0.0920
 2704poe    c2310840   4.572   6.437   4.597 -0.0105 -0.0172 -0.2857
 2704poe     o210841   4.476   6.538   4.578  0.1390  0.1342 -0.2401
 2704poe    c2310842   4.476   6.578   4.443  0.0517  0.2354 -0.2116
 2704poe    c2310843   4.367   6.680   4.406  0.2543  0.1725 -0.9978
 2704poe     o210844   4.373   6.790   4.494  0.4136 -0.2766 -0.4462
 2704poe    c2310845   4.297   6.897   4.444  0.3741 -0.3390 -0.5199
 2704poe    c2310846   4.362   7.001   4.351 -0.0904 -0.0644 -0.5383
 2704poe     o210847   4.365   6.950   4.220  0.0678  0.0695 -0.5866
 2704poe    c3110848   4.402   7.051   4.129  0.2585 -0.1726 -0.7818
 2705poe    c3110849   5.256   2.908   2.760  0.0159  0.5828 -0.4144
 2705poe     o210850   5.202   2.823   2.662  0.0662 -0.2312  0.2517
 2705poe    c2310851   5.207   2.692   2.715 -0.3558 -0.3413  0.0244
 2705poe    c2310852   5.184   2.586   2.606  0.0571 -0.5166  0.1049
 2705poe     o210853   5.050   2.593   2.562  0.0880 -0.6428 -0.0094
 2705poe    c2310854   5.007   2.493   2.472 -0.2955 -0.5601  0.0785
 2705poe    c2310855   4.856   2.463   2.476 -0.4989  0.4611  0.2898
 2705poe     o210856   4.800   2.590   2.453 -0.4999  0.4382  0.1591
 2705poe    c2310857   4.660   2.600   2.445 -0.5344 -0.4636 -0.4597
 2705poe    c2310858   4.639   2.741   2.388  0.3767 -0.2504 -0.2824
 2705poe     o210859   4.726   2.826   2.460  0.0914 -0.1995  0.0078
 2705poe    c3110860   4.698   2.961   2.429 -0.0135 -0.2004  0.0990
 2706poe    c3110861   1.995   6.670   0.095  1.3232 -0.1938  1.1197
 2706poe     o210862   1.936   6.542   0.105  0.1000  0.2041 -0.5584
 2706poe    c2310863   1.973   6.458  -0.001 -0.2689 -0.3986 -0.2171
 2706poe    c2310864   1.905   6.321   0.013 -0.1388 -0.4420 -0.0092
 2706poe     o210865   1.764   6.325   0.025 -0.1385 -0.2602 -0.0640
 2706poe    c2310866   1.719   6.216   0.102 -0.3455 -0.1287  0.0016
 2706poe    c2310867   1.567   6.193   0.099 -0.4186  0.3577 -0.0929
 2706poe     o210868   1.484   6.291   0.156 -0.4634  0.0002  0.4605
 2706poe    c2310869   1.350   6.266   0.119 -0.1128 -0.6043 -0.4357
 2706poe    c2310870   1.259   6.386   0.152  0.5924 -0.0629 -0.4414
 2706poe     o210871   1.252   6.412   0.290  0.1386 -0.6683 -0.3452
 2706poe    c3110872   1.123   6.373   0.330  0.1270 -0.0749  0.2252
 2707poe    c3110873   1.971   0.747   0.892 -0.1874 -0.2479 -0.0462
 2707poe     o210874   1.950   0.799   0.763 -0.0433  0.1158  0.0737
 2707poe    c2310875   2.070   0.801   0.689 -0.0721  0.1544  0.0280
 2707poe    c2310876   2.044   0.849   0.545 -0.2163 -0.3904 -0.1271
 2707poe     o210877   1.978   0.761   0.456  0.0762 -0.3507 -0.3851
 2707poe    c2310878   1.973   0.824   0.330  0.2340  0.0607 -0.1859
 2707poe    c2310879   1.933   0.708   0.237 -0.1592 -0.2379  0.3493
 2707poe     o210880   1.822   0.635   0.284 -0.6306  0.1791 -0.1064
 2707poe    c2310881   1.778   0.531   0.200  0.2248 -0.1980 -0.0885
 2707poe    c2310882   1.654   0.472   0.270 -0.0274  0.1255 -0.2642
 2707poe     o210883   1.666   0.508   0.406  0.2039 -0.2601 -0.1844
 2707poe    c3110884   1.585   0.421   0.482  0.0458  0.0196 -0.0358
 2708poe    c3110885   1.669   1.368   6.528  0.3965 -0.0338 -0.0072
 2708poe     o210886   1.706   1.273   6.431 -0.9629  0.0182 -0.5880
 2708poe    c2310887   1.784   1.332   6.330  0.2206 -0.2131  0.1732
 2708poe    c2310888   1.817   1.244   6.208 -0.0348 -0.1870  0.0853
 2708poe     o210889   1.707   1.240   6.120  0.2934 -0.0335 -0.3374
 2708poe    c2310890   1.726   1.187   5.991  0.4494  0.6651 -0.6062
 2708poe    c2310891   1.591   1.201   5.918 -0.2601  0.3116  0.6152
 2708poe     o210892   1.497   1.103   5.957 -0.0441 -0.1061  0.1077
 2708poe    c2310893   1.370   1.145   5.912 -0.1118 -0.7724 -0.3298
 2708poe    c2310894   1.257   1.056   5.968  0.0825 -0.5539  0.4235
 2708poe     o210895   1.251   0.933   5.900  0.4976 -0.0882 -0.4782
 2708poe    c3110896   1.258   0.825   5.991 -0.2471  0.5453  0.3419
 2709poe    c3110897   2.592   0.073   6.556 -0.9095 -0.0143  0.1000
 2709poe     o210898   2.642   0.101   6.427 -0.1603  0.3794  0.4720
 2709poe    c2310899   2.657  -0.020   6.357 -0.1997  0.6330  0.0269
 2709poe    c2310900   2.745   0.006   6.233 -0.2633 -0.4880 -0.2582
 2709poe     o210901   2.688   0.117   6.167 -0.2805 -0.3930 -0.0836
 2709poe    c2310902   2.737   0.136   6.036  0.2868  0.6345  0.2690
 2709poe    c2310903   2.760   0.284   5.998  0.1222  0.5906 -0.0042
 2709poe     o210904   2.637   0.353   5.991 -0.1951  0.0392  0.0266
 2709poe    c2310905   2.659   0.490   5.967  0.2336 -0.0613 -0.1658
 2709poe    c2310906   2.525   0.566   5.966  0.1946 -0.1236  0.0973
 2709poe     o210907   2.439   0.517   6.066  0.1900  0.1047  0.2034
 2709poe    c3110908   2.323   0.595   6.050 -0.0522 -0.3738 -0.3923
 2710poe    c3110909   0.388   3.643   3.738  0.0460  0.4107  0.4384
 2710poe     o210910   0.365   3.576   3.859 -0.5329 -0.2458 -0.0257
 2710poe    c2310911   0.420   3.647   3.968 -0.1171 -0.4141 -0.1245
 2710poe    c2310912   0.403   3.543   4.080  0.1639 -0.0683  0.2438
 2710poe     o210913   0.264   3.515   4.076  0.1744 -0.0484 -0.3093
 2710poe    c2310914   0.249   3.425   4.184  0.1739  0.2527 -0.0574
 2710poe    c2310915   0.098   3.396   4.187  0.2606 -0.1782  0.1410
 2710poe     o210916   0.044   3.337   4.071  0.2875 -0.5244  0.3028
 2710poe    c2310917  -0.095   3.354   4.054  0.4041 -0.3390 -0.5064
 2710poe    c2310918  -0.146   3.282   3.928 -0.7673 -0.0652 -0.1996
 2710poe     o210919  -0.075   3.308   3.809 -0.1976 -0.3257  0.0835
 2710poe    c3110920  -0.163   3.278   3.704 -0.2342 -0.0557  0.0341
 2711poe    c3110921   5.497   1.960   0.145 -0.5759 -0.4319  0.3574
 2711poe     o210922   5.584   1.855   0.111  0.1009  0.1864  0.1391
 2711poe    c2310923   5.514   1.739   0.072 -0.3766  0.4236  0.2792
 2711poe    c2310924   5.569   1.608   0.133 -0.1960  0.4860  0.2508
 2711poe     o210925   5.707   1.586   0.119 -0.2264  0.5371 -0.1231
 2711poe    c2310926   5.729   1.448   0.135 -0.2057  0.5015 -0.4496
 2711poe    c2310927   5.874   1.397   0.122 -0.1412  0.3597  0.7380
 2711poe     o210928   5.955   1.480   0.202  0.7163  0.6358 -0.3884
 2711poe    c2310929   6.073   1.420   0.251  0.3452  0.1011 -0.1431
 2711poe    c2310930   6.169   1.506   0.336  0.2932 -0.0572  0.0779
 2711poe     o210931   6.104   1.564   0.447 -0.2452  0.6955 -0.6219
 2711poe    c3110932   6.193   1.618   0.541 -0.1365 -0.0516 -0.2891
 2712poe    c3110933   4.509   7.165   1.095  0.0431 -0.3511 -0.3816
 2712poe     o210934   4.484   7.134   1.231 -0.1555 -0.1651 -0.3753
 2712poe    c2310935   4.534   7.005   1.259 -0.1089 -0.0652 -0.0055
 2712poe    c2310936   4.457   6.915   1.358 -0.1385 -0.3034 -0.2455
 2712poe     o210937   4.334   6.866   1.310 -0.3896  0.1852 -0.1061
 2712poe    c2310938   4.262   6.777   1.393 -0.1899  0.3501  0.2462
 2712poe    c2310939   4.119   6.769   1.337  0.1506 -0.2976 -0.5602
 2712poe     o210940   4.036   6.873   1.386  0.3782 -0.4856  0.2449
 2712poe    c2310941   3.905   6.838   1.349  0.2161 -0.0957  0.4436
 2712poe    c2310942   3.806   6.955   1.352  0.3096 -0.0110  0.1853
 2712poe     o210943   3.846   7.062   1.269 -0.2965  0.0906  0.0143
 2712poe    c3110944   3.768   7.176   1.298 -0.8409 -0.2113 -0.2488
 2713poe    c3110945   1.097   4.767   5.221 -0.7564  0.1541  0.3198
 2713poe     o210946   1.175   4.848   5.306 -0.1160 -0.0002 -0.1045
 2713poe    c2310947   1.237   4.768   5.404 -0.9227 -0.3082  0.1682
 2713poe    c2310948   1.284   4.840   5.532  0.0542 -0.1147 -0.2867
 2713poe     o210949   1.391   4.931   5.529 -0.2726  0.2751 -0.0651
 2713poe    c2310950   1.426   4.987   5.654  0.2400 -0.3051  0.0519
 2713poe    c2310951   1.562   5.060   5.651  0.3733 -0.5584 -0.1688
 2713poe     o210952   1.578   5.128   5.528 -0.1667  0.0590  0.0927
 2713poe    c2310953   1.692   5.209   5.539 -0.1393 -0.0450  0.6407
 2713poe    c2310954   1.697   5.302   5.416 -0.0663 -0.8340  0.0407
 2713poe     o210955   1.579   5.376   5.396  0.3453 -0.1488  0.1205
 2713poe    c3110956   1.623   5.487   5.320 -0.0743 -0.3244 -0.3850
 2714poe    c3110957   6.552   4.148   1.040  0.4351  0.2072  0.9087
 2714poe     o210958   6.622   4.259   0.989  0.1865  0.0058  0.1290
 2714poe    c2310959   6.716   4.295   1.087  0.1568 -0.3816  0.3000
 2714poe    c2310960   6.720   4.441   1.135  0.1225 -0.2169 -0.1975
 2714poe     o210961   6.768   4.524   1.031  0.3653  0.3382  0.3584
 2714poe    c2310962   6.759   4.662   1.063  0.2566  0.3458  0.2933
 2714poe    c2310963   6.815   4.732   0.938  0.0294 -0.2984 -0.1737
 2714poe     o210964   6.954   4.726   0.917  0.1444 -0.3783  0.6062
 2714poe    c2310965   6.977   4.780   0.789  0.3689 -0.1686  0.7319
 2714poe    c2310966   7.119   4.838   0.779  0.1239  0.3544  0.2224
 2714poe     o210967   7.204   4.728   0.801  0.0486  0.3370  0.4303
 2714poe    c3110968   7.329   4.774   0.755 -0.3039  0.3383 -0.5414
 2715poe    c3110969   2.137   4.636   0.467  0.0602  0.0391  0.5649
 2715poe     o210970   2.232   4.723   0.523  0.0450  0.4550 -0.0471
 2715poe    c2310971   2.211   4.736   0.662  0.0419 -0.3016  0.0243
 2715poe    c2310972   2.313   4.834   0.722  0.4195 -0.3107 -0.5980
 2715poe     o210973   2.433   4.762   0.739  0.0055 -0.8750 -0.0260
 2715poe    c2310974   2.502   4.833   0.840 -0.2633 -0.2114 -0.3043
 2715poe    c2310975   2.626   4.751   0.879 -0.4926 -0.4854 -0.1481
 2715poe     o210976   2.689   4.740   0.753  0.3819  0.5528  0.1764
 2715poe    c2310977   2.805   4.665   0.775  0.1138 -0.1162 -0.6450
 2715poe    c2310978   2.859   4.653   0.632  0.4143  0.0980 -0.5525
 2715poe     o210979   2.752   4.629   0.543  0.3890  0.1470 -0.5346
 2715poe    c3110980   2.792   4.574   0.420  0.7640 -0.2683 -0.2304
 2716poe    c3110981   0.809   3.783   2.457  0.1710  0.1186  0.2753
 2716poe     o210982   0.836   3.916   2.420 -0.3639  0.1117 -0.1458
 2716poe    c2310983   0.946   3.917   2.332 -0.2116 -0.0640  0.0442
 2716poe    c2310984   0.960   4.054   2.263 -0.2834 -0.1822 -0.2063
 2716poe     o210985   0.999   4.156   2.353  0.2394 -0.2698 -0.3281
 2716poe    c2310986   1.044   4.266   2.276 -0.9194  0.2411 -0.3011
 2716poe    c2310987   1.143   4.358   2.350 -0.1654 -0.3169 -0.6074
 2716poe     o210988   1.278   4.317   2.343 -0.2469 -0.6634 -0.2154
 2716poe    c2310989   1.375   4.386   2.418 -0.3107 -0.2607 -0.5021
 2716poe    c2310990   1.514   4.325   2.396  0.2299  0.6502  0.3035
 2716poe     o210991   1.550   4.203   2.457  0.0264  0.3847 -0.1093
 2716poe    c3110992   1.504   4.088   2.389  0.3322  0.3264 -0.2202
 2717poe    c3110993   2.007   6.148   1.276 -0.6368 -0.0237  0.4588
 2717poe     o210994   1.981   6.014   1.310 -0.3946 -0.1964 -0.0303
 2717poe    c2310995   1.858   6.006   1.378 -0.4627  0.0137 -0.1274
 2717poe    c2310996   1.795   5.865   1.380 -1.0282  0.2654  0.1156
 2717poe     o210997   1.790   5.810   1.250 -0.4615  0.0664  0.1768
 2717poe    c2310998   1.715   5.692   1.262 -0.3649  0.0622  0.7701
 2717poe    c2310999   1.754   5.590   1.153  0.2804  0.4875  0.5950
 2717poe     o211000   1.890   5.555   1.161  0.2640  0.3189  0.1569
 2717poe    c2311001   1.927   5.476   1.050  0.6278 -0.0664  0.5499
 2717poe    c2311002   2.076   5.445   1.031  0.5428 -0.3904  0.3999
 2717poe     o211003   2.142   5.558   0.979 -0.2674 -0.1930 -0.1989
 2717poe    c3111004   2.231   5.507   0.883  0.0596 -0.1198  0.0660
 2718poe    c3111005   0.520   4.525   2.305 -0.0840  0.4804  0.0290
 2718poe     o211006   0.540   4.419   2.396  0.5148  0.9695  0.4864
 2718poe    c2311007   0.463   4.414   2.514 -0.1787  0.2710  0.0244
 2718poe    c2311008   0.470   4.521   2.625  0.0612 -0.1238  0.3915
 2718poe     o211009   0.583   4.513   2.710  0.0951 -0.2102  0.3385
 2718poe    c2311010   0.555   4.601   2.817  0.2605 -0.1822  0.3580
 2718poe    c2311011   0.668   4.585   2.921  0.8951  0.3409 -0.2379
 2718poe     o211012   0.657   4.466   2.995  0.3682  0.4572 -0.1201
 2718poe    c2311013   0.762   4.444   3.087  0.0369  0.1364  0.1872
 2718poe    c2311014   0.820   4.304   3.061  0.3292  0.2260  0.3536
 2718poe     o211015   0.898   4.305   2.943  0.0581 -0.0598  0.1690
 2718poe    c3111016   0.939   4.171   2.934  0.3628  0.0461 -0.0405
 2719poe    c3111017   3.541   6.077   4.424  0.1376 -0.2003  0.0865
 2719poe     o211018   3.650   6.166   4.438  0.0705 -0.1694  0.4366
 2719poe    c2311019   3.755   6.131   4.351 -0.0853 -0.0395  0.1919
 2719poe    c2311020   3.885   6.212   4.366  0.0723 -0.2623  0.0515
 2719poe     o211021   3.866   6.341   4.312  0.0487 -0.2597  0.0662
 2719poe    c2311022   3.985   6.418   4.320 -0.1257 -0.0011  0.2051
 2719poe    c2311023   3.980   6.563   4.270  0.2666 -0.1258 -0.2095
 2719poe     o211024   3.921   6.656   4.359 -0.0939 -0.1907 -0.3782
 2719poe    c2311025   3.956   6.777   4.297  0.0974 -0.0440  0.0109
 2719poe    c2311026   3.899   6.898   4.373 -0.1159 -0.2386  0.1605
 2719poe     o211027   3.759   6.909   4.357 -0.1304 -0.2387  0.2869
 2719poe    c3111028   3.716   6.994   4.461  0.5638 -0.1753  0.5295
 2720poe    c3111029   6.824   6.946   2.403  0.4676  0.0997  0.8478
 2720poe     o211030   6.872   6.823   2.352 -0.8940  0.0025 -0.2670
 2720poe    c2311031   6.930   6.748   2.456 -0.6539  0.4845 -0.0488
 2720poe    c2311032   6.993   6.618   2.402 -0.5329  0.1414  0.8998
 2720poe     o211033   6.901   6.558   2.314 -0.2146 -0.2975  0.8645
 2720poe    c2311034   6.936   6.427   2.274 -0.0665 -0.1007  0.3354
 2720poe    c2311035   6.812   6.337   2.266  0.0338 -0.1671 -0.5286
 2720poe     o211036   6.703   6.393   2.195 -0.1045 -0.0186 -0.2026
 2720poe    c2311037   6.579   6.327   2.208 -0.1091  0.1820  0.8161
 2720poe    c2311038   6.463   6.419   2.164  0.2060  0.1500 -0.0942
 2720poe     o211039   6.445   6.533   2.245 -0.0472  0.1818 -0.1972
 2720poe    c3111040   6.320   6.588   2.208  0.0763  0.1340 -0.6877
 2721poe    c3111041   6.698   5.961   1.243 -0.2260 -0.0256  0.1505
 2721poe     o211042   6.584   5.890   1.288 -0.1112 -0.0378  0.4247
 2721poe    c2311043   6.612   5.827   1.411  0.4286 -0.2947  0.1722
 2721poe    c2311044   6.494   5.754   1.476  0.2555 -0.0292  0.1559
 2721poe     o211045   6.476   5.629   1.413 -0.1572  0.2105 -0.2076
 2721poe    c2311046   6.354   5.577   1.461  0.2908 -0.2739  0.4193
 2721poe    c2311047   6.309   5.456   1.377 -0.3078 -0.3705  0.8718
 2721poe     o211048   6.403   5.351   1.365 -0.2989 -0.1897 -0.9956
 2721poe    c2311049   6.326   5.248   1.308 -0.6700 -0.2459 -0.3990
 2721poe    c2311050   6.401   5.118   1.279 -0.4805 -0.2197 -0.0316
 2721poe     o211051   6.427   5.050   1.400  0.0940  0.3172  0.1546
 2721poe    c3111052   6.507   4.936   1.379  0.0347  0.2959  0.0415
 2722poe    c3111053   1.359   5.090   4.069 -0.2228 -0.1151 -0.0650
 2722poe     o211054   1.496   5.081   4.101 -0.2527 -0.0280  0.0845
 2722poe    c2311055   1.575   5.116   3.989 -0.1044  0.1828  0.2538
 2722poe    c2311056   1.723   5.084   4.015 -0.1706 -0.3312 -0.0045
 2722poe     o211057   1.748   4.945   4.019 -0.4580 -0.3708  0.4935
 2722poe    c2311058   1.888   4.928   4.025 -0.4447 -0.6496 -0.4264
 2722poe    c2311059   1.941   4.786   4.054  0.2805 -0.2385  0.2978
 2722poe     o211060   1.890   4.729   4.172 -0.4391 -0.1484  0.0373
 2722poe    c2311061   1.947   4.601   4.190  0.4113  0.2455  0.2223
 2722poe    c2311062   1.880   4.486   4.267 -0.4452  0.7366  0.2208
 2722poe     o211063   1.770   4.423   4.204  0.7660 -0.8881 -0.3431
 2722poe    c3111064   1.715   4.323   4.287  0.4186 -0.7211 -0.3716
 2723poe    c3111065   5.060   2.469   7.099 -0.4172 -0.4341 -0.0635
 2723poe     o211066   5.017   2.499   6.969 -0.2504  0.3969  0.0660
 2723poe    c2311067   5.036   2.637   6.949  0.3063  0.3612  0.3377
 2723poe    c2311068   4.991   2.672   6.806  0.3930 -0.7952  0.0194
 2723poe     o211069   4.864   2.634   6.758  0.1870 -0.1799  0.0669
 2723poe    c2311070   4.747   2.688   6.815  0.2744  1.2220 -1.0149
 2723poe    c2311071   4.613   2.647   6.751  0.0479 -0.1385  0.2666
 2723poe     o211072   4.585   2.510   6.772  0.0733 -0.1501  0.2226
 2723poe    c2311073   4.446   2.492   6.769  0.0518  0.0099  0.2072
 2723poe    c2311074   4.408   2.346   6.801 -0.2254  0.1411  0.4810
 2723poe     o211075   4.509   2.270   6.740 -0.1144  0.2516  0.5271
 2723poe    c3111076   4.463   2.138   6.721 -0.6910  0.4391  0.6188
 2724poe    c3111077   6.399   3.167   5.785 -0.4442  0.4006 -0.0059
 2724poe     o211078   6.305   3.083   5.848  0.0587  0.2064  0.5016
 2724poe    c2311079   6.383   2.998   5.929  0.1554 -0.0186  0.1727
 2724poe    c2311080   6.298   2.903   6.015  0.2480 -0.2669 -0.0108
 2724poe     o211081   6.200   2.830   5.944  0.2574  0.1839 -0.4950
 2724poe    c2311082   6.096   2.770   6.017  0.2996  0.8308  0.1036
 2724poe    c2311083   5.985   2.729   5.918  0.3785  0.6685  0.0828
 2724poe     o211084   5.913   2.837   5.862 -0.1108  0.2821 -0.0321
 2724poe    c2311085   5.794   2.798   5.797 -0.0229  0.0995 -0.0844
 2724poe    c2311086   5.746   2.930   5.734 -0.0512  0.4365  0.6319
 2724poe     o211087   5.821   2.986   5.629 -0.2171 -0.3288  0.0958
 2724poe    c3111088   5.830   2.912   5.509  0.6490 -0.0798 -0.0040
 2725poe    c3111089   4.342   5.706   1.287  0.5976  0.4378  0.4890
 2725poe     o211090   4.273   5.817   1.234 -0.4355 -0.4048  0.0478
 2725poe    c2311091   4.305   5.840   1.098 -0.2609 -0.2487  0.1163
 2725poe    c2311092   4.310   5.986   1.049  0.0233 -0.2601  0.1095
 2725poe     o211093   4.186   6.052   1.054  0.1622  0.0250 -0.1485
 2725poe    c2311094   4.196   6.165   0.970  0.2456  0.1128 -0.0214
 2725poe    c2311095   4.056   6.227   0.966 -0.2173 -0.9184 -0.1056
 2725poe     o211096   4.008   6.237   1.098  0.4669 -0.0329  0.0823
 2725poe    c2311097   3.913   6.341   1.115  0.4880 -0.0229  0.1429
 2725poe    c2311098   3.883   6.344   1.265 -0.6626  0.3598 -0.0881
 2725poe     o211099   3.873   6.210   1.310 -0.1619  0.2325 -0.3549
 2725poe    c3111100   3.852   6.201   1.449  0.5869  0.1835 -0.2430
 2726poe    c3111101   1.614   0.060   0.215 -0.0493 -0.3025  0.3123
 2726poe     o211102   1.499   0.096   0.287  0.0254  0.3519  0.1118
 2726poe    c2311103   1.375   0.051   0.236  0.1272  0.0020  0.1718
 2726poe    c2311104   1.337  -0.086   0.294 -0.4002 -0.0133 -0.2068
 2726poe     o211105   1.294  -0.089   0.428  0.2197  0.0454 -0.0045
 2726poe    c2311106   1.296  -0.222   0.474 -0.2481  0.2699  0.6722
 2726poe    c2311107   1.212  -0.232   0.603 -0.5719 -0.4857  0.4151
 2726poe     o211108   1.229  -0.115   0.681  0.1167 -0.1907 -0.1670
 2726poe    c2311109   1.126  -0.092   0.774 -0.0081 -1.1077 -0.0702
 2726poe    c2311110   1.183   0.016   0.867 -0.4885 -0.4565 -0.5211
 2726poe     o211111   1.231   0.121   0.785 -0.7208  0.0073 -0.0694
 2726poe    c3111112   1.253   0.226   0.876 -0.6107  0.1782 -0.2951
 2727poe    c3111113   0.728   6.668   0.178 -0.1999  0.4337 -0.1599
 2727poe     o211114   0.779   6.628   0.052 -0.2630  0.6092 -0.2420
 2727poe    c2311115   0.876   6.718   0.002  0.5308  0.4152  0.8886
 2727poe    c2311116   0.930   6.638  -0.118  0.1345  0.8117  0.4390
 2727poe     o211117   0.825   6.578  -0.190  0.5049  0.2749  0.3418
 2727poe    c2311118   0.878   6.500  -0.295 -0.3070 -0.0136  0.1446
 2727poe    c2311119   0.763   6.441  -0.380 -0.2850 -0.0576  0.1453
 2727poe     o211120   0.683   6.382  -0.280 -0.8038  0.4903  0.0635
 2727poe    c2311121   0.582   6.311  -0.347 -0.0100 -0.3679 -0.2553
 2727poe    c2311122   0.447   6.287  -0.277 -0.0359  0.1734 -0.1159
 2727poe     o211123   0.384   6.411  -0.252 -0.2115  0.0692 -0.0342
 2727poe    c3111124   0.243   6.411  -0.248 -0.2026 -0.3929  0.2766
 2728poe    c3111125   4.445   0.849   5.235  0.2387 -0.1466 -0.0309
 2728poe     o211126   4.350   0.771   5.305 -0.2064  0.1937 -0.2439
 2728poe    c2311127   4.380   0.636   5.276 -0.2594  0.0092  0.5371
 2728poe    c2311128   4.380   0.549   5.403 -0.0036  0.3004  0.7380
 2728poe     o211129   4.480   0.587   5.496  0.1321  0.0769  0.6852
 2728poe    c2311130   4.493   0.485   5.593 -0.1122 -0.4067  0.2163
 2728poe    c2311131   4.600   0.537   5.690 -0.3984 -0.1359  0.3895
 2728poe     o211132   4.557   0.657   5.751 -0.0842  0.1544  0.0494
 2728poe    c2311133   4.641   0.682   5.862  0.2033 -0.3123 -0.0581
 2728poe    c2311134   4.763   0.766   5.821  0.2029 -0.0601  0.4522
 2728poe     o211135   4.724   0.885   5.755 -0.0880 -0.0771  0.5891
 2728poe    c3111136   4.831   0.977   5.750 -0.2099  0.0214 -0.6108
 2729poe    c3111137   3.347   1.774   1.666  0.1430  0.0217  0.2137
 2729poe     o211138   3.306   1.877   1.578 -0.1374 -0.5452 -0.3267
 2729poe    c2311139   3.223   1.837   1.471 -0.5155 -0.4293 -0.0778
 2729poe    c2311140   3.181   1.969   1.403  0.3512 -0.1093 -0.0050
 2729poe     o211141   3.287   2.020   1.324  0.4170 -0.4819 -0.1624
 2729poe    c2311142   3.246   2.136   1.256 -0.0765  0.0250  0.9623
 2729poe    c2311143   3.374   2.199   1.198 -0.1467 -0.2678  0.4747
 2729poe     o211144   3.484   2.217   1.285  0.0708  0.4698  0.0562
 2729poe    c2311145   3.588   2.286   1.220 -0.0347  0.2551 -0.3392
 2729poe    c2311146   3.706   2.316   1.314  0.3580 -0.4094 -0.6143
 2729poe     o211147   3.774   2.202   1.363  0.6474  0.0526  0.0729
 2729poe    c3111148   3.819   2.219   1.496  0.0806 -0.2420  0.3109
 2730poe    c3111149   4.516   1.889   3.846 -0.1306 -0.1769 -0.0701
 2730poe     o211150   4.625   1.937   3.922 -0.3418  0.1228  0.0479
 2730poe    c2311151   4.741   1.925   3.841 -0.1854  0.4397  0.2238
 2730poe    c2311152   4.869   1.958   3.919 -0.0470 -0.2223  0.2860
 2730poe     o211153   4.911   1.863   4.015  0.2389 -0.0413  0.3423
 2730poe    c2311154   5.001   1.920   4.107  0.0037  0.2276  0.4075
 2730poe    c2311155   5.042   1.814   4.210  0.1491  0.0718  0.1877
 2730poe     o211156   5.154   1.742   4.162 -0.2073 -0.0652 -0.4513
 2730poe    c2311157   5.211   1.647   4.249  0.1255  0.3727 -0.1857
 2730poe    c2311158   5.284   1.694   4.376 -0.1894  0.0630  0.1128
 2730poe     o211159   5.389   1.786   4.355 -0.4167  0.3124  0.0673
 2730poe    c3111160   5.432   1.841   4.477 -0.3835  0.2509  0.0832
 2731poe    c3111161   4.304   1.389   2.596  0.1532  0.2628  0.6968
 2731poe     o211162   4.167   1.376   2.627  0.0329 -0.1556  0.0120
 2731poe    c2311163   4.096   1.498   2.634  0.5130  0.1201  0.1425
 2731poe    c2311164   3.946   1.471   2.657  0.5452  0.2290  0.4788
 2731poe     o211165   3.917   1.364   2.570  0.0506  0.2536  0.6132
 2731poe    c2311166   3.777   1.346   2.568  0.1090 -0.1692  0.1244
 2731poe    c2311167   3.747   1.216   2.491 -0.3387 -0.2455  0.4251
 2731poe     o211168   3.851   1.125   2.518 -0.0715 -0.2249 -0.5276
 2731poe    c2311169   3.818   0.998   2.465 -0.6444 -0.1732 -0.2942
 2731poe    c2311170   3.939   0.904   2.458 -0.0347  0.6095 -0.4126
 2731poe     o211171   4.049   0.946   2.380  0.2578  0.4383 -0.0917
 2731poe    c3111172   4.149   0.846   2.381 -0.0128  0.1652 -0.1840
 2732poe    c3111173   1.353   6.462   3.406 -0.0981 -0.1304 -0.7180
 2732poe     o211174   1.410   6.517   3.290  0.7785  0.0626 -0.2068
 2732poe    c2311175   1.380   6.412   3.201 -0.2210  0.4505 -0.3442
 2732poe    c2311176   1.468   6.401   3.075 -0.0562  0.0868 -0.2001
 2732poe     o211177   1.465   6.512   2.988  0.1853 -0.1316 -0.4886
 2732poe    c2311178   1.550   6.487   2.879  0.1015  0.0602 -0.5974
 2732poe    c2311179   1.577   6.603   2.780  0.0996  0.0854 -0.5679
 2732poe     o211180   1.653   6.701   2.846  0.6612 -0.4166 -0.4607
 2732poe    c2311181   1.653   6.816   2.764 -0.1144 -0.0315  0.0597
 2732poe    c2311182   1.603   6.934   2.849  0.2731  0.0194  0.2194
 2732poe     o211183   1.679   6.932   2.968  0.2274  0.2531  0.2528
 2732poe    c3111184   1.628   7.031   3.054  0.0660  0.1922  0.2282
 2733poe    c3111185   3.263   4.765   0.763  0.4736  0.3034 -0.8830
 2733poe     o211186   3.342   4.648   0.767 -0.0775 -0.0578 -0.4282
 2733poe    c2311187   3.470   4.679   0.817 -0.4216  0.2684  0.2749
 2733poe    c2311188   3.549   4.546   0.817 -0.1896  0.4036 -0.0988
 2733poe     o211189   3.555   4.485   0.690  0.1346  0.6233 -0.1926
 2733poe    c2311190   3.619   4.361   0.705 -0.2879  0.4368  0.1093
 2733poe    c2311191   3.666   4.303   0.570 -0.1993 -0.3357  0.4636
 2733poe     o211192   3.555   4.273   0.488  0.1638 -0.5078  0.0329
 2733poe    c2311193   3.578   4.198   0.371  0.2050 -0.3995 -0.0282
 2733poe    c2311194   3.643   4.059   0.388  0.4119 -0.2740  0.2212
 2733poe     o211195   3.567   3.977   0.473 -0.2021  0.0580 -0.0008
 2733poe    c3111196   3.661   3.890   0.533 -0.6150 -0.4021 -0.0135
 2734poe    c3111197   6.105   1.102   6.662 -0.1334 -0.1288 -0.1568
 2734poe     o211198   6.124   0.998   6.756  0.0488  0.0863  0.0452
 2734poe    c2311199   6.118   1.043   6.890 -0.2237  0.0074  0.0595
 2734poe    c2311200   6.137   0.909   6.964 -0.0519  0.1077  0.1942
 2734poe     o211201   6.271   0.868   6.948 -0.1750 -0.0561 -0.4112
 2734poe    c2311202   6.301   0.766   7.039 -0.4254 -0.5639 -0.8919
 2734poe    c2311203   6.439   0.703   7.013 -0.0074  0.0557 -0.2242
 2734poe     o211204   6.475   0.658   6.884  0.2271 -0.1227 -0.0969
 2734poe    c2311205   6.610   0.618   6.888  0.3841  0.4405  0.2781
 2734poe    c2311206   6.677   0.658   6.755  0.2398 -0.2519 -0.0071
 2734poe     o211207   6.642   0.787   6.709  0.2622 -0.0193  0.6173
 2734poe    c3111208   6.723   0.833   6.604 -0.2089 -0.3491  0.1023
 2735poe    c3111209   6.308   4.437   0.806 -0.6490 -0.2177  0.0242
 2735poe     o211210   6.271   4.566   0.763 -0.2597 -0.0445  0.2034
 2735poe    c2311211   6.354   4.613   0.658  0.2276  0.0937  0.6464
 2735poe    c2311212   6.486   4.680   0.700  0.4045 -0.0915  0.3815
 2735poe     o211213   6.463   4.800   0.769  0.2039  0.0968 -0.0103
 2735poe    c2311214   6.574   4.884   0.746  0.0910  0.2650  0.0533
 2735poe    c2311215   6.572   4.975   0.622 -0.3781  0.0561 -0.0924
 2735poe     o211216   6.568   4.905   0.499  0.3455  0.3011 -0.2568
 2735poe    c2311217   6.588   4.993   0.390 -0.3669  0.5423 -0.2025
 2735poe    c2311218   6.588   4.916   0.256 -0.2661  0.3082 -0.0679
 2735poe     o211219   6.465   4.868   0.208 -0.1993  0.1359 -0.0693
 2735poe    c3111220   6.473   4.852   0.068 -0.2665  0.6976 -0.1414
 2736poe    c3111221   1.225   0.654   3.679  0.1806  0.2328 -0.2733
 2736poe     o211222   1.265   0.522   3.708 -0.1255  0.0989 -0.4654
 2736poe    c2311223   1.165   0.441   3.766 -0.1165  0.3452 -0.1013
 2736poe    c2311224   1.232   0.302   3.778  0.0632  0.3994 -0.4406
 2736poe     o211225   1.340   0.285   3.867 -0.2762 -0.0464 -0.1070
 2736poe    c2311226   1.415   0.179   3.812 -0.2939 -0.1651  0.0971
 2736poe    c2311227   1.532   0.141   3.904  0.2787 -0.4115 -0.7198
 2736poe     o211228   1.620   0.251   3.906 -0.3752  0.1083  0.1125
 2736poe    c2311229   1.724   0.207   3.992 -0.5786  0.0623  0.3355
 2736poe    c2311230   1.850   0.293   4.011 -0.0669 -0.5918 -0.0779
 2736poe     o211231   1.930   0.299   3.895  0.5278 -0.1049  0.3527
 2736poe    c3111232   2.024   0.404   3.905  0.3536  0.0844  0.0053
 2737poe    c3111233   1.657   1.084   0.472 -0.7771  0.4318 -0.0220
 2737poe     o211234   1.669   1.128   0.605  0.0835  0.1579  0.0007
 2737poe    c2311235   1.662   1.020   0.696 -0.4236 -0.0580 -0.2906
 2737poe    c2311236   1.708   1.046   0.840 -0.2101 -0.7262 -0.2328
 2737poe     o211237   1.624   1.092   0.944  0.5672  0.6064 -0.1724
 2737poe    c2311238   1.680   1.083   1.073 -0.1584  0.4744  0.1380
 2737poe    c2311239   1.581   1.007   1.163  0.2168 -0.1689  0.0147
 2737poe     o211240   1.474   1.088   1.205  0.3386 -0.2097  0.4014
 2737poe    c2311241   1.368   1.007   1.251  0.2804 -0.2280  0.2361
 2737poe    c2311242   1.248   1.089   1.301  0.1380 -0.3040  0.0153
 2737poe     o211243   1.173   1.153   1.200  0.2879  0.0138  0.1044
 2737poe    c3111244   1.099   1.251   1.270 -0.0765  0.2347 -0.5809
 2738poe    c3111245   5.312   0.841   1.119  0.0890  0.4027 -0.0821
 2738poe     o211246   5.200   0.891   1.190  0.2242 -0.2229  0.5879
 2738poe    c2311247   5.099   0.793   1.182  0.3915 -0.3831  0.3924
 2738poe    c2311248   4.971   0.829   1.260 -0.0883 -0.0333 -0.5370
 2738poe     o211249   4.906   0.951   1.232 -1.0217 -0.3671  0.1145
 2738poe    c2311250   4.820   0.949   1.121 -0.2380 -0.2176 -0.5060
 2738poe    c2311251   4.763   1.090   1.099  0.1121 -0.0354 -0.2486
 2738poe     o211252   4.857   1.193   1.079  0.3561 -0.2467 -0.1900
 2738poe    c2311253   4.789   1.311   1.044  0.2315 -0.3094 -0.1590
 2738poe    c2311254   4.883   1.433   1.055 -0.4934  0.2460  0.0312
 2738poe     o211255   5.013   1.396   1.012 -0.3384  0.2126  0.5235
 2738poe    c3111256   5.094   1.509   0.988  0.0005 -0.1805 -0.1955
 2739poe    c3111257   0.083   0.858   5.020  0.1718 -0.2479 -0.2539
 2739poe     o211258   0.157   0.738   5.016  0.4224 -0.0863 -0.4450
 2739poe    c2311259   0.189   0.695   4.885 -0.2035 -0.9047 -0.3402
 2739poe    c2311260   0.290   0.580   4.875  0.4542 -0.3703  0.0403
 2739poe     o211261   0.422   0.625   4.899  0.1840  0.0848  0.6678
 2739poe    c2311262   0.506   0.513   4.893 -0.2652 -0.2056 -0.5787
 2739poe    c2311263   0.651   0.563   4.905 -0.2350 -0.4186  0.0245
 2739poe     o211264   0.650   0.678   4.987  0.0519 -0.3080 -0.1248
 2739poe    c2311265   0.777   0.739   4.996  0.0302 -0.3072  0.1800
 2739poe    c2311266   0.773   0.884   5.046 -0.0129 -0.1175 -0.3710
 2739poe     o211267   0.685   0.941   4.952 -0.1575  0.2600 -0.0113
 2739poe    c3111268   0.700   1.079   4.930 -0.2145  0.2616 -0.0423
 2740poe    c3111269   0.993   5.412   5.329 -0.1893  0.3433  0.1016
 2740poe     o211270   1.071   5.505   5.257  0.4723 -0.1126  0.2163
 2740poe    c2311271   1.017   5.550   5.135 -0.4978  0.0499  0.6920
 2740poe    c2311272   1.088   5.674   5.077 -0.0435 -0.3256  0.4381
 2740poe     o211273   1.227   5.651   5.072 -0.0068 -0.0122 -0.0209
 2740poe    c2311274   1.289   5.774   5.040 -0.0359  0.1405  0.4997
 2740poe    c2311275   1.436   5.767   5.086  0.1892  0.1143 -0.2005
 2740poe     o211276   1.463   5.764   5.224  0.6465  0.2287 -0.2867
 2740poe    c2311277   1.551   5.863   5.274  0.6947  0.4334 -0.7790
 2740poe    c2311278   1.497   6.007   5.270  0.2651  0.2688 -1.0040
 2740poe     o211279   1.579   6.103   5.333  0.0460 -0.5252  0.5392
 2740poe    c3111280   1.512   6.227   5.340  0.0871 -0.5074  0.6105
 2741poe    c3111281   1.729   1.195   2.255  0.2461 -0.3435 -0.2099
 2741poe     o211282   1.619   1.111   2.280 -0.2060  0.3453  0.1147
 2741poe    c2311283   1.510   1.198   2.258 -0.1459  0.4943  0.3922
 2741poe    c2311284   1.380   1.116   2.251  0.0753  0.1406  0.3815
 2741poe     o211285   1.352   1.049   2.372 -0.1223 -0.3904  0.0433
 2741poe    c2311286   1.231   0.977   2.362 -0.4218  0.1375 -0.1497
 2741poe    c2311287   1.200   0.906   2.495 -0.2980 -0.0285 -0.2089
 2741poe     o211288   1.210   1.003   2.598  0.1162 -0.0120 -0.2636
 2741poe    c2311289   1.227   0.937   2.721 -0.1721  0.3170 -0.0460
 2741poe    c2311290   1.239   1.027   2.846  0.4818 -0.5653  0.5406
 2741poe     o211291   1.356   1.105   2.840 -0.0288  0.1641 -0.1561
 2741poe    c3111292   1.347   1.193   2.950 -0.7053  0.1688 -0.2080
 2742poe    c3111293   3.802   0.497   5.003 -0.1440 -0.1231  0.1305
 2742poe     o211294   3.700   0.561   5.077  0.0757  0.3515  0.0277
 2742poe    c2311295   3.683   0.694   5.034 -0.3091  0.1503 -0.4543
 2742poe    c2311296   3.570   0.767   5.110 -0.1852 -0.1547  0.0244
 2742poe     o211297   3.444   0.712   5.080 -0.1626 -0.0465 -0.2662
 2742poe    c2311298   3.345   0.757   5.170 -0.2299 -0.0224 -0.3513
 2742poe    c2311299   3.221   0.667   5.182 -0.6572  0.6621  0.4960
 2742poe     o211300   3.253   0.535   5.219 -0.1793  0.5965 -0.1251
 2742poe    c2311301   3.133   0.462   5.237  0.3087 -0.1993 -0.0747
 2742poe    c2311302   3.123   0.348   5.134 -0.2277 -0.4776  0.2826
 2742poe     o211303   3.202   0.239   5.175  0.1892 -0.1941  0.2348
 2742poe    c3111304   3.173   0.140   5.080 -0.3349  0.6204 -0.4638
 2743poe    c3111305   0.893   2.825   0.382 -0.2909  0.4674 -0.2765
 2743poe     o211306   0.829   2.714   0.439  0.1027  0.2512 -0.2560
 2743poe    c2311307   0.921   2.607   0.448  0.2133  0.3783  0.1505
 2743poe    c2311308   0.875   2.504   0.554  0.1986  0.2773  0.0470
 2743poe     o211309   0.758   2.434   0.522  0.5154 -0.3609  0.2698
 2743poe    c2311310   0.796   2.301   0.496  0.4050 -0.2851 -0.2822
 2743poe    c2311311   0.685   2.201   0.457  0.5132 -0.6049  0.2260
 2743poe     o211312   0.603   2.257   0.357  0.2475 -0.4187  0.5453
 2743poe    c2311313   0.530   2.161   0.284 -0.3500  0.5976 -0.2108
 2743poe    c2311314   0.504   2.196   0.136  0.0652 -0.3868 -0.5228
 2743poe     o211315   0.617   2.183   0.053  0.3919  0.0516 -0.1536
 2743poe    c3111316   0.685   2.305   0.039  0.2600  0.1912  0.4149
 2744poe    c3111317   2.772   1.275   6.322 -0.0567 -0.9601  0.2409
 2744poe     o211318   2.887   1.254   6.400  0.4878  0.3647 -0.1882
 2744poe    c2311319   2.841   1.251   6.533 -0.1685 -0.2299 -0.4262
 2744poe    c2311320   2.936   1.292   6.647 -0.4536  0.1357 -0.3191
 2744poe     o211321   2.944   1.433   6.640  0.0201  0.1756  0.7591
 2744poe    c2311322   3.005   1.485   6.756  0.2565  0.2647  0.5975
 2744poe    c2311323   2.990   1.636   6.780  0.2447  0.3383  0.1280
 2744poe     o211324   2.854   1.672   6.773  0.1034 -0.1955  0.1084
 2744poe    c2311325   2.850   1.809   6.741  0.2301 -0.1347  0.3479
 2744poe    c2311326   2.720   1.891   6.755 -0.1571 -0.6936  0.0687
 2744poe     o211327   2.678   1.900   6.889 -0.4916 -0.1835 -0.0691
 2744poe    c3111328   2.550   1.957   6.906 -0.2573  0.3712 -0.1674
 2745poe    c3111329   6.620   2.278   5.262  0.3547 -0.3094  0.6228
 2745poe     o211330   6.616   2.208   5.140 -0.3657  0.2560  0.3167
 2745poe    c2311331   6.503   2.253   5.068 -0.4551  0.0288  0.3123
 2745poe    c2311332   6.518   2.209   4.921  0.0400 -0.0132  0.3718
 2745poe     o211333   6.562   2.075   4.923  0.4109  0.1033 -0.0054
 2745poe    c2311334   6.505   1.998   4.820  0.3862  0.1851 -0.0533
 2745poe    c2311335   6.550   1.852   4.845 -0.2265 -0.0162 -0.1120
 2745poe     o211336   6.530   1.843   4.984  0.1223 -0.0491 -0.0638
 2745poe    c2311337   6.508   1.706   5.007  0.3522 -0.0863 -0.0592
 2745poe    c2311338   6.362   1.685   5.052  0.2849  0.1569 -0.1648
 2745poe     o211339   6.345   1.773   5.162  0.0027 -0.4118  0.2503
 2745poe    c3111340   6.215   1.760   5.215 -0.1118 -0.4355 -0.0323
 2746poe    c3111341   5.761   6.862   1.605 -0.6586 -0.1366  0.2021
 2746poe     o211342   5.675   6.750   1.602 -0.3132 -0.3989 -0.0067
 2746poe    c2311343   5.734   6.652   1.685 -0.0244 -0.4568 -0.2771
 2746poe    c2311344   5.634   6.537   1.709  0.0750 -0.5387 -0.2593
 2746poe     o211345   5.509   6.570   1.766  0.4161  0.0543  0.1554
 2746poe    c2311346   5.432   6.452   1.773  0.1454  0.2282  0.1147
 2746poe    c2311347   5.284   6.481   1.804  0.2111  0.6617  0.0393
 2746poe     o211348   5.233   6.575   1.713 -0.0130  0.2979 -0.2174
 2746poe    c2311349   5.093   6.586   1.732 -0.0438 -0.3141 -0.0794
 2746poe    c2311350   5.048   6.721   1.674  0.3610 -0.2689 -0.2922
 2746poe     o211351   5.145   6.812   1.722  0.5416 -0.1560 -0.8594
 2746poe    c3111352   5.119   6.945   1.681  0.0320 -0.0633 -0.2605
 2747poe    c3111353   3.651   4.478   3.994 -0.5204 -1.2022  0.7887
 2747poe     o211354   3.700   4.348   4.017  0.6216 -0.8321  0.5354
 2747poe    c2311355   3.657   4.254   3.921  0.8537 -0.0454 -0.3447
 2747poe    c2311356   3.654   4.111   3.977  0.5086  0.0086 -0.2235
 2747poe     o211357   3.775   4.039   3.990  0.4323 -0.0233  0.3327
 2747poe    c2311358   3.759   3.920   4.063  0.2986  0.2704  0.7890
 2747poe    c2311359   3.892   3.865   4.118  0.2251 -0.0042  0.6979
 2747poe     o211360   3.972   3.954   4.194 -0.0319  0.5173  0.3666
 2747poe    c2311361   3.921   3.964   4.325 -0.6064 -0.4821  0.2303
 2747poe    c2311362   4.030   4.033   4.409 -0.4476 -0.1207 -0.2708
 2747poe     o211363   4.049   4.169   4.375  0.4420 -0.1952 -0.0803
 2747poe    c3111364   4.128   4.225   4.477  0.1643 -0.0113  0.0344
 2748poe    c3111365   2.772   0.436   2.434  1.0733  0.4534  0.1584
 2748poe     o211366   2.830   0.321   2.491 -0.3674 -0.2475  0.2512
 2748poe    c2311367   2.866   0.233   2.387 -0.0807 -0.0788  0.2059
 2748poe    c2311368   2.869   0.087   2.437  0.2953 -0.4179 -0.7874
 2748poe     o211369   2.743   0.025   2.441 -0.3130  0.8287 -0.0635
 2748poe    c2311370   2.718  -0.033   2.315 -0.3645 -0.3468  0.4715
 2748poe    c2311371   2.571  -0.078   2.305 -0.4139 -0.1305  0.2166
 2748poe     o211372   2.541  -0.179   2.399  0.4647 -0.2312  0.3971
 2748poe    c2311373   2.408  -0.181   2.445  0.3360  0.3569  0.0618
 2748poe    c2311374   2.399  -0.277   2.565  0.0703 -0.0600 -0.2863
 2748poe     o211375   2.484  -0.246   2.673 -0.2120  0.0894 -0.1028
 2748poe    c3111376   2.448  -0.320   2.787 -0.2742  0.2320 -0.0300
 2749poe    c3111377   1.092   0.876   5.626 -0.1254  0.0827  0.1656
 2749poe     o211378   1.193   0.960   5.575  0.3080 -0.2100  0.5484
 2749poe    c2311379   1.144   1.091   5.564 -0.1596 -0.4470 -0.1974
 2749poe    c2311380   1.239   1.169   5.470  0.0790 -0.3467  0.1272
 2749poe     o211381   1.365   1.188   5.531  0.0227  0.2123  0.0717
 2749poe    c2311382   1.455   1.249   5.441 -0.1012 -0.6081 -0.6185
 2749poe    c2311383   1.598   1.257   5.497 -0.3281  0.0692 -0.1175
 2749poe     o211384   1.646   1.127   5.525  0.0373  0.1269 -0.4699
 2749poe    c2311385   1.786   1.129   5.543 -0.0272 -0.2653  0.1188
 2749poe    c2311386   1.829   0.998   5.610  0.0066 -0.1995  0.2255
 2749poe     o211387   1.766   0.901   5.529 -0.1855 -0.1373  0.3001
 2749poe    c3111388   1.824   0.773   5.529 -0.0567 -0.0820  0.7430
 2750poe    c3111389   0.852   2.378   5.927 -0.3182  0.2165  0.5327
 2750poe     o211390   0.804   2.281   5.837  0.4555  0.0637  0.2748
 2750poe    c2311391   0.675   2.315   5.790  0.5678 -0.0371 -0.1164
 2750poe    c2311392   0.623   2.193   5.711  0.5573  0.0058 -0.1754
 2750poe     o211393   0.693   2.161   5.593 -0.7354 -0.1077 -0.9361
 2750poe    c2311394   0.653   2.242   5.485 -0.3477  0.5633 -0.5869
 2750poe    c2311395   0.729   2.198   5.358 -0.1781 -0.1135 -0.2581
 2750poe     o211396   0.866   2.227   5.371 -0.2489  0.1499 -0.0943
 2750poe    c2311397   0.927   2.148   5.272 -0.0353  0.3493 -0.1223
 2750poe    c2311398   1.080   2.162   5.276 -0.0696  0.5097  0.9908
 2750poe     o211399   1.140   2.129   5.399  0.3385  0.4836  0.7891
 2750poe    c3111400   1.271   2.079   5.382  0.0919  0.1649 -0.2400
 2751poe    c3111401   2.286   6.504   2.986  0.1369 -0.0989 -0.0759
 2751poe     o211402   2.162   6.484   3.049  0.1211  0.5242  0.0953
 2751poe    c2311403   2.169   6.390   3.154  0.0639  0.4757  0.0548
 2751poe    c2311404   2.035   6.353   3.219  0.3235  0.0017  0.3257
 2751poe     o211405   1.986   6.472   3.278  0.5291  0.2143  0.0670
 2751poe    c2311406   1.867   6.456   3.351  0.6057  0.2559  0.2013
 2751poe    c2311407   1.826   6.571   3.444 -0.1184  0.3555 -0.2275
 2751poe     o211408   1.802   6.697   3.386  0.3504  0.4463 -0.2290
 2751poe    c2311409   1.759   6.787   3.486  0.1487 -0.0500  0.1360
 2751poe    c2311410   1.769   6.938   3.456  0.2297 -0.1702 -0.4505
 2751poe     o211411   1.903   6.983   3.455  0.1048  0.2265  0.5716
 2751poe    c3111412   1.914   7.100   3.378  0.0093 -0.1762 -0.0566
 2752poe    c3111413   6.962   1.968   0.752  0.3054 -0.0220 -0.0379
 2752poe     o211414   7.005   1.834   0.748 -0.0011 -0.1238  0.0712
 2752poe    c2311415   7.146   1.832   0.752  0.0109 -0.0803 -0.2948
 2752poe    c2311416   7.190   1.691   0.796  0.3824  0.0962 -0.0956
 2752poe     o211417   7.202   1.593   0.695  0.1482  0.2456 -0.2674
 2752poe    c2311418   7.234   1.462   0.735  0.7923  0.3589 -0.4054
 2752poe    c2311419   7.230   1.366   0.614  0.4366  0.0238 -0.1293
 2752poe     o211420   7.113   1.383   0.537  0.3005  0.0182  0.0769
 2752poe    c2311421   7.116   1.275   0.447 -0.2390 -0.0643  0.1560
 2752poe    c2311422   7.022   1.295   0.326 -0.1474 -0.0698  0.0845
 2752poe     o211423   7.064   1.389   0.230 -0.2998  0.1524  0.2349
 2752poe    c3111424   7.149   1.329   0.134 -0.5240 -0.0343  0.1523
 2753poe    c3111425   4.008   5.473   3.502  0.3496 -0.4368  0.5064
 2753poe     o211426   3.941   5.586   3.449 -0.1769 -0.8023  0.3899
 2753poe    c2311427   3.813   5.590   3.508 -0.1017 -0.3290  0.5242
 2753poe    c2311428   3.734   5.722   3.498  0.1459 -0.2030  0.2266
 2753poe     o211429   3.797   5.835   3.555  0.1881 -0.1862  0.1461
 2753poe    c2311430   3.749   5.959   3.509  0.5290 -0.4284 -0.8930
 2753poe    c2311431   3.830   6.081   3.553 -0.0536 -0.3430 -0.0357
 2753poe     o211432   3.967   6.074   3.519 -0.1175 -0.2594 -0.3101
 2753poe    c2311433   4.025   6.202   3.525 -0.4264 -0.1454  0.3077
 2753poe    c2311434   4.157   6.183   3.448 -0.1256 -0.0801  0.8012
 2753poe     o211435   4.208   6.058   3.488  0.2740 -0.1325  0.1580
 2753poe    c3111436   4.332   6.049   3.423  0.0949 -0.3641 -0.1552
 2754poe    c3111437   6.061   3.689   2.698 -0.2857  0.2102  0.3308
 2754poe     o211438   6.124   3.813   2.715  0.0470  0.1030 -0.1055
 2754poe    c2311439   6.043   3.911   2.654  0.1487 -0.2341 -0.7877
 2754poe    c2311440   6.112   4.048   2.644 -0.0893  0.0124  0.7486
 2754poe     o211441   6.128   4.123   2.762 -0.1552  0.6526  0.3551
 2754poe    c2311442   6.019   4.209   2.785 -0.5227  0.2040  0.3023
 2754poe    c2311443   6.059   4.324   2.880 -0.4395  0.1262  0.3617
 2754poe     o211444   6.173   4.397   2.839 -0.3395 -0.2752 -0.0881
 2754poe    c2311445   6.222   4.473   2.947  0.1282 -0.1582 -0.3818
 2754poe    c2311446   6.373   4.501   2.942  0.0680  0.2713  0.1572
 2754poe     o211447   6.437   4.381   2.981 -0.2700  0.0864  0.1407
 2754poe    c3111448   6.567   4.407   3.027 -0.1668  0.3460 -0.2949
 2755poe    c3111449   1.525   4.983   0.281  0.3582  0.0029 -0.2791
 2755poe     o211450   1.613   4.980   0.390  0.3679  0.1845 -0.2816
 2755poe    c2311451   1.719   4.891   0.363 -0.0352 -0.5139  0.3925
 2755poe    c2311452   1.807   4.910   0.488  0.5065  0.0378 -0.0642
 2755poe     o211453   1.862   5.040   0.495 -0.5448  0.4754  0.1767
 2755poe    c2311454   1.949   5.038   0.606 -0.3248  0.3492  0.0006
 2755poe    c2311455   2.081   5.112   0.577 -0.1242 -0.2397 -0.6509
 2755poe     o211456   2.188   5.044   0.517  0.3075 -0.5689  0.4657
 2755poe    c2311457   2.176   5.020   0.378  0.1845 -0.0903  0.3942
 2755poe    c2311458   2.313   4.970   0.328 -0.2205 -0.5898 -0.2245
 2755poe     o211459   2.415   5.061   0.359 -0.4526 -0.3194 -0.2460
 2755poe    c3111460   2.537   4.991   0.369 -0.4132 -0.1920  0.2173
 2756poe    c3111461   0.531   4.624   0.729 -0.4215 -0.2659  0.2785
 2756poe     o211462   0.483   4.540   0.832 -0.0232 -0.5089  0.2650
 2756poe    c2311463   0.488   4.607   0.956 -0.5323 -0.7264  0.4029
 2756poe    c2311464   0.468   4.524   1.084  0.4521 -0.5157  0.7015
 2756poe     o211465   0.334   4.478   1.090  0.0078  0.6271 -0.0861
 2756poe    c2311466   0.320   4.410   1.212 -0.3072  0.2171 -0.3496
 2756poe    c2311467   0.182   4.358   1.256 -0.0262 -0.2228  0.0319
 2756poe     o211468   0.134   4.266   1.161 -0.0594 -0.3363  0.1589
 2756poe    c2311469   0.007   4.235   1.213 -0.3699  0.5587 -0.0535
 2756poe    c2311470  -0.056   4.124   1.126  0.5830 -0.0115 -0.0302
 2756poe     o211471  -0.104   4.193   1.014  0.0338 -0.3396 -0.0016
 2756poe    c3111472  -0.158   4.112   0.911  0.2148  0.1760 -0.5104
 2757poe    c3111473   3.390   3.386   1.117  0.5290  0.2425 -0.1780
 2757poe     o211474   3.300   3.457   1.199  0.1799  0.3076 -0.6127
 2757poe    c2311475   3.263   3.583   1.148  0.0337  0.5144 -0.0088
 2757poe    c2311476   3.335   3.692   1.229  0.5831  0.1443  0.0100
 2757poe     o211477   3.317   3.693   1.369 -0.1553  0.5749 -0.0753
 2757poe    c2311478   3.369   3.808   1.431 -0.0628  0.4759  0.0316
 2757poe    c2311479   3.328   3.794   1.579  0.0933 -0.6679 -0.0232
 2757poe     o211480   3.354   3.661   1.618  0.3941 -0.5232  0.2724
 2757poe    c2311481   3.367   3.650   1.758 -0.4887  0.2227  0.4210
 2757poe    c2311482   3.499   3.584   1.802 -0.4071  0.2628  0.2354
 2757poe     o211483   3.613   3.665   1.781 -0.0724 -0.1865  0.3167
 2757poe    c3111484   3.740   3.635   1.834  0.2912 -0.1808 -0.5466
 2758poe    c3111485   4.464   4.146   4.680  0.4150  0.4104 -0.4340
 2758poe     o211486   4.560   4.203   4.765  0.0305  0.3772  0.0237
 2758poe    c2311487   4.629   4.297   4.687  0.0494 -0.0178 -0.4374
 2758poe    c2311488   4.662   4.409   4.788 -0.1436 -0.0182 -0.3735
 2758poe     o211489   4.713   4.351   4.906  0.1505  0.1070 -0.4375
 2758poe    c2311490   4.720   4.453   5.003 -0.6429 -0.3570  0.1240
 2758poe    c2311491   4.792   4.395   5.127 -0.1971 -0.4234 -0.1640
 2758poe     o211492   4.930   4.376   5.103  0.0335  0.5982  0.2901
 2758poe    c2311493   4.998   4.353   5.224  0.2626 -0.6571 -0.0637
 2758poe    c2311494   5.150   4.346   5.199  0.4465  0.2825  0.7421
 2758poe     o211495   5.220   4.455   5.143 -0.2331  0.1504 -0.3976
 2758poe    c3111496   5.353   4.415   5.118 -0.3254 -0.1892 -0.3516
 2759poe    c3111497   7.013   2.778   4.244 -0.8287 -0.0604 -0.4099
 2759poe     o211498   7.125   2.712   4.189 -0.4487  0.0240  0.2507
 2759poe    c2311499   7.104   2.646   4.067 -0.4225  0.2043  0.1472
 2759poe    c2311500   7.245   2.589   4.038 -0.4897  0.4271 -0.6439
 2759poe     o211501   7.290   2.518   4.151 -0.5049  0.0434 -0.8774
 2759poe    c2311502   7.415   2.460   4.120 -0.0967  0.0971  0.5927
 2759poe    c2311503   7.498   2.396   4.233  0.1544 -0.3128  0.1808
 2759poe     o211504   7.509   2.479   4.347  0.2630 -0.1242  0.0334
 2759poe    c2311505   7.590   2.431   4.452 -0.2356 -0.3116  0.3366
 2759poe    c2311506   7.742   2.450   4.432 -0.3379  0.1030 -0.0615
 2759poe     o211507   7.784   2.582   4.407 -0.0503 -0.0334 -0.3014
 2759poe    c3111508   7.925   2.592   4.413 -0.0442 -0.4281  0.2840
 2760poe    c3111509   4.111   3.932   0.065 -0.0802  0.0076  0.0322
 2760poe     o211510   4.120   3.899  -0.072 -0.5231  0.0342 -0.0063
 2760poe    c2311511   4.191   4.004  -0.134  0.1963 -0.3465  0.1538
 2760poe    c2311512   4.207   3.986  -0.286  0.1728 -0.7155  0.1933
 2760poe     o211513   4.080   3.972  -0.345  0.1000  0.0533  0.1450
 2760poe    c2311514   4.086   4.009  -0.481 -0.0494  0.2298  0.1853
 2760poe    c2311515   3.951   3.969  -0.543 -0.0430  0.2459  0.1618
 2760poe     o211516   3.915   3.836  -0.516 -0.2172  0.2321 -0.1417
 2760poe    c2311517   3.778   3.815  -0.546 -0.1219 -0.3602 -0.1857
 2760poe    c2311518   3.755   3.663  -0.552 -0.0932 -0.3539 -0.4382
 2760poe     o211519   3.852   3.598  -0.473 -0.3662  0.1181  0.2870
 2760poe    c3111520   3.821   3.461  -0.460  0.3464 -0.0699  0.0319
 2761poe    c3111521   3.051   1.589   0.286 -0.0296  0.3438 -0.0809
 2761poe     o211522   3.011   1.694   0.372 -0.1071  0.4574 -0.2545
 2761poe    c2311523   3.061   1.665   0.501 -0.7773 -0.2249 -0.1412
 2761poe    c2311524   3.035   1.769   0.612 -0.6475  0.2241 -0.5242
 2761poe     o211525   3.104   1.891   0.606 -0.1978 -0.0019 -0.0667
 2761poe    c2311526   3.045   1.971   0.707  0.2380 -0.4286  0.5361
 2761poe    c2311527   3.130   2.100   0.710  0.2050 -0.3759 -0.3950
 2761poe     o211528   3.134   2.176   0.591 -0.3854  0.7984  0.3182
 2761poe    c2311529   3.012   2.203   0.527 -0.3882  0.2160  0.0755
 2761poe    c2311530   3.015   2.298   0.405 -0.2007 -0.1998 -0.2456
 2761poe     o211531   3.085   2.259   0.289 -0.2178 -0.3100 -0.2196
 2761poe    c3111532   3.049   2.343   0.181 -0.3899  0.3098  0.3104
 2762poe    c3111533   5.810   2.852   2.399 -0.4288  0.3217  0.5735
 2762poe     o211534   5.812   2.933   2.283  0.8621 -0.4750  0.0138
 2762poe    c2311535   5.751   3.059   2.299  0.2004 -0.7137 -0.5841
 2762poe    c2311536   5.828   3.172   2.228  0.1884 -0.1247  0.3240
 2762poe     o211537   5.852   3.158   2.090  0.0916 -0.3027  0.3246
 2762poe    c2311538   5.926   3.270   2.046  0.1001 -0.4118  0.0603
 2762poe    c2311539   6.012   3.220   1.928  0.5425 -0.2350  0.3075
 2762poe     o211540   5.924   3.144   1.848 -0.1385  0.9477 -0.0883
 2762poe    c2311541   5.993   3.103   1.732 -0.5565  0.4005 -0.1431
 2762poe    c2311542   5.941   2.967   1.682  0.3210  0.0625 -0.1472
 2762poe     o211543   5.800   2.963   1.683  0.3246 -0.0106  0.3336
 2762poe    c3111544   5.749   2.839   1.640  0.5555 -0.0572  0.1888
 2763poe    c3111545   6.271   4.672   1.868 -0.2043 -0.3576  0.9220
 2763poe     o211546   6.383   4.696   1.951  0.3233  0.4998 -0.0196
 2763poe    c2311547   6.501   4.696   1.873  0.4352  0.1548  0.1457
 2763poe    c2311548   6.621   4.727   1.963  0.0839  0.1794  0.6097
 2763poe     o211549   6.654   4.607   2.030  0.0848 -0.2641 -0.1787
 2763poe    c2311550   6.757   4.637   2.121 -0.0344  0.1884 -0.1916
 2763poe    c2311551   6.803   4.502   2.180 -0.0563  0.1605 -0.2385
 2763poe     o211552   6.712   4.431   2.260  0.2952  0.0287  0.0426
 2763poe    c2311553   6.759   4.310   2.316  0.0984  0.2565  0.7173
 2763poe    c2311554   6.670   4.256   2.429  0.1482  0.1598  0.7109
 2763poe     o211555   6.547   4.209   2.378  0.5821 -0.4168  0.1711
 2763poe    c3111556   6.474   4.176   2.495  0.0327 -0.1914 -0.1012
 2764poe    c3111557   3.373   1.941   2.088  1.0332 -0.0270 -0.7907
 2764poe     o211558   3.304   1.990   1.976 -0.7744 -0.1918  0.2059
 2764poe    c2311559   3.361   2.108   1.924  0.0499 -0.7746 -0.2389
 2764poe    c2311560   3.278   2.192   1.825  0.2275 -0.1974  0.0991
 2764poe     o211561   3.156   2.236   1.880  0.4315 -0.0701  0.4525
 2764poe    c2311562   3.112   2.333   1.789  0.4519 -0.6804 -0.2160
 2764poe    c2311563   2.970   2.369   1.836  0.5310 -0.3454 -0.2322
 2764poe     o211564   2.987   2.448   1.952  0.2291 -0.0904 -0.3589
 2764poe    c2311565   2.866   2.488   2.012  0.1344  0.1196 -0.6870
 2764poe    c2311566   2.893   2.589   2.125 -0.3056 -0.3227 -0.1828
 2764poe     o211567   2.959   2.710   2.092 -0.1839 -0.2998  0.1439
 2764poe    c3111568   2.987   2.794   2.201 -0.1439 -0.6145  0.3803
 2765poe    c3111569   5.600   6.148   2.854  0.0433  0.3844  0.1048
 2765poe     o211570   5.463   6.117   2.849  0.1046  0.1754 -0.4259
 2765poe    c2311571   5.440   5.993   2.787 -0.4212  0.0352  0.0352
 2765poe    c2311572   5.293   5.949   2.793 -0.2435 -0.5816 -0.0245
 2765poe     o211573   5.258   5.914   2.926  0.0528 -0.0591  0.1926
 2765poe    c2311574   5.135   5.845   2.931  0.0384 -0.0793 -0.3616
 2765poe    c2311575   5.111   5.819   3.081 -0.9832  0.1278 -0.4827
 2765poe     o211576   5.052   5.927   3.148 -0.0017 -0.1011  0.7956
 2765poe    c2311577   5.007   5.888   3.275 -0.1725 -0.6445  0.5702
 2765poe    c2311578   4.975   5.995   3.381  0.1680 -0.0398  0.0653
 2765poe     o211579   4.845   6.049   3.377 -0.1606 -0.8688 -0.4641
 2765poe    c3111580   4.798   6.061   3.509  0.2835  0.4608 -0.4179
 2766poe    c3111581   5.355   3.391   4.133 -0.3771 -0.4999 -0.2239
 2766poe     o211582   5.281   3.311   4.043 -0.2535 -0.4072 -0.4086
 2766poe    c2311583   5.164   3.263   4.107 -0.0488 -0.1685  0.1576
 2766poe    c2311584   5.179   3.139   4.197  0.3872 -0.1301  0.1402
 2766poe     o211585   5.177   3.019   4.124  0.2786 -0.2346  0.3156
 2766poe    c2311586   5.245   2.909   4.181  0.4318 -0.1314  0.3322
 2766poe    c2311587   5.217   2.769   4.124  0.7133  0.0898 -0.3504
 2766poe     o211588   5.239   2.767   3.984  0.1472 -0.1429 -0.4363
 2766poe    c2311589   5.220   2.638   3.930 -0.4811 -0.3057  0.1520
 2766poe    c2311590   5.210   2.641   3.777 -0.0200 -0.4730  0.1159
 2766poe     o211591   5.097   2.694   3.710 -0.0177 -0.6844 -0.0580
 2766poe    c3111592   5.123   2.706   3.572 -0.0575  0.1677  0.0022
 2767poe    c3111593   1.507   0.536   5.325  0.4105 -0.0491  0.3573
 2767poe     o211594   1.553   0.538   5.192  0.3235  0.4489  0.3327
 2767poe    c2311595   1.655   0.631   5.168  0.8912 -0.1684  0.3242
 2767poe    c2311596   1.694   0.629   5.019 -0.0459 -0.0020  0.0690
 2767poe     o211597   1.723   0.508   4.953 -0.3074 -0.3303  0.5512
 2767poe    c2311598   1.735   0.491   4.814 -0.2515  0.1302  0.4973
 2767poe    c2311599   1.622   0.548   4.725  0.5030  0.2837 -0.3799
 2767poe     o211600   1.486   0.518   4.743  0.6649 -0.3072 -0.1193
 2767poe    c2311601   1.454   0.410   4.658  0.1445  0.2667 -0.6638
 2767poe    c2311602   1.301   0.404   4.641  0.1058 -0.2846 -0.1654
 2767poe     o211603   1.235   0.354   4.755 -0.0052  0.0638 -0.0750
 2767poe    c3111604   1.099   0.324   4.731  0.0327  0.0151 -0.2273
 2768poe    c3111605   6.849   1.886   5.932  0.3131  0.0166  0.3294
 2768poe     o211606   6.750   1.799   5.982 -0.1597  0.0502 -0.5303
 2768poe    c2311607   6.765   1.668   5.931  0.2493 -0.1159  0.0054
 2768poe    c2311608   6.653   1.580   5.989  0.2349  0.0595  0.2453
 2768poe     o211609   6.637   1.616   6.125  0.1521  0.2033  0.1986
 2768poe    c2311610   6.513   1.566   6.169  0.3145 -0.8160 -0.4596
 2768poe    c2311611   6.480   1.618   6.310 -0.2077 -0.4271 -0.7233
 2768poe     o211612   6.507   1.757   6.307 -0.2836 -0.3940 -0.1228
 2768poe    c2311613   6.478   1.810   6.434  0.4600 -0.0590 -0.0882
 2768poe    c2311614   6.505   1.961   6.439 -0.3966  0.0951  0.0206
 2768poe     o211615   6.437   2.044   6.346  0.1025  0.3857 -0.0884
 2768poe    c3111616   6.297   2.053   6.358  0.0884 -0.1831  0.2383
 2769poe    c3111617   3.200   5.690   4.252  0.5757 -0.2379  0.3053
 2769poe     o211618   3.133   5.739   4.137  0.6452 -0.0120  0.3604
 2769poe    c2311619   3.071   5.861   4.169 -0.4186 -0.3446 -0.3859
 2769poe    c2311620   3.062   5.953   4.046  0.6571  0.3974  0.0756
 2769poe     o211621   2.990   5.880   3.949  0.3973  0.3299  0.3191
 2769poe    c2311622   2.921   5.961   3.856 -0.2307 -0.7002 -0.1253
 2769poe    c2311623   2.866   5.875   3.740 -0.6233 -0.5379 -0.0626
 2769poe     o211624   2.958   5.769   3.727 -0.0398 -0.0074 -0.3004
 2769poe    c2311625   2.930   5.677   3.624  0.1964  0.1486 -0.5069
 2769poe    c2311626   3.035   5.571   3.588  0.0485 -0.1805  0.0323
 2769poe     o211627   3.052   5.480   3.695 -0.2013 -0.3438 -0.0674
 2769poe    c3111628   3.124   5.365   3.657  0.4682  0.0998 -0.1607
 2770poe    c3111629   2.163   0.100   6.554 -0.6652  0.6690  0.1798
 2770poe     o211630   2.146   0.131   6.417 -0.0484  0.0215 -0.0536
 2770poe    c2311631   2.177   0.262   6.374  0.0244 -0.2939 -0.9800
 2770poe    c2311632   2.092   0.313   6.256  0.0356  0.7004 -0.5689
 2770poe     o211633   2.124   0.261   6.129 -0.2680 -0.6049 -0.1287
 2770poe    c2311634   2.022   0.313   6.046  0.0274  0.4225  0.1393
 2770poe    c2311635   2.044   0.266   5.901  0.5851 -0.0567  0.3731
 2770poe     o211636   2.173   0.305   5.859  0.6012 -0.3966  0.1050
 2770poe    c2311637   2.191   0.270   5.724 -0.0308 -0.3539  0.0058
 2770poe    c2311638   2.306   0.341   5.650  0.0685 -0.1352  0.3697
 2770poe     o211639   2.436   0.333   5.702  0.2460 -0.5632 -0.1308
 2770poe    c3111640   2.535   0.386   5.617  0.0336 -0.3929 -0.2728
 2771poe    c3111641   0.120   5.538   4.016 -0.0568 -0.5797  0.5040
 2771poe     o211642   0.185   5.547   4.140  0.6625 -0.2679  0.1067
 2771poe    c2311643   0.085   5.554   4.240  1.0823  0.1011  0.5114
 2771poe    c2311644   0.134   5.585   4.382  0.1657 -0.0823  0.8684
 2771poe     o211645   0.217   5.486   4.439 -0.0182 -0.6707  0.1248
 2771poe    c2311646   0.248   5.509   4.574  0.5375  0.1034 -0.1315
 2771poe    c2311647   0.350   5.402   4.614 -0.2009 -0.6104 -0.1377
 2771poe     o211648   0.456   5.396   4.522 -0.1436  0.2118 -0.1337
 2771poe    c2311649   0.571   5.327   4.568 -0.5582 -0.5205 -0.1761
 2771poe    c2311650   0.683   5.350   4.465 -0.4764  0.4872  0.1203
 2771poe     o211651   0.626   5.343   4.336 -0.2197  0.1077  0.0271
 2771poe    c3111652   0.720   5.376   4.235 -0.4513  0.1877 -0.1640
 2772poe    c3111653   7.185   1.552   5.757 -0.9783  0.1610 -0.5300
 2772poe     o211654   7.174   1.596   5.623  0.4481  0.1857 -0.6467
 2772poe    c2311655   7.104   1.498   5.549 -0.1766 -0.0105  0.1887
 2772poe    c2311656   7.009   1.561   5.446  0.3363 -0.0290 -0.3009
 2772poe     o211657   7.081   1.653   5.367  0.3733  0.3824  0.2127
 2772poe    c2311658   7.036   1.673   5.235  0.1377  0.1249  0.2525
 2772poe    c2311659   7.096   1.805   5.183  0.2572  0.0001  0.0746
 2772poe     o211660   7.234   1.799   5.212  0.2515 -0.1424  0.0741
 2772poe    c2311661   7.296   1.924   5.193 -0.1898  0.1428  0.4736
 2772poe    c2311662   7.450   1.932   5.182 -0.1808 -0.5162  0.0585
 2772poe     o211663   7.508   1.885   5.301  0.2488 -0.2435 -0.0415
 2772poe    c3111664   7.645   1.857   5.282  0.3729  0.0304  0.4209
 2773poe    c3111665   2.975   5.314   2.779 -0.0153  0.4926 -0.7530
 2773poe     o211666   2.835   5.324   2.772 -0.1376 -0.6486 -0.2180
 2773poe    c2311667   2.780   5.308   2.901  0.1373 -0.1223 -0.0332
 2773poe    c2311668   2.637   5.251   2.905  0.0080  0.1923 -0.1183
 2773poe     o211669   2.626   5.120   2.852 -0.3409  0.1962 -0.0563
 2773poe    c2311670   2.498   5.074   2.890 -0.5130 -0.1354 -1.0157
 2773poe    c2311671   2.462   4.927   2.862  0.1493 -0.5608  0.2498
 2773poe     o211672   2.452   4.904   2.723  0.0835  0.2969  0.1088
 2773poe    c2311673   2.488   4.770   2.697 -0.5727  0.2554 -0.6051
 2773poe    c2311674   2.539   4.760   2.552  0.3685  0.1455 -0.2705
 2773poe     o211675   2.638   4.861   2.543  0.5708  0.0074  0.3559
 2773poe    c3111676   2.676   4.870   2.408 -0.7222 -0.5535 -0.0639
 2774poe    c3111677   3.496   2.854   0.727  0.3271 -0.0229  0.7232
 2774poe     o211678   3.552   2.982   0.710  0.1716 -0.0030  0.3276
 2774poe    c2311679   3.634   2.993   0.825  0.1132  0.4698  0.3268
 2774poe    c2311680   3.711   3.126   0.824  0.5258  0.2311 -0.4073
 2774poe     o211681   3.622   3.233   0.803  0.3931  0.1533 -0.2506
 2774poe    c2311682   3.675   3.362   0.824 -0.0373  0.3251 -0.2132
 2774poe    c2311683   3.563   3.462   0.790 -0.0439  0.3420 -0.1410
 2774poe     o211684   3.530   3.460   0.653  0.3961  0.0292 -0.2440
 2774poe    c2311685   3.439   3.564   0.626  0.1506 -0.1964 -0.2772
 2774poe    c2311686   3.383   3.553   0.483  0.5699 -0.0061 -0.4570
 2774poe     o211687   3.350   3.416   0.467  0.0664  0.1063 -0.4076
 2774poe    c3111688   3.302   3.398   0.335 -0.0867  0.7334 -0.4409
 2775poe    c3111689   4.638   4.370   3.420  0.3812 -0.4679  0.1669
 2775poe     o211690   4.765   4.355   3.361  0.1097  0.1010 -0.5773
 2775poe    c2311691   4.773   4.387   3.224  0.1036 -0.0461 -0.6127
 2775poe    c2311692   4.908   4.344   3.164 -0.2923 -0.7292 -1.0276
 2775poe     o211693   5.028   4.400   3.212 -0.7901 -0.3120 -0.2574
 2775poe    c2311694   5.048   4.538   3.186  0.0425 -0.3428  0.1719
 2775poe    c2311695   5.196   4.556   3.223  0.0534  0.0898 -0.0735
 2775poe     o211696   5.214   4.533   3.361 -0.0875  0.6832  0.0425
 2775poe    c2311697   5.344   4.544   3.414  0.0634  0.0915 -0.2032
 2775poe    c2311698   5.315   4.507   3.561 -0.6101  0.1227 -0.3246
 2775poe     o211699   5.238   4.389   3.570 -0.1253 -0.2088 -0.5041
 2775poe    c3111700   5.260   4.333   3.698 -0.3560  0.3227 -0.2297
 2776poe    c3111701   2.873   3.571   5.997  0.1223 -0.2463  0.1165
 2776poe     o211702   2.792   3.457   5.980  0.3398 -0.4094  0.1656
 2776poe    c2311703   2.813   3.342   6.058 -0.0823 -0.4126  0.2767
 2776poe    c2311704   2.936   3.259   6.018 -0.0251 -0.3438  0.3100
 2776poe     o211705   2.919   3.213   5.885  0.2886 -0.2109  0.2213
 2776poe    c2311706   3.017   3.114   5.869  0.7242  0.2304  0.1355
 2776poe    c2311707   3.045   3.083   5.721  0.3590  0.2997  0.0508
 2776poe     o211708   3.091   3.196   5.650  0.6120  0.1721  0.0105
 2776poe    c2311709   3.092   3.165   5.512 -0.1113 -0.1394  0.0746
 2776poe    c2311710   3.104   3.302   5.443 -0.1016  0.2122  0.7629
 2776poe     o211711   2.988   3.382   5.450 -0.0897  0.3153 -0.0949
 2776poe    c3111712   3.001   3.510   5.393  0.4409  0.2948 -0.0179
 2777poe    c3111713   5.247   1.901   0.806  0.3728  0.4032 -0.1842
 2777poe     o211714   5.350   1.980   0.749 -0.0082  0.6744 -0.5036
 2777poe    c2311715   5.374   1.930   0.620 -0.2680  0.0182 -0.3043
 2777poe    c2311716   5.490   1.998   0.545 -0.2361 -0.2638 -0.5124
 2777poe     o211717   5.461   2.096   0.449 -0.2349  0.1641 -0.0807
 2777poe    c2311718   5.559   2.197   0.433  0.0885 -0.1697 -0.2288
 2777poe    c2311719   5.508   2.308   0.340  0.4902  0.1000 -0.1305
 2777poe     o211720   5.412   2.389   0.404 -0.1813 -0.5941 -0.2411
 2777poe    c2311721   5.355   2.493   0.327  0.2709 -0.3809 -0.2863
 2777poe    c2311722   5.450   2.600   0.269 -0.5322  0.3073 -0.3598
 2777poe     o211723   5.540   2.657   0.362 -0.1283 -0.0859 -0.5043
 2777poe    c3111724   5.613   2.762   0.302  0.1340  0.0462  0.0422
 2778poe    c3111725   0.827   4.263   3.910  0.4032  0.0611 -0.5074
 2778poe     o211726   0.689   4.246   3.885  0.3259 -0.0846  0.0196
 2778poe    c2311727   0.618   4.151   3.961 -0.4777  0.5497  0.0826
 2778poe    c2311728   0.480   4.118   3.903 -0.5063 -0.4949  0.7157
 2778poe     o211729   0.404   4.237   3.905  0.3285  0.0698 -0.2331
 2778poe    c2311730   0.268   4.203   3.887  0.2919 -0.0233  0.2292
 2778poe    c2311731   0.159   4.309   3.913  0.2620  0.1147 -0.4582
 2778poe     o211732   0.147   4.418   3.825 -0.3527  0.2177 -0.2510
 2778poe    c2311733   0.042   4.506   3.860 -0.3198  0.1173  0.1069
 2778poe    c2311734   0.008   4.631   3.777 -0.1784 -0.2836 -0.5641
 2778poe     o211735   0.124   4.705   3.747 -0.1242  0.0146  0.3597
 2778poe    c3111736   0.108   4.769   3.622 -0.1364 -0.6579  0.0110
 2779poe    c3111737   6.464   5.585   3.053 -0.1964 -0.5319  0.1086
 2779poe     o211738   6.424   5.651   2.935  0.8192  0.1907  0.1582
 2779poe    c2311739   6.287   5.679   2.951  0.9632  0.7937  0.3915
 2779poe    c2311740   6.232   5.725   2.815 -0.1568 -0.3116  0.4536
 2779poe     o211741   6.268   5.852   2.767 -0.0104 -0.3344  0.5041
 2779poe    c2311742   6.214   5.875   2.639 -0.0699  0.2456  0.6312
 2779poe    c2311743   6.283   5.992   2.566 -0.3786 -0.1073 -0.2467
 2779poe     o211744   6.422   5.971   2.577 -0.3149  0.4495  0.0588
 2779poe    c2311745   6.492   6.079   2.519  0.1932  0.1519  0.1098
 2779poe    c2311746   6.638   6.081   2.566  0.4409  0.5288 -0.6645
 2779poe     o211747   6.703   5.956   2.562 -0.0830  0.2349 -0.1322
 2779poe    c3111748   6.801   5.957   2.461  0.0380  0.5921 -0.0127
 2780poe    c3111749   3.930   4.188   2.164  0.0211 -0.0074  0.4183
 2780poe     o211750   4.004   4.299   2.118  0.3109 -0.3028  0.1631
 2780poe    c2311751   3.934   4.421   2.137  0.3154 -0.1480 -0.7701
 2780poe    c2311752   4.020   4.532   2.074  0.1194  0.2173 -0.3927
 2780poe     o211753   4.045   4.536   1.936  0.1046  0.2151 -0.3957
 2780poe    c2311754   4.075   4.668   1.894 -0.0694  0.4117  0.0905
 2780poe    c2311755   4.131   4.674   1.751  0.1692 -0.1868  0.1530
 2780poe     o211756   4.050   4.581   1.683  0.1356 -0.2190  0.2383
 2780poe    c2311757   4.081   4.583   1.545 -0.0962 -0.1742  0.1867
 2780poe    c2311758   3.982   4.486   1.479 -0.5724  0.1032  0.4868
 2780poe     o211759   3.977   4.375   1.567  0.0504 -0.1055  0.2664
 2780poe    c3111760   3.938   4.263   1.491 -0.1309 -0.2465  0.5668
 2781poe    c3111761   3.437   5.430   2.717 -0.1750 -0.2243 -0.2958
 2781poe     o211762   3.407   5.549   2.647  0.4386 -0.0805 -0.3190
 2781poe    c2311763   3.325   5.634   2.725  0.2018 -0.3032 -0.3229
 2781poe    c2311764   3.291   5.767   2.656  0.1930 -0.0193  0.2299
 2781poe     o211765   3.401   5.856   2.670  0.2001  0.0572 -0.3120
 2781poe    c2311766   3.382   5.970   2.589 -0.7194  0.5677  0.5945
 2781poe    c2311767   3.500   6.064   2.619 -0.3010  0.3474 -0.3270
 2781poe     o211768   3.621   6.021   2.560 -0.4060  0.2048 -0.4411
 2781poe    c2311769   3.647   6.100   2.446 -0.2827  0.2526 -0.3805
 2781poe    c2311770   3.778   6.045   2.388 -0.1621 -0.0372  0.1594
 2781poe     o211771   3.784   5.904   2.394 -0.5967 -0.0962 -0.6280
 2781poe    c3111772   3.878   5.840   2.310 -0.0835 -0.5026  0.2404
 2782poe    c3111773   4.813   4.065   4.197 -0.0734  0.4017  0.1311
 2782poe     o211774   4.691   4.002   4.230  0.0838  0.0442  0.0405
 2782poe    c2311775   4.685   3.937   4.355  0.2051 -0.2490 -0.1058
 2782poe    c2311776   4.547   3.869   4.361  0.3889 -0.6189 -0.0833
 2782poe     o211777   4.519   3.805   4.238 -0.2288  0.4169 -0.4889
 2782poe    c2311778   4.398   3.733   4.237  0.0523 -0.0569 -0.3481
 2782poe    c2311779   4.378   3.642   4.114  0.0243 -0.3062 -0.1615
 2782poe     o211780   4.451   3.523   4.094  0.5938  0.0503 -0.2246
 2782poe    c2311781   4.431   3.417   4.184  0.7599  0.4303  0.2696
 2782poe    c2311782   4.535   3.304   4.164 -0.2483 -0.5937  0.7236
 2782poe     o211783   4.669   3.341   4.182 -0.4372  0.0909  0.7595
 2782poe    c3111784   4.761   3.234   4.178 -0.1646  0.3391  0.2988
 2783poe    c3111785   5.900   5.075   6.569 -0.4548 -0.1817  0.4241
 2783poe     o211786   5.894   5.173   6.467 -0.4276 -0.4039  0.2102
 2783poe    c2311787   5.768   5.232   6.446 -0.0736  0.3165  0.0959
 2783poe    c2311788   5.769   5.301   6.308 -0.1631  0.0285 -0.0509
 2783poe     o211789   5.861   5.408   6.303  0.1126 -0.1915  0.1937
 2783poe    c2311790   5.880   5.453   6.170  0.7721 -0.0486  0.3342
 2783poe    c2311791   5.981   5.372   6.087  0.3206  0.2118 -0.4775
 2783poe     o211792   6.115   5.366   6.131  0.2905  0.6812 -0.3110
 2783poe    c2311793   6.209   5.356   6.027  0.2519  0.0102 -0.2910
 2783poe    c2311794   6.343   5.425   6.058  0.1606  0.1632 -0.2342
 2783poe     o211795   6.326   5.565   6.066  0.2635  0.1602  0.0269
 2783poe    c3111796   6.447   5.617   6.116  0.0485  0.2265  0.4827
 2784poe    c3111797   3.363   1.457   1.986  0.5585  0.3587 -0.1859
 2784poe     o211798   3.224   1.481   1.977  0.4065 -0.3041  0.3382
 2784poe    c2311799   3.148   1.366   2.002 -0.2129 -0.0457 -0.3350
 2784poe    c2311800   2.997   1.396   2.005 -0.2133 -0.0670 -0.1325
 2784poe     o211801   2.929   1.388   1.881 -0.0018  0.0097 -0.2530
 2784poe    c2311802   2.792   1.414   1.900  0.0788  0.1341  0.1826
 2784poe    c2311803   2.713   1.478   1.784 -0.1543 -0.4546  0.0140
 2784poe     o211804   2.671   1.393   1.679 -0.3813 -0.4898  0.1324
 2784poe    c2311805   2.606   1.462   1.574 -0.8241 -0.6057  0.3268
 2784poe    c2311806   2.540   1.366   1.473 -0.4693 -0.0834 -0.4099
 2784poe     o211807   2.454   1.266   1.524 -0.0795 -0.3679 -0.3124
 2784poe    c3111808   2.380   1.222   1.413  0.5317  0.0197 -0.8831
 2785poe    c3111809   1.581   2.817   3.033  0.4949  0.3115 -0.1639
 2785poe     o211810   1.468   2.733   3.049  0.3674  0.4978 -0.0793
 2785poe    c2311811   1.365   2.794   3.123  0.0850  0.5799 -0.5356
 2785poe    c2311812   1.236   2.709   3.124  0.3923  0.1098  0.1003
 2785poe     o211813   1.260   2.575   3.160 -0.3221 -0.3285 -0.9988
 2785poe    c2311814   1.133   2.533   3.202 -0.4312  0.6196 -0.3263
 2785poe    c2311815   1.139   2.397   3.274  0.4259  0.7494 -0.1477
 2785poe     o211816   1.160   2.283   3.193 -0.0560  0.4493  0.1439
 2785poe    c2311817   1.098   2.171   3.252  0.7289 -0.1846 -0.2120
 2785poe    c2311818   1.102   2.033   3.186 -0.2263 -0.3377  0.0402
 2785poe     o211819   1.233   1.982   3.182  0.0760  0.4771 -0.6198
 2785poe    c3111820   1.232   1.841   3.190 -0.3914  0.4802 -0.6219
 2786poe    c3111821   2.973   3.323   7.017  0.5045  0.0679 -0.2495
 2786poe     o211822   2.961   3.266   6.888  0.3952  0.5640 -0.4603
 2786poe    c2311823   2.846   3.313   6.820  0.0156  0.1856 -0.0871
 2786poe    c2311824   2.822   3.249   6.682 -0.6594  0.1463  0.0489
 2786poe     o211825   2.793   3.111   6.673  0.5312 -0.0957 -0.1771
 2786poe    c2311826   2.792   3.055   6.543  0.5488  0.4076 -0.3968
 2786poe    c2311827   2.775   2.902   6.549  0.5827  0.4167  0.0338
 2786poe     o211828   2.895   2.853   6.603  0.5568 -0.2440 -0.4993
 2786poe    c2311829   2.916   2.715   6.584 -0.2604 -0.3563 -0.6053
 2786poe    c2311830   2.979   2.670   6.717 -0.4202  0.0848 -0.3792
 2786poe     o211831   3.084   2.754   6.761  0.1052 -0.6347 -0.2385
 2786poe    c3111832   3.139   2.714   6.884  0.3118 -0.0270 -0.1321
 2787poe    c3111833   6.423   2.423   3.701 -0.1955 -0.0282 -0.3698
 2787poe     o211834   6.499   2.458   3.814 -0.6151 -0.4604  0.0503
 2787poe    c2311835   6.591   2.563   3.793 -0.1065 -0.8362  0.3848
 2787poe    c2311836   6.687   2.572   3.913  0.0106 -0.6305  0.2764
 2787poe     o211837   6.621   2.545   4.035 -0.1873  0.0869  0.3289
 2787poe    c2311838   6.667   2.634   4.135 -0.2084  0.2042  0.2351
 2787poe    c2311839   6.598   2.590   4.266  0.2364  0.0362  0.4185
 2787poe     o211840   6.663   2.467   4.285  0.2485 -0.0217  0.0151
 2787poe    c2311841   6.692   2.453   4.422  0.1101  0.3735  0.0868
 2787poe    c2311842   6.748   2.310   4.441 -0.3896  0.1148 -0.3482
 2787poe     o211843   6.657   2.203   4.428 -0.0833 -0.2273  0.2749
 2787poe    c3111844   6.703   2.077   4.472 -0.0114 -0.1975  0.2855
 2788poe    c3111845   0.540   4.207   6.360  0.2548  0.4422 -0.1164
 2788poe     o211846   0.532   4.066   6.365 -0.4995  0.4663 -0.5469
 2788poe    c2311847   0.399   4.030   6.395 -0.2692  0.2212  0.2082
 2788poe    c2311848   0.386   3.876   6.402  0.0925  0.1874  0.1871
 2788poe     o211849   0.442   3.828   6.522  0.0231 -0.0124  0.1403
 2788poe    c2311850   0.449   3.688   6.517 -0.3835 -0.0174 -0.4567
 2788poe    c2311851   0.480   3.620   6.652  0.2696  0.2531 -0.4655
 2788poe     o211852   0.614   3.644   6.687  0.1947  0.2808 -0.1972
 2788poe    c2311853   0.635   3.618   6.824  0.3889 -0.4378 -0.3618
 2788poe    c2311854   0.770   3.674   6.874  0.2254 -0.0083 -0.4028
 2788poe     o211855   0.876   3.587   6.841  0.0566 -0.3301 -0.0941
 2788poe    c3111856   1.001   3.639   6.879 -0.2549  0.3965 -0.0495
 2789poe    c3111857   6.878   3.897   6.409 -0.2074  0.7252  0.5767
 2789poe     o211858   6.856   3.896   6.270  0.4675 -0.1781  0.4661
 2789poe    c2311859   6.901   3.778   6.208 -1.0869 -0.3437 -0.4043
 2789poe    c2311860   6.902   3.779   6.054 -0.1683  0.0375 -0.4008
 2789poe     o211861   6.981   3.887   6.007  0.1070 -0.1034 -0.2674
 2789poe    c2311862   7.004   3.858   5.871  0.1093  0.1511 -0.3211
 2789poe    c2311863   7.125   3.924   5.803  0.2185 -0.1483 -0.4187
 2789poe     o211864   7.114   4.065   5.800 -0.7560 -0.2081  0.1363
 2789poe    c2311865   7.212   4.108   5.709 -0.3950 -0.1636  0.5404
 2789poe    c2311866   7.187   4.247   5.648 -0.2844 -0.2675  0.2540
 2789poe     o211867   7.210   4.362   5.727  0.1697 -0.3193  0.1988
 2789poe    c3111868   7.171   4.475   5.651  0.6013 -0.5464 -0.3658
 2790poe    c3111869   4.105   3.573   3.541  0.3867 -0.3393 -0.4209
 2790poe     o211870   4.024   3.512   3.443  0.2624 -0.5601 -0.1833
 2790poe    c2311871   3.913   3.452   3.506  0.0973 -0.2545 -0.1794
 2790poe    c2311872   3.799   3.423   3.407  0.2003  0.3262 -0.4750
 2790poe     o211873   3.833   3.333   3.303 -0.7281 -0.4179 -0.1477
 2790poe    c2311874   3.729   3.306   3.211 -0.7105  0.4978 -0.4518
 2790poe    c2311875   3.750   3.188   3.114 -0.0401  0.3475 -0.1349
 2790poe     o211876   3.745   3.062   3.177 -0.0836  0.2089 -0.4134
 2790poe    c2311877   3.723   2.957   3.085 -0.6622 -0.0329 -0.0009
 2790poe    c2311878   3.738   2.821   3.155  0.0200 -0.1195 -0.3147
 2790poe     o211879   3.874   2.796   3.184 -0.0927  0.2154  0.5273
 2790poe    c3111880   3.898   2.664   3.229  0.7005  0.1740 -0.0003
 2791poe    c3111881   4.907   1.015   2.228  0.2147  0.1438 -0.0519
 2791poe     o211882   5.005   0.986   2.131  0.2096 -0.0251 -0.0063
 2791poe    c2311883   4.953   0.898   2.033 -0.0278  0.4190 -0.2818
 2791poe    c2311884   5.031   0.887   1.901 -0.0310  0.0839 -0.2552
 2791poe     o211885   5.031   0.997   1.813 -0.3533  0.1764 -0.1419
 2791poe    c2311886   5.101   0.959   1.696 -0.3435  0.5145 -0.2475
 2791poe    c2311887   5.096   1.071   1.591 -0.1711 -0.1761 -1.0025
 2791poe     o211888   5.156   1.193   1.627  0.0037 -0.3503 -0.6999
 2791poe    c2311889   5.106   1.297   1.546 -0.3219  0.1031  0.0697
 2791poe    c2311890   5.103   1.443   1.596  0.3685  0.3825 -0.6898
 2791poe     o211891   5.057   1.444   1.729  0.4876  0.5797 -0.6493
 2791poe    c3111892   5.043   1.571   1.788 -0.0697  0.3096 -0.1891
 2792poe    c3111893   3.798   3.526   4.501 -0.7968 -0.0890  0.0395
 2792poe     o211894   3.713   3.416   4.476 -0.5438 -0.2759 -0.0019
 2792poe    c2311895   3.727   3.321   4.579  0.1042 -0.2071 -0.0224
 2792poe    c2311896   3.659   3.191   4.533 -0.5446  0.1177  0.0167
 2792poe     o211897   3.711   3.121   4.422  0.1941  0.3105  0.2343
 2792poe    c2311898   3.622   3.018   4.387  0.3333  0.3126 -0.1307
 2792poe    c2311899   3.628   2.971   4.240  0.6763  0.4984 -0.1743
 2792poe     o211900   3.581   3.074   4.156  0.2111  0.1111 -0.3868
 2792poe    c2311901   3.577   3.026   4.024  0.0294  0.2278 -0.4251
 2792poe    c2311902   3.483   3.119   3.946 -0.2847  0.2037 -0.0774
 2792poe     o211903   3.478   3.242   4.014  0.0575  0.1485  0.0468
 2792poe    c3111904   3.443   3.340   3.918  0.3282 -0.0753 -0.2809
 2793poe    c3111905   4.823   6.183   0.313  0.2168  0.4964  0.1002
 2793poe     o211906   4.723   6.146   0.406  0.1751  0.2598 -0.0366
 2793poe    c2311907   4.692   6.261   0.481 -0.0946  0.4122 -0.3789
 2793poe    c2311908   4.585   6.240   0.591  0.3131  0.1524 -0.0253
 2793poe     o211909   4.634   6.152   0.689 -0.5437  0.2034  0.4587
 2793poe    c2311910   4.570   6.028   0.672 -0.0714  0.0550 -0.2894
 2793poe    c2311911   4.624   5.926   0.774 -0.5416 -0.0252 -0.1198
 2793poe     o211912   4.753   5.889   0.732 -0.2315  0.4241  0.4240
 2793poe    c2311913   4.824   5.803   0.819 -0.1223 -0.2870 -0.3536
 2793poe    c2311914   4.971   5.802   0.773  0.0175  0.3061  0.0587
 2793poe     o211915   5.027   5.927   0.806 -0.1561  0.2627  0.5205
 2793poe    c3111916   5.163   5.938   0.774 -0.0852 -0.9400  0.3542
 2794poe    c3111917   5.374   3.594   4.498 -0.2722  0.1947  0.2094
 2794poe     o211918   5.461   3.577   4.608 -0.0007 -0.1156 -0.0501
 2794poe    c2311919   5.398   3.488   4.698  0.1049  0.1887  0.3274
 2794poe    c2311920   5.505   3.410   4.777 -0.7224 -0.1730  1.1107
 2794poe     o211921   5.579   3.512   4.841 -0.3061  0.1655  0.1082
 2794poe    c2311922   5.552   3.526   4.978  0.1794  0.1851  0.2028
 2794poe    c2311923   5.635   3.643   5.037 -0.0006  0.4310 -0.0287
 2794poe     o211924   5.626   3.765   4.967  0.4726  0.3464 -0.2381
 2794poe    c2311925   5.647   3.876   5.050  0.0402  0.3679 -0.1566
 2794poe    c2311926   5.739   3.984   4.989 -0.1361  0.3314 -0.4876
 2794poe     o211927   5.872   3.938   4.982 -0.3325 -0.3534  0.0857
 2794poe    c3111928   5.949   4.044   5.034 -0.3372 -0.4531  0.2954
 2795poe    c3111929   2.614   3.756   2.718 -0.2221 -0.0878  0.1740
 2795poe     o211930   2.544   3.817   2.824 -0.4937 -0.2666  0.0981
 2795poe    c2311931   2.456   3.917   2.779 -0.3286 -0.4266 -0.5836
 2795poe    c2311932   2.402   4.005   2.894  0.4041 -0.6526 -0.0648
 2795poe     o211933   2.324   3.924   2.978  0.6931 -0.7458  0.1164
 2795poe    c2311934   2.300   3.994   3.098  0.3359  0.0949 -0.4385
 2795poe    c2311935   2.181   3.938   3.177  0.4635 -0.2889 -0.5182
 2795poe     o211936   2.049   3.946   3.128  0.1832 -0.4365  0.1877
 2795poe    c2311937   1.966   3.902   3.232 -0.3303  0.8154  0.3251
 2795poe    c2311938   1.813   3.907   3.212 -0.4431 -0.0393  0.9042
 2795poe     o211939   1.752   4.034   3.204 -0.1233  0.0516 -0.3918
 2795poe    c3111940   1.760   4.108   3.324 -0.3580  0.2385 -0.4892
 2796poe    c3111941   3.536   0.701   7.011  0.2616  0.4194  0.6773
 2796poe     o211942   3.504   0.625   6.896  0.9445  0.0782  0.7096
 2796poe    c2311943   3.539   0.490   6.910  0.3643 -0.1478  0.0581
 2796poe    c2311944   3.544   0.421   6.773 -0.0660 -0.2865  0.1122
 2796poe     o211945   3.408   0.421   6.736  0.1303 -0.0255 -0.6289
 2796poe    c2311946   3.395   0.362   6.608 -0.2395  0.6352 -0.9019
 2796poe    c2311947   3.254   0.356   6.546 -0.6337  0.1256  0.0038
 2796poe     o211948   3.160   0.277   6.614 -0.2115 -0.2951  0.1010
 2796poe    c2311949   3.064   0.236   6.519 -0.2726 -0.5789  0.2834
 2796poe    c2311950   2.949   0.334   6.491 -0.0868 -0.4099  0.1033
 2796poe     o211951   2.870   0.336   6.608  0.2691 -0.3638  0.3463
 2796poe    c3111952   2.740   0.390   6.599  0.2501 -0.4854 -0.1026
 2797poe    c3111953   6.587   1.615   2.648 -0.0553 -0.4723  0.1184
 2797poe     o211954   6.590   1.661   2.515  0.3014  0.2384  0.3638
 2797poe    c2311955   6.664   1.781   2.509  0.3427  0.1892 -0.1857
 2797poe    c2311956   6.710   1.848   2.378  0.1393  0.0732 -0.3161
 2797poe     o211957   6.806   1.768   2.313 -0.1311 -0.2426 -0.3297
 2797poe    c2311958   6.850   1.827   2.193 -0.0646 -0.7573 -0.5609
 2797poe    c2311959   7.002   1.815   2.167  0.0729  0.5549 -0.4514
 2797poe     o211960   7.038   1.684   2.128 -0.1970  0.3521 -0.0387
 2797poe    c2311961   7.152   1.689   2.044 -0.3875  0.1417 -0.3092
 2797poe    c2311962   7.168   1.553   1.973  0.0548  0.1829 -0.2874
 2797poe     o211963   7.209   1.450   2.060  0.0507  0.3655 -0.0690
 2797poe    c3111964   7.348   1.426   2.062 -0.0402 -0.1762 -0.1532
 2798poe    c3111965   5.300   1.859   6.801  0.5693 -0.1992  0.3457
 2798poe     o211966   5.206   1.899   6.898  0.4977  0.4057  0.0256
 2798poe    c2311967   5.192   2.040   6.891  0.0126  0.3509 -0.1463
 2798poe    c2311968   5.096   2.067   7.009 -0.3552  0.5403 -0.4890
 2798poe     o211969   4.986   1.981   6.994  0.2525 -0.3912  0.2861
 2798poe    c2311970   4.874   2.016   7.072 -0.0561 -0.0501 -0.3068
 2798poe    c2311971   4.771   1.905   7.096 -0.2389  0.2093  0.1253
 2798poe     o211972   4.842   1.796   7.151 -0.1763  0.4343  0.4979
 2798poe    c2311973   4.755   1.714   7.224 -0.3230 -0.0351 -0.1889
 2798poe    c2311974   4.815   1.572   7.234 -0.1282  0.0662  0.0765
 2798poe     o211975   4.815   1.495   7.116 -0.2680 -0.5592  0.4832
 2798poe    c3111976   4.839   1.365   7.166 -0.0951 -0.5195  0.5020
 2799poe    c3111977   5.879   0.989   1.254  0.3827 -0.5419 -0.5519
 2799poe     o211978   5.963   1.072   1.177  0.3137  0.0880  0.0446
 2799poe    c2311979   6.061   1.004   1.102 -0.0095  0.0208 -0.3195
 2799poe    c2311980   6.127   1.075   0.983  0.1241  0.0841 -0.2078
 2799poe     o211981   6.035   1.153   0.909 -0.0849 -0.1019 -0.1458
 2799poe    c2311982   6.080   1.180   0.778 -0.1612  0.5270 -0.0495
 2799poe    c2311983   5.978   1.234   0.677 -0.6896  0.2083  0.3083
 2799poe     o211984   5.926   1.362   0.707 -0.0590  0.4784  0.2569
 2799poe    c2311985   5.804   1.384   0.640 -0.1199  0.1798  0.2689
 2799poe    c2311986   5.740   1.499   0.719  0.4943  0.3992  0.4541
 2799poe     o211987   5.666   1.464   0.834 -0.5269  0.2122 -0.2448
 2799poe    c3111988   5.603   1.572   0.900  0.2107  0.4489  0.0802
 2800poe    c3111989   3.859   1.522   0.646 -0.2577 -0.4182  0.4072
 2800poe     o211990   3.739   1.450   0.628 -0.5295  0.0924  0.1564
 2800poe    c2311991   3.627   1.534   0.612 -0.2762  0.2392 -0.9791
 2800poe    c2311992   3.496   1.457   0.635 -0.1255  0.3540  0.3676
 2800poe     o211993   3.470   1.359   0.536 -0.1811  0.3683  0.3675
 2800poe    c2311994   3.340   1.305   0.531  0.0395 -0.1027 -0.5187
 2800poe    c2311995   3.347   1.162   0.475 -0.3509 -0.2328 -0.2339
 2800poe     o211996   3.441   1.161   0.370 -0.4576  0.4980 -0.3395
 2800poe    c2311997   3.466   1.026   0.338 -0.4982  0.4335 -0.1050
 2800poe    c2311998   3.527   1.030   0.196 -0.1593  0.0533  0.0302
 2800poe     o211999   3.615   1.140   0.192 -0.1240  0.0210 -0.0684
 2800poe    c3112000   3.700   1.117   0.081 -0.0814  0.2168 -0.0768
 2801poe    c3112001   4.026   5.190   4.802 -0.3624  0.0056  0.3025
 2801poe     o212002   4.128   5.169   4.898  0.0624 -0.0972 -0.1640
 2801poe    c2312003   4.087   5.107   5.018  0.2018 -0.1545 -0.1457
 2801poe    c2312004   4.192   5.075   5.126 -0.2242  0.1764  0.3739
 2801poe     o212005   4.295   4.985   5.092 -0.1279  0.2691  0.4218
 2801poe    c2312006   4.400   4.998   5.185  0.3439  0.0073 -0.0643
 2801poe    c2312007   4.535   4.950   5.128  0.3095 -0.1138 -0.0443
 2801poe     o212008   4.564   5.019   5.009 -0.0984 -0.3029 -0.2540
 2801poe    c2312009   4.702   5.008   4.984 -0.0911 -0.2509 -0.2359
 2801poe    c2312010   4.752   5.129   4.902  0.1693 -0.1618  0.0504
 2801poe     o212011   4.667   5.157   4.794 -0.1365 -0.3877  0.2304
 2801poe    c3112012   4.710   5.240   4.688 -0.1187 -1.2504 -0.4558
 2802poe    c3112013   5.682   2.414   1.642  0.0126 -0.0168 -0.5043
 2802poe     o212014   5.752   2.305   1.697 -0.0984  0.1194 -0.0883
 2802poe    c2312015   5.760   2.212   1.591 -0.1166 -0.1511  0.1460
 2802poe    c2312016   5.744   2.070   1.648 -0.5568 -0.1650 -0.0081
 2802poe     o212017   5.847   2.023   1.732 -0.1867 -0.0129 -0.3751
 2802poe    c2312018   5.799   1.924   1.820 -0.1205  0.8390  0.6303
 2802poe    c2312019   5.880   1.883   1.944  0.1704  0.0545  0.1818
 2802poe     o212020   5.901   1.986   2.038 -0.6649 -0.4262  0.9053
 2802poe    c2312021   5.976   1.954   2.154  0.5089  0.0847  0.2989
 2802poe    c2312022   5.987   2.067   2.258 -0.0083  0.2519  0.1768
 2802poe     o212023   6.063   2.177   2.212  0.0999  0.2203  0.2810
 2802poe    c3112024   6.116   2.227   2.333 -0.6296 -0.0497  0.7195
 2803poe    c3112025   1.776   1.153   2.968 -0.5578  0.2551  0.4989
 2803poe     o212026   1.889   1.081   3.011 -0.1604  0.0981 -0.7640
 2803poe    c2312027   1.972   1.039   2.905 -0.0737 -0.2112 -0.5745
 2803poe    c2312028   2.111   0.989   2.948 -0.1008  0.1212 -0.0935
 2803poe     o212029   2.100   0.872   3.026 -0.0590  0.3549  0.2634
 2803poe    c2312030   2.231   0.827   3.052 -0.0215  0.3889  0.1356
 2803poe    c2312031   2.252   0.700   3.137  0.2438  0.4250  0.1258
 2803poe     o212032   2.200   0.581   3.083 -0.2798  0.6563  0.1092
 2803poe    c2312033   2.286   0.519   2.990 -0.6636  0.4301 -0.0958
 2803poe    c2312034   2.213   0.432   2.885 -0.1252 -0.0457 -0.0827
 2803poe     o212035   2.163   0.510   2.778 -0.3380 -0.2843 -0.1565
 2803poe    c3112036   2.153   0.436   2.659 -0.0074 -0.6001  0.0093
 2804poe    c3112037   6.525   6.976   4.652  0.1964 -0.0152 -0.4806
 2804poe     o212038   6.609   6.962   4.765 -0.3869 -0.2636 -0.0695
 2804poe    c2312039   6.581   7.062   4.860 -0.1079 -0.3557  0.1102
 2804poe    c2312040   6.688   7.066   4.971  0.7394 -0.2027 -0.6990
 2804poe     o212041   6.690   6.943   5.040 -0.4525  0.3361  0.3413
 2804poe    c2312042   6.760   6.963   5.160  0.4438  1.0136 -0.2784
 2804poe    c2312043   6.738   6.834   5.242  0.0289  1.2330 -0.0438
 2804poe     o212044   6.759   6.737   5.142 -0.0617  0.2087  0.9111
 2804poe    c2312045   6.734   6.608   5.193 -0.1831 -0.0486  0.2064
 2804poe    c2312046   6.745   6.504   5.080 -0.7515 -0.6991  0.7420
 2804poe     o212047   6.672   6.552   4.970  0.3167 -0.0892  0.2810
 2804poe    c3112048   6.681   6.460   4.863  0.5267 -0.0100  0.2297
 2805poe    c3112049   6.676   2.863   2.682 -0.0198  0.6811  0.4472
 2805poe     o212050   6.672   2.915   2.812 -0.0376  0.7445  0.4212
 2805poe    c2312051   6.795   2.912   2.881 -0.0162  0.6104  0.3768
 2805poe    c2312052   6.775   2.949   3.029  0.6857 -0.0320  0.6363
 2805poe     o212053   6.692   2.849   3.085  0.2950 -0.1650 -0.1617
 2805poe    c2312054   6.669   2.872   3.222  0.0047  0.3780 -0.2973
 2805poe    c2312055   6.598   2.746   3.276  0.2050  0.1357 -0.6014
 2805poe     o212056   6.482   2.728   3.198 -0.2575 -0.2925  0.1787
 2805poe    c2312057   6.408   2.620   3.250 -0.1238 -0.5205 -0.1053
 2805poe    c2312058   6.296   2.604   3.146 -0.2612  0.2078 -0.0724
 2805poe     o212059   6.368   2.601   3.025  0.1364 -0.1404  0.1700
 2805poe    c3112060   6.301   2.518   2.933  0.0794  0.3827 -0.2654
 2806poe    c3112061   6.891   2.558   6.825  0.4134  0.7025  0.2175
 2806poe     o212062   6.787   2.565   6.920  0.4093  0.1827  0.2504
 2806poe    c2312063   6.751   2.434   6.958  0.2314  0.0522 -0.3460
 2806poe    c2312064   6.624   2.446   7.044  0.2518  0.1384 -0.3287
 2806poe     o212065   6.618   2.566   7.119  0.0551  0.3010 -0.6039
 2806poe    c2312066   6.501   2.560   7.197  0.1322  0.5667 -0.4678
 2806poe    c2312067   6.486   2.691   7.276 -0.4632  0.1165  0.1714
 2806poe     o212068   6.595   2.706   7.364  0.2656  0.0727 -0.7094
 2806poe    c2312069   6.601   2.840   7.408  0.1132 -0.0740 -0.2278
 2806poe    c2312070   6.678   2.846   7.541 -0.1483 -0.0249 -0.0783
 2806poe     o212071   6.810   2.795   7.536 -0.2388 -0.2228 -0.4904
 2806poe    c3112072   6.822   2.689   7.628 -0.2292  0.6136  0.4986
 2807poe    c3112073   5.285   6.602   2.936 -0.1220 -0.2562  0.6967
 2807poe     o212074   5.342   6.484   2.883  0.1587  0.0093  0.4043
 2807poe    c2312075   5.352   6.505   2.744 -0.0047 -0.2601  0.3522
 2807poe    c2312076   5.373   6.383   2.652  0.1323  0.3722 -0.4693
 2807poe     o212077   5.257   6.302   2.647  0.3555 -0.0141  0.4177
 2807poe    c2312078   5.243   6.224   2.531 -0.1225  0.4295  0.1732
 2807poe    c2312079   5.111   6.148   2.557  0.0182  0.0259 -0.2738
 2807poe     o212080   5.001   6.236   2.548  0.3299  0.3986 -0.4892
 2807poe    c2312081   4.875   6.173   2.548  0.2925  0.4655  0.2747
 2807poe    c2312082   4.797   6.191   2.680 -0.2996 -0.4369  0.0512
 2807poe     o212083   4.771   6.326   2.711  0.1218 -0.3510  0.0352
 2807poe    c3112084   4.703   6.333   2.835  0.2044  0.3407  0.0413
 2808poe    c3112085   6.020   4.382   4.566 -0.1352 -0.0814 -0.4527
 2808poe     o212086   5.892   4.406   4.620  0.2040 -0.4972  0.5649
 2808poe    c2312087   5.889   4.445   4.755  0.6162 -0.7832  0.6556
 2808poe    c2312088   5.746   4.461   4.808  0.3907 -0.3643 -0.0668
 2808poe     o212089   5.666   4.353   4.766 -0.5136  0.2286  0.0847
 2808poe    c2312090   5.526   4.367   4.759 -0.4975  0.2494 -0.1751
 2808poe    c2312091   5.466   4.227   4.734 -0.3031  0.0868  0.2683
 2808poe     o212092   5.517   4.183   4.611 -0.2638  0.0827  0.2861
 2808poe    c2312093   5.471   4.056   4.574  0.2226 -0.2676  0.8593
 2808poe    c2312094   5.529   4.009   4.439 -0.0987 -0.1132  0.6662
 2808poe     o212095   5.670   4.011   4.433 -0.1151 -0.0953  0.2688
 2808poe    c3112096   5.712   3.877   4.419  0.6749  0.1634  0.1047
 2809poe    c3112097   0.941   1.673   6.563 -0.1823 -0.3406  0.1059
 2809poe     o212098   0.906   1.809   6.568  0.1401 -0.2575  0.1053
 2809poe    c2312099   0.983   1.860   6.674  0.2576  0.1306 -0.1627
 2809poe    c2312100   0.957   2.011   6.692  0.4024  0.1391 -0.0178
 2809poe     o212101   0.843   2.027   6.773 -0.1410 -0.2993 -0.6799
 2809poe    c2312102   0.805   2.163   6.788 -0.0420 -0.3293 -0.1260
 2809poe    c2312103   0.684   2.186   6.881 -0.1077 -0.2194 -0.2391
 2809poe     o212104   0.569   2.142   6.813 -0.3119  0.0074 -0.0392
 2809poe    c2312105   0.450   2.148   6.889 -0.2760  0.0101  0.0167
 2809poe    c2312106   0.389   2.014   6.934 -0.1183 -0.1789 -0.3280
 2809poe     o212107   0.453   1.937   7.034 -0.1755  0.4087  0.1703
 2809poe    c3112108   0.367   1.837   7.083  0.7716 -0.2985  0.4395
 2810poe    c3112109   1.825   6.218   2.867  0.2298 -0.0745 -0.3660
 2810poe     o212110   1.866   6.347   2.829  0.5432 -0.1182 -0.1742
 2810poe    c2312111   1.952   6.328   2.719  0.0374 -0.3342 -0.5336
 2810poe    c2312112   2.020   6.459   2.674 -0.1609  0.0554  0.2836
 2810poe     o212113   1.930   6.539   2.599 -0.1126 -0.3823 -0.2458
 2810poe    c2312114   1.980   6.670   2.587 -0.4111 -0.2858 -0.4351
 2810poe    c2312115   1.894   6.758   2.494  0.2273  0.4717 -0.3166
 2810poe     o212116   1.886   6.696   2.368  0.0574 -0.0121 -0.0727
 2810poe    c2312117   1.863   6.786   2.261  0.2597 -0.0734 -0.1688
 2810poe    c2312118   1.712   6.805   2.242  0.2312 -0.2716 -0.1432
 2810poe     o212119   1.644   6.685   2.215 -0.2520 -0.1440  0.4694
 2810poe    c3112120   1.560   6.714   2.106  0.1164  0.1059  0.2489
 2811poe    c3112121   1.811   3.755   5.469 -0.0359 -0.0043 -0.1688
 2811poe     o212122   1.685   3.765   5.532  0.1905 -0.5965  0.3876
 2811poe    c2312123   1.631   3.635   5.547  0.4129 -0.6856  0.4199
 2811poe    c2312124   1.531   3.639   5.664 -0.0742 -0.0634 -0.0089
 2811poe     o212125   1.586   3.682   5.787  0.4303 -0.3052 -0.1460
 2811poe    c2312126   1.510   3.647   5.901  0.3080 -0.2483 -0.2106
 2811poe    c2312127   1.574   3.681   6.037 -0.2109  0.0842 -0.0457
 2811poe     o212128   1.567   3.820   6.060  0.2301  0.1708 -0.4049
 2811poe    c2312129   1.595   3.840   6.197 -0.2876  0.3323 -0.3187
 2811poe    c2312130   1.535   3.975   6.241 -0.3268  0.2727 -0.1908
 2811poe     o212131   1.399   3.959   6.275 -0.1528  0.2688  0.5157
 2811poe    c3112132   1.385   3.959   6.416  0.3234  0.5745  0.5659
 2812poe    c3112133   6.486   2.959   0.665 -0.4525 -0.0207  0.5524
 2812poe     o212134   6.588   3.004   0.752 -0.0072 -0.4370  0.2561
 2812poe    c2312135   6.533   2.999   0.882 -0.3083  0.0811  0.1531
 2812poe    c2312136   6.609   3.078   0.990  0.3242  0.0087 -0.2314
 2812poe     o212137   6.588   3.214   1.018  0.0353  0.0099 -0.4562
 2812poe    c2312138   6.661   3.256   1.131  0.0035  0.0930 -0.4663
 2812poe    c2312139   6.587   3.356   1.221  0.4260  0.3437 -0.3966
 2812poe     o212140   6.654   3.390   1.341  0.1971 -0.0685 -0.1528
 2812poe    c2312141   6.711   3.518   1.329 -0.3227  0.1970  0.1759
 2812poe    c2312142   6.751   3.574   1.467 -0.1899  0.5974 -0.0227
 2812poe     o212143   6.651   3.577   1.566 -0.0853  0.3106  0.0947
 2812poe    c3112144   6.630   3.707   1.614  0.3634  0.3604  0.1553
 2813poe    c3112145   2.023   4.315   0.001  0.3634 -0.1628  0.3511
 2813poe     o212146   2.012   4.313  -0.139 -0.4327 -0.2649  0.4101
 2813poe    c2312147   1.943   4.426  -0.187 -0.4296 -0.3523  0.1990
 2813poe    c2312148   1.930   4.416  -0.340  0.4179  0.4538  0.0580
 2813poe     o212149   2.052   4.368  -0.391  0.2810  0.0559  0.1002
 2813poe    c2312150   2.060   4.373  -0.532  0.2521 -0.0757  0.0934
 2813poe    c2312151   2.177   4.276  -0.553 -0.4525 -0.8167 -0.4507
 2813poe     o212152   2.169   4.159  -0.474 -0.4385 -0.2820  0.3518
 2813poe    c2312153   2.257   4.069  -0.538 -0.0801  0.2579  0.0788
 2813poe    c2312154   2.216   3.925  -0.505 -0.3054  0.2468 -0.2466
 2813poe     o212155   2.109   3.863  -0.574 -0.7989  0.3787  0.3922
 2813poe    c3112156   2.102   3.724  -0.548  0.7671  0.2756  0.3673
 2814poe    c3112157   4.366   4.163   6.129 -0.5231  0.2085  0.1675
 2814poe     o212158   4.397   4.292   6.082 -0.2335 -0.0240 -0.2841
 2814poe    c2312159   4.535   4.309   6.062 -0.0611 -0.9039  0.1258
 2814poe    c2312160   4.583   4.421   6.156  0.1249 -0.1589 -0.8283
 2814poe     o212161   4.486   4.522   6.167  0.0991 -0.2518 -0.0873
 2814poe    c2312162   4.546   4.638   6.221 -0.1763 -0.0078 -0.2964
 2814poe    c2312163   4.448   4.755   6.201  0.1112  0.3379  0.2689
 2814poe     o212164   4.327   4.746   6.273  0.0950 -0.0500  0.1965
 2814poe    c2312165   4.249   4.861   6.249  0.3592  0.0900  0.0121
 2814poe    c2312166   4.123   4.824   6.168  0.2480 -0.0052  0.2308
 2814poe     o212167   4.137   4.796   6.031 -0.3549  0.0364  0.1580
 2814poe    c3112168   4.025   4.811   5.947 -0.2567 -0.2533 -0.0273
 2815poe    c3112169   2.510   1.577   6.560  0.0047 -0.1682 -0.2029
 2815poe     o212170   2.528   1.713   6.527  0.3689 -0.2015 -0.1461
 2815poe    c2312171   2.397   1.765   6.527  0.4686  0.0532  0.4305
 2815poe    c2312172   2.385   1.906   6.465  0.5730 -0.0638  0.1457
 2815poe     o212173   2.403   1.915   6.325  0.1964  0.0377  0.1048
 2815poe    c2312174   2.307   1.859   6.238 -0.3235  0.7670  0.1945
 2815poe    c2312175   2.346   1.844   6.089 -0.1798  0.2593  0.2811
 2815poe     o212176   2.405   1.956   6.027  0.5041 -0.1478  0.1761
 2815poe    c2312177   2.432   1.931   5.891 -0.1517  0.4557 -0.0772
 2815poe    c2312178   2.458   2.069   5.829  0.0054  0.5772  0.2612
 2815poe     o212179   2.573   2.132   5.883  0.5330  0.1001 -0.2938
 2815poe    c3112180   2.597   2.260   5.828 -0.0928  0.4332  0.1896
 2816poe    c3112181   2.579   2.954   2.521  0.0876  0.0450  0.1941
 2816poe     o212182   2.690   2.870   2.541 -0.0522 -0.2901 -0.3937
 2816poe    c2312183   2.808   2.936   2.581 -0.3250 -0.0829  0.0706
 2816poe    c2312184   2.919   2.834   2.612  0.1994  0.5673  0.3607
 2816poe     o212185   2.867   2.785   2.734 -0.3332  0.0829 -0.0527
 2816poe    c2312186   2.961   2.714   2.812 -0.6394 -0.7026 -0.3977
 2816poe    c2312187   2.895   2.644   2.932  0.3492 -1.1266 -0.0948
 2816poe     o212188   2.807   2.539   2.899 -0.8809 -0.0080 -0.4206
 2816poe    c2312189   2.734   2.499   3.013 -0.0917  0.1471  0.1469
 2816poe    c2312190   2.633   2.392   2.967  0.3165 -0.1513 -0.0578
 2816poe     o212191   2.599   2.417   2.833 -0.4978  0.2934  0.2249
 2816poe    c3112192   2.483   2.349   2.792  0.4747 -0.9951 -0.4618
 2817poe    c3112193   6.937   3.161   4.976 -0.0650 -0.1267  0.1884
 2817poe     o212194   7.007   3.093   5.077  0.2289  0.4590  0.3862
 2817poe    c2312195   6.913   3.049   5.172  0.2282 -0.5611 -0.0717
 2817poe    c2312196   6.988   2.957   5.271 -0.0822 -0.1140  0.5815
 2817poe     o212197   7.026   2.835   5.212  0.2324  0.3157 -0.1097
 2817poe    c2312198   7.094   2.748   5.299 -0.4605  0.1650  0.2897
 2817poe    c2312199   7.135   2.612   5.240 -0.2162  0.3517  0.0289
 2817poe     o212200   7.202   2.624   5.116  0.2174  0.2050  0.2484
 2817poe    c2312201   7.301   2.525   5.098  0.0725  0.0057  0.5465
 2817poe    c2312202   7.337   2.515   4.949  0.0666 -0.1317  0.5545
 2817poe     o212203   7.332   2.648   4.902  0.0975 -0.2689  0.1620
 2817poe    c3112204   7.392   2.647   4.774  0.4124 -0.6838  0.3107
 2818poe    c3112205   2.126   1.885   3.844 -0.3098  0.1754  0.5615
 2818poe     o212206   2.098   1.925   3.712  0.2175 -0.0930  0.3632
 2818poe    c2312207   2.061   2.061   3.705 -0.0773 -0.2039 -0.4434
 2818poe    c2312208   1.926   2.108   3.761  0.1416  0.0215 -0.1013
 2818poe     o212209   1.813   2.059   3.694  0.3710 -0.3137 -0.2433
 2818poe    c2312210   1.778   1.929   3.736  0.4126 -0.0681  0.5715
 2818poe    c2312211   1.654   1.871   3.664  0.5504 -0.0124  0.2876
 2818poe     o212212   1.690   1.837   3.532  0.2851 -0.5968  0.3624
 2818poe    c2312213   1.596   1.743   3.486 -0.2162 -0.0409  0.2367
 2818poe    c2312214   1.668   1.656   3.381 -0.1802  0.3115 -0.0335
 2818poe     o212215   1.794   1.624   3.435 -0.1583  0.3862 -0.0407
 2818poe    c3112216   1.877   1.543   3.355  0.3501  0.6289  0.2354
 2819poe    c3112217   4.575   6.186   6.648  0.3838 -0.0116  0.4153
 2819poe     o212218   4.467   6.242   6.578  0.4466 -0.1561  0.2038
 2819poe    c2312219   4.458   6.198   6.444  0.2091  0.1616  0.1150
 2819poe    c2312220   4.389   6.312   6.366  0.0269  0.1326  0.2334
 2819poe     o212221   4.250   6.333   6.368 -0.0069 -0.1084  0.5187
 2819poe    c2312222   4.227   6.437   6.275  0.1843 -0.1737  0.3981
 2819poe    c2312223   4.080   6.482   6.272  0.1179 -0.4385 -0.5223
 2819poe     o212224   4.048   6.540   6.397  0.0607 -0.5600 -0.4812
 2819poe    c2312225   3.932   6.620   6.396  0.1727 -0.3906 -0.0242
 2819poe    c2312226   3.906   6.686   6.532  0.1353  0.4975 -0.4514
 2819poe     o212227   3.881   6.599   6.641 -0.2315  0.6103 -0.4460
 2819poe    c3112228   3.819   6.660   6.751 -0.6086  0.2805 -0.4744
 2820poe    c3112229   2.293   5.577   3.806  0.3574  0.0420 -0.1881
 2820poe     o212230   2.296   5.717   3.825  0.0235  0.0881 -0.4532
 2820poe    c2312231   2.193   5.781   3.753 -0.5562 -0.3354 -0.0057
 2820poe    c2312232   2.187   5.934   3.767  0.0845 -0.3004 -0.0905
 2820poe     o212233   2.306   5.989   3.715  0.2586 -0.5028  0.0923
 2820poe    c2312234   2.281   6.127   3.699  0.1726 -0.5574 -0.2430
 2820poe    c2312235   2.395   6.209   3.636 -0.2274 -0.1798 -0.4849
 2820poe     o212236   2.434   6.163   3.509 -0.1843 -0.5134 -0.3526
 2820poe    c2312237   2.530   6.250   3.454 -0.2966 -0.3616 -0.3101
 2820poe    c2312238   2.549   6.222   3.304 -0.7126 -0.1432 -0.4040
 2820poe     o212239   2.550   6.083   3.281 -0.2268 -0.2135  0.0354
 2820poe    c3112240   2.546   6.050   3.144  0.0261  0.3706 -0.1130
 2821poe    c3112241   1.059   0.028   5.337 -0.3649 -0.3674  0.2331
 2821poe     o212242   1.186  -0.030   5.316 -0.5544 -0.3728 -0.9164
 2821poe    c2312243   1.270   0.074   5.269  0.1656 -0.2858  0.5215
 2821poe    c2312244   1.413   0.036   5.312  0.3511  0.3113  0.4416
 2821poe     o212245   1.452  -0.078   5.239 -0.3196  0.0626  0.4637
 2821poe    c2312246   1.570  -0.129   5.297  0.1642  0.2275 -0.3568
 2821poe    c2312247   1.580  -0.281   5.272 -0.3256  0.1094  0.1347
 2821poe     o212248   1.475  -0.354   5.331 -0.1589 -0.0410  0.2430
 2821poe    c2312249   1.501  -0.493   5.321 -0.0380  0.0114 -0.1706
 2821poe    c2312250   1.396  -0.591   5.375 -0.0494  0.3980  0.5192
 2821poe     o212251   1.292  -0.624   5.287  0.7212 -0.5524 -0.0546
 2821poe    c3112252   1.188  -0.684   5.361  0.3454  0.0724 -0.0592
 2822poe    c3112253   5.651   6.799   0.428 -0.2695  0.0318 -0.4430
 2822poe     o212254   5.699   6.775   0.298  0.0185 -0.3049 -0.2762
 2822poe    c2312255   5.811   6.858   0.274  0.2004 -0.2393  0.7562
 2822poe    c2312256   5.912   6.788   0.182  0.0021  0.7938 -0.2703
 2822poe     o212257   5.841   6.775   0.061 -0.0405  0.0778 -0.1705
 2822poe    c2312258   5.917   6.695  -0.026 -0.4449 -0.4025 -0.0855
 2822poe    c2312259   5.884   6.713  -0.175  0.1972 -0.2765 -0.2147
 2822poe     o212260   5.746   6.690  -0.187  0.2016 -0.3783 -0.0651
 2822poe    c2312261   5.701   6.694  -0.321  0.6499 -1.3419 -0.2507
 2822poe    c2312262   5.569   6.618  -0.299 -0.1899  0.0781 -0.2833
 2822poe     o212263   5.493   6.693  -0.206 -0.3500  0.1462 -0.4690
 2822poe    c3112264   5.370   6.629  -0.180 -0.2759 -0.0365 -0.5586
 2823poe    c3112265   3.578   7.173   1.897  0.1818 -0.3677 -0.1467
 2823poe     o212266   3.703   7.236   1.880  0.0931 -0.1643 -0.0514
 2823poe    c2312267   3.704   7.347   1.968  0.1202  0.0027 -0.2631
 2823poe    c2312268   3.839   7.421   1.969 -0.1176  0.4288  0.3597
 2823poe     o212269   3.938   7.323   1.993 -0.0700  0.4191  0.1250
 2823poe    c2312270   3.951   7.269   2.122  0.2053  0.0682 -0.0503
 2823poe    c2312271   4.068   7.171   2.141  0.4177  0.4358  0.5750
 2823poe     o212272   4.181   7.207   2.065  0.0609  0.2803 -0.0327
 2823poe    c2312273   4.263   7.096   2.035 -0.0567  0.2253 -0.1529
 2823poe    c2312274   4.382   7.137   1.947  0.3565 -0.6440 -0.0044
 2823poe     o212275   4.334   7.171   1.819  0.3764  0.5020  0.2798
 2823poe    c3112276   4.427   7.208   1.720 -0.2311  0.2873 -0.3779
 2824poe    c3112277   0.736   3.764   3.816 -0.2638  0.3191  0.4083
 2824poe     o212278   0.810   3.858   3.741  0.0718 -0.1400  0.1616
 2824poe    c2312279   0.938   3.898   3.787  0.0766 -0.1886  0.1912
 2824poe    c2312280   1.053   3.796   3.778  0.2887  0.0825 -0.1970
 2824poe     o212281   1.118   3.777   3.654 -0.0310  0.3895 -0.4145
 2824poe    c2312282   1.202   3.885   3.621  0.2418  0.1958 -0.3593
 2824poe    c2312283   1.348   3.856   3.583  0.2915  0.2775 -0.2302
 2824poe     o212284   1.370   3.772   3.472 -0.0806 -0.0908 -0.0281
 2824poe    c2312285   1.507   3.754   3.445  0.0683  0.5835  0.2651
 2824poe    c2312286   1.524   3.609   3.395 -0.6374  0.4562  0.3916
 2824poe     o212287   1.472   3.588   3.266 -0.1160 -0.6299  0.3516
 2824poe    c3112288   1.487   3.452   3.231  0.3789 -0.5807  0.3659
 2825poe    c3112289   5.102   2.365   2.063 -0.1468  0.2553  0.0557
 2825poe     o212290   4.973   2.315   2.034 -0.1741  0.2645  0.1595
 2825poe    c2312291   4.868   2.375   2.107 -0.3161  0.1257  0.0697
 2825poe    c2312292   4.734   2.299   2.098 -0.2462  0.0854 -0.7838
 2825poe     o212293   4.757   2.166   2.136  0.9040  0.4624 -0.0852
 2825poe    c2312294   4.739   2.072   2.032  0.8220  0.0602  0.2858
 2825poe    c2312295   4.775   1.933   2.088 -0.1754 -0.2565  0.1605
 2825poe     o212296   4.916   1.925   2.101 -0.0960 -0.0130 -0.5016
 2825poe    c2312297   4.958   1.792   2.123 -0.0590  0.1371  0.3568
 2825poe    c2312298   5.109   1.794   2.152 -0.1010 -0.1826  0.6078
 2825poe     o212299   5.191   1.829   2.042 -0.3792 -0.2364  0.3823
 2825poe    c3112300   5.324   1.827   2.090 -0.2544 -0.4067  0.0290
 2826poe    c3112301   1.871   6.603   6.213  0.0230  0.2592 -0.2584
 2826poe     o212302   1.817   6.474   6.237  0.0037  0.3227  0.0464
 2826poe    c2312303   1.881   6.435   6.356  0.2397  0.4282 -0.0450
 2826poe    c2312304   1.828   6.299   6.405 -0.0769  0.4157 -0.4218
 2826poe     o212305   1.781   6.238   6.287 -0.3132 -0.0083 -0.1146
 2826poe    c2312306   1.724   6.114   6.321 -0.3831  0.0889  0.1226
 2826poe    c2312307   1.692   6.023   6.201  0.1616  0.2220 -0.1260
 2826poe     o212308   1.596   6.089   6.120  0.5524  0.1020 -0.6958
 2826poe    c2312309   1.590   6.033   5.991 -0.0787 -0.3681 -0.4690
 2826poe    c2312310   1.505   6.114   5.891  0.5142  0.0374 -0.6533
 2826poe     o212311   1.552   6.243   5.859  0.6128  0.1480 -0.0719
 2826poe    c3112312   1.500   6.269   5.731  0.0158 -0.1508  0.1031
 2827poe    c3112313   0.155   1.652   1.126 -0.4720  0.2845  0.1867
 2827poe     o212314   0.256   1.720   1.198 -0.2354  0.0557  0.0710
 2827poe    c2312315   0.224   1.856   1.187  0.0939  0.1019 -0.3331
 2827poe    c2312316   0.291   1.932   1.303 -0.0052 -0.0196 -0.1965
 2827poe     o212317   0.263   1.874   1.428  0.2796  0.0363 -0.1047
 2827poe    c2312318   0.310   1.943   1.542  0.1018  0.2459 -0.1578
 2827poe    c2312319   0.279   1.877   1.678 -0.3112 -0.1911 -0.4609
 2827poe     o212320   0.321   1.742   1.666 -0.0021 -0.1410  0.0348
 2827poe    c2312321   0.321   1.670   1.787  0.3512 -0.2808 -0.0486
 2827poe    c2312322   0.365   1.527   1.750  0.2957 -0.2494 -0.2421
 2827poe     o212323   0.290   1.501   1.634 -0.2678  0.2291  0.0102
 2827poe    c3112324   0.290   1.362   1.609  0.1534  0.1747  0.3010
 2828poe    c3112325   0.278   2.449   1.376  0.0837  0.0069  0.2713
 2828poe     o212326   0.138   2.465   1.383  0.0196 -0.5267  0.1937
 2828poe    c2312327   0.123   2.584   1.310 -0.3689 -0.6366  0.0917
 2828poe    c2312328  -0.025   2.626   1.306 -0.1954 -0.0158  0.0732
 2828poe     o212329  -0.110   2.520   1.269 -0.1392  0.1265 -0.4664
 2828poe    c2312330  -0.238   2.570   1.236 -0.3313  0.0818  0.2065
 2828poe    c2312331  -0.314   2.478   1.138  0.8098 -0.8478  0.1662
 2828poe     o212332  -0.262   2.482   1.007  0.3687  0.0414  0.0105
 2828poe    c2312333  -0.335   2.399   0.919  0.2819  0.2652 -0.1286
 2828poe    c2312334  -0.470   2.456   0.870  0.0331 -0.0363  0.1960
 2828poe     o212335  -0.443   2.572   0.794 -0.1487 -0.3642 -0.3769
 2828poe    c3112336  -0.566   2.626   0.749  0.2241  0.8196 -0.0163
 2829poe    c3112337   1.376   3.535   5.119  0.0808 -0.2632  0.1758
 2829poe     o212338   1.328   3.549   4.987 -0.0834  0.0860  0.2711
 2829poe    c2312339   1.352   3.430   4.915 -0.0641  0.1232  0.2154
 2829poe    c2312340   1.275   3.446   4.783  0.1118  0.6589  0.1778
 2829poe     o212341   1.298   3.566   4.711  0.3244  0.3543 -0.2629
 2829poe    c2312342   1.212   3.578   4.599 -0.1009 -0.1724 -0.0010
 2829poe    c2312343   1.270   3.691   4.512  0.3419 -0.0349  0.4646
 2829poe     o212344   1.274   3.819   4.572 -0.2203 -0.1556  0.7731
 2829poe    c2312345   1.315   3.925   4.489 -0.1299 -0.4521  0.4361
 2829poe    c2312346   1.319   4.034   4.597 -0.3460  0.2771 -0.2779
 2829poe     o212347   1.402   4.001   4.706  0.1850 -0.1242 -0.8028
 2829poe    c3112348   1.474   4.107   4.766  0.1701 -0.4610 -0.1817
 2830poe    c3112349   1.884   5.420   6.840 -0.0016 -0.8315 -0.1566
 2830poe     o212350   1.845   5.358   6.719 -0.2600 -0.0665 -0.4673
 2830poe    c2312351   1.720   5.295   6.740 -0.1622 -0.0470  0.2064
 2830poe    c2312352   1.655   5.223   6.621 -0.1204  0.3624 -0.0659
 2830poe     o212353   1.650   5.300   6.502  0.1368  0.0322 -0.2945
 2830poe    c2312354   1.607   5.231   6.387  0.5564 -0.0579 -0.3967
 2830poe    c2312355   1.594   5.332   6.272  0.0798  0.4423  0.0910
 2830poe     o212356   1.718   5.390   6.236 -0.0672  0.5359 -0.2713
 2830poe    c2312357   1.780   5.329   6.125 -0.7521 -0.5287 -0.0882
 2830poe    c2312358   1.934   5.333   6.126 -0.7477 -0.7131 -0.0740
 2830poe     o212359   2.006   5.240   6.204 -0.0251 -0.3368 -0.2808
 2830poe    c3112360   2.138   5.214   6.162  0.1071  0.0967 -0.1401
 2831poe    c3112361   0.136   2.421   6.304 -0.0251 -0.3450  0.3602
 2831poe     o212362   0.010   2.440   6.244  0.0962  0.2255  0.2845
 2831poe    c2312363  -0.027   2.330   6.164  0.5186 -0.0981  0.5271
 2831poe    c2312364  -0.132   2.230   6.217  0.0791  0.3007  0.4206
 2831poe     o212365  -0.251   2.301   6.243 -0.2126  0.1721 -0.5119
 2831poe    c2312366  -0.341   2.211   6.305  0.3159 -0.1902 -0.2555
 2831poe    c2312367  -0.476   2.282   6.319 -0.0043 -0.8551  0.0685
 2831poe     o212368  -0.538   2.319   6.198 -0.0478 -0.1845  0.2895
 2831poe    c2312369  -0.659   2.385   6.225  0.0143  0.1463 -0.2241
 2831poe    c2312370  -0.657   2.539   6.222 -0.5537  0.1601 -0.0193
 2831poe     o212371  -0.600   2.597   6.337 -0.2926 -0.4781  0.1755
 2831poe    c3112372  -0.648   2.726   6.367  0.4138 -0.1041 -0.2653
 2832poe    c3112373   2.726   2.884   0.911  0.1994 -0.0656  0.1683
 2832poe     o212374   2.735   2.908   1.050 -0.4622  0.4317  0.1306
 2832poe    c2312375   2.618   2.967   1.101 -0.4670  0.5719 -0.0414
 2832poe    c2312376   2.635   3.016   1.246 -0.1717  0.5208 -0.0596
 2832poe     o212377   2.665   2.908   1.332  0.1111  0.1908 -0.5692
 2832poe    c2312378   2.652   2.960   1.462  0.6004  0.3406 -0.5798
 2832poe    c2312379   2.684   2.863   1.577 -0.3097  0.0548 -0.5673
 2832poe     o212380   2.592   2.760   1.608 -0.0840  0.0660  0.1664
 2832poe    c2312381   2.633   2.667   1.706  0.5424  0.6011  0.4192
 2832poe    c2312382   2.533   2.564   1.761  0.5529  0.0143 -0.6390
 2832poe     o212383   2.517   2.457   1.671 -0.3111 -0.1127 -0.3471
 2832poe    c3112384   2.598   2.351   1.718  0.1806  0.4461  0.0674
 2833poe    c3112385   6.251   0.073   2.767  0.1650  0.1540 -0.3931
 2833poe     o212386   6.379   0.096   2.820  0.1752  0.1118 -0.3992
 2833poe    c2312387   6.374   0.206   2.908  0.1544  0.0428 -0.3133
 2833poe    c2312388   6.510   0.277   2.922  0.0912  0.1684 -0.3327
 2833poe     o212389   6.619   0.215   2.985 -0.0251  0.2209 -0.0806
 2833poe    c2312390   6.738   0.291   2.996 -0.1050  0.3269  0.0562
 2833poe    c2312391   6.848   0.202   3.058 -0.3340  0.1232  0.1720
 2833poe     o212392   6.890   0.089   2.986 -0.2662  0.1828  0.1186
 2833poe    c2312393   7.021   0.052   3.022  0.1119  0.6855 -0.7053
 2833poe    c2312394   7.100   0.003   2.899  0.4610  0.6030 -0.4503
 2833poe     o212395   7.045  -0.110   2.835  0.5083  0.1544  0.2985
 2833poe    c3112396   7.079  -0.087   2.701 -0.2895 -0.1794  0.0357
 2834poe    c3112397   2.608   2.533   3.408  0.7326 -0.1188 -0.5585
 2834poe     o212398   2.614   2.595   3.535 -0.4602 -0.2829 -0.4150
 2834poe    c2312399   2.482   2.603   3.584 -0.4489 -0.1295 -0.4112
 2834poe    c2312400   2.468   2.694   3.708  0.7433 -0.2320 -0.1924
 2834poe     o212401   2.551   2.656   3.815  0.1241  0.2062  0.4483
 2834poe    c2312402   2.516   2.543   3.891 -0.0497 -0.2189 -0.2568
 2834poe    c2312403   2.621   2.507   3.997 -0.1181 -0.3843 -0.2449
 2834poe     o212404   2.733   2.469   3.920 -0.1930 -0.1959 -0.4454
 2834poe    c2312405   2.843   2.453   4.006 -0.5385 -0.3133 -0.0247
 2834poe    c2312406   2.849   2.337   4.108  0.6213  0.0155  0.2942
 2834poe     o212407   2.876   2.207   4.060  0.1231  0.1798 -0.4432
 2834poe    c3112408   2.882   2.105   4.157 -0.1106 -0.0860 -0.7021
 2835poe    c3112409   5.988   3.209   3.099 -0.4447  0.2965 -0.3594
 2835poe     o212410   5.870   3.214   3.176 -0.1537 -0.0878  0.1186
 2835poe    c2312411   5.840   3.091   3.237  0.3023 -0.1697  0.1783
 2835poe    c2312412   5.903   3.070   3.377  0.3287  0.6076  0.2865
 2835poe     o212413   5.824   3.142   3.469 -0.3907  0.1586  0.0269
 2835poe    c2312414   5.875   3.133   3.600 -0.3893 -0.6484 -0.0197
 2835poe    c2312415   5.782   3.203   3.702  0.1889 -0.0722  0.1199
 2835poe     o212416   5.764   3.337   3.664  0.5570 -0.0174  0.1382
 2835poe    c2312417   5.676   3.407   3.750  0.1699  0.1206 -0.3676
 2835poe    c2312418   5.696   3.554   3.709  0.1774  0.1321 -0.3236
 2835poe     o212419   5.683   3.551   3.568  0.2624  0.0198 -0.3295
 2835poe    c3112420   5.698   3.685   3.525  0.5024  0.2001  0.2913
 2836poe    c3112421   4.206   1.714   5.159 -0.4733 -0.1422 -0.8138
 2836poe     o212422   4.344   1.689   5.178 -0.5453  0.1037  0.0623
 2836poe    c2312423   4.410   1.751   5.070  0.1411 -0.9483 -0.1282
 2836poe    c2312424   4.563   1.736   5.080  0.2039 -0.4313 -0.3207
 2836poe     o212425   4.588   1.603   5.118 -0.2640 -0.3501  0.2837
 2836poe    c2312426   4.725   1.573   5.109 -0.1094  0.2645  0.5432
 2836poe    c2312427   4.744   1.422   5.132 -0.3530  0.1118 -0.2427
 2836poe     o212428   4.667   1.397   5.248 -0.3123  0.2582 -0.1840
 2836poe    c2312429   4.689   1.261   5.279  0.8695  0.3741 -0.4526
 2836poe    c2312430   4.646   1.228   5.423 -0.0612  0.7319 -0.6424
 2836poe     o212431   4.508   1.243   5.448 -0.2117 -0.8815 -0.4250
 2836poe    c3112432   4.467   1.176   5.566  0.0601  0.3974  0.4122
 2837poe    c3112433   1.825   6.196   1.732  0.0216 -0.1353  0.4830
 2837poe     o212434   1.708   6.272   1.716  0.0505 -0.1333  0.2783
 2837poe    c2312435   1.623   6.255   1.827  0.0416  0.2714  0.3343
 2837poe    c2312436   1.523   6.372   1.811  0.1408  0.3037 -0.0533
 2837poe     o212437   1.477   6.357   1.678  0.3499 -0.2038 -0.0702
 2837poe    c2312438   1.361   6.432   1.653  0.4568 -0.0601 -0.1322
 2837poe    c2312439   1.291   6.372   1.530  0.3151 -0.3476  0.0878
 2837poe     o212440   1.365   6.390   1.411  0.2059  0.1554  0.0932
 2837poe    c2312441   1.301   6.340   1.296 -0.4793  0.4375  0.3468
 2837poe    c2312442   1.392   6.351   1.173 -0.6097 -0.2488  0.1848
 2837poe     o212443   1.515   6.294   1.209 -0.0432  0.6235 -0.3344
 2837poe    c3112444   1.598   6.273   1.097  0.6639  0.3835  0.2225
 2838poe    c3112445   6.502   6.749   7.154  0.2525 -0.1342  0.2605
 2838poe     o212446   6.451   6.621   7.126  0.1583 -0.0425  0.0151
 2838poe    c2312447   6.414   6.580   7.256 -0.0881  0.1349  0.0028
 2838poe    c2312448   6.369   6.433   7.257 -0.3120  0.2000 -0.4233
 2838poe     o212449   6.475   6.376   7.183 -0.0336  0.0368  0.0960
 2838poe    c2312450   6.438   6.249   7.132  0.1480 -0.0671  0.2226
 2838poe    c2312451   6.559   6.193   7.054 -0.2071 -0.4493 -0.0581
 2838poe     o212452   6.593   6.269   6.941 -0.0836  0.0117  0.2869
 2838poe    c2312453   6.699   6.221   6.861  0.3163  1.0333  0.1784
 2838poe    c2312454   6.843   6.251   6.906  0.7352 -0.1240 -0.3515
 2838poe     o212455   6.869   6.389   6.914 -0.6022  0.1176  0.0178
 2838poe    c3112456   6.990   6.417   6.846 -0.2513 -0.4526  0.4007
 2839poe    c3112457   2.000   5.144   2.152 -0.3516  0.4900  0.2317
 2839poe     o212458   1.866   5.106   2.170 -0.0932 -0.2108  0.7137
 2839poe    c2312459   1.791   5.094   2.051  0.3504  0.2109  0.3873
 2839poe    c2312460   1.670   4.998   2.053  0.6347 -0.1558  0.0274
 2839poe     o212461   1.557   5.036   2.127  0.5214 -0.4615  0.0104
 2839poe    c2312462   1.462   4.936   2.096  0.0770 -0.0692  0.0972
 2839poe    c2312463   1.314   4.963   2.129  0.1295 -0.3408  0.5536
 2839poe     o212464   1.212   4.868   2.109  0.1973 -0.2579 -0.2066
 2839poe    c2312465   1.085   4.914   2.150  0.2101 -0.3755 -0.0313
 2839poe    c2312466   0.973   4.810   2.159 -0.3332  0.1844 -0.2580
 2839poe     o212467   0.922   4.766   2.035  0.0623  0.2317 -0.4387
 2839poe    c3112468   0.810   4.685   2.065  0.0039  0.4237 -0.1400
 2840poe    c3112469   3.893   2.603   6.247  0.0634  0.0612  0.1490
 2840poe     o212470   3.934   2.724   6.188 -0.3007  0.0715 -0.0845
 2840poe    c2312471   3.924   2.823   6.288  0.1206 -0.3021  0.3299
 2840poe    c2312472   3.975   2.954   6.226  0.4200 -0.5255  0.0953
 2840poe     o212473   4.067   2.924   6.123 -0.3040 -0.9009 -0.4530
 2840poe    c2312474   4.112   3.042   6.060 -0.2149 -0.6819  0.0170
 2840poe    c2312475   4.202   3.012   5.939 -0.3159  0.8786 -0.4651
 2840poe     o212476   4.120   2.939   5.850 -0.2070  0.2254 -0.0399
 2840poe    c2312477   4.196   2.908   5.736 -0.0814  0.8596 -0.1322
 2840poe    c2312478   4.112   2.840   5.626 -0.4570  0.3059  0.4956
 2840poe     o212479   4.056   2.925   5.529 -0.0120  0.5678  0.4702
 2840poe    c3112480   3.932   2.889   5.473  0.2029  0.9512 -0.2683
 2841poe    c3112481   2.827   5.790   7.039  0.5815  0.1799 -0.3421
 2841poe     o212482   2.840   5.828   7.174  0.2170 -0.2852 -0.1718
 2841poe    c2312483   2.717   5.808   7.241  0.3833 -0.4573  0.0803
 2841poe    c2312484   2.708   5.854   7.388  0.2284 -0.0469 -0.0557
 2841poe     o212485   2.710   5.994   7.397  0.1701 -0.0474 -0.0433
 2841poe    c2312486   2.711   6.043   7.529  1.0106 -0.2970  0.0478
 2841poe    c2312487   2.730   6.196   7.538  0.1482 -0.1743 -0.1657
 2841poe     o212488   2.855   6.240   7.490  0.0351 -0.2216 -0.5011
 2841poe    c2312489   2.862   6.379   7.510  0.0575 -0.3437  0.3734
 2841poe    c2312490   2.977   6.430   7.420  0.2562 -0.6438  0.4570
 2841poe     o212491   2.959   6.381   7.288  0.0087  0.4164  0.0877
 2841poe    c3112492   3.080   6.393   7.217  0.1122 -0.5659  0.0832
 2842poe    c3112493   0.812   7.001   2.573  0.3493  0.3205 -0.6668
 2842poe     o212494   0.915   6.915   2.530  0.1836 -0.2196 -0.0006
 2842poe    c2312495   1.026   6.977   2.471 -0.6541  0.4777 -0.8706
 2842poe    c2312496   1.116   6.868   2.410  0.2911  0.3281  0.7380
 2842poe     o212497   1.169   6.778   2.504 -0.1141 -0.6306  0.0653
 2842poe    c2312498   1.251   6.669   2.467  0.0353 -0.4387 -0.1728
 2842poe    c2312499   1.164   6.551   2.421 -0.4051 -0.1998  0.0407
 2842poe     o212500   1.092   6.484   2.522 -0.0108 -0.5202  0.1074
 2842poe    c2312501   1.165   6.411   2.619  0.6731 -0.1604 -0.1332
 2842poe    c2312502   1.070   6.350   2.723 -0.0060  0.2964 -0.4797
 2842poe     o212503   1.015   6.232   2.671  0.2676 -0.0893  0.0963
 2842poe    c3112504   0.912   6.210   2.765  0.3840 -0.0391  0.2358
 2843poe    c3112505   1.605   3.780   2.722 -0.3292  0.4317  0.6789
 2843poe     o212506   1.711   3.872   2.732  0.2536 -0.1210 -0.2369
 2843poe    c2312507   1.827   3.796   2.759  0.0817 -0.3670 -0.1957
 2843poe    c2312508   1.932   3.906   2.777 -0.3330 -0.0097  0.0656
 2843poe     o212509   1.891   4.019   2.851  0.3615  0.3781 -0.1292
 2843poe    c2312510   1.983   4.118   2.890  0.5203 -0.0204  0.5229
 2843poe    c2312511   1.914   4.217   2.985 -0.1004  0.1258 -0.0726
 2843poe     o212512   1.778   4.220   2.948 -0.0471 -0.2198 -0.3004
 2843poe    c2312513   1.719   4.345   2.977  0.6124  0.0819 -0.2404
 2843poe    c2312514   1.566   4.325   2.972  0.6300 -0.0254 -0.3449
 2843poe     o212515   1.503   4.324   2.846 -0.2898 -0.6325  0.1036
 2843poe    c3112516   1.365   4.321   2.871 -0.4031  0.2296 -0.3654
 2844poe    c3112517   3.034   0.566   2.156 -0.0648 -0.3893  0.3557
 2844poe     o212518   3.141   0.575   2.247 -0.0375 -0.0525  0.2930
 2844poe    c2312519   3.102   0.595   2.381  0.5679 -0.0502  0.4716
 2844poe    c2312520   3.166   0.503   2.487  0.0246 -0.0618  0.7958
 2844poe     o212521   3.306   0.520   2.500  0.0871  0.1492 -0.1053
 2844poe    c2312522   3.365   0.399   2.543 -0.1033 -0.0069 -0.2800
 2844poe    c2312523   3.511   0.398   2.494  0.1509 -0.4408  0.4692
 2844poe     o212524   3.541   0.419   2.358  0.0670  0.2894  0.5551
 2844poe    c2312525   3.679   0.398   2.339 -0.0550  0.1325 -0.2115
 2844poe    c2312526   3.730   0.511   2.248 -0.1963  0.3446 -0.0310
 2844poe     o212527   3.658   0.483   2.130  0.1733 -0.2136 -0.1326
 2844poe    c3112528   3.700   0.581   2.037 -0.7170 -0.0894 -0.4124
 2845poe    c3112529   0.227   6.908   1.556  0.2658 -0.1690  0.2613
 2845poe     o212530   0.149   6.801   1.603 -0.0280 -0.0035  0.1540
 2845poe    c2312531   0.166   6.683   1.528 -0.2639  0.1105 -0.0817
 2845poe    c2312532   0.265   6.590   1.602  0.1394 -0.0006 -0.7595
 2845poe     o212533   0.214   6.537   1.722  0.1062 -0.5744 -1.0263
 2845poe    c2312534   0.328   6.465   1.764 -0.0558 -0.3884 -0.2663
 2845poe    c2312535   0.307   6.431   1.913 -0.0478  0.5200 -0.0550
 2845poe     o212536   0.179   6.373   1.925  0.0124  0.4710  0.3778
 2845poe    c2312537   0.164   6.327   2.057  0.3862 -0.2858  0.1640
 2845poe    c2312538   0.029   6.253   2.059  0.1985  0.0439 -0.1560
 2845poe     o212539  -0.082   6.335   2.026  0.0018 -0.2618 -0.2605
 2845poe    c3112540  -0.189   6.252   1.986 -0.3405 -0.2666  0.6524
 2846poe    c3112541   4.012   3.235   4.412  0.4176  0.0562  0.3089
 2846poe     o212542   4.072   3.153   4.509  0.3805 -0.2345  0.0855
 2846poe    c2312543   4.136   3.235   4.604 -0.6717  0.0487  0.5579
 2846poe    c2312544   4.218   3.158   4.710  0.0452  0.0753  0.0304
 2846poe     o212545   4.314   3.075   4.649  0.2420 -0.0078  0.4512
 2846poe    c2312546   4.356   2.975   4.739 -0.2879 -0.4759  0.1859
 2846poe    c2312547   4.453   2.880   4.666  0.0099  0.0334 -0.0851
 2846poe     o212548   4.389   2.798   4.571 -0.0800 -0.0919  0.0833
 2846poe    c2312549   4.480   2.718   4.499 -0.1263 -0.2850  0.2383
 2846poe    c2312550   4.417   2.656   4.372 -0.9343 -0.1464  0.5653
 2846poe     o212551   4.399   2.765   4.284 -0.1762 -0.2094  0.3261
 2846poe    c3112552   4.335   2.726   4.164  0.4852  0.8292 -0.3764
 2847poe    c3112553   6.982   1.082   3.318 -0.3196 -0.7831  0.3571
 2847poe     o212554   7.068   1.000   3.242 -0.1820 -0.4225  0.1221
 2847poe    c2312555   7.056   0.871   3.298 -0.7325 -0.1907  0.5556
 2847poe    c2312556   7.140   0.759   3.233  0.0391  0.7876 -0.1792
 2847poe     o212557   7.272   0.803   3.252  0.3176 -0.1166  0.0092
 2847poe    c2312558   7.363   0.713   3.192  0.1152 -0.4877  0.2555
 2847poe    c2312559   7.507   0.767   3.182 -0.1310  0.0638 -0.3535
 2847poe     o212560   7.513   0.875   3.092 -0.0780  0.0513 -0.3650
 2847poe    c2312561   7.590   0.848   2.977 -0.0540  0.2350 -0.3926
 2847poe    c2312562   7.601   0.954   2.866 -0.4805  0.1078 -0.5543
 2847poe     o212563   7.482   1.001   2.807 -0.5130  0.7098 -0.0154
 2847poe    c3112564   7.522   1.095   2.710  0.5774 -0.1408 -0.4077
 2848poe    c3112565   6.957   0.656   5.787 -0.4061  0.3061 -0.3956
 2848poe     o212566   6.948   0.527   5.731 -0.5810  0.2399 -0.2155
 2848poe    c2312567   6.905   0.433   5.827  0.4341  0.3287  0.3464
 2848poe    c2312568   6.847   0.304   5.766  0.2754  0.6701 -0.2256
 2848poe     o212569   6.944   0.204   5.742  0.4386  0.7029  0.3005
 2848poe    c2312570   6.872   0.095   5.690  0.4645  0.7483  0.1701
 2848poe    c2312571   6.941  -0.042   5.675 -0.0520  0.5502 -0.4618
 2848poe     o212572   7.033  -0.045   5.569  0.2726 -0.3994 -0.1655
 2848poe    c2312573   7.083  -0.175   5.548  0.2660 -0.4792  0.3059
 2848poe    c2312574   7.178  -0.163   5.427  0.0937  0.2818  0.2364
 2848poe     o212575   7.298  -0.091   5.445  0.0408  0.4607 -0.1218
 2848poe    c3112576   7.382  -0.105   5.333  0.2398 -0.2077  0.1043
 2849poe    c3112577   4.036   2.508   5.249  0.2233 -0.0227 -0.0830
 2849poe     o212578   4.151   2.436   5.288  0.3884 -0.1350 -0.7716
 2849poe    c2312579   4.184   2.447   5.425 -0.6493 -0.2945 -0.5023
 2849poe    c2312580   4.295   2.345   5.456 -0.7354 -0.2646 -0.0832
 2849poe     o212581   4.390   2.362   5.353 -0.1513 -0.1130  0.4791
 2849poe    c2312582   4.508   2.294   5.390 -0.1442 -0.5033 -0.2385
 2849poe    c2312583   4.573   2.231   5.266 -0.2065 -0.3915 -0.3286
 2849poe     o212584   4.545   2.307   5.151 -0.1411 -0.3226 -0.2990
 2849poe    c2312585   4.622   2.257   5.043  0.5913  0.1498 -0.0038
 2849poe    c2312586   4.617   2.335   4.910 -0.2266  0.1950  0.0447
 2849poe     o212587   4.660   2.466   4.942  0.1930  0.1892 -0.4828
 2849poe    c3112588   4.571   2.563   4.892  0.2246  0.0682 -0.7741
 2850poe    c3112589   2.012   2.155   5.990  0.2383  0.0121 -0.0668
 2850poe     o212590   2.054   2.208   6.113  0.4206 -0.2768 -0.0037
 2850poe    c2312591   2.191   2.242   6.106  0.2428  0.4129 -0.2626
 2850poe    c2312592   2.237   2.313   6.235 -0.4587  0.2592  0.0750
 2850poe     o212593   2.175   2.439   6.238 -0.1472  0.4104  0.0849
 2850poe    c2312594   2.210   2.527   6.342  0.2033  0.1556  0.1838
 2850poe    c2312595   2.118   2.650   6.356  0.4617  0.3608  0.1137
 2850poe     o212596   1.982   2.610   6.363  0.4233  0.3519 -0.6093
 2850poe    c2312597   1.900   2.721   6.391  0.4074  0.1174  0.3032
 2850poe    c2312598   1.775   2.645   6.440 -0.1918  0.6580 -0.3615
 2850poe     o212599   1.743   2.546   6.344 -0.1160  0.0913  0.1936
 2850poe    c3112600   1.627   2.475   6.380  0.0011 -0.1216  0.1525
 2851poe    c3112601   1.463   5.469   1.758  0.3796 -0.0728 -0.1718
 2851poe     o212602   1.426   5.525   1.882 -0.0560 -0.9780  0.1082
 2851poe    c2312603   1.304   5.595   1.869  0.4206 -0.1273  0.1860
 2851poe    c2312604   1.254   5.645   2.006  0.7175 -0.4122  0.4037
 2851poe     o212605   1.181   5.557   2.089 -0.0537 -0.1712 -0.0031
 2851poe    c2312606   1.071   5.615   2.155 -0.1691 -0.3184 -0.0663
 2851poe    c2312607   0.989   5.515   2.239  0.0726 -0.6878 -0.2680
 2851poe     o212608   1.057   5.450   2.344 -0.3170  0.2653  0.5785
 2851poe    c2312609   0.985   5.334   2.377 -0.2322 -0.1252 -0.5646
 2851poe    c2312610   1.084   5.235   2.442  0.0145  0.4508 -0.0522
 2851poe     o212611   1.183   5.166   2.370 -0.2430  0.0468 -0.0197
 2851poe    c3112612   1.242   5.072   2.457 -0.3446  0.0423  0.0452
 2852poe    c3112613   4.278   6.328   0.244  0.1423 -0.3271 -0.0344
 2852poe     o212614   4.246   6.387   0.120  0.6527  0.1359  0.0512
 2852poe    c2312615   4.366   6.408   0.051  0.4526 -1.2385 -0.7460
 2852poe    c2312616   4.318   6.489  -0.071  0.3442 -0.0037  0.0985
 2852poe     o212617   4.303   6.629  -0.060  0.1628  0.0253 -0.4760
 2852poe    c2312618   4.392   6.699  -0.144  0.2863  0.0466 -0.3264
 2852poe    c2312619   4.317   6.741  -0.271 -0.4216 -0.5075 -0.1027
 2852poe     o212620   4.255   6.867  -0.257  0.0058 -0.3321  0.2303
 2852poe    c2312621   4.174   6.898  -0.368  0.5185  0.9028  0.1789
 2852poe    c2312622   4.062   6.993  -0.321 -0.3973  0.2260 -0.5927
 2852poe     o212623   3.976   6.931  -0.228  0.0532  0.3210 -0.1038
 2852poe    c3112624   3.842   6.975  -0.238  0.0074  0.1337 -0.3395
 2853poe    c3112625   5.642   5.742   6.991  0.0638  0.1818 -0.5163
 2853poe     o212626   5.560   5.852   6.957 -0.3867 -0.0320 -0.1372
 2853poe    c2312627   5.617   5.969   7.012 -0.5844 -0.0787  0.1690
 2853poe    c2312628   5.520   6.089   7.019  0.2922  0.6873 -0.5106
 2853poe     o212629   5.437   6.073   6.907 -0.2025  0.2941 -0.0957
 2853poe    c2312630   5.360   6.185   6.870 -0.1022  0.2314 -0.5057
 2853poe    c2312631   5.218   6.155   6.922  0.1346 -0.6490 -0.3602
 2853poe     o212632   5.154   6.041   6.869  0.1306 -0.5405 -0.5898
 2853poe    c2312633   5.014   6.055   6.887  0.1934 -0.1029 -0.4311
 2853poe    c2312634   4.934   5.944   6.817  0.2518 -0.4366  0.0298
 2853poe     o212635   4.968   5.810   6.846  0.3585 -0.2404  0.8318
 2853poe    c3112636   4.880   5.709   6.801  0.6445 -0.0312 -0.2357
 2854poe    c3112637   1.127   2.952   5.582 -0.0749  0.2219 -0.5558
 2854poe     o212638   1.087   2.822   5.621  0.1700  0.2956 -0.0508
 2854poe    c2312639   1.156   2.781   5.737  0.2860  0.2389 -0.1398
 2854poe    c2312640   1.164   2.627   5.738  0.0371  0.2240 -0.3709
 2854poe     o212641   1.256   2.582   5.642  0.1658 -0.2929 -0.0117
 2854poe    c2312642   1.266   2.441   5.648 -0.4811 -0.3576 -0.3918
 2854poe    c2312643   1.383   2.412   5.553 -0.0328  0.7972 -0.2080
 2854poe     o212644   1.363   2.444   5.417 -0.5249  0.2684 -0.2620
 2854poe    c2312645   1.486   2.422   5.351 -0.6053 -0.1925 -0.2601
 2854poe    c2312646   1.486   2.428   5.197 -0.3592 -0.4055 -0.2686
 2854poe     o212647   1.454   2.559   5.157  0.4173 -0.2390 -0.3588
 2854poe    c3112648   1.451   2.585   5.019 -0.4542 -0.0158 -0.3053
 2855poe    c3112649   2.963   1.884   3.276 -0.5283 -0.0184  0.1091
 2855poe     o212650   2.956   1.996   3.190  0.1212  0.1986  0.3352
 2855poe    c2312651   3.022   1.958   3.072 -0.8759  0.3998 -0.3015
 2855poe    c2312652   3.025   2.079   2.978 -0.8557  0.5992 -0.0453
 2855poe     o212653   3.097   2.183   3.041 -0.1528 -0.0110  0.1654
 2855poe    c2312654   3.122   2.301   2.968 -0.7469 -0.0877 -0.1745
 2855poe    c2312655   3.186   2.410   3.056 -0.2543 -0.2736 -0.2986
 2855poe     o212656   3.115   2.435   3.175  0.4849 -0.4075  0.1838
 2855poe    c2312657   3.198   2.516   3.255  0.3091 -0.0630  0.0229
 2855poe    c2312658   3.151   2.497   3.400 -0.1474 -0.5328 -0.1829
 2855poe     o212659   3.181   2.369   3.452 -0.1533 -0.3574  0.2518
 2855poe    c3112660   3.302   2.362   3.526 -0.0074 -0.5231 -0.0017
 2856poe    c3112661   0.376   6.288   4.890  0.1226  0.0043 -0.6376
 2856poe     o212662   0.247   6.250   4.933  0.2071 -0.0181 -0.4038
 2856poe    c2312663   0.179   6.372   4.948 -0.1754 -0.2175 -0.5192
 2856poe    c2312664   0.031   6.338   4.972  0.0165 -0.5475  0.2284
 2856poe     o212665  -0.003   6.248   5.075 -0.1507 -0.4182  0.2884
 2856poe    c2312666  -0.142   6.232   5.086 -0.2684  0.1916 -0.2472
 2856poe    c2312667  -0.179   6.180   5.226 -0.5535 -0.2760 -0.4913
 2856poe     o212668  -0.087   6.076   5.252 -0.2035  0.1317 -0.0924
 2856poe    c2312669  -0.111   6.026   5.382  0.0063 -0.0820 -0.1343
 2856poe    c2312670  -0.004   5.916   5.398  0.0249 -0.0234  0.1531
 2856poe     o212671   0.115   5.973   5.349 -0.0245  0.1579  0.2414
 2856poe    c3112672   0.221   5.882   5.369 -0.0408  0.2253  0.6297
 2857poe    c3112673   6.013   3.577   7.073  0.5567  0.5408  0.5712
 2857poe     o212674   6.111   3.661   7.018 -0.0393  0.6476 -0.3591
 2857poe    c2312675   6.223   3.644   7.102 -0.2352  0.0724 -0.2138
 2857poe    c2312676   6.324   3.755   7.067  0.4591 -0.4458  0.1081
 2857poe     o212677   6.361   3.757   6.930  0.6262 -0.0086  0.1591
 2857poe    c2312678   6.448   3.866   6.910  0.0782  0.5728  0.8426
 2857poe    c2312679   6.513   3.872   6.770  0.2790 -0.0776  0.9053
 2857poe     o212680   6.401   3.874   6.684  0.4681  0.3582  0.6689
 2857poe    c2312681   6.437   3.886   6.548  0.2622  0.3384  0.6120
 2857poe    c2312682   6.311   3.916   6.466  0.3786 -0.1936  0.2325
 2857poe     o212683   6.220   3.828   6.529  0.0460 -0.1032 -0.1145
 2857poe    c3112684   6.089   3.861   6.490 -0.0794 -0.4666 -0.0041
 2858poe    c3112685   0.030   6.992   3.281  0.3460  0.0023 -0.1267
 2858poe     o212686   0.112   7.077   3.357 -0.0000  0.4462 -0.2450
 2858poe    c2312687   0.222   7.020   3.426 -0.2419  0.7772  0.4216
 2858poe    c2312688   0.301   7.131   3.497  0.4925  0.3017  0.3513
 2858poe     o212689   0.369   7.225   3.417  0.3606  0.0210 -0.0940
 2858poe    c2312690   0.493   7.176   3.370  0.4649  0.3422 -0.1530
 2858poe    c2312691   0.570   7.278   3.284  0.2579  0.2687 -0.4273
 2858poe     o212692   0.496   7.333   3.177 -0.3674 -0.0735 -0.1772
 2858poe    c2312693   0.586   7.414   3.105 -0.1879 -0.3574 -0.2781
 2858poe    c2312694   0.541   7.466   2.967 -0.2432  0.2950 -0.0202
 2858poe     o212695   0.414   7.527   2.971 -0.3042  0.1483  0.2491
 2858poe    c3112696   0.373   7.573   2.845 -0.7874 -0.5672  0.1374
 2859poe    c3112697   2.952   5.603   1.480  0.6356  0.3436  0.1033
 2859poe     o212698   2.942   5.473   1.532  0.1319  0.3906  0.1244
 2859poe    c2312699   2.836   5.409   1.463  0.1806  0.1321  0.2861
 2859poe    c2312700   2.789   5.274   1.519  0.3776  0.2107  0.6494
 2859poe     o212701   2.885   5.171   1.528  0.2195 -0.0276 -0.2470
 2859poe    c2312702   2.816   5.050   1.505 -0.2326  0.1169  0.3195
 2859poe    c2312703   2.902   4.926   1.476 -0.2893  0.1011  0.2166
 2859poe     o212704   3.003   4.906   1.573  0.0688  0.1866 -0.1339
 2859poe    c2312705   3.082   4.792   1.550 -0.1425  0.0581 -0.2266
 2859poe    c2312706   3.188   4.779   1.662 -0.2673 -0.2360 -0.1432
 2859poe     o212707   3.132   4.731   1.782 -0.2385 -0.0098 -0.0403
 2859poe    c3112708   3.121   4.591   1.792  0.3270 -0.0505 -0.0065
 2860poe    c3112709   1.550   1.577   3.880 -0.0729 -0.0711  0.5599
 2860poe     o212710   1.527   1.641   4.003 -0.3337  0.1500  0.3991
 2860poe    c2312711   1.470   1.767   3.975 -0.0036  0.2656  0.2503
 2860poe    c2312712   1.395   1.824   4.096 -0.3232  0.1440  0.1099
 2860poe     o212713   1.276   1.762   4.139 -0.2897  0.1422  0.2002
 2860poe    c2312714   1.211   1.837   4.239 -0.3225  0.1084  0.2046
 2860poe    c2312715   1.070   1.778   4.261 -0.1620 -0.3616 -0.0172
 2860poe     o212716   1.077   1.638   4.245  0.4351 -0.3461  0.0863
 2860poe    c2312717   0.958   1.569   4.274  0.0251  0.1954 -0.2812
 2860poe    c2312718   1.011   1.426   4.248 -0.1484  0.0495  0.1433
 2860poe     o212719   1.097   1.426   4.136 -0.3070 -0.1014  0.0220
 2860poe    c3112720   1.146   1.298   4.104 -0.3711 -0.1527  0.1311
 2861poe    c3112721   1.697   2.813   2.506 -0.6723  0.1400  0.4723
 2861poe     o212722   1.656   2.947   2.499 -0.0896  0.3180  0.4093
 2861poe    c2312723   1.523   2.974   2.462  0.2931  0.6897 -0.7382
 2861poe    c2312724   1.504   3.117   2.516 -0.2478  0.4150 -0.1908
 2861poe     o212725   1.553   3.214   2.427 -0.2114  0.2622 -0.3383
 2861poe    c2312726   1.535   3.347   2.471  0.3405  0.0280  0.6032
 2861poe    c2312727   1.598   3.447   2.373  0.4305 -0.2673  0.3571
 2861poe     o212728   1.736   3.419   2.370  0.5126  0.1602  0.0759
 2861poe    c2312729   1.817   3.532   2.344 -0.2787  0.7585  0.1784
 2861poe    c2312730   1.965   3.498   2.367 -0.2805  0.3285 -0.4100
 2861poe     o212731   1.986   3.370   2.312 -0.4152  0.0205  0.2420
 2861poe    c3112732   2.121   3.342   2.285 -0.4527  0.1534 -0.1045
 2862poe    c3112733   4.723   1.201   3.594 -0.1982 -0.5069 -0.6552
 2862poe     o212734   4.845   1.137   3.624  0.1433  0.3242 -0.2571
 2862poe    c2312735   4.925   1.182   3.516 -0.0104  0.3080 -0.3793
 2862poe    c2312736   5.075   1.145   3.523 -0.1083 -0.0585 -0.1629
 2862poe     o212737   5.097   1.006   3.520  0.6177  0.0572 -0.5369
 2862poe    c2312738   5.200   0.978   3.612 -0.2914 -0.2075  0.4214
 2862poe    c2312739   5.218   0.830   3.652 -0.3579 -0.4098 -0.2859
 2862poe     o212740   5.114   0.783   3.734 -0.1487 -0.2628  0.0625
 2862poe    c2312741   5.102   0.642   3.730 -0.1216 -0.2706  0.2170
 2862poe    c2312742   5.021   0.587   3.849 -0.5581  0.5685  0.3195
 2862poe     o212743   5.092   0.578   3.970 -0.6149  0.6083  0.3553
 2862poe    c3112744   5.014   0.495   4.054 -0.0600  0.0848  0.3572
 2863poe    c3112745   2.530   4.686   5.450 -0.1906  0.1046 -0.1991
 2863poe     o212746   2.514   4.684   5.591 -0.1412  0.3413 -0.1899
 2863poe    c2312747   2.632   4.621   5.635 -0.2161  0.2990 -0.0503
 2863poe    c2312748   2.632   4.617   5.789  0.0243 -0.5020 -0.0627
 2863poe     o212749   2.644   4.741   5.856 -0.1251 -0.4152 -0.1964
 2863poe    c2312750   2.642   4.707   5.993 -0.1508 -0.0290 -0.0993
 2863poe    c2312751   2.691   4.812   6.094  0.0323 -0.2668  0.0592
 2863poe     o212752   2.628   4.934   6.064  0.2634 -0.1682 -0.0267
 2863poe    c2312753   2.661   5.040   6.151  0.0549  0.1426 -0.3196
 2863poe    c2312754   2.572   5.165   6.140  0.4865  0.4680 -0.1261
 2863poe     o212755   2.589   5.237   6.019 -0.0456  0.0281 -0.4702
 2863poe    c3112756   2.528   5.364   6.017  0.7414  0.4046 -0.8856
 2864poe    c3112757   1.072   2.948   2.347  0.2298  0.4133  0.3266
 2864poe     o212758   0.996   3.049   2.287 -0.2555 -0.2735 -0.2354
 2864poe    c2312759   0.957   3.144   2.384 -0.5690 -0.2036 -0.4283
 2864poe    c2312760   0.844   3.242   2.347 -0.1181  0.2246 -0.6889
 2864poe     o212761   0.716   3.182   2.349 -0.0877  0.1731  0.1913
 2864poe    c2312762   0.675   3.128   2.225 -0.5346  0.7380  0.0910
 2864poe    c2312763   0.529   3.079   2.232 -0.3544  0.1747 -0.0082
 2864poe     o212764   0.511   2.974   2.325 -0.0566  0.0710 -0.0681
 2864poe    c2312765   0.375   2.941   2.340 -0.0124 -0.4330 -0.7574
 2864poe    c2312766   0.359   2.818   2.430  0.0290 -0.0426 -0.2159
 2864poe     o212767   0.455   2.822   2.533 -0.1659  0.3554 -0.0463
 2864poe    c3112768   0.440   2.704   2.609  0.2321  0.3659  0.0520
 2865poe    c3112769   4.637   2.097   1.551  0.6814 -0.0303  0.3903
 2865poe     o212770   4.671   2.232   1.576  0.2618  0.1158  0.1773
 2865poe    c2312771   4.597   2.277   1.687  0.1418  0.1461  0.0848
 2865poe    c2312772   4.618   2.421   1.735 -0.0758  0.1385  0.2036
 2865poe     o212773   4.752   2.449   1.771  0.0796 -0.4366  0.0682
 2865poe    c2312774   4.785   2.581   1.736  0.1695 -0.5746 -0.3821
 2865poe    c2312775   4.937   2.604   1.745  0.0702  0.0836 -0.3316
 2865poe     o212776   5.011   2.501   1.683  0.0687 -0.0076 -0.1837
 2865poe    c2312777   5.148   2.527   1.699  0.0621  0.0586 -0.2310
 2865poe    c2312778   5.224   2.633   1.617 -0.3481  0.4289 -0.1330
 2865poe     o212779   5.247   2.602   1.481 -0.1566  0.3160 -0.0748
 2865poe    c3112780   5.304   2.712   1.414  0.3051  0.2756  0.2466
 2866poe    c3112781   6.744   0.981   4.491 -0.3261  0.1199 -0.3670
 2866poe     o212782   6.759   1.106   4.429  0.1905  0.5958  0.6857
 2866poe    c2312783   6.716   1.206   4.517 -0.2686  0.5375  0.5273
 2866poe    c2312784   6.678   1.336   4.444  0.1164  0.1864 -0.2993
 2866poe     o212785   6.787   1.406   4.387  0.5330  0.2130  0.5216
 2866poe    c2312786   6.733   1.528   4.344  0.0468 -0.4410 -0.7722
 2866poe    c2312787   6.834   1.633   4.293 -0.1493 -0.0913 -0.4513
 2866poe     o212788   6.844   1.622   4.152  0.2084  0.4292 -0.4687
 2866poe    c2312789   6.918   1.728   4.098 -0.3849  0.8908 -0.3832
 2866poe    c2312790   6.973   1.723   3.954 -0.0335  0.3749 -0.2326
 2866poe     o212791   6.878   1.704   3.851 -0.0621  0.0535 -0.1484
 2866poe    c3112792   6.944   1.666   3.732  0.3160  0.2314  0.0018
 2867poe    c3112793   0.188   3.817   1.117 -0.0341  0.2127  0.4304
 2867poe     o212794   0.265   3.908   1.042 -0.6211  0.3570  0.0003
 2867poe    c2312795   0.396   3.906   1.093 -0.5974  0.2228 -0.0650
 2867poe    c2312796   0.487   4.025   1.056 -0.1167 -0.1498 -0.1033
 2867poe     o212797   0.461   4.056   0.921  0.1921 -0.2569 -0.1879
 2867poe    c2312798   0.535   4.167   0.876  0.5870 -0.1628  0.6635
 2867poe    c2312799   0.578   4.138   0.731 -0.4868  0.1207  0.2762
 2867poe     o212800   0.468   4.149   0.643 -0.0048  0.1261 -0.3279
 2867poe    c2312801   0.494   4.086   0.519  0.2273 -0.4166 -0.0110
 2867poe    c2312802   0.378   4.104   0.419  0.1196 -0.2173  0.1489
 2867poe     o212803   0.262   4.034   0.454 -0.0347 -0.0445 -0.0102
 2867poe    c3112804   0.173   4.018   0.346 -0.1619  0.1660  0.0644
 2868poe    c3112805   3.402   4.272   3.180 -0.1202  0.0377  0.0588
 2868poe     o212806   3.301   4.368   3.159  0.1732  0.2429 -0.4419
 2868poe    c2312807   3.254   4.384   3.027  0.3218  0.0837 -0.5155
 2868poe    c2312808   3.164   4.509   3.024 -0.4222 -0.4156  0.3442
 2868poe     o212809   3.088   4.495   3.142 -0.4190 -0.5697  0.3276
 2868poe    c2312810   2.998   4.602   3.160 -0.0449 -0.2262  0.1774
 2868poe    c2312811   2.919   4.566   3.287 -0.2613 -0.0820  0.0842
 2868poe     o212812   3.024   4.513   3.365 -0.1947 -0.3372 -0.1770
 2868poe    c2312813   2.971   4.435   3.470  0.1442 -0.1181  0.1583
 2868poe    c2312814   3.102   4.386   3.535  0.0226 -0.5015  0.1142
 2868poe     o212815   3.192   4.333   3.440  0.4559  0.2199  0.1149
 2868poe    c3112816   3.268   4.246   3.521  0.6304  0.5157  0.2683
 2869poe    c3112817   0.207   5.512   6.733  0.1870 -0.2766 -0.0333
 2869poe     o212818   0.179   5.380   6.774  0.2215 -0.2876 -0.0448
 2869poe    c2312819   0.249   5.290   6.690  0.4450 -0.2721  0.1256
 2869poe    c2312820   0.292   5.169   6.775  0.3213 -0.5471 -0.2032
 2869poe     o212821   0.389   5.193   6.875 -0.0681  0.2754 -0.0189
 2869poe    c2312822   0.418   5.071   6.939 -0.6455  0.2673  0.2285
 2869poe    c2312823   0.531   5.091   7.042 -0.1946 -0.4409 -0.1229
 2869poe     o212824   0.479   5.173   7.145 -0.1779  0.0078 -0.4710
 2869poe    c2312825   0.589   5.216   7.221 -0.2131 -0.6240 -0.0604
 2869poe    c2312826   0.548   5.302   7.343  0.3848  0.1940 -0.4315
 2869poe     o212827   0.506   5.432   7.308 -0.0732  0.0478 -0.4300
 2869poe    c3112828   0.508   5.519   7.419 -0.7431  0.1203 -0.4743
 2870poe    c3112829   4.700   2.067   3.186 -0.1387 -0.8210  0.6717
 2870poe     o212830   4.656   2.113   3.312 -0.1594  0.3047  0.2597
 2870poe    c2312831   4.759   2.175   3.385  0.3343 -0.2843  0.0718
 2870poe    c2312832   4.691   2.265   3.490  0.3125 -0.2967  0.0689
 2870poe     o212833   4.614   2.367   3.432 -0.2060 -0.7054  0.0284
 2870poe    c2312834   4.702   2.476   3.416 -0.5559 -0.2998  0.7997
 2870poe    c2312835   4.624   2.589   3.346  0.0596 -0.2276  0.2147
 2870poe     o212836   4.516   2.634   3.426  0.1981 -0.0499  0.3009
 2870poe    c2312837   4.480   2.764   3.385  0.3210 -0.1360 -0.0868
 2870poe    c2312838   4.388   2.845   3.478 -0.1847 -0.7288 -0.0671
 2870poe     o212839   4.261   2.785   3.495 -0.4281 -0.1892  0.0537
 2870poe    c3112840   4.211   2.820   3.622 -0.1667 -0.4011  0.2165
 2871poe    c3112841   6.135   5.980   2.150  0.0251  0.1452 -0.5741
 2871poe     o212842   6.082   5.986   2.019 -0.1021  0.3562 -0.5119
 2871poe    c2312843   6.135   5.872   1.955 -0.2852  0.0820 -0.1828
 2871poe    c2312844   6.078   5.867   1.812 -0.3497 -0.3320 -0.1424
 2871poe     o212845   6.115   5.974   1.728  0.4180 -0.5092 -0.0386
 2871poe    c2312846   6.032   5.975   1.613  0.4040 -0.0741 -0.0260
 2871poe    c2312847   6.058   6.105   1.534  0.6569  0.0184  0.2050
 2871poe     o212848   6.030   6.224   1.603 -0.5699 -0.0171 -0.2092
 2871poe    c2312849   6.057   6.337   1.522 -0.0987 -0.2200 -0.3361
 2871poe    c2312850   6.046   6.460   1.614 -0.6433 -0.4495 -0.0866
 2871poe     o212851   6.118   6.437   1.733 -0.3291  0.3044 -0.1226
 2871poe    c3112852   6.148   6.545   1.817 -0.3387 -0.2366  0.5866
 2872poe    c3112853   1.102   2.437   4.923  0.2565  0.1235  0.1264
 2872poe     o212854   1.106   2.389   4.791 -0.0874 -0.6698  0.3947
 2872poe    c2312855   0.985   2.408   4.721  0.0813 -0.2718  0.2029
 2872poe    c2312856   0.989   2.335   4.586 -0.0358  0.0161  0.0438
 2872poe     o212857   1.093   2.385   4.505 -0.3983  0.1028 -0.3759
 2872poe    c2312858   1.114   2.315   4.384 -0.6585 -0.0780 -0.3167
 2872poe    c2312859   1.216   2.391   4.297  0.0327  0.1485  0.6778
 2872poe     o212860   1.334   2.408   4.373 -0.0165  0.3007  0.7185
 2872poe    c2312861   1.432   2.470   4.293  0.0438 -0.9527 -0.1944
 2872poe    c2312862   1.540   2.525   4.388 -0.1325 -0.8578 -0.0473
 2872poe     o212863   1.457   2.593   4.479  0.0262 -0.4860 -0.1771
 2872poe    c3112864   1.533   2.655   4.579 -0.5787 -0.4514  0.2673
 2873poe    c3112865   2.725   6.596   2.132  0.0420  0.2729 -0.1630
 2873poe     o212866   2.814   6.676   2.056 -0.0336  0.0720 -0.4649
 2873poe    c2312867   2.860   6.788   2.129 -0.1538  0.1556 -0.5177
 2873poe    c2312868   2.992   6.845   2.074  0.2197 -0.1047  0.1004
 2873poe     o212869   3.112   6.775   2.098  0.2710 -0.0136  0.1097
 2873poe    c2312870   3.208   6.866   2.049  0.0644  0.1576  0.0218
 2873poe    c2312871   3.341   6.827   2.116  0.1845  0.3110 -0.1267
 2873poe     o212872   3.347   6.686   2.109 -0.1250  0.2785  0.2041
 2873poe    c2312873   3.469   6.636   2.158  0.1495  0.0320 -0.7084
 2873poe    c2312874   3.468   6.482   2.172 -0.2432  0.0269 -0.7903
 2873poe     o212875   3.341   6.449   2.224  0.2635  0.1810  0.5938
 2873poe    c3112876   3.319   6.310   2.234 -0.1857  0.1739 -0.3957
 2874poe    c3112877   6.121   5.654   0.853  0.1706 -0.2618  0.0070
 2874poe     o212878   6.165   5.784   0.820 -0.2584 -0.1286 -0.0407
 2874poe    c2312879   6.215   5.788   0.688 -0.0097 -0.0440  0.0561
 2874poe    c2312880   6.264   5.932   0.663 -0.5515  0.0834 -0.2831
 2874poe     o212881   6.161   6.026   0.646 -0.6444  0.0988  0.3141
 2874poe    c2312882   6.182   6.094   0.524 -0.4158  0.0030  0.2994
 2874poe    c2312883   6.070   6.197   0.497 -0.2256  0.0451 -0.3453
 2874poe     o212884   6.023   6.279   0.602  0.3648 -0.0113 -0.0294
 2874poe    c2312885   5.939   6.381   0.553  0.0140 -0.2217  0.1269
 2874poe    c2312886   5.877   6.474   0.659 -0.4847  0.0057 -0.3562
 2874poe     o212887   5.766   6.425   0.731 -0.3211 -0.6927 -0.5707
 2874poe    c3112888   5.813   6.363   0.849 -0.6264  0.3853  0.1243
 2875poe    c3112889   5.475   2.148   5.147  0.8560 -0.0497  0.0408
 2875poe     o212890   5.493   2.288   5.136 -0.1543  0.0826  0.0346
 2875poe    c2312891   5.436   2.332   5.257 -0.7388  0.6200 -0.4310
 2875poe    c2312892   5.519   2.454   5.300 -0.7310  0.1185  1.0219
 2875poe     o212893   5.495   2.576   5.233  0.0542 -0.3516 -0.1412
 2875poe    c2312894   5.579   2.683   5.270 -0.0124 -0.3562  0.0253
 2875poe    c2312895   5.512   2.821   5.278  0.3954 -0.1643  0.1789
 2875poe     o212896   5.493   2.871   5.147 -0.2343 -0.1123  0.2858
 2875poe    c2312897   5.425   2.993   5.132 -0.4732 -0.2417  0.3113
 2875poe    c2312898   5.404   3.018   4.981  0.5190 -0.0858  0.1948
 2875poe     o212899   5.344   2.908   4.916  0.2754  0.1519  0.0160
 2875poe    c3112900   5.316   2.944   4.783 -0.4799 -0.0820  0.1035
 2876poe    c3112901   4.797   0.762   6.812  0.0309  0.2948  0.0164
 2876poe     o212902   4.666   0.815   6.807 -0.0242  0.1000 -0.6813
 2876poe    c2312903   4.572   0.730   6.869  0.6232 -0.1122  0.0335
 2876poe    c2312904   4.424   0.760   6.836  0.6309 -0.0580  0.0468
 2876poe     o212905   4.378   0.721   6.709  0.3312 -0.4600  0.2760
 2876poe    c2312906   4.312   0.596   6.713  0.0680 -0.3170  0.4307
 2876poe    c2312907   4.321   0.547   6.568 -0.0268  0.2009  0.2483
 2876poe     o212908   4.254   0.627   6.474 -0.0035 -0.2194 -0.1297
 2876poe    c2312909   4.205   0.567   6.356  0.0515 -0.4621 -0.0282
 2876poe    c2312910   4.232   0.657   6.235  0.1202 -0.6347 -0.1417
 2876poe     o212911   4.231   0.793   6.273  0.6192 -0.5284 -0.4935
 2876poe    c3112912   4.230   0.863   6.151  0.0784 -0.1826 -0.2956
 2877poe    c3112913   5.362   2.215   5.672  0.5028  0.2804 -0.2680
 2877poe     o212914   5.427   2.100   5.624  0.1274 -0.1639  0.2745
 2877poe    c2312915   5.565   2.109   5.652  0.2631  0.0276 -0.4259
 2877poe    c2312916   5.660   1.994   5.613  0.1415 -0.0792 -0.4096
 2877poe     o212917   5.704   1.998   5.479  0.2704  0.6872 -0.3498
 2877poe    c2312918   5.763   1.879   5.432  0.3810  0.3192  0.6876
 2877poe    c2312919   5.808   1.883   5.285 -0.7685  0.0080  0.3182
 2877poe     o212920   5.696   1.865   5.201 -0.4258  0.1442 -0.1776
 2877poe    c2312921   5.743   1.859   5.068  0.1618 -0.3414  0.0476
 2877poe    c2312922   5.641   1.851   4.953  0.1986  0.2504 -0.0295
 2877poe     o212923   5.576   1.970   4.914  0.0973  0.3350  0.3930
 2877poe    c3112924   5.474   1.935   4.824  0.3936 -0.3836  0.3222
 2878poe    c3112925   0.171   2.263   3.440  0.1508 -0.4065  0.2229
 2878poe     o212926   0.044   2.206   3.461 -0.1389  0.2461  0.2445
 2878poe    c2312927   0.041   2.085   3.389  0.1193  0.5345 -0.2520
 2878poe    c2312928  -0.059   1.977   3.434  0.4745  0.4372  0.3061
 2878poe     o212929  -0.175   2.048   3.469 -0.1416 -0.3427 -0.1150
 2878poe    c2312930  -0.279   1.962   3.509 -0.2671 -0.2304 -0.1970
 2878poe    c2312931  -0.387   2.056   3.566  0.2146 -0.1290  0.5608
 2878poe     o212932  -0.334   2.114   3.683 -0.0996 -0.0753  0.6774
 2878poe    c2312933  -0.421   2.211   3.735 -0.3087  0.1767 -0.1358
 2878poe    c2312934  -0.383   2.253   3.878  0.4231 -0.1503 -0.2298
 2878poe     o212935  -0.251   2.300   3.891  0.3815 -0.0542 -0.1481
 2878poe    c3112936  -0.200   2.246   4.011 -0.5399 -0.7528 -0.0564
 2879poe    c3112937   2.433   7.147   1.770  0.2761  0.1386  0.1118
 2879poe     o212938   2.296   7.173   1.751  0.2017 -0.2605  0.0765
 2879poe    c2312939   2.208   7.120   1.847 -0.6833 -0.1990 -0.6868
 2879poe    c2312940   2.121   7.010   1.781  0.1633 -0.8276 -0.7673
 2879poe     o212941   2.028   7.058   1.688  0.5114  0.3865 -0.5104
 2879poe    c2312942   1.969   6.945   1.627  0.3001  0.2442 -0.0473
 2879poe    c2312943   1.864   6.993   1.525  0.3212  0.1803 -0.0992
 2879poe     o212944   1.921   7.079   1.429  0.3793 -0.0625 -0.2841
 2879poe    c2312945   1.823   7.139   1.348  0.3932  0.3675  0.0164
 2879poe    c2312946   1.900   7.197   1.228  0.3119 -0.3311 -0.3762
 2879poe     o212947   2.010   7.265   1.284 -0.3420  0.4842 -0.0616
 2879poe    c3112948   2.097   7.328   1.193 -0.2514  0.1145 -0.2322
 2880poe    c3112949   2.655   5.909   6.064  0.2354 -0.3289  0.5624
 2880poe     o212950   2.576   5.982   6.156 -0.1559 -0.2733  0.1827
 2880poe    c2312951   2.443   5.997   6.112  0.0913  0.1984 -0.4333
 2880poe    c2312952   2.388   6.086   6.225 -0.1890 -0.0072 -0.4065
 2880poe     o212953   2.458   6.058   6.344 -0.4063 -0.9687 -0.4983
 2880poe    c2312954   2.380   6.083   6.459 -0.0927  0.0328 -0.4953
 2880poe    c2312955   2.461   6.163   6.563 -0.3556 -0.1176 -0.1753
 2880poe     o212956   2.587   6.102   6.582 -0.1264  0.4912  0.3098
 2880poe    c2312957   2.682   6.176   6.655  0.2132  0.1402  0.2283
 2880poe    c2312958   2.793   6.087   6.713 -0.2239 -0.6320 -0.0996
 2880poe     o212959   2.854   6.019   6.605  0.3631 -0.1993 -0.0469
 2880poe    c3112960   2.985   5.979   6.638  0.1686 -0.2742  0.6364
 2881poe    c3112961   6.300   3.746   5.185 -0.0880 -0.1321 -0.0837
 2881poe     o212962   6.267   3.862   5.258  0.0763 -0.1045 -0.0512
 2881poe    c2312963   6.138   3.842   5.311 -0.0522  0.4849 -0.1430
 2881poe    c2312964   6.092   3.978   5.367 -0.1675  0.5226 -0.3278
 2881poe     o212965   6.173   4.021   5.475  0.1726  0.4036 -0.5352
 2881poe    c2312966   6.123   4.135   5.540 -0.4412 -0.3147  0.2822
 2881poe    c2312967   6.196   4.150   5.675 -0.2043 -0.4586  0.1700
 2881poe     o212968   6.335   4.154   5.656 -0.2519 -0.7756 -0.2527
 2881poe    c2312969   6.405   4.136   5.777 -0.3060  0.4655 -0.0276
 2881poe    c2312970   6.554   4.140   5.738 -0.4168  0.4011 -0.4656
 2881poe     o212971   6.563   4.047   5.633  0.0656 -0.3174  0.2002
 2881poe    c3112972   6.698   4.005   5.638  0.0536 -0.4285 -0.3415
 2882poe    c3112973   0.633   1.284   6.057  0.2197  0.2302  0.1334
 2882poe     o212974   0.703   1.193   6.139  0.1934 -0.0664 -0.1684
 2882poe    c2312975   0.829   1.238   6.185  0.2142  0.0664 -0.3548
 2882poe    c2312976   0.872   1.164   6.312 -0.2278 -0.1902 -0.3533
 2882poe     o212977   0.769   1.170   6.409 -0.1546  0.5521 -0.3166
 2882poe    c2312978   0.797   1.076   6.510  0.3170  0.7267 -0.2815
 2882poe    c2312979   0.675   1.073   6.603  0.3788 -0.0687 -0.2151
 2882poe     o212980   0.551   1.058   6.537  0.1929  0.6094 -0.0358
 2882poe    c2312981   0.441   1.058   6.625  0.1159 -0.2011 -0.1183
 2882poe    c2312982   0.309   1.054   6.546  0.3605 -0.2011 -0.5292
 2882poe     o212983   0.250   1.179   6.517 -0.3048 -0.3386  0.2158
 2882poe    c3112984   0.160   1.161   6.410  0.6561 -0.0133 -0.6566
 2883poe    c3112985   1.368   0.261   2.014  0.4446  0.0146 -0.5850
 2883poe     o212986   1.372   0.396   1.974  0.1318  0.0988 -0.3348
 2883poe    c2312987   1.498   0.448   2.010 -0.0580  0.2276  0.1457
 2883poe    c2312988   1.535   0.570   1.924  0.4166 -0.0132  0.0057
 2883poe     o212989   1.444   0.676   1.944 -0.1072 -0.4274 -0.1454
 2883poe    c2312990   1.497   0.788   1.877  0.1070 -0.3465  0.1593
 2883poe    c2312991   1.443   0.927   1.914  0.3705 -0.3237  0.4702
 2883poe     o212992   1.313   0.941   1.860  0.2821  0.3090  0.8266
 2883poe    c2312993   1.315   0.975   1.723 -0.4377  0.3764  0.8328
 2883poe    c2312994   1.246   1.105   1.677 -0.3041  0.2738  0.3317
 2883poe     o212995   1.108   1.100   1.705 -0.3514  0.2288  0.0917
 2883poe    c3112996   1.032   1.203   1.647  0.3658  0.5142 -0.3526
 2884poe    c3112997   0.224   3.296   5.857 -0.3899 -0.4175 -0.1370
 2884poe     o212998   0.328   3.224   5.796 -0.0605  0.2064 -0.3282
 2884poe    c2312999   0.414   3.319   5.739 -0.0917  0.2161 -0.3589
 2884poe    c2313000   0.548   3.264   5.685 -0.0173  0.4359 -0.4010
 2884poe     o213001   0.552   3.159   5.591 -0.0222  0.2449 -0.1894
 2884poe    c2313002   0.685   3.116   5.570 -0.0789  0.1622 -0.3858
 2884poe    c2313003   0.699   3.026   5.446 -0.2394 -0.0560 -0.2460
 2884poe     o213004   0.675   3.099   5.327  0.0908 -0.1317 -0.3598
 2884poe    c2313005   0.712   3.019   5.217  0.1292 -0.1113 -0.3617
 2884poe    c2313006   0.727   3.109   5.094 -0.1114  0.4371  0.0058
 2884poe     o213007   0.607   3.155   5.035 -0.5039 -0.9550 -0.3092
 2884poe    c3113008   0.628   3.183   4.899 -0.5212 -0.5085 -0.2223
 2885poe    c3113009   0.779   4.068   0.117 -0.6104 -0.3841 -0.0218
 2885poe     o213010   0.714   4.192   0.136 -0.2694 -0.1472 -0.3718
 2885poe    c2313011   0.574   4.175   0.126 -0.3075  0.4070 -0.8372
 2885poe    c2313012   0.516   4.317   0.109  0.7766  1.0154  0.3692
 2885poe     o213013   0.532   4.375  -0.018  0.6233  0.4048  0.0681
 2885poe    c2313014   0.467   4.500  -0.017  0.1455  0.1641 -0.4034
 2885poe    c2313015   0.476   4.568  -0.155  0.1168  0.4392 -0.2700
 2885poe     o213016   0.402   4.503  -0.256  0.0396 -0.2225  0.2041
 2885poe    c2313017   0.354   4.597  -0.350 -0.1276 -0.3519  0.1615
 2885poe    c2313018   0.274   4.522  -0.459  0.2178  0.0945 -0.4017
 2885poe     o213019   0.346   4.418  -0.522  0.2510 -0.3017  0.2731
 2885poe    c3113020   0.271   4.305  -0.560 -0.8254  0.4370  0.1535
 2886poe    c3113021   3.634   4.413   2.911 -0.4619 -0.2386  0.1128
 2886poe     o213022   3.525   4.408   2.822 -0.1411 -0.0065 -0.2962
 2886poe    c2313023   3.565   4.474   2.704 -0.1517 -0.5572 -0.6133
 2886poe    c2313024   3.457   4.459   2.596 -0.4509 -0.1501 -0.3753
 2886poe     o213025   3.339   4.531   2.622 -0.2118  0.2967 -0.5216
 2886poe    c2313026   3.234   4.452   2.572 -0.2946 -0.3009  0.5657
 2886poe    c2313027   3.111   4.544   2.584 -0.2690 -0.1942  0.0233
 2886poe     o213028   3.117   4.658   2.500 -0.2553 -0.1811  0.0413
 2886poe    c2313029   3.033   4.757   2.555  0.2478 -0.0623  0.6053
 2886poe    c2313030   3.038   4.895   2.487 -0.3421 -0.3952 -0.1226
 2886poe     o213031   3.151   4.977   2.503 -0.1512 -0.6903  0.0487
 2886poe    c3113032   3.121   5.113   2.483  0.7003 -0.4524  0.3427
 2887poe    c3113033   5.079   3.743   5.238  0.2737 -0.8431  0.0515
 2887poe     o213034   4.968   3.789   5.311  0.1702  0.3038 -0.7975
 2887poe    c2313035   4.938   3.924   5.280  0.3541  0.4411 -0.3980
 2887poe    c2313036   4.787   3.946   5.295  0.2350 -0.4373 -0.2650
 2887poe     o213037   4.718   3.864   5.204 -0.2789 -0.0225 -0.2563
 2887poe    c2313038   4.583   3.883   5.239 -0.2163 -0.4606  0.2389
 2887poe    c2313039   4.491   3.795   5.151  0.2005 -0.1466 -0.5222
 2887poe     o213040   4.565   3.677   5.129  0.2542 -0.1793 -0.1677
 2887poe    c2313041   4.473   3.577   5.093  0.1625 -0.0432 -0.3104
 2887poe    c2313042   4.553   3.446   5.083 -0.0232 -0.1342 -0.6454
 2887poe     o213043   4.573   3.379   5.206  0.3639  0.1178 -0.5686
 2887poe    c3113044   4.669   3.277   5.201  0.4867  0.2182 -0.2713
 2888poe    c3113045   1.894   1.166   4.473 -0.2679 -0.1742 -0.9157
 2888poe     o213046   1.881   1.305   4.459 -0.2627 -0.0820 -0.0745
 2888poe    c2313047   1.750   1.350   4.483  0.0559  0.6744  0.2819
 2888poe    c2313048   1.744   1.503   4.461  0.0797  0.6866  0.3581
 2888poe     o213049   1.798   1.540   4.336 -0.2042  0.0820  0.0538
 2888poe    c2313050   1.845   1.672   4.342 -0.0231  0.0315 -0.2424
 2888poe    c2313051   1.934   1.704   4.220 -0.2432  0.3286 -0.3278
 2888poe     o213052   2.065   1.654   4.231 -0.4415 -0.3073 -0.7488
 2888poe    c2313053   2.168   1.734   4.177 -0.1557 -0.1064  0.0699
 2888poe    c2313054   2.307   1.676   4.208 -0.0661  0.1266  0.1094
 2888poe     o213055   2.315   1.649   4.347  0.2259  0.0801  0.0842
 2888poe    c3113056   2.414   1.557   4.386  0.4170  0.5291  0.6753
 2889poe    c3113057   2.829   1.526   3.381 -0.4048  0.3513 -0.3344
 2889poe     o213058   2.777   1.548   3.252 -0.0175  0.3978 -0.4824
 2889poe    c2313059   2.638   1.527   3.264  0.1191 -0.3898 -0.1773
 2889poe    c2313060   2.573   1.516   3.125 -0.1538 -0.1113 -0.0746
 2889poe     o213061   2.608   1.404   3.047  0.8607  0.2671 -0.1803
 2889poe    c2313062   2.567   1.401   2.912  0.2757 -0.7592  0.0084
 2889poe    c2313063   2.608   1.509   2.810  0.2851 -0.1538  0.6462
 2889poe     o213064   2.745   1.542   2.814  0.3965 -0.5072 -0.1365
 2889poe    c2313065   2.763   1.646   2.720 -0.4326 -0.1520  0.0911
 2889poe    c2313066   2.910   1.679   2.689 -0.5604  0.0433 -0.3160
 2889poe     o213067   2.967   1.670   2.818 -0.3746  0.3491 -0.3760
 2889poe    c3113068   3.091   1.736   2.805 -0.0211 -0.2686 -0.1677
 2890poe    c3113069   4.640   5.344   2.110 -0.2130  0.2471  0.0249
 2890poe     o213070   4.656   5.461   2.033  0.3083  0.1944  0.0465
 2890poe    c2313071   4.702   5.569   2.111  0.3914  0.1693  0.0319
 2890poe    c2313072   4.692   5.709   2.048 -0.0707 -0.2280 -0.7903
 2890poe     o213073   4.562   5.751   2.015 -0.2640  0.5768  0.9020
 2890poe    c2313074   4.571   5.845   1.910  0.0174  0.1213  0.5155
 2890poe    c2313075   4.444   5.930   1.891  0.0426  0.0656  0.0915
 2890poe     o213076   4.327   5.854   1.871 -0.1251  0.2920  0.2087
 2890poe    c2313077   4.295   5.838   1.735 -0.2293  0.2099  0.2427
 2890poe    c2313078   4.222   5.950   1.659 -0.0936 -0.3215 -0.6879
 2890poe     o213079   4.302   6.066   1.660  0.0926 -0.4497  0.1697
 2890poe    c3113080   4.228   6.166   1.594  0.8306  0.1936  0.3059
 2891poe    c3113081   5.223   3.154   3.363 -0.0054  0.1164 -0.6414
 2891poe     o213082   5.319   3.057   3.399 -0.5586 -0.4332 -0.6272
 2891poe    c2313083   5.323   2.952   3.306  0.5720 -0.2858 -0.7654
 2891poe    c2313084   5.432   2.844   3.316  0.4472 -0.3356  0.1981
 2891poe     o213085   5.432   2.804   3.451  0.0919 -0.3145  0.2060
 2891poe    c2313086   5.541   2.720   3.483  0.1990 -0.2648 -0.0266
 2891poe    c2313087   5.558   2.716   3.636  0.1199  0.2959 -0.0002
 2891poe     o213088   5.579   2.840   3.700  0.5032  0.1625  0.1395
 2891poe    c2313089   5.584   2.818   3.839 -0.4981 -0.1853  0.1326
 2891poe    c2313090   5.612   2.938   3.932 -0.2560 -0.1534  0.0189
 2891poe     o213091   5.522   3.047   3.922 -0.2353 -0.1360  0.0234
 2891poe    c3113092   5.532   3.100   4.052  0.0886 -0.2964  0.0664
 2892poe    c3113093   0.710   6.146   3.656  0.0750 -0.4212  0.0718
 2892poe     o213094   0.755   6.276   3.688 -0.2585 -0.3234  0.1525
 2892poe    c2313095   0.767   6.333   3.560 -0.3818 -0.2700  0.1644
 2892poe    c2313096   0.805   6.482   3.578  0.2589 -0.3499 -0.4503
 2892poe     o213097   0.924   6.503   3.650 -0.2174 -0.2380  0.3264
 2892poe    c2313098   0.927   6.628   3.714  0.4157 -0.1114  0.0570
 2892poe    c2313099   1.065   6.661   3.775  0.0663  0.4387  0.5652
 2892poe     o213100   1.112   6.533   3.814 -0.3547  0.1962  0.2792
 2892poe    c2313101   1.249   6.542   3.843 -0.2005 -0.4256 -0.2183
 2892poe    c2313102   1.279   6.404   3.904 -0.4735 -0.2325  0.3609
 2892poe     o213103   1.216   6.307   3.825 -0.2697 -0.1348  0.0773
 2892poe    c3113104   1.251   6.175   3.858  0.4600 -0.0495 -0.3464
 2893poe    c3113105   0.481   2.503   1.711 -0.2081  0.2416 -0.4364
 2893poe     o213106   0.502   2.378   1.650 -0.2100 -0.0387  0.1310
 2893poe    c2313107   0.626   2.368   1.583 -0.1932 -0.0926  0.1701
 2893poe    c2313108   0.629   2.228   1.519 -0.0810 -0.2270  0.4641
 2893poe     o213109   0.647   2.127   1.616  0.1903 -0.4330  0.2015
 2893poe    c2313110   0.679   1.999   1.567 -0.0249 -0.0957 -0.8639
 2893poe    c2313111   0.831   1.973   1.570 -0.0779 -0.3411 -0.0683
 2893poe     o213112   0.892   1.962   1.697  0.1019 -0.0115 -0.1235
 2893poe    c2313113   1.016   1.895   1.689 -0.0853 -0.3348 -0.3730
 2893poe    c2313114   1.079   1.920   1.828  0.4832  0.0438 -0.6962
 2893poe     o213115   1.095   2.059   1.843 -0.5051  0.0342  0.5135
 2893poe    c3113116   1.198   2.085   1.936  0.1622 -0.6113 -0.0415
 2894poe    c3113117   0.494   0.479   2.116 -0.1021  0.0751 -0.1593
 2894poe     o213118   0.449   0.610   2.090 -0.5524 -0.0695 -0.1301
 2894poe    c2313119   0.475   0.678   2.210  0.3810  0.2031 -0.4753
 2894poe    c2313120   0.452   0.830   2.201 -0.0272  0.1554 -0.2843
 2894poe     o213121   0.541   0.891   2.110  0.2965  0.2674  0.1024
 2894poe    c2313122   0.484   1.012   2.067 -0.3343 -0.1753 -0.3241
 2894poe    c2313123   0.579   1.092   1.975 -0.3826  0.1963 -0.0531
 2894poe     o213124   0.608   1.017   1.859 -0.7743  0.2499 -0.1860
 2894poe    c2313125   0.638   1.103   1.752  0.6232 -0.0667 -0.0651
 2894poe    c2313126   0.643   1.017   1.624  0.0750  0.3376 -0.3630
 2894poe     o213127   0.744   0.919   1.629  0.4169  0.7125  0.1951
 2894poe    c3113128   0.735   0.838   1.514  0.8244  0.0579  0.6203
 2895poe    c3113129   5.031   3.789   6.945 -0.0765 -0.0907 -0.0570
 2895poe     o213130   5.074   3.911   7.003  0.4151  0.0828 -0.7770
 2895poe    c2313131   4.955   3.982   7.026  0.5435 -0.0158  0.2274
 2895poe    c2313132   4.990   4.125   6.982 -0.2834  0.1070 -0.0648
 2895poe     o213133   5.082   4.198   7.061 -0.4347 -0.0971  0.3025
 2895poe    c2313134   5.125   4.310   6.987 -0.8678 -0.2006 -0.1114
 2895poe    c2313135   5.199   4.406   7.082 -0.3971 -0.2385 -0.4345
 2895poe     o213136   5.294   4.316   7.136 -0.1054  0.1089 -0.3666
 2895poe    c2313137   5.371   4.391   7.227  0.3138 -0.6987 -0.0517
 2895poe    c2313138   5.497   4.304   7.245  0.5656 -0.4196 -0.4549
 2895poe     o213139   5.457   4.173   7.280  0.1549 -0.2463 -0.2751
 2895poe    c3113140   5.571   4.092   7.296  0.1648 -0.1520  0.1499
 2896poe    c3113141   3.215   4.474   5.140 -0.5652  0.1774  0.1355
 2896poe     o213142   3.292   4.381   5.212 -0.4154 -0.0343 -0.2904
 2896poe    c2313143   3.238   4.356   5.340 -0.1839  0.4815 -0.0908
 2896poe    c2313144   3.261   4.207   5.370  0.2772  0.4424 -0.6319
 2896poe     o213145   3.398   4.187   5.346  0.2818 -0.4652  0.0702
 2896poe    c2313146   3.444   4.054   5.353 -0.1061 -0.6018 -0.0018
 2896poe    c2313147   3.595   4.055   5.327 -0.1802  0.4046 -0.4554
 2896poe     o213148   3.636   4.162   5.245 -0.2697  0.3955 -0.5121
 2896poe    c2313149   3.776   4.169   5.229 -0.2128  0.2687 -0.0897
 2896poe    c2313150   3.820   4.257   5.111  0.0019  0.2291 -0.0382
 2896poe     o213151   3.781   4.391   5.130 -0.0508  0.2116 -0.0216
 2896poe    c3113152   3.821   4.480   5.028 -0.4843  0.7001  0.2291
 2897poe    c3113153   4.611   6.645   3.622  0.3426  0.3595 -0.3575
 2897poe     o213154   4.740   6.699   3.600  0.6303 -0.1406  0.0819
 2897poe    c2313155   4.780   6.700   3.465 -0.1975 -0.0852 -0.1670
 2897poe    c2313156   4.916   6.764   3.434 -0.1332 -0.1030  0.0786
 2897poe     o213157   4.934   6.895   3.482  0.0651 -0.0970 -0.0115
 2897poe    c2313158   4.882   7.000   3.404  0.1925 -0.1448 -0.1616
 2897poe    c2313159   4.988   7.109   3.380  0.1069 -0.0556 -0.1365
 2897poe     o213160   5.027   7.179   3.497  0.3126 -0.1862 -0.1261
 2897poe    c2313161   5.110   7.286   3.458  0.3287  0.0432  0.5342
 2897poe    c2313162   5.142   7.380   3.576  0.4538  0.4465  0.1809
 2897poe     o213163   5.211   7.313   3.679  0.8179  0.4501 -0.0575
 2897poe    c3113164   5.187   7.391   3.795  0.2444  0.8384 -0.4283
 2898poe    c3113165   6.338   4.739   5.282  0.0401 -0.0702 -0.2052
 2898poe     o213166   6.298   4.651   5.179  0.3846 -0.5680  0.0793
 2898poe    c2313167   6.240   4.535   5.234  0.2475 -0.5668 -0.0629
 2898poe    c2313168   6.228   4.425   5.126 -0.9645 -0.2671 -0.2520
 2898poe     o213169   6.348   4.352   5.110 -0.5925  0.2877 -0.0383
 2898poe    c2313170   6.318   4.229   5.047 -0.1954  0.3783 -0.4052
 2898poe    c2313171   6.450   4.154   5.020 -0.2583 -0.0629  0.4857
 2898poe     o213172   6.516   4.087   5.126  0.0527 -0.1452  0.2417
 2898poe    c2313173   6.600   3.988   5.073  0.0822  0.1327 -0.2364
 2898poe    c2313174   6.691   3.920   5.177 -0.2213 -0.5805 -0.4286
 2898poe     o213175   6.623   3.865   5.288  0.1353  0.1456  0.1587
 2898poe    c3113176   6.710   3.776   5.354  0.1827  0.1869  0.1513
 2899poe    c3113177   1.283   3.207   2.998 -0.0945  0.2171  0.0299
 2899poe     o213178   1.188   3.227   3.099  0.2494  0.4038  0.3186
 2899poe    c2313179   1.093   3.123   3.090 -0.4036  0.9870  0.3324
 2899poe    c2313180   0.955   3.149   3.153 -0.5111 -0.5170  0.7447
 2899poe     o213181   0.962   3.175   3.291 -0.3933 -0.4334  0.7231
 2899poe    c2313182   0.830   3.208   3.329 -0.4973  0.0463 -0.0319
 2899poe    c2313183   0.829   3.219   3.483 -0.0474 -0.3457  0.0017
 2899poe     o213184   0.942   3.285   3.533 -0.4055  0.0470  0.3010
 2899poe    c2313185   0.949   3.299   3.673  0.2574  0.0774  0.2709
 2899poe    c2313186   1.061   3.402   3.700  0.2767  0.2365 -0.3926
 2899poe     o213187   1.179   3.370   3.630  0.1930 -0.1232 -0.3719
 2899poe    c3113188   1.271   3.471   3.662 -0.0717  0.1713 -0.5347
 2900poe    c3113189   0.186   0.739   2.504 -0.0482 -0.3173 -0.3951
 2900poe     o213190   0.093   0.826   2.442  0.1526  0.2808  0.1320
 2900poe    c2313191   0.029   0.754   2.339  0.1221  0.2574  0.1672
 2900poe    c2313192  -0.051   0.838   2.238  0.2198  0.4736  0.2703
 2900poe     o213193  -0.176   0.882   2.286  0.1378 -0.1434  0.6290
 2900poe    c2313194  -0.272   0.783   2.317  0.0719 -0.2578  0.0826
 2900poe    c2313195  -0.383   0.833   2.412  0.1117 -0.0025 -0.0063
 2900poe     o213196  -0.326   0.865   2.537 -0.1917 -0.1603  0.1715
 2900poe    c2313197  -0.424   0.917   2.624 -0.2761 -0.7082  0.4093
 2900poe    c2313198  -0.383   0.929   2.772 -0.5877 -0.0360  0.4443
 2900poe     o213199  -0.277   1.017   2.804 -0.3696 -0.1568  0.0550
 2900poe    c3113200  -0.251   0.993   2.940 -0.3706  0.7890  0.2264
 2901poe    c3113201   3.062   6.448   6.465  0.2682 -0.4444 -0.3713
 2901poe     o213202   3.140   6.336   6.432  0.2148 -0.5433 -0.1637
 2901poe    c2313203   3.119   6.313   6.294  0.0582  1.1400 -0.4376
 2901poe    c2313204   3.224   6.366   6.196  0.5398 -0.2569 -0.6995
 2901poe     o213205   3.229   6.507   6.189  0.1690 -0.1984  0.1422
 2901poe    c2313206   3.130   6.573   6.113  0.5386  0.0877 -0.0932
 2901poe    c2313207   3.169   6.561   5.965 -0.3690  0.2335 -0.3492
 2901poe     o213208   3.295   6.614   5.931 -0.1090 -0.0373  0.1803
 2901poe    c2313209   3.308   6.596   5.792  0.1554 -0.5521  0.2708
 2901poe    c2313210   3.456   6.593   5.748  0.0287  0.0349 -0.2187
 2901poe     o213211   3.522   6.717   5.739  0.0450  0.0379 -0.0654
 2901poe    c3113212   3.652   6.702   5.688  0.2207  0.2017  0.3306
 2902poe    c3113213   1.911   6.749   6.565  0.1634 -0.2306 -0.0393
 2902poe     o213214   1.806   6.843   6.570  0.3186 -0.0657  0.1107
 2902poe    c2313215   1.866   6.969   6.593 -0.3855  0.2429  0.2784
 2902poe    c2313216   1.820   7.040   6.721  0.4424  0.7728  0.2884
 2902poe     o213217   1.683   7.075   6.718  0.2771  0.1183  0.1327
 2902poe    c2313218   1.649   7.183   6.802 -0.2212  0.0261  0.0513
 2902poe    c2313219   1.504   7.179   6.853 -0.1675  0.2661  0.2216
 2902poe     o213220   1.478   7.055   6.916  0.2344  0.0402 -0.0539
 2902poe    c2313221   1.347   7.045   6.968  0.1190 -0.0117 -0.3534
 2902poe    c2313222   1.302   6.898   6.967 -0.6271  0.2108 -0.0835
 2902poe     o213223   1.305   6.854   6.833  0.1745 -0.5020  0.1632
 2902poe    c3113224   1.233   6.736   6.802  0.3648 -0.6089  0.1251
 2903poe    c3113225   5.442   1.188   1.341 -0.3082  0.0420  0.1911
 2903poe     o213226   5.403   1.218   1.209 -0.1233 -0.3371  0.0491
 2903poe    c2313227   5.516   1.220   1.125 -0.0740 -0.4108  0.1139
 2903poe    c2313228   5.494   1.241   0.974  0.0862  0.2372  0.1763
 2903poe     o213229   5.448   1.130   0.900  0.5869  0.3168 -0.2557
 2903poe    c2313230   5.430   1.159   0.763 -0.1932  0.2391 -0.1728
 2903poe    c2313231   5.374   1.035   0.692 -0.6231  0.3465 -0.0254
 2903poe     o213232   5.240   1.010   0.729 -0.5889  0.1579 -0.0285
 2903poe    c2313233   5.185   0.922   0.634  0.1612 -0.3086 -0.0427
 2903poe    c2313234   5.043   0.873   0.671  0.1534 -0.2442  0.0122
 2903poe     o213235   4.946   0.973   0.651  0.1005 -0.2611  0.1772
 2903poe    c3113236   4.830   0.920   0.711 -0.5098  0.0564 -0.7037
 2904poe    c3113237   4.134   6.557   3.172 -0.0241  0.4816 -0.2888
 2904poe     o213238   4.106   6.693   3.151 -0.6177  0.4424  0.2408
 2904poe    c2313239   4.150   6.741   3.026 -0.5490 -0.5096 -0.1045
 2904poe    c2313240   4.126   6.893   3.022  0.0007 -0.4119  0.2401
 2904poe     o213241   3.991   6.933   3.025  0.0928 -0.0142 -0.5040
 2904poe    c2313242   3.990   7.073   3.014 -0.0297  0.0814  0.6271
 2904poe    c2313243   3.846   7.120   2.987  0.0642 -0.1053 -0.2268
 2904poe     o213244   3.758   7.053   3.074  0.1346  0.9212  0.6535
 2904poe    c2313245   3.638   7.126   3.093 -0.0418  0.6394  0.6357
 2904poe    c2313246   3.548   7.054   3.195  0.0253 -0.3537  0.0024
 2904poe     o213247   3.596   7.064   3.327 -0.2444 -0.2712  0.0939
 2904poe    c3113248   3.528   6.969   3.407 -0.0740 -0.4479  0.0295
 2905poe    c3113249   5.666   0.196   6.262 -0.5045 -0.3247 -0.0570
 2905poe     o213250   5.736   0.101   6.339  0.1540  0.6076  0.5151
 2905poe    c2313251   5.652   0.013   6.410 -0.2060  0.2483 -0.3477
 2905poe    c2313252   5.738  -0.110   6.445 -0.1912  0.3493 -0.0237
 2905poe     o213253   5.817  -0.091   6.560 -0.2287 -0.5012  0.1478
 2905poe    c2313254   5.882  -0.207   6.607  0.0108 -0.3710  0.1399
 2905poe    c2313255   5.946  -0.187   6.745  0.2415 -0.5839  0.0649
 2905poe     o213256   6.066  -0.113   6.745  0.1412 -0.4192 -0.1008
 2905poe    c2313257   6.113  -0.107   6.878  0.2224  0.1134 -0.1526
 2905poe    c2313258   6.267  -0.096   6.877  0.2046  0.3533 -0.1747
 2905poe     o213259   6.327  -0.218   6.843 -0.0908  0.2899 -0.4770
 2905poe    c3113260   6.466  -0.208   6.820 -0.0182 -0.0466 -0.1986
 2906poe    c3113261   4.184   2.846   0.639 -0.0420 -0.4321 -0.0841
 2906poe     o213262   4.220   2.712   0.615 -0.0644 -0.4036 -0.2808
 2906poe    c2313263   4.296   2.706   0.496  0.2452  0.0699 -0.1090
 2906poe    c2313264   4.343   2.561   0.471 -0.1622 -0.0459 -0.2109
 2906poe     o213265   4.236   2.472   0.451 -0.2851  0.1031 -0.2181
 2906poe    c2313266   4.274   2.344   0.407  0.0773  0.0791  0.1629
 2906poe    c2313267   4.200   2.230   0.479  0.2644 -0.1036  0.0705
 2906poe     o213268   4.060   2.232   0.458  0.2563 -0.2544  0.1075
 2906poe    c2313269   4.003   2.117   0.517  0.0136 -0.3243 -0.2646
 2906poe    c2313270   3.849   2.125   0.510  0.0047  0.0954  0.3039
 2906poe     o213271   3.775   2.240   0.545  0.0550  0.3010 -0.2478
 2906poe    c3113272   3.651   2.242   0.477 -0.1475  0.3387  0.1229
 2907poe    c3113273   6.034   6.421   5.557 -0.0230 -0.3047  0.2773
 2907poe     o213274   5.965   6.515   5.637 -0.1674 -0.6010  0.5049
 2907poe    c2313275   6.057   6.580   5.722 -0.4190 -0.2985  0.5483
 2907poe    c2313276   5.991   6.678   5.820 -0.6022  0.3018 -0.1623
 2907poe     o213277   5.935   6.592   5.918  0.3958  0.4801  0.5804
 2907poe    c2313278   5.812   6.632   5.973  0.3567 -0.0928  0.9114
 2907poe    c2313279   5.751   6.519   6.059 -0.3644 -0.1996  0.2735
 2907poe     o213280   5.679   6.428   5.979 -0.5818  0.3988 -0.2221
 2907poe    c2313281   5.610   6.323   6.044  0.4877 -0.5777 -0.6315
 2907poe    c2313282   5.496   6.269   5.954 -0.3173  0.0353  0.0019
 2907poe     o213283   5.554   6.211   5.839  0.4735  0.2309  0.2925
 2907poe    c3113284   5.463   6.212   5.732  0.7755  0.7267  0.0388
 2908poe    c3113285   5.928   6.712   3.443 -0.5798 -0.3369 -0.2140
 2908poe     o213286   5.890   6.791   3.554 -0.1858  0.1473 -0.4239
 2908poe    c2313287   5.980   6.754   3.656 -0.0055  0.3296 -0.5148
 2908poe    c2313288   5.934   6.819   3.789 -0.1519  0.0098 -0.4087
 2908poe     o213289   5.931   6.959   3.803  0.2145  0.0182 -0.4171
 2908poe    c2313290   5.852   6.999   3.912  0.7081 -0.1129 -0.0078
 2908poe    c2313291   5.826   7.150   3.922 -0.4960 -0.3182  0.1475
 2908poe     o213292   5.755   7.184   3.805  0.0012  0.0945 -0.0364
 2908poe    c2313293   5.643   7.269   3.814 -0.1182 -0.0972  0.2749
 2908poe    c2313294   5.591   7.300   3.673  0.1885  0.3899  0.2684
 2908poe     o213295   5.694   7.314   3.577 -0.0758 -0.1842 -0.1070
 2908poe    c3113296   5.654   7.355   3.448  0.3947  0.0549 -0.1816
 2909poe    c3113297   5.581   5.228   4.275 -0.4896 -0.1539  0.0541
 2909poe     o213298   5.680   5.141   4.227 -0.2894 -0.2620  0.6522
 2909poe    c2313299   5.775   5.114   4.328  0.0399 -0.5440  0.2742
 2909poe    c2313300   5.906   5.063   4.266 -0.2164 -0.2795 -0.4937
 2909poe     o213301   5.876   4.982   4.154  0.0378 -0.7563 -0.2237
 2909poe    c2313302   5.991   4.966   4.074  0.2016 -0.8133  0.0226
 2909poe    c2313303   5.956   4.903   3.938  0.0714 -0.1269 -0.2685
 2909poe     o213304   5.831   4.950   3.894  0.2812  0.3966 -0.3023
 2909poe    c2313305   5.798   4.908   3.764 -0.2128  0.0726 -0.0738
 2909poe    c2313306   5.659   4.932   3.701  0.2762  0.2071 -1.1172
 2909poe     o213307   5.620   5.067   3.708 -0.0869  0.0694 -0.4851
 2909poe    c3113308   5.637   5.119   3.578 -0.0294  0.2130 -0.4213
 2910poe    c3113309   1.262   2.202   2.791  0.4245 -0.1711 -0.4186
 2910poe     o213310   1.388   2.142   2.771  0.7847  0.3185  0.3300
 2910poe    c2313311   1.375   2.018   2.705  0.2607  1.0241 -0.9316
 2910poe    c2313312   1.505   1.983   2.632  0.4024 -0.3426 -0.0555
 2910poe     o213313   1.540   2.096   2.555 -0.7428  0.0385 -0.0253
 2910poe    c2313314   1.640   2.075   2.458  0.2287  0.4487  0.8604
 2910poe    c2313315   1.698   2.212   2.417  0.2313  0.0998 -0.3459
 2910poe     o213316   1.771   2.274   2.520 -0.2395 -0.3496  0.2671
 2910poe    c2313317   1.779   2.412   2.494 -0.0250 -0.4090  0.0173
 2910poe    c2313318   1.836   2.490   2.615  0.3057 -0.6281  0.0033
 2910poe     o213319   1.755   2.479   2.730 -0.1579  0.4789 -0.2103
 2910poe    c3113320   1.807   2.570   2.825  0.4942  0.2990 -0.3913
 2911poe    c3113321   0.534   6.164   2.850  0.0024  0.3538  0.1341
 2911poe     o213322   0.467   6.186   2.728 -0.2490  0.1576  0.2362
 2911poe    c2313323   0.432   6.319   2.699 -0.9808 -0.1445 -0.3005
 2911poe    c2313324   0.393   6.355   2.554 -0.3686  0.6019 -0.2900
 2911poe     o213325   0.503   6.370   2.467  0.1210  0.4330  0.2944
 2911poe    c2313326   0.446   6.387   2.339 -0.2886 -0.1699  0.3908
 2911poe    c2313327   0.563   6.393   2.238 -0.8220  0.0057 -0.2205
 2911poe     o213328   0.630   6.273   2.210 -0.0138  0.3230  0.3217
 2911poe    c2313329   0.760   6.285   2.155 -0.1123 -0.0881 -0.0117
 2911poe    c2313330   0.801   6.146   2.103 -0.3629 -0.2057  0.0996
 2911poe     o213331   0.860   6.055   2.193 -0.0390  0.1384  0.2384
 2911poe    c3113332   0.889   5.933   2.128 -0.1047  0.3071 -0.1121
 2912poe    c3113333   4.096   3.861   5.446  0.1556 -0.0268  0.3852
 2912poe     o213334   4.055   3.960   5.538  0.7586  0.2421  0.3749
 2912poe    c2313335   4.070   3.904   5.667 -0.1467 -0.1435  0.3237
 2912poe    c2313336   4.166   3.994   5.747 -0.0820  0.0974 -0.0198
 2912poe     o213337   4.100   4.118   5.732 -0.0506  0.1507  0.2807
 2912poe    c2313338   4.154   4.212   5.823 -0.2482  0.5631 -0.0231
 2912poe    c2313339   4.063   4.332   5.857 -0.0172  0.7257  0.0199
 2912poe     o213340   4.042   4.404   5.738 -0.1817 -0.2885 -0.5788
 2912poe    c2313341   3.923   4.477   5.758 -0.0903 -0.2811 -0.0438
 2912poe    c2313342   3.893   4.578   5.646 -0.1512 -0.0089  0.2193
 2912poe     o213343   3.850   4.518   5.527  0.1910  0.0719  0.0539
 2912poe    c3113344   3.864   4.618   5.428 -0.2895 -0.5081 -0.6158
 2913poe    c3113345   2.517   4.084   2.075  0.2862 -0.2801 -0.4452
 2913poe     o213346   2.602   4.028   1.977 -0.1784 -0.5441 -0.7028
 2913poe    c2313347   2.669   3.911   2.019  0.1849  0.0127  0.3198
 2913poe    c2313348   2.751   3.822   1.924  0.3296 -0.1951  0.6386
 2913poe     o213349   2.662   3.748   1.844  0.2672  0.0248  0.5029
 2913poe    c2313350   2.731   3.697   1.732 -0.0336 -0.4249  0.5202
 2913poe    c2313351   2.648   3.602   1.643 -0.3091  0.1142  0.1989
 2913poe     o213352   2.518   3.643   1.605 -0.1551  0.1783 -0.2588
 2913poe    c2313353   2.455   3.529   1.551  0.0187  0.1500 -0.4044
 2913poe    c2313354   2.341   3.586   1.464 -0.2625  0.0750 -0.0902
 2913poe     o213355   2.253   3.677   1.527 -0.5721 -0.0540 -0.3345
 2913poe    c3113356   2.139   3.619   1.587 -0.0787 -0.0617  0.6142
 2914poe    c3113357   4.959   0.095   5.048 -0.2507 -0.3959 -0.3605
 2914poe     o213358   4.982   0.228   5.009 -0.7478 -0.3396 -0.4699
 2914poe    c2313359   5.023   0.233   4.874  0.0544  0.0385 -0.2180
 2914poe    c2313360   5.013   0.381   4.833 -0.7249 -0.0570 -0.3762
 2914poe     o213361   4.887   0.445   4.836 -0.8534 -0.3145 -0.2839
 2914poe    c2313362   4.912   0.581   4.863 -0.0903 -0.4287 -0.3859
 2914poe    c2313363   4.822   0.690   4.802 -0.0122  0.3525  0.8484
 2914poe     o213364   4.701   0.718   4.868 -0.2139 -0.3393  0.7760
 2914poe    c2313365   4.603   0.746   4.771  0.0194 -0.2194  0.5739
 2914poe    c2313366   4.479   0.816   4.829 -0.2619  0.0302 -0.3131
 2914poe     o213367   4.400   0.719   4.894  0.0365  0.0564  0.0932
 2914poe    c3113368   4.264   0.751   4.912  0.0271  0.3240 -0.4331
 2915poe    c3113369   3.965   6.378   7.096  0.3242 -0.2260 -0.3458
 2915poe     o213370   4.042   6.260   7.102 -0.1031 -0.4757  0.2937
 2915poe    c2313371   3.997   6.188   7.214  0.0368 -0.0352  0.6382
 2915poe    c2313372   4.040   6.040   7.210  0.5214  0.1188  0.1042
 2915poe     o213373   3.982   5.959   7.110 -0.6718  0.6748  0.3333
 2915poe    c2313374   3.963   5.830   7.164 -0.0487  0.4018 -0.0969
 2915poe    c2313375   3.926   5.722   7.061  0.3433  0.1650  0.0095
 2915poe     o213376   3.809   5.750   6.987 -0.1436 -0.2446  0.6114
 2915poe    c2313377   3.789   5.660   6.880 -0.2825  0.8077 -0.2659
 2915poe    c2313378   3.681   5.728   6.795 -0.9248 -0.1941 -0.2639
 2915poe     o213379   3.718   5.859   6.759 -0.5123 -0.1508  0.3083
 2915poe    c3113380   3.638   5.930   6.667 -0.6784  0.2675  0.7716
 2916poe    c3113381   4.999   5.015   6.479 -0.7322 -0.1597 -0.1455
 2916poe     o213382   4.956   5.145   6.444 -0.2730  0.1933  0.5636
 2916poe    c2313383   5.038   5.199   6.343 -0.6254 -0.2609  0.0251
 2916poe    c2313384   5.040   5.353   6.332  0.0169 -0.2772 -0.1201
 2916poe     o213385   4.915   5.413   6.308  0.0354 -0.1806  0.0294
 2916poe    c2313386   4.933   5.552   6.291  0.3741 -0.2187  0.0635
 2916poe    c2313387   4.794   5.617   6.277  0.2513 -0.5593 -0.3313
 2916poe     o213388   4.736   5.589   6.402 -0.1114  0.2578 -0.3076
 2916poe    c2313389   4.606   5.641   6.417 -0.2968 -0.1660 -0.4260
 2916poe    c2313390   4.532   5.562   6.525  0.0732 -0.1563 -0.1636
 2916poe     o213391   4.503   5.428   6.491  0.4126 -0.2213 -0.1942
 2916poe    c3113392   4.453   5.360   6.604 -0.0647  0.2945 -0.0910
 2917poe    c3113393   4.460   4.067   3.211 -0.6989  0.5220  0.2825
 2917poe     o213394   4.433   4.140   3.093  0.0248  0.5976  0.1595
 2917poe    c2313395   4.306   4.199   3.107 -0.2921 -0.1256  0.3875
 2917poe    c2313396   4.274   4.306   3.000  0.0998 -0.3625  0.0283
 2917poe     o213397   4.314   4.438   3.030 -0.1832 -0.2092 -0.2631
 2917poe    c2313398   4.311   4.508   2.908 -0.3353 -0.1340 -0.2160
 2917poe    c2313399   4.312   4.658   2.944  0.1969 -0.1143 -0.2972
 2917poe     o213400   4.203   4.714   3.014  0.3782  0.4196 -0.4377
 2917poe    c2313401   4.234   4.839   3.072  0.0755  0.1810  0.2569
 2917poe    c2313402   4.228   4.847   3.226 -0.4078 -0.5481  0.2780
 2917poe     o213403   4.321   4.765   3.293  0.4594  0.0682 -0.1481
 2917poe    c3113404   4.427   4.836   3.351  0.5083 -0.2145  0.1125
 2918poe    c3113405   4.913   5.249   3.937  0.0548  0.1263  0.8004
 2918poe     o213406   4.834   5.361   3.973 -0.2436 -0.0124  0.5884
 2918poe    c2313407   4.781   5.417   3.855  0.3575 -0.3163  0.1667
 2918poe    c2313408   4.677   5.522   3.896  0.2661 -0.1102 -0.5802
 2918poe     o213409   4.739   5.615   3.982  0.1498 -0.1909 -0.4084
 2918poe    c2313410   4.637   5.697   4.033  0.4102 -0.0860 -0.0518
 2918poe    c2313411   4.695   5.806   4.126  0.2062 -0.2400  0.2567
 2918poe     o213412   4.767   5.749   4.233  0.0734  0.0157  0.4843
 2918poe    c2313413   4.806   5.844   4.330  0.2325  0.3215  0.1197
 2918poe    c2313414   4.818   5.800   4.477 -0.2803 -0.0049  0.0665
 2918poe     o213415   4.920   5.705   4.500  0.0540  0.4267  0.3755
 2918poe    c3113416   4.895   5.666   4.633 -0.2046  0.3914  0.3167
 2919poe    c3113417   7.180   6.994   4.185 -0.2029  0.0393  0.2096
 2919poe     o213418   7.068   7.027   4.264 -0.0738  0.2165  0.3217
 2919poe    c2313419   7.012   7.145   4.211  0.2505  0.2234 -0.0103
 2919poe    c2313420   6.896   7.205   4.292 -0.2739 -0.2318 -0.4154
 2919poe     o213421   6.935   7.261   4.416 -0.4110  0.2170 -0.5746
 2919poe    c2313422   6.838   7.245   4.517  0.4251 -0.4132  0.1351
 2919poe    c2313423   6.894   7.309   4.646 -0.0853  0.0027  0.1542
 2919poe     o213424   6.992   7.216   4.687 -0.2600 -0.2086  0.0907
 2919poe    c2313425   7.054   7.245   4.810 -0.2341  0.1280 -0.0012
 2919poe    c2313426   7.190   7.177   4.834 -0.3361 -0.2048 -0.3567
 2919poe     o213427   7.282   7.186   4.727 -0.1018  0.2236 -0.1240
 2919poe    c3113428   7.333   7.314   4.696 -0.0760  0.1464 -0.4038
 2920poe    c3113429   0.337   1.632   3.651  0.5466 -0.7149 -0.3006
 2920poe     o213430   0.425   1.639   3.541  0.2409 -0.1232 -0.5164
 2920poe    c2313431   0.399   1.755   3.466  0.1892  0.2235  0.0396
 2920poe    c2313432   0.512   1.760   3.361  0.2418  0.0652  0.0885
 2920poe     o213433   0.642   1.793   3.406  0.2596 -0.2531  0.2715
 2920poe    c2313434   0.722   1.696   3.341  0.4554  0.3358 -0.3795
 2920poe    c2313435   0.874   1.705   3.358  0.4298 -0.1595  0.1442
 2920poe     o213436   0.912   1.649   3.482  0.4952  0.5343  0.4397
 2920poe    c2313437   1.027   1.571   3.458 -0.0667 -0.2093  0.1356
 2920poe    c2313438   1.087   1.494   3.577  0.4862  0.0423  0.0221
 2920poe     o213439   0.998   1.414   3.651  0.0896  0.1217 -0.3670
 2920poe    c3113440   0.981   1.294   3.579 -0.2836  0.1300 -0.2931
 2921poe    c3113441   5.217   7.149   6.154 -0.2659 -0.5679  0.1384
 2921poe     o213442   5.077   7.134   6.162 -0.2928 -0.1089  0.5616
 2921poe    c2313443   5.038   7.036   6.068 -0.0437 -0.4512  0.8121
 2921poe    c2313444   4.897   7.086   6.030 -0.2566 -1.0865  0.7420
 2921poe     o213445   4.829   7.128   6.147 -0.0812  0.1559  0.4134
 2921poe    c2313446   4.701   7.184   6.131 -0.0863 -0.0204 -0.2041
 2921poe    c2313447   4.685   7.328   6.080 -0.2428  0.0224 -0.0356
 2921poe     o213448   4.714   7.434   6.169 -0.5187 -0.0188  0.1054
 2921poe    c2313449   4.608   7.461   6.258 -0.0342  0.2047  0.6213
 2921poe    c2313450   4.649   7.554   6.374  0.4533  0.3619  0.3266
 2921poe     o213451   4.625   7.689   6.342  0.2051  0.2105 -0.1402
 2921poe    c3113452   4.673   7.773   6.444 -0.0200  0.1933 -0.0197
 2922poe    c3113453   0.392   0.022   6.374  0.0674 -0.2705 -0.2327
 2922poe     o213454   0.330   0.130   6.439  0.5670  0.1061 -0.3736
 2922poe    c2313455   0.413   0.243   6.447  0.2137  0.3325  0.1981
 2922poe    c2313456   0.397   0.345   6.562 -0.2584 -0.0664  0.4901
 2922poe     o213457   0.282   0.425   6.551 -0.1701 -0.0366 -0.2777
 2922poe    c2313458   0.322   0.560   6.551 -0.2129 -0.0205  0.5293
 2922poe    c2313459   0.215   0.670   6.543 -0.1083  0.0516  0.0643
 2922poe     o213460   0.154   0.690   6.418  0.1925 -0.3932 -0.1549
 2922poe    c2313461   0.058   0.793   6.428  0.3290 -0.2466 -0.3499
 2922poe    c2313462  -0.053   0.786   6.322 -0.0687 -0.2021  0.0634
 2922poe     o213463  -0.160   0.706   6.367 -0.1423 -0.3003 -0.2852
 2922poe    c3113464  -0.281   0.752   6.310 -0.0156 -0.0793 -0.3745
 2923poe    c3113465   6.748   6.727   4.431 -0.1328  0.4689  0.1736
 2923poe     o213466   6.768   6.782   4.303 -0.2197 -0.3858 -0.2092
 2923poe    c2313467   6.837   6.677   4.238 -0.0311 -0.3841 -0.0134
 2923poe    c2313468   6.862   6.712   4.090 -0.1538  0.1493  0.0891
 2923poe     o213469   6.745   6.750   4.020  0.0044  0.1467 -0.1759
 2923poe    c2313470   6.649   6.655   3.983  0.2175 -0.0406 -0.2515
 2923poe    c2313471   6.509   6.719   3.991  0.3177  0.1535 -0.0408
 2923poe     o213472   6.522   6.855   3.956  0.5759  0.2506  0.4230
 2923poe    c2313473   6.393   6.908   3.938  0.4272 -0.1746  0.2206
 2923poe    c2313474   6.400   7.061   3.925  0.3982 -0.2184 -0.2987
 2923poe     o213475   6.517   7.103   3.991 -0.1713  0.4242  0.3047
 2923poe    c3113476   6.519   7.244   3.989  0.0674  0.4250  0.4887
 2924poe    c3113477   3.604   3.007   5.730 -0.3303 -0.0753  0.4453
 2924poe     o213478   3.572   3.087   5.619 -0.0446 -0.0560  0.3743
 2924poe    c2313479   3.596   3.008   5.505 -0.0078  0.5271 -0.0277
 2924poe    c2313480   3.600   3.103   5.384 -0.1200 -0.0938 -0.5189
 2924poe     o213481   3.671   3.220   5.415 -0.3677 -0.1127  0.1138
 2924poe    c2313482   3.665   3.332   5.329  0.3852  0.0157  0.2216
 2924poe    c2313483   3.680   3.457   5.417  0.0219  0.5115 -0.4156
 2924poe     o213484   3.591   3.434   5.524  0.5902 -0.3508 -0.1172
 2924poe    c2313485   3.595   3.531   5.627  0.3462 -0.3516 -0.1069
 2924poe    c2313486   3.501   3.464   5.729  0.3872  0.0753  0.2104
 2924poe     o213487   3.520   3.325   5.739  0.2525  0.0806  0.5628
 2924poe    c3113488   3.432   3.279   5.839 -0.4255  0.7959  0.3061
 2925poe    c3113489   5.822   3.367   2.613  0.2142 -0.4776  0.1286
 2925poe     o213490   5.953   3.315   2.609  0.4839  0.2291 -0.4222
 2925poe    c2313491   6.020   3.327   2.733  0.7485  0.1977 -0.5614
 2925poe    c2313492   6.117   3.210   2.756  0.1729 -0.0396  0.7607
 2925poe     o213493   6.199   3.183   2.644  0.0462  0.2384  0.5986
 2925poe    c2313494   6.291   3.077   2.660 -0.5364 -0.4243 -0.3039
 2925poe    c2313495   6.430   3.134   2.624 -0.4853 -0.5346 -0.2848
 2925poe     o213496   6.412   3.199   2.500 -0.1098  0.6696  0.2733
 2925poe    c2313497   6.532   3.236   2.437 -0.3491  0.4187 -0.3484
 2925poe    c2313498   6.491   3.264   2.292 -0.2788 -0.4074 -0.5296
 2925poe     o213499   6.369   3.334   2.290  0.3082  0.6675  0.4993
 2925poe    c3113500   6.348   3.387   2.161  0.1261 -0.7759 -0.0847
 2926poe    c3113501   2.731   1.872   3.882  0.0531 -0.2415  0.2371
 2926poe     o213502   2.828   1.932   3.801 -0.6022  0.2099 -0.2182
 2926poe    c2313503   2.818   1.880   3.670 -0.3410  0.0637 -0.1802
 2926poe    c2313504   2.914   1.766   3.631  0.0781  0.2233  0.3719
 2926poe     o213505   3.044   1.811   3.598 -0.0817  0.2344 -0.2449
 2926poe    c2313506   3.114   1.696   3.557  0.0476 -0.1019  0.9084
 2926poe    c2313507   3.239   1.738   3.477 -0.6415 -0.0876 -0.1681
 2926poe     o213508   3.322   1.834   3.538 -0.5651  0.1903 -0.7081
 2926poe    c2313509   3.441   1.862   3.468  0.0893 -0.0743  0.3007
 2926poe    c2313510   3.453   2.013   3.444  0.3870 -0.1614 -0.1183
 2926poe     o213511   3.352   2.074   3.366  0.6184  0.0253 -0.2725
 2926poe    c3113512   3.385   2.076   3.229 -0.1724  0.0393 -0.4640
 2927poe    c3113513   5.638   2.832   0.955 -0.1490 -0.3443  0.0367
 2927poe     o213514   5.704   2.780   0.842  0.1960 -0.1779  0.1620
 2927poe    c2313515   5.770   2.873   0.759 -0.5041  0.2124  0.0411
 2927poe    c2313516   5.875   2.806   0.668 -0.8412  0.0584 -0.2368
 2927poe     o213517   5.828   2.684   0.614  0.4155 -0.3299 -0.4818
 2927poe    c2313518   5.922   2.610   0.539  0.7318  0.0894 -0.5028
 2927poe    c2313519   5.863   2.473   0.501  0.5190 -0.0508  0.3220
 2927poe     o213520   5.827   2.400   0.616 -0.3545 -0.0081  0.0820
 2927poe    c2313521   5.895   2.277   0.608  0.1879  0.2805  0.2242
 2927poe    c2313522   5.817   2.180   0.699 -0.4776  0.4587 -0.1462
 2927poe     o213523   5.797   2.222   0.832  0.4760  0.0346  0.1419
 2927poe    c3113524   5.692   2.144   0.886  0.2329 -0.1406 -0.5732
 2928poe    c3113525   6.724   6.471   3.170 -0.0973  0.8009 -0.0891
 2928poe     o213526   6.840   6.408   3.121 -0.5892 -0.2469  0.0745
 2928poe    c2313527   6.856   6.293   3.202 -0.2642 -0.4053 -0.2091
 2928poe    c2313528   6.989   6.219   3.179  0.0087 -0.0318  0.1464
 2928poe     o213529   7.089   6.314   3.208  0.0780  0.0986 -0.4965
 2928poe    c2313530   7.212   6.250   3.180  0.1872  0.1268 -0.0893
 2928poe    c2313531   7.329   6.347   3.160  0.0221  0.2187 -0.6253
 2928poe     o213532   7.370   6.418   3.275  0.5034 -0.5650 -0.3074
 2928poe    c2313533   7.435   6.342   3.374  0.5467 -0.0918  0.0265
 2928poe    c2313534   7.445   6.407   3.514 -0.0794 -0.0805  0.0687
 2928poe     o213535   7.529   6.519   3.500 -0.2446  0.0276 -0.0614
 2928poe    c3113536   7.615   6.549   3.608  0.3161 -0.4888 -0.3558
 2929poe    c3113537   7.141   1.682   7.172  0.1510  0.1857  0.5110
 2929poe     o213538   7.016   1.742   7.193 -0.2660 -0.2755 -0.5814
 2929poe    c2313539   7.045   1.879   7.203  0.4130 -0.4513 -0.1131
 2929poe    c2313540   6.917   1.957   7.239  0.0633 -0.8122 -0.5620
 2929poe     o213541   6.845   1.870   7.324  0.2343 -0.0829  0.3543
 2929poe    c2313542   6.726   1.929   7.372  0.5740  0.5904  0.3795
 2929poe    c2313543   6.678   1.833   7.482  0.0776  0.3349 -0.0582
 2929poe     o213544   6.706   1.702   7.437  0.0564  0.3038  0.0186
 2929poe    c2313545   6.654   1.609   7.529  0.1529 -0.3311 -0.5576
 2929poe    c2313546   6.685   1.461   7.503  0.2620 -0.4572  0.2471
 2929poe     o213547   6.653   1.408   7.376  0.2238  0.8141 -0.2838
 2929poe    c3113548   6.697   1.274   7.370 -0.9964  0.3721  0.4519
 2930poe    c3113549   6.417   1.159   2.785  0.1501 -0.3580 -0.1710
 2930poe     o213550   6.509   1.263   2.807 -0.2866 -0.0888  0.4107
 2930poe    c2313551   6.568   1.242   2.933 -0.1166  0.0996  0.3634
 2930poe    c2313552   6.686   1.332   2.975  0.4516 -0.6444  0.3786
 2930poe     o213553   6.789   1.338   2.879 -0.1601  0.1457 -0.2381
 2930poe    c2313554   6.888   1.425   2.931 -0.1544  0.1695 -0.2875
 2930poe    c2313555   6.956   1.493   2.811 -0.0768 -0.1720 -0.4382
 2930poe     o213556   7.021   1.398   2.730  0.2891 -0.3015  0.0010
 2930poe    c2313557   7.019   1.455   2.601  0.0716 -0.0516  0.1129
 2930poe    c2313558   7.063   1.373   2.478  0.1037  0.1490 -0.0105
 2930poe     o213559   7.191   1.324   2.512 -0.0829 -0.3223  0.0203
 2930poe    c3113560   7.254   1.257   2.405 -0.3952 -0.1897 -0.2476
 2931poe    c3113561   3.843   5.606   0.250  0.2655  0.3248 -0.0897
 2931poe     o213562   3.971   5.551   0.265 -0.0108 -0.2693  0.1164
 2931poe    c2313563   4.034   5.604   0.379 -0.2006  0.2285 -0.0111
 2931poe    c2313564   4.157   5.520   0.419 -0.2413 -0.0931 -0.5581
 2931poe     o213565   4.265   5.520   0.328  0.4869 -0.1221  0.2997
 2931poe    c2313566   4.370   5.435   0.370  0.4481 -0.1426  0.3538
 2931poe    c2313567   4.482   5.436   0.265 -0.0957 -0.3112 -0.2322
 2931poe     o213568   4.430   5.404   0.138  0.2318 -0.9368 -0.2113
 2931poe    c2313569   4.535   5.437   0.049 -0.1444 -0.5794 -0.5246
 2931poe    c2313570   4.469   5.406  -0.087  0.2315  0.0038 -0.8431
 2931poe     o213571   4.343   5.470  -0.092  0.2503  0.0620 -0.6090
 2931poe    c3113572   4.259   5.446  -0.203  0.3021  0.2742 -0.6945
 2932poe    c3113573   4.984   1.324   5.751 -0.4645  0.0995  0.7582
 2932poe     o213574   5.018   1.457   5.716 -0.0163 -0.3764 -0.7281
 2932poe    c2313575   4.915   1.515   5.639 -0.2480  0.5400  0.2496
 2932poe    c2313576   4.943   1.661   5.598  0.0002  0.3366 -0.3158
 2932poe     o213577   4.959   1.747   5.709 -0.0783 -0.1846  0.1048
 2932poe    c2313578   5.023   1.867   5.671  0.3931 -0.5076 -0.1302
 2932poe    c2313579   5.086   1.931   5.797  0.5297  0.0628 -0.4850
 2932poe     o213580   5.193   1.852   5.843  0.2521 -0.3089 -0.4755
 2932poe    c2313581   5.275   1.935   5.921 -0.0396  0.3145 -0.8268
 2932poe    c2313582   5.403   1.858   5.960 -0.2194  0.7891  0.7341
 2932poe     o213583   5.351   1.738   6.013  0.2453  0.3770  0.2610
 2932poe    c3113584   5.446   1.677   6.098  0.6831  0.2472 -0.3160
 2933poe    c3113585   7.137   2.174   1.964 -0.0222  0.3469 -0.2152
 2933poe     o213586   7.191   2.305   1.964 -0.0547  0.3618  0.0641
 2933poe    c2313587   7.224   2.345   2.095 -0.0291 -0.1326  0.2142
 2933poe    c2313588   7.325   2.461   2.092  0.1308 -0.2753  0.0816
 2933poe     o213589   7.298   2.574   2.012  0.1250 -0.0367  0.4172
 2933poe    c2313590   7.416   2.649   1.997  0.0252  0.0287 -0.0693
 2933poe    c2313591   7.388   2.787   1.935  0.4084  0.3590  0.4807
 2933poe     o213592   7.280   2.760   1.848  0.4085 -0.1470  0.6370
 2933poe    c2313593   7.267   2.869   1.759 -0.4862 -0.5792  0.2253
 2933poe    c2313594   7.163   2.862   1.646  0.1644 -0.8220 -0.3668
 2933poe     o213595   7.028   2.870   1.688  0.2129 -0.3318 -0.2976
 2933poe    c3113596   6.941   2.846   1.581 -0.5613  0.0713  0.2331
 2934poe    c3113597   5.534   4.084   1.695  0.2697 -0.5690  0.3356
 2934poe     o213598   5.672   4.102   1.675  0.1173  0.1482 -0.0977
 2934poe    c2313599   5.739   4.066   1.793  0.0925  0.9382  0.1603
 2934poe    c2313600   5.890   4.098   1.789  0.2244  0.2904 -0.3262
 2934poe     o213601   5.936   4.038   1.670 -0.0980 -0.1757 -0.2176
 2934poe    c2313602   6.061   4.090   1.632 -0.2872  0.2161 -0.3085
 2934poe    c2313603   6.112   4.004   1.515 -0.0215 -0.2607  0.1555
 2934poe     o213604   6.016   4.031   1.416 -0.1058 -0.2036  0.2518
 2934poe    c2313605   6.056   3.932   1.323  0.1072  0.1052  0.0138
 2934poe    c2313606   5.971   3.919   1.196  0.1381  0.4834 -0.0465
 2934poe     o213607   5.837   3.889   1.227  0.3272 -0.1102  0.2185
 2934poe    c3113608   5.772   3.846   1.109  0.0063 -0.1388  0.4051
 2935poe    c3113609   2.127   0.767   1.270 -0.7463  0.7226  0.7336
 2935poe     o213610   2.146   0.661   1.361  0.4114  0.3423  0.0742
 2935poe    c2313611   2.118   0.532   1.310  0.3286  0.4690 -0.2052
 2935poe    c2313612   1.972   0.491   1.286  0.4485  0.1053 -0.3176
 2935poe     o213613   1.896   0.498   1.405  0.0005  0.3805 -0.6187
 2935poe    c2313614   1.759   0.467   1.388  0.1700 -0.5592 -0.3298
 2935poe    c2313615   1.711   0.425   1.528  0.0139  0.2365 -0.1361
 2935poe     o213616   1.761   0.303   1.579 -0.2727  0.1190 -0.1314
 2935poe    c2313617   1.674   0.238   1.669  0.1190  0.6554  0.6525
 2935poe    c2313618   1.743   0.134   1.759 -0.0674  0.3708  0.4682
 2935poe     o213619   1.839   0.204   1.834  0.1143  0.1480  0.4465
 2935poe    c3113620   1.877   0.140   1.954  0.4748  0.1658  0.3423
 2936poe    c3113621   2.110   3.147   5.136 -0.4181 -0.0801 -0.3040
 2936poe     o213622   2.191   3.244   5.074 -0.1618 -0.0316  0.1058
 2936poe    c2313623   2.271   3.308   5.171 -0.4365  0.1430  0.2174
 2936poe    c2313624   2.352   3.422   5.106 -1.3005  0.4179 -0.4060
 2936poe     o213625   2.381   3.374   4.977 -0.0891 -0.2069  0.0813
 2936poe    c2313626   2.433   3.478   4.896  0.4263  0.0336  0.7090
 2936poe    c2313627   2.501   3.418   4.772 -0.5343 -0.6889  0.5136
 2936poe     o213628   2.395   3.366   4.696 -0.3951 -0.0677 -0.1131
 2936poe    c2313629   2.441   3.321   4.570 -0.1714  0.3431 -0.1792
 2936poe    c2313630   2.348   3.205   4.529 -0.0847  0.2051  0.0125
 2936poe     o213631   2.366   3.099   4.620  0.1048 -0.0525 -0.3266
 2936poe    c3113632   2.343   2.974   4.557  0.2813 -0.2030 -0.0957
 2937poe    c3113633   5.323   3.628   3.719 -0.4330  0.0859  0.0283
 2937poe     o213634   5.248   3.514   3.685 -0.1715 -0.1955  0.3822
 2937poe    c2313635   5.110   3.544   3.684 -0.0639  0.3105  0.5800
 2937poe    c2313636   5.055   3.504   3.546  0.6299  0.2245  0.3269
 2937poe     o213637   5.099   3.571   3.430 -0.0512  0.1468  0.0237
 2937poe    c2313638   5.032   3.537   3.310 -0.2951  0.0651  0.1813
 2937poe    c2313639   5.122   3.547   3.186 -0.6658 -0.0636 -0.0969
 2937poe     o213640   5.248   3.486   3.204 -0.3341  0.5252 -0.3641
 2937poe    c2313641   5.319   3.492   3.083  0.3989  0.2247  0.0442
 2937poe    c2313642   5.413   3.370   3.082 -0.0280 -0.1035 -0.3131
 2937poe     o213643   5.354   3.241   3.077 -0.3715  0.0113  0.5372
 2937poe    c3113644   5.457   3.147   3.058 -0.4658  0.0250 -0.0939
 2938poe    c3113645   2.340   3.487   4.222 -0.3662 -0.0214  0.1813
 2938poe     o213646   2.311   3.592   4.311  0.0963  0.2909 -0.0340
 2938poe    c2313647   2.215   3.552   4.406  0.4037  0.4970  0.3706
 2938poe    c2313648   2.163   3.681   4.472  0.6783  0.3653  0.8452
 2938poe     o213649   2.264   3.749   4.543  0.9628  0.4341  0.3770
 2938poe    c2313650   2.224   3.884   4.544 -0.2081  0.1215 -0.6405
 2938poe    c2313651   2.334   3.967   4.614  0.0544 -0.7578  0.0095
 2938poe     o213652   2.450   3.977   4.535  0.2503 -0.2619  0.3589
 2938poe    c2313653   2.554   4.051   4.595  0.4190 -0.1751 -0.0413
 2938poe    c2313654   2.635   4.150   4.508  0.0701 -0.1244 -0.3100
 2938poe     o213655   2.723   4.092   4.416  0.8144 -0.1863  0.4317
 2938poe    c3113656   2.808   4.191   4.364  0.3430 -0.2755 -0.5256
 2939poe    c3113657   3.460   3.003   1.685  0.2596 -0.5043  0.6518
 2939poe     o213658   3.508   3.076   1.796 -0.0210  0.1450  0.3507
 2939poe    c2313659   3.445   3.201   1.790  0.1058  0.1982  0.0730
 2939poe    c2313660   3.439   3.243   1.938 -0.5706 -0.2875  0.1908
 2939poe     o213661   3.569   3.288   1.969 -0.4937 -0.3733 -0.0048
 2939poe    c2313662   3.577   3.325   2.105  0.4878  0.2756 -0.2301
 2939poe    c2313663   3.724   3.345   2.148  0.4754 -0.2651  0.0769
 2939poe     o213664   3.794   3.227   2.118  0.1452 -0.5968  0.6041
 2939poe    c2313665   3.915   3.223   2.190  0.3277  0.0628  0.3347
 2939poe    c2313666   4.001   3.114   2.123  0.0987  0.2962 -0.3520
 2939poe     o213667   3.917   3.004   2.096  0.2782 -0.0039  0.2830
 2939poe    c3113668   3.986   2.895   2.040  0.6631  0.4434 -0.1317
 2940poe    c3113669   4.866   4.809   5.405 -0.7446 -1.1357 -0.0081
 2940poe     o213670   4.997   4.781   5.446 -0.3467 -0.3387 -0.6981
 2940poe    c2313671   4.988   4.665   5.525 -0.0130 -0.3158 -0.6212
 2940poe    c2313672   5.126   4.625   5.579  0.0105  0.2466 -0.2567
 2940poe     o213673   5.224   4.613   5.478  0.1266  0.2053 -0.1397
 2940poe    c2313674   5.344   4.556   5.525 -0.0583 -0.3485 -0.3260
 2940poe    c2313675   5.442   4.606   5.418  0.0735  0.0544 -0.0211
 2940poe     o213676   5.477   4.743   5.423  0.2958  0.0303 -0.7617
 2940poe    c2313677   5.575   4.772   5.326  0.6152  0.1709 -0.3966
 2940poe    c2313678   5.642   4.911   5.320  0.0717  0.4571  0.0144
 2940poe     o213679   5.578   5.004   5.235 -0.2198  0.0706 -0.1930
 2940poe    c3113680   5.634   5.133   5.244 -0.0199 -0.0506  0.3851
 2941poe    c3113681   2.191   3.691   5.496  0.3165  0.0890 -0.0702
 2941poe     o213682   2.191   3.768   5.614 -0.4638 -0.0082 -0.0032
 2941poe    c2313683   2.321   3.778   5.667 -0.3075 -0.1360 -0.3618
 2941poe    c2313684   2.333   3.872   5.788 -0.3851 -0.3862 -0.1599
 2941poe     o213685   2.266   3.827   5.904  0.4166 -0.2078  0.3810
 2941poe    c2313686   2.291   3.899   6.023 -0.6330  0.2624  0.3263
 2941poe    c2313687   2.249   3.826   6.152  0.1820  0.0627  0.4799
 2941poe     o213688   2.127   3.763   6.123  0.1714  0.2755  0.0587
 2941poe    c2313689   2.073   3.699   6.236 -0.0267 -0.1451 -0.2729
 2941poe    c2313690   1.944   3.626   6.193 -0.2502  0.1817 -0.1551
 2941poe     o213691   1.982   3.534   6.093 -0.2435 -0.3789  0.3587
 2941poe    c3113692   1.877   3.447   6.058 -0.4308  0.1238 -0.3446
 2942poe    c3113693   1.410   2.578   3.603  0.3071  0.4660  0.2139
 2942poe     o213694   1.509   2.508   3.674  0.3481 -0.0559 -0.3568
 2942poe    c2313695   1.543   2.380   3.625 -0.3711 -0.4993  0.2718
 2942poe    c2313696   1.622   2.318   3.742  0.2014 -0.1375  0.0792
 2942poe     o213697   1.695   2.422   3.803  0.2327  0.0791 -0.3190
 2942poe    c2313698   1.792   2.374   3.895  0.0041  0.2828  0.0305
 2942poe    c2313699   1.876   2.493   3.945  0.1172 -0.0977  0.7551
 2942poe     o213700   1.796   2.601   3.987 -0.5633 -0.5589  0.6527
 2942poe    c2313701   1.859   2.679   4.085  0.1571 -0.0567 -0.2015
 2942poe    c2313702   1.771   2.802   4.114  0.0494 -0.3685  0.8584
 2942poe     o213703   1.641   2.757   4.142 -0.3042  0.0083 -0.1365
 2942poe    c3113704   1.563   2.861   4.195  0.0212  0.3424 -0.3106
 2943poe    c3113705   4.523   5.519   4.433  0.0402  0.2146 -0.2573
 2943poe     o213706   4.384   5.541   4.444 -0.0183 -0.3215  0.0734
 2943poe    c2313707   4.324   5.459   4.541 -0.0721 -0.0338  0.2826
 2943poe    c2313708   4.288   5.314   4.503  0.0411  0.0149 -0.0124
 2943poe     o213709   4.188   5.305   4.404  0.0164 -0.2371  0.0341
 2943poe    c2313710   4.103   5.193   4.415 -0.3159  0.0627  0.5317
 2943poe    c2313711   4.004   5.170   4.300 -0.0142 -0.7277  0.4289
 2943poe     o213712   4.064   5.146   4.174 -0.1227  0.0506  0.2220
 2943poe    c2313713   3.962   5.107   4.084 -0.7183  0.7310  0.5852
 2943poe    c2313714   4.010   5.082   3.940 -0.0183  1.0800  0.7536
 2943poe     o213715   4.036   5.203   3.874  0.0869  0.3643 -0.5502
 2943poe    c3113716   3.923   5.260   3.812 -0.4328 -0.2278 -0.1498
 2944poe    c3113717   1.171   4.577   0.655  0.5292 -0.0028 -0.1964
 2944poe     o213718   1.293   4.521   0.615  0.4287 -0.0287 -0.4716
 2944poe    c2313719   1.375   4.633   0.591  0.2045  0.1851 -0.2402
 2944poe    c2313720   1.511   4.590   0.535  0.2219 -0.0207 -0.0407
 2944poe     o213721   1.495   4.517   0.415  0.0928 -0.4090  0.2117
 2944poe    c2313722   1.615   4.482   0.350 -0.1509 -0.3776 -0.2598
 2944poe    c2313723   1.614   4.437   0.203  0.6040 -0.2065 -0.3240
 2944poe     o213724   1.529   4.324   0.198  0.2058  0.0781 -0.0534
 2944poe    c2313725   1.554   4.244   0.085 -0.4259  0.2445 -0.3175
 2944poe    c2313726   1.443   4.150   0.034  0.3398 -0.7327 -0.2337
 2944poe     o213727   1.398   4.048   0.119  0.0037 -0.1988  0.2399
 2944poe    c3113728   1.280   3.987   0.070 -0.0204 -0.0163  0.0712
 2945poe    c3113729   0.305   0.120   5.021  0.3975  0.5924 -0.0689
 2945poe     o213730   0.280   0.216   5.122  0.2647  0.4244  0.0586
 2945poe    c2313731   0.402   0.239   5.189  0.3614  0.3045 -0.0736
 2945poe    c2313732   0.393   0.347   5.299  0.0819  0.0750  0.1310
 2945poe     o213733   0.361   0.480   5.263  0.1628  0.2114  0.5557
 2945poe    c2313734   0.415   0.563   5.363  0.5188  0.4457  0.1753
 2945poe    c2313735   0.402   0.706   5.308  0.2905  0.4537  0.2476
 2945poe     o213736   0.272   0.759   5.305  0.1812  0.1747  0.0183
 2945poe    c2313737   0.208   0.763   5.431  0.0718  0.3114 -0.0404
 2945poe    c2313738   0.078   0.846   5.426 -0.0094  0.1662 -0.3516
 2945poe     o213739  -0.046   0.782   5.409 -0.2135  0.4196  0.1833
 2945poe    c3113740  -0.145   0.880   5.432 -0.1904  0.5440 -0.2440
 2946poe    c3113741   0.803   5.604   6.418 -0.2105 -0.4064 -0.2995
 2946poe     o213742   0.855   5.703   6.504 -0.2637 -0.1481 -0.5636
 2946poe    c2313743   0.995   5.714   6.511 -0.2964  0.2288 -0.4915
 2946poe    c2313744   1.013   5.850   6.580 -0.5507  0.0426 -0.0555
 2946poe     o213745   0.984   5.866   6.717 -0.3716  0.2728 -0.0437
 2946poe    c2313746   1.087   5.805   6.792 -0.6079 -0.3428 -0.2151
 2946poe    c2313747   1.067   5.768   6.940  0.8530 -0.5627 -0.0523
 2946poe     o213748   0.989   5.651   6.956  0.1243 -0.0578  0.1839
 2946poe    c2313749   0.960   5.641   7.093  0.0033  0.3904  0.1941
 2946poe    c2313750   0.855   5.531   7.120  0.4177 -0.0124  0.1808
 2946poe     o213751   0.897   5.397   7.127  0.2232 -0.0627  0.4005
 2946poe    c3113752   0.945   5.363   7.255 -0.1281  0.2784  0.6236
 2947poe    c3113753   0.465   3.857   1.483  0.1573  0.0278  0.3538
 2947poe     o213754   0.557   3.750   1.480  0.1204 -0.0011  0.2292
 2947poe    c2313755   0.664   3.788   1.564  0.1879  0.0902  0.1008
 2947poe    c2313756   0.767   3.674   1.576  0.4802  0.3467  0.0431
 2947poe     o213757   0.715   3.556   1.633  0.0492  0.3675 -0.3002
 2947poe    c2313758   0.815   3.457   1.621  0.1305  0.4028  0.0697
 2947poe    c2313759   0.748   3.319   1.615  0.2357  0.3533  0.0250
 2947poe     o213760   0.694   3.285   1.741  0.0730  0.3450 -0.0459
 2947poe    c2313761   0.612   3.170   1.733 -0.2385  0.5200  0.5538
 2947poe    c2313762   0.460   3.191   1.724 -0.3044 -0.2920 -0.2686
 2947poe     o213763   0.404   3.259   1.833 -0.1492 -0.0164 -0.3618
 2947poe    c3113764   0.264   3.269   1.819 -0.2891 -0.8584  0.3510
 2948poe    c3113765   0.560   0.377   5.771  0.4547 -0.0905  0.0233
 2948poe     o213766   0.658   0.468   5.816  0.2623  0.1354 -0.0062
 2948poe    c2313767   0.749   0.384   5.884 -0.0479 -0.4671 -0.3209
 2948poe    c2313768   0.869   0.471   5.926 -0.3859 -0.1241 -0.0545
 2948poe     o213769   0.809   0.595   5.954  0.0558 -0.0122  0.4238
 2948poe    c2313770   0.897   0.688   6.013  0.0659 -0.1683  0.6563
 2948poe    c2313771   0.807   0.813   6.025  0.6819  0.3750 -0.2306
 2948poe     o213772   0.733   0.830   5.907 -0.3269  0.2497  0.3672
 2948poe    c2313773   0.725   0.969   5.884  0.5286  0.1702 -0.5162
 2948poe    c2313774   0.618   1.000   5.778 -0.4268 -0.1667  0.3324
 2948poe     o213775   0.631   0.914   5.667  0.1917  0.2168  0.1015
 2948poe    c3113776   0.541   0.969   5.574  0.1482  0.0486  0.0428
 2949poe    c3113777   5.226   5.990   3.969  0.0148  0.0845 -0.2459
 2949poe     o213778   5.142   6.071   4.049 -0.2265 -0.3687 -0.0347
 2949poe    c2313779   5.014   6.095   3.996 -0.0189 -0.6017 -0.6500
 2949poe    c2313780   4.944   6.213   4.067  0.2472 -0.7046 -0.2118
 2949poe     o213781   4.969   6.207   4.205  0.7231  0.0574 -0.2615
 2949poe    c2313782   4.946   6.329   4.272 -0.5528 -0.0411 -0.5043
 2949poe    c2313783   4.970   6.301   4.421  0.0021 -0.3940 -0.6596
 2949poe     o213784   5.104   6.264   4.447  0.0485  0.3279  0.1868
 2949poe    c2313785   5.124   6.241   4.585  0.2192 -0.3083  0.0602
 2949poe    c2313786   5.250   6.159   4.615  0.6301  0.1291 -0.4556
 2949poe     o213787   5.236   6.021   4.590 -0.0174  0.0579  0.2815
 2949poe    c3113788   5.141   5.943   4.659 -0.2593  0.0545 -0.0569
 2950poe    c3113789   2.376   0.593   0.442 -0.6124  0.1398 -0.5496
 2950poe     o213790   2.334   0.550   0.315  0.1543  0.0509 -0.7810
 2950poe    c2313791   2.255   0.435   0.337 -0.0017  0.3084  0.0285
 2950poe    c2313792   2.211   0.366   0.206  0.0330  0.4303 -0.0475
 2950poe     o213793   2.157   0.462   0.118  0.1988  0.1661 -0.4384
 2950poe    c2313794   2.063   0.412   0.026  0.1220 -0.7932  0.1438
 2950poe    c2313795   2.100   0.399  -0.123  0.6362  0.5671  0.1431
 2950poe     o213796   2.215   0.319  -0.136  0.1480 -0.1880  0.3898
 2950poe    c2313797   2.228   0.287  -0.273 -0.1381 -0.2503  0.3787
 2950poe    c2313798   2.316   0.164  -0.301  0.3938  0.1512  0.2762
 2950poe     o213799   2.453   0.189  -0.278  0.3887  0.3403  0.0930
 2950poe    c3113800   2.526   0.069  -0.281 -1.0134 -0.5289 -0.0402
 2951poe    c3113801   4.575   6.389   5.445  0.2644  0.1254  0.1216
 2951poe     o213802   4.537   6.276   5.369  0.3765  0.3720 -0.3019
 2951poe    c2313803   4.559   6.167   5.455  0.5856  0.2424 -0.5163
 2951poe    c2313804   4.558   6.032   5.381  0.1135 -0.1564  0.2007
 2951poe     o213805   4.437   6.010   5.311  0.2830  0.1785 -0.2035
 2951poe    c2313806   4.453   5.923   5.202 -0.1335  0.3014 -0.3626
 2951poe    c2313807   4.485   5.774   5.221 -0.4814  0.1981 -0.5691
 2951poe     o213808   4.375   5.708   5.280 -0.0051 -0.0596  0.0507
 2951poe    c2313809   4.391   5.568   5.268 -0.3846 -0.0873 -0.1622
 2951poe    c2313810   4.258   5.493   5.284 -0.0135 -0.8290 -0.5134
 2951poe     o213811   4.172   5.505   5.173 -0.1774  0.0999 -0.2904
 2951poe    c3113812   4.056   5.426   5.185 -0.2550  0.3109  0.3742
 2952poe    c3113813   6.292   6.939   6.464  0.4550 -0.1612  0.3632
 2952poe     o213814   6.253   6.941   6.328  0.0629 -0.4450  0.4730
 2952poe    c2313815   6.135   7.017   6.325  0.4496  0.1377 -0.2693
 2952poe    c2313816   6.045   6.992   6.202  0.2488 -0.4664 -0.0006
 2952poe     o213817   6.094   7.061   6.090 -0.1005  0.3657  0.3516
 2952poe    c2313818   6.022   7.024   5.975  0.5341 -0.0872  0.0916
 2952poe    c2313819   6.065   7.096   5.845 -0.2946 -0.5254 -0.4331
 2952poe     o213820   6.187   7.043   5.799  0.1926 -0.1123  0.3615
 2952poe    c2313821   6.256   7.146   5.731  0.3861 -0.2404  0.3632
 2952poe    c2313822   6.408   7.129   5.717  0.3310 -0.2651 -0.2293
 2952poe     o213823   6.463   7.124   5.846 -0.1433 -0.2581 -0.0240
 2952poe    c3113824   6.604   7.125   5.834 -0.2044 -0.1933 -0.7508
 2953poe    c3113825   5.119   4.393   0.437 -0.3658  0.1676  0.1717
 2953poe     o213826   5.172   4.275   0.492  0.2981  0.1074 -0.5920
 2953poe    c2313827   5.310   4.248   0.474  0.3447  0.0429 -0.1362
 2953poe    c2313828   5.346   4.101   0.497  0.0776 -0.0599 -0.3630
 2953poe     o213829   5.278   4.015   0.408 -0.4414 -0.0286 -0.0001
 2953poe    c2313830   5.279   3.880   0.446  0.2672 -0.0526 -0.0930
 2953poe    c2313831   5.239   3.792   0.326 -0.0949 -0.3128  0.2173
 2953poe     o213832   5.349   3.765   0.243 -0.1713  0.4186 -0.1267
 2953poe    c2313833   5.290   3.711   0.127 -0.0795 -0.5421  0.2681
 2953poe    c2313834   5.381   3.632   0.031  0.5843  0.4394  0.0751
 2953poe     o213835   5.439   3.519   0.091 -0.1066  0.0871  0.0879
 2953poe    c3113836   5.579   3.530   0.078 -0.0849 -0.2273  0.0418
 2954poe    c3113837   4.290   4.212   2.052  0.1273  0.1037  0.2324
 2954poe     o213838   4.345   4.086   2.086 -0.2608 -0.2833 -0.5460
 2954poe    c2313839   4.428   4.039   1.983  0.2200  0.1153 -0.3454
 2954poe    c2313840   4.467   3.894   2.020 -0.0436  0.1472  0.0641
 2954poe     o213841   4.498   3.897   2.157 -0.6323  0.2392  0.1987
 2954poe    c2313842   4.549   3.773   2.199 -0.9615 -0.0075 -0.1252
 2954poe    c2313843   4.549   3.784   2.353 -0.2361  0.3080 -0.1452
 2954poe     o213844   4.431   3.825   2.418 -0.4002 -0.4715  0.0569
 2954poe    c2313845   4.457   3.817   2.557 -0.2306 -0.2389  0.0391
 2954poe    c2313846   4.372   3.922   2.630  0.3110  0.1729  0.0817
 2954poe     o213847   4.236   3.894   2.653  0.4893  0.0275  1.0111
 2954poe    c3113848   4.175   4.004   2.716 -0.1873  0.2258  0.0263
 2955poe    c3113849   5.371   0.259   5.556  0.3589  0.6249  0.4480
 2955poe     o213850   5.329   0.332   5.443  0.2656 -0.7080 -0.4014
 2955poe    c2313851   5.199   0.298   5.403  0.1302  0.2529 -0.8227
 2955poe    c2313852   5.158   0.359   5.268 -0.5351  0.1641 -0.6656
 2955poe     o213853   5.209   0.490   5.256 -0.0531  0.0039 -0.3929
 2955poe    c2313854   5.164   0.571   5.150 -0.0235  0.2763 -0.1975
 2955poe    c2313855   5.261   0.687   5.122  0.1572  0.2554  0.3356
 2955poe     o213856   5.396   0.652   5.102  0.0284 -0.0023 -0.1041
 2955poe    c2313857   5.445   0.750   5.013  0.0280 -0.1239 -0.2377
 2955poe    c2313858   5.593   0.729   4.978  0.2281  0.4155  0.2632
 2955poe     o213859   5.695   0.766   5.068  0.5524  0.2664 -0.0351
 2955poe    c3113860   5.806   0.686   5.035  0.4002  0.2921 -0.6129
 2956poe    c3113861   3.735   2.241   2.067  0.3015  0.0562  0.4652
 2956poe     o213862   3.763   2.179   2.191  0.0075  0.2979  0.6534
 2956poe    c2313863   3.669   2.167   2.295 -0.0979 -0.1181  0.5107
 2956poe    c2313864   3.753   2.160   2.423  0.1738 -0.3794  0.3206
 2956poe     o213865   3.869   2.085   2.397  0.4766  0.2337 -0.1178
 2956poe    c2313866   3.916   2.030   2.518 -0.2532  0.4893  0.2848
 2956poe    c2313867   4.056   1.968   2.498 -0.8070 -0.6167 -0.2913
 2956poe     o213868   4.145   2.054   2.431 -0.3780 -0.7280  0.1292
 2956poe    c2313869   4.251   2.094   2.515 -0.5299  0.2315 -0.1153
 2956poe    c2313870   4.340   2.185   2.430  0.1303 -0.1911  0.1142
 2956poe     o213871   4.274   2.294   2.368  0.2512 -0.2463 -0.1141
 2956poe    c3113872   4.366   2.360   2.284  0.2685  0.1458  0.2092
 2957poe    c3113873   6.071   0.819   1.806  0.0094  0.1994 -0.2528
 2957poe     o213874   6.197   0.874   1.838  0.0929 -0.0012 -0.2324
 2957poe    c2313875   6.304   0.822   1.763  0.0615 -0.3319 -0.0464
 2957poe    c2313876   6.414   0.925   1.792 -0.2399 -0.1062  0.2977
 2957poe     o213877   6.426   0.924   1.933 -0.4077  0.6355  0.3231
 2957poe    c2313878   6.541   0.996   1.970 -0.0401 -0.0305  0.4992
 2957poe    c2313879   6.545   0.993   2.124  0.4944  0.1458  0.4908
 2957poe     o213880   6.423   1.028   2.185 -0.0256 -0.0180 -0.4387
 2957poe    c2313881   6.449   1.036   2.323 -0.4380  0.1817 -0.3702
 2957poe    c2313882   6.336   1.082   2.417 -0.0809  0.1330  0.0912
 2957poe     o213883   6.253   0.976   2.457 -0.1976 -0.2052 -1.0127
 2957poe    c3113884   6.301   0.879   2.548  0.1270  0.8260 -0.0608
 2958poe    c3113885   2.169   6.936   5.556  0.0781 -0.2303  0.1725
 2958poe     o213886   2.269   6.896   5.465  0.0998  0.0868  0.0551
 2958poe    c2313887   2.220   6.815   5.360 -0.3956  0.2682  0.1421
 2958poe    c2313888   2.337   6.779   5.266  0.3326  0.4259  0.9677
 2958poe     o213889   2.369   6.895   5.193 -0.6185  0.0446 -0.0948
 2958poe    c2313890   2.459   6.867   5.088 -0.4933  0.1566 -0.0175
 2958poe    c2313891   2.497   6.990   5.003  0.5116 -0.1139  0.0277
 2958poe     o213892   2.387   7.040   4.931  0.6572  0.0141 -0.1066
 2958poe    c2313893   2.424   7.154   4.858  0.2058  0.2954  0.0994
 2958poe    c2313894   2.310   7.207   4.769 -0.2869 -0.3679  0.3304
 2958poe     o213895   2.190   7.258   4.821 -0.1318  0.3611 -0.0148
 2958poe    c3113896   2.204   7.373   4.901 -0.5163  0.0992  0.4426
 2959poe    c3113897   3.548   1.597   4.507  0.4000 -0.2797  0.6080
 2959poe     o213898   3.537   1.516   4.392  0.2894  0.1572  0.3074
 2959poe    c2313899   3.662   1.456   4.367 -0.0083 -0.3506  0.0023
 2959poe    c2313900   3.662   1.414   4.219  0.0302  0.5689 -0.2642
 2959poe     o213901   3.536   1.355   4.196 -0.0903  0.7807 -0.1518
 2959poe    c2313902   3.528   1.292   4.070 -0.1904  0.0037  0.2378
 2959poe    c2313903   3.387   1.259   4.018 -0.0426 -0.0610 -0.1247
 2959poe     o213904   3.295   1.360   4.051  0.3527  0.2606  0.0035
 2959poe    c2313905   3.164   1.325   4.013  0.2512 -0.0096  0.5900
 2959poe    c2313906   3.058   1.427   4.057  0.2797  0.2552  0.0489
 2959poe     o213907   3.086   1.555   4.005 -0.0018  0.4519  0.3753
 2959poe    c3113908   2.989   1.655   4.028  0.2687  0.7457  0.2541
 2960poe    c3113909   5.950   5.454   4.516  0.9297 -0.7512  0.0670
 2960poe     o213910   6.054   5.518   4.587  0.4576  0.1953 -0.0680
 2960poe    c2313911   6.020   5.653   4.607  0.0327  0.0096  0.4661
 2960poe    c2313912   6.105   5.724   4.715  0.7264  0.1765 -0.1859
 2960poe     o213913   6.053   5.852   4.743  0.0308 -0.2255  0.3789
 2960poe    c2313914   6.136   5.936   4.819 -0.3468  0.0685  0.4647
 2960poe    c2313915   6.077   6.069   4.871 -0.5965 -0.0259  0.4292
 2960poe     o213916   6.043   6.152   4.762 -0.1729  0.1199  0.4050
 2960poe    c2313917   5.979   6.269   4.808 -0.5242 -0.0743  0.4101
 2960poe    c2313918   5.951   6.359   4.686 -0.7553 -0.3297  0.2729
 2960poe     o213919   5.876   6.476   4.708  0.4801  0.4151  0.6176
 2960poe    c3113920   5.856   6.546   4.588 -0.2029  0.8512  0.9837
 2961poe    c3113921   0.083   0.689   0.515 -0.0935  0.4814 -0.1988
 2961poe     o213922   0.050   0.683   0.378  0.3731 -0.2426 -0.2832
 2961poe    c2313923   0.014   0.806   0.320 -0.3112 -0.3011  0.0154
 2961poe    c2313924   0.042   0.808   0.169  0.0980  0.5195  0.0981
 2961poe     o213925   0.180   0.818   0.141  0.1525  0.1747  0.2402
 2961poe    c2313926   0.193   0.933   0.060 -0.0862  0.3823  0.4944
 2961poe    c2313927   0.344   0.960   0.052 -0.0550  0.0140 -0.2363
 2961poe     o213928   0.409   0.840   0.017 -0.1551  0.0523 -0.5602
 2961poe    c2313929   0.548   0.866   0.011 -0.1080  0.0478  0.3748
 2961poe    c2313930   0.626   0.740  -0.031 -0.4597 -0.0129 -0.0955
 2961poe     o213931   0.593   0.693  -0.160 -0.3345  0.1182 -0.1750
 2961poe    c3113932   0.678   0.741  -0.263 -0.2810 -0.1895 -0.2739
 2962poe    c3113933   3.975   7.038   6.151 -0.2354  0.2317 -0.2296
 2962poe     o213934   3.894   6.928   6.115 -0.0709  0.0713 -0.1119
 2962poe    c2313935   3.951   6.849   6.014  0.1773  0.2176 -0.0870
 2962poe    c2313936   3.865   6.728   5.972  0.1009  0.2082  0.0971
 2962poe     o213937   3.815   6.656   6.082  0.1376 -0.2248 -0.1696
 2962poe    c2313938   3.724   6.557   6.038 -0.2572 -0.1294  0.4214
 2962poe    c2313939   3.668   6.486   6.163 -0.7445  0.1205  0.3454
 2962poe     o213940   3.601   6.573   6.252  0.2876  0.4170  0.8438
 2962poe    c2313941   3.572   6.518   6.379  0.1489 -0.1058  0.5920
 2962poe    c2313942   3.484   6.621   6.452 -0.5746 -0.2575 -0.0646
 2962poe     o213943   3.545   6.745   6.424 -0.1304 -0.3980  0.2909
 2962poe    c3113944   3.502   6.843   6.516  0.2111  0.1818 -0.1643
 2963poe    c3113945   0.113   0.090   0.269  0.2661 -0.5767 -0.1410
 2963poe     o213946   0.059  -0.028   0.215  0.0426 -0.6935  0.3314
 2963poe    c2313947  -0.080  -0.012   0.198  0.1787  0.4486  0.2071
 2963poe    c2313948  -0.132  -0.078   0.069  0.0069  0.4175  0.2917
 2963poe     o213949  -0.104  -0.216   0.074 -0.3148  0.3371 -0.0730
 2963poe    c2313950  -0.078  -0.269  -0.054  0.1374 -0.3469  0.2992
 2963poe    c2313951  -0.066  -0.420  -0.027 -0.4131 -0.4344  0.0582
 2963poe     o213952   0.035  -0.458   0.065 -0.2085 -0.1053 -0.0315
 2963poe    c2313953   0.043  -0.599   0.068 -0.0684 -0.1107 -0.5052
 2963poe    c2313954   0.141  -0.672   0.162 -0.2003  0.1895 -0.1304
 2963poe     o213955   0.269  -0.668   0.103 -0.1273 -0.2500 -0.0060
 2963poe    c3113956   0.352  -0.781   0.117 -0.6561 -0.5744  0.5328
 2964poe    c3113957   0.463   5.953   0.695 -0.1016  0.0444 -0.3184
 2964poe     o213958   0.586   5.907   0.643 -0.1254 -0.2168 -0.1422
 2964poe    c2313959   0.564   5.878   0.506 -0.4339  0.3112 -0.2065
 2964poe    c2313960   0.700   5.840   0.445 -0.4999 -0.4986  0.1432
 2964poe     o213961   0.778   5.747   0.518 -0.1442 -0.0288  0.3615
 2964poe    c2313962   0.910   5.797   0.522 -0.1595  0.0190  0.2824
 2964poe    c2313963   1.002   5.692   0.587 -0.1890 -0.1939 -0.0130
 2964poe     o213964   1.007   5.564   0.528  0.0178  0.0191 -0.4565
 2964poe    c2313965   0.894   5.486   0.559  0.2333 -0.2495 -0.3516
 2964poe    c2313966   0.868   5.372   0.458 -0.1131 -0.7196  0.2589
 2964poe     o213967   0.974   5.281   0.449  0.3355 -0.2297  0.5412
 2964poe    c3113968   0.928   5.154   0.408  0.3429 -0.0653  0.0129
 2965poe    c3113969   6.007   2.618   4.987  0.2420  0.2965 -0.0165
 2965poe     o213970   5.867   2.606   4.979  0.2756 -0.0222 -0.1284
 2965poe    c2313971   5.837   2.720   4.902  0.1165 -0.1257 -0.2208
 2965poe    c2313972   5.704   2.724   4.824 -0.3340 -0.5895  0.5149
 2965poe     o213973   5.692   2.613   4.737 -0.1330 -0.1359 -0.0985
 2965poe    c2313974   5.608   2.621   4.625  0.3034  0.1001 -0.4113
 2965poe    c2313975   5.601   2.482   4.559  0.3551 -0.2100  0.2271
 2965poe     o213976   5.504   2.397   4.614 -0.1173 -0.0632 -0.3625
 2965poe    c2313977   5.509   2.267   4.558  0.0323 -0.2516  0.0823
 2965poe    c2313978   5.405   2.253   4.445 -0.0349 -0.5643  0.1834
 2965poe     o213979   5.273   2.257   4.493 -0.1219 -0.1204 -0.0979
 2965poe    c3113980   5.199   2.145   4.450 -0.1531 -0.2590  0.3138
 2966poe    c3113981   3.488   4.234   6.673  0.1910 -0.4117  0.3951
 2966poe     o213982   3.428   4.153   6.574  0.4542 -0.6251  0.4105
 2966poe    c2313983   3.518   4.131   6.468 -0.6304 -0.0713 -0.6528
 2966poe    c2313984   3.462   4.035   6.361  0.1934 -0.5142 -0.6962
 2966poe     o213985   3.348   4.095   6.305  0.1570 -0.1006 -0.1947
 2966poe    c2313986   3.257   3.997   6.260 -0.1008  0.2179 -0.3688
 2966poe    c2313987   3.129   4.059   6.200 -0.0470  0.4406 -0.2537
 2966poe     o213988   3.146   4.125   6.077  0.2171  0.3827 -0.2487
 2966poe    c2313989   3.177   4.052   5.961 -0.2085  0.2791 -0.3010
 2966poe    c2313990   3.230   4.141   5.848  0.2515  0.3301 -0.0515
 2966poe     o213991   3.136   4.247   5.846 -0.1922 -0.0588 -0.0794
 2966poe    c3113992   3.084   4.271   5.718 -0.3845  0.2100  0.0488
 2967poe    c3113993   2.856   5.757   2.254  0.0067  0.1465 -0.4604
 2967poe     o213994   2.797   5.773   2.381 -0.3444 -0.1530 -0.5840
 2967poe    c2313995   2.755   5.905   2.411 -0.1314 -0.1165 -0.4444
 2967poe    c2313996   2.653   5.896   2.526  0.3637  0.2770  0.0309
 2967poe     o213997   2.694   5.823   2.639  0.2607  0.3070  0.0876
 2967poe    c2313998   2.729   5.918   2.737  0.5969  0.5061 -0.2220
 2967poe    c2313999   2.808   5.856   2.854 -0.0451 -0.0871 -0.0906
 2967poe     o214000   2.707   5.781   2.917  0.0880 -0.2995 -0.1297
 2967poe    c2314001   2.750   5.695   3.020  0.3193 -0.0075  0.0208
 2967poe    c2314002   2.644   5.613   3.097 -0.1826  0.2809 -0.3538
 2967poe     o214003   2.551   5.544   3.018 -0.1124  0.0780 -0.2608
 2967poe    c3114004   2.426   5.526   3.080  0.0017  0.7649  0.1854
 2968poe    c3114005   6.936   3.368   5.982 -0.1169  0.4087  0.2723
 2968poe     o214006   6.848   3.319   6.080 -0.0025  0.0581  0.2016
 2968poe    c2314007   6.736   3.258   6.019  0.1020  0.0394  0.0268
 2968poe    c2314008   6.622   3.238   6.121  0.1387  0.0389  0.0680
 2968poe     o214009   6.657   3.182   6.245  0.2951  0.2405  0.1131
 2968poe    c2314010   6.543   3.173   6.328  0.0931 -0.4648 -0.2352
 2968poe    c2314011   6.586   3.164   6.475 -0.3587  0.0714 -0.0660
 2968poe     o214012   6.638   3.284   6.528 -0.7596  0.2659 -0.1121
 2968poe    c2314013   6.689   3.256   6.656 -0.0609  0.4067 -0.3541
 2968poe    c2314014   6.727   3.390   6.723  0.1482  0.3713 -0.4033
 2968poe     o214015   6.801   3.473   6.637  0.2776  0.2285 -0.4298
 2968poe    c3114016   6.855   3.574   6.719  1.1292 -0.0464 -0.6336
 2969poe    c3114017   1.903   3.611   1.010  0.2061  0.5695 -0.2883
 2969poe     o214018   1.856   3.505   0.931 -0.1429  0.7972 -0.3875
 2969poe    c2314019   1.942   3.495   0.819  0.0524  0.0157 -0.1766
 2969poe    c2314020   1.921   3.359   0.750  0.1576 -0.4071  0.6185
 2969poe     o214021   1.782   3.355   0.730  0.2479 -0.5822  0.0123
 2969poe    c2314022   1.757   3.228   0.675  0.1016 -0.1840 -0.8640
 2969poe    c2314023   1.630   3.219   0.589  0.0663 -0.8635 -0.7487
 2969poe     o214024   1.664   3.289   0.472  0.3053 -0.1185 -0.2407
 2969poe    c2314025   1.584   3.236   0.369 -0.0988  0.2488 -0.1201
 2969poe    c2314026   1.654   3.248   0.232 -0.1154  0.2877 -0.1252
 2969poe     o214027   1.677   3.379   0.185  0.4492  0.1817 -0.1462
 2969poe    c3114028   1.756   3.391   0.068  0.2978 -0.4121 -0.3109
 2970poe    c3114029   6.372   0.474   5.648 -0.0393 -0.2235  0.3200
 2970poe     o214030   6.335   0.598   5.591 -0.2868 -0.1999  0.5320
 2970poe    c2314031   6.252   0.598   5.477  0.2423 -0.3772  0.1406
 2970poe    c2314032   6.316   0.574   5.339 -0.3657  0.2330 -0.2594
 2970poe     o214033   6.363   0.695   5.285  0.3213  0.3514  0.5753
 2970poe    c2314034   6.475   0.666   5.204  0.1265 -0.1222  0.4736
 2970poe    c2314035   6.528   0.804   5.161  0.1828 -0.2085  0.2644
 2970poe     o214036   6.440   0.880   5.082  0.3260 -0.1097  0.1988
 2970poe    c2314037   6.513   0.959   4.992 -0.0737  0.2672  0.2020
 2970poe    c2314038   6.436   1.088   4.957  0.4517  0.4628 -0.2482
 2970poe     o214039   6.402   1.167   5.068 -0.2090  0.2658 -0.3037
 2970poe    c3114040   6.316   1.263   5.011 -0.6021 -0.1658 -0.4395
 2971poe    c3114041   5.665   5.243   0.666 -0.2721 -0.7714  0.4374
 2971poe     o214042   5.594   5.254   0.545  0.7465 -0.0716 -0.1039
 2971poe    c2314043   5.568   5.122   0.500  0.5591 -0.1156  0.1334
 2971poe    c2314044   5.467   5.141   0.385  0.4045  0.5672  0.3734
 2971poe     o214045   5.483   5.265   0.322 -0.1223  0.3367 -0.2259
 2971poe    c2314046   5.425   5.270   0.193 -0.0735  0.2882 -0.2500
 2971poe    c2314047   5.462   5.402   0.123 -0.9539  0.6157 -0.1105
 2971poe     o214048   5.419   5.508   0.206 -0.1796  0.6606  0.2418
 2971poe    c2314049   5.463   5.637   0.168  0.2570  0.3728 -0.2402
 2971poe    c2314050   5.402   5.748   0.255 -0.1877 -0.1780  0.1537
 2971poe     o214051   5.439   5.757   0.391  0.1265  0.4443  0.0298
 2971poe    c3114052   5.358   5.857   0.448 -0.7158 -0.2128  0.0112
 2972poe    c3114053   2.057   1.567   1.380  0.6076  0.0558 -0.1372
 2972poe     o214054   2.111   1.598   1.506 -0.3819  0.0984  0.2920
 2972poe    c2314055   2.194   1.493   1.551  0.4577  0.8226  0.4596
 2972poe    c2314056   2.221   1.485   1.703  0.3785 -0.2752  0.4246
 2972poe     o214057   2.267   1.606   1.759  0.3031 -0.1142  0.1420
 2972poe    c2314058   2.338   1.587   1.879  0.0635  0.2131  0.3366
 2972poe    c2314059   2.357   1.720   1.955  0.6901  0.2494  0.1197
 2972poe     o214060   2.229   1.777   1.967  0.6315  0.1609 -0.0759
 2972poe    c2314061   2.209   1.883   2.058  0.1833 -0.3179  0.3923
 2972poe    c2314062   2.062   1.930   2.053  0.3598  0.2184  0.2333
 2972poe     o214063   2.023   1.928   1.918  0.3386 -0.3206  0.2481
 2972poe    c3114064   1.933   2.033   1.897  0.7916 -0.0650 -0.4670
 2973poe    c3114065   0.538   6.948   0.823  0.0513 -0.1186  0.5664
 2973poe     o214066   0.633   6.844   0.836 -0.0773 -0.3622 -0.3606
 2973poe    c2314067   0.743   6.868   0.751  0.2288 -0.2169  0.0756
 2973poe    c2314068   0.842   6.752   0.731  0.0294 -0.3296 -0.2466
 2973poe     o214069   0.905   6.727   0.855 -0.2126 -0.1396 -0.0844
 2973poe    c2314070   1.025   6.655   0.839 -0.3618 -0.3671 -0.1886
 2973poe    c2314071   1.105   6.628   0.968  0.0340  0.4397 -0.2562
 2973poe     o214072   1.157   6.744   1.028  0.2438 -0.0805  0.5800
 2973poe    c2314073   1.215   6.721   1.155 -0.1146 -0.3552  0.6969
 2973poe    c2314074   1.336   6.812   1.181 -0.2444 -0.0404  0.2203
 2973poe     o214075   1.309   6.949   1.199  0.0558 -0.0103  0.4522
 2973poe    c3114076   1.420   7.028   1.234  0.0483  0.4248 -0.4760
 2974poe    c3114077   3.152   6.888   5.678  0.3343 -0.2241 -0.3253
 2974poe     o214078   3.264   6.974   5.687 -0.0816  0.3168 -0.2715
 2974poe    c2314079   3.254   7.038   5.561 -0.0399  0.9216  0.0285
 2974poe    c2314080   3.392   7.102   5.541  0.2774  0.1728 -0.1957
 2974poe     o214081   3.503   7.027   5.494  0.1239 -0.2349  0.0854
 2974poe    c2314082   3.492   7.007   5.355 -0.1509 -0.3740  0.1251
 2974poe    c2314083   3.597   6.904   5.307 -0.3289 -0.4598 -0.0819
 2974poe     o214084   3.729   6.951   5.326 -0.5429  0.2378 -0.2738
 2974poe    c2314085   3.820   6.847   5.353 -0.6500  0.3351  0.4628
 2974poe    c2314086   3.947   6.915   5.409 -0.2779 -0.4798  0.6243
 2974poe     o214087   3.938   7.015   5.509  0.1166 -0.3494  0.5325
 2974poe    c3114088   4.041   7.001   5.603  0.4449 -0.3038  0.1800
 2975poe    c3114089   4.075   3.928   3.783  0.1516 -0.2040 -0.7953
 2975poe     o214090   4.159   4.017   3.853 -0.2497 -0.5666  0.1569
 2975poe    c2314091   4.256   3.945   3.926  0.1853  0.0848  0.2241
 2975poe    c2314092   4.361   4.030   4.000  0.2803  0.5118 -0.3945
 2975poe     o214093   4.300   4.095   4.110 -0.0201  0.3797 -0.4825
 2975poe    c2314094   4.398   4.134   4.203 -0.0074 -0.3550 -0.1778
 2975poe    c2314095   4.477   4.264   4.176 -0.4455 -0.1542 -0.5038
 2975poe     o214096   4.390   4.375   4.176 -0.4035 -0.1223 -0.8238
 2975poe    c2314097   4.445   4.496   4.129  0.2211  0.0541  0.3286
 2975poe    c2314098   4.354   4.619   4.123 -0.1712 -0.2583 -0.2210
 2975poe     o214099   4.260   4.594   4.020 -0.1911 -0.0343 -0.2581
 2975poe    c3114100   4.188   4.709   3.982 -0.2995  0.1930  0.6177
 2976poe    c3114101   6.736   2.637   5.167 -0.4060 -0.1074 -0.0092
 2976poe     o214102   6.803   2.640   5.043  0.2820 -0.1191  0.3528
 2976poe    c2314103   6.767   2.525   4.970  0.2010  0.4206 -0.4735
 2976poe    c2314104   6.861   2.405   4.948 -0.0720  0.1217 -0.0201
 2976poe     o214105   6.911   2.355   5.071 -0.3604  0.0552  0.0695
 2976poe    c2314106   7.014   2.260   5.056 -0.1627  0.3317 -0.3619
 2976poe    c2314107   7.061   2.190   5.185 -0.0763 -0.0593 -0.6040
 2976poe     o214108   6.947   2.125   5.235  0.1246  0.3168  0.3702
 2976poe    c2314109   6.949   2.114   5.375  0.4354  0.2382  0.3591
 2976poe    c2314110   6.834   2.033   5.438  0.1809 -0.5435 -1.0706
 2976poe     o214111   6.880   1.906   5.479  0.0046 -0.2501  0.0657
 2976poe    c3114112   6.767   1.825   5.504 -0.1028  0.0328  0.5201
 2977poe    c3114113   3.617   4.863   4.715 -0.1992 -0.0402 -0.7670
 2977poe     o214114   3.514   4.842   4.810 -0.0129  0.5226 -0.4342
 2977poe    c2314115   3.426   4.741   4.765 -0.4167  0.7824 -0.2281
 2977poe    c2314116   3.326   4.699   4.874  0.1759  0.2491  0.1133
 2977poe     o214117   3.241   4.804   4.915  0.1553  0.0449  0.5977
 2977poe    c2314118   3.155   4.865   4.822  0.2367 -0.4190  0.2131
 2977poe    c2314119   3.081   4.988   4.877 -0.2279 -0.2918 -0.6801
 2977poe     o214120   3.005   4.965   4.993 -0.3079  0.4074 -0.5866
 2977poe    c2314121   2.954   5.085   5.047  0.2870  0.3425  0.1467
 2977poe    c2314122   2.919   5.068   5.196  0.6962  0.1938  0.2270
 2977poe     o214123   2.850   4.950   5.230  0.4791  0.2257 -0.0875
 2977poe    c3114124   2.832   4.936   5.370  0.5169  0.2207 -0.0832
 2978poe    c3114125   4.462   4.997   5.660  0.3695  0.0312 -0.5942
 2978poe     o214126   4.379   5.105   5.698  0.2769 -0.1283 -0.3458
 2978poe    c2314127   4.381   5.207   5.601  0.2760 -0.1025 -0.3179
 2978poe    c2314128   4.256   5.296   5.610  0.2588 -0.0842 -0.7093
 2978poe     o214129   4.266   5.388   5.716  0.0771 -0.4081 -0.4069
 2978poe    c2314130   4.158   5.479   5.723  0.5996  0.1675  0.3394
 2978poe    c2314131   4.142   5.540   5.864 -0.3131 -0.0414  0.3319
 2978poe     o214132   4.118   5.447   5.967 -0.0202 -0.1522  0.3014
 2978poe    c2314133   4.158   5.504   6.090  0.1046  0.2856  0.0601
 2978poe    c2314134   4.190   5.396   6.195  0.1522  0.6443  0.4170
 2978poe     o214135   4.295   5.306   6.168 -0.4491  0.2038 -0.5310
 2978poe    c3114136   4.317   5.224   6.281  0.0749  0.6246 -0.3270
 2979poe    c3114137   5.226   5.794   1.870 -0.3236 -0.2425 -0.1677
 2979poe     o214138   5.233   5.662   1.821  0.1422 -0.4392  0.4156
 2979poe    c2314139   5.208   5.563   1.918  0.4761 -0.3413  0.6048
 2979poe    c2314140   5.219   5.419   1.863  0.3866 -0.2342  0.3038
 2979poe     o214141   5.330   5.431   1.777 -0.0937 -0.0755 -0.3107
 2979poe    c2314142   5.345   5.312   1.702 -0.3762 -0.3311  0.0321
 2979poe    c2314143   5.450   5.322   1.590 -0.0828  0.8084  0.3913
 2979poe     o214144   5.393   5.393   1.483 -0.2736  0.5746  0.3373
 2979poe    c2314145   5.482   5.398   1.373 -0.2470  0.3498  0.3480
 2979poe    c2314146   5.424   5.505   1.279 -0.1572 -0.1747 -0.3187
 2979poe     o214147   5.427   5.623   1.357  0.2317 -0.3255 -0.1032
 2979poe    c3114148   5.446   5.734   1.272  0.6070 -0.1850  0.1644
 2980poe    c3114149   5.184   2.547   4.581  0.3784 -0.0034  0.0786
 2980poe     o214150   5.097   2.607   4.674  0.2496 -0.1754  0.0697
 2980poe    c2314151   4.992   2.669   4.604 -0.0753 -0.3527  0.3985
 2980poe    c2314152   4.864   2.678   4.689 -0.5391  0.3223 -0.3560
 2980poe     o214153   4.893   2.731   4.817 -0.1118 -0.1081 -0.2738
 2980poe    c2314154   4.852   2.866   4.821  0.0941 -0.0378 -0.5300
 2980poe    c2314155   4.939   2.943   4.922  0.0480 -0.0022 -0.5167
 2980poe     o214156   4.929   2.876   5.046  0.3431  0.4471 -0.2486
 2980poe    c2314157   4.991   2.964   5.137 -0.5194  0.2493  0.5462
 2980poe    c2314158   5.024   2.882   5.263  0.9261  0.4055  0.2836
 2980poe     o214159   5.065   2.755   5.218  0.3967  0.1683  0.4660
 2980poe    c3114160   5.120   2.679   5.323  0.3302 -0.2698  0.1901
 2981poe    c3114161   5.980   3.167   5.999 -0.2854  0.3053  0.4655
 2981poe     o214162   5.860   3.210   5.936  0.0950  0.0260 -0.4736
 2981poe    c2314163   5.745   3.187   6.015  0.3396  0.3688 -0.0095
 2981poe    c2314164   5.632   3.287   5.983 -0.2349 -0.2852 -0.0509
 2981poe     o214165   5.645   3.312   5.845 -0.2165  0.4011  0.0718
 2981poe    c2314166   5.532   3.382   5.799 -0.5820 -0.0517  0.2672
 2981poe    c2314167   5.582   3.448   5.669 -0.6340 -0.1106  0.2174
 2981poe     o214168   5.679   3.546   5.697 -0.7636  0.2882 -0.7001
 2981poe    c2314169   5.723   3.605   5.577  0.3844  0.2808 -0.2894
 2981poe    c2314170   5.834   3.701   5.625  0.4034  0.1991 -0.1704
 2981poe     o214171   5.957   3.644   5.665  0.1682  0.1420  0.4765
 2981poe    c3114172   6.054   3.745   5.682 -0.1495  0.5271  0.0421
 2982poe    c3114173   3.743   6.389   5.096  0.3531 -0.0571  0.2041
 2982poe     o214174   3.741   6.316   4.976 -0.3385  0.2208  0.0442
 2982poe    c2314175   3.847   6.226   4.952 -0.2249  0.3258  0.1529
 2982poe    c2314176   3.847   6.091   5.028 -0.4012  0.2303 -0.0149
 2982poe     o214177   3.881   6.085   5.164 -0.1157 -0.1228 -0.1004
 2982poe    c2314178   3.824   5.976   5.233 -0.4646  0.1097 -0.0185
 2982poe    c2314179   3.795   6.008   5.381  0.3004  0.3885  0.0736
 2982poe     o214180   3.912   5.995   5.459  0.0579 -0.4312  0.3066
 2982poe    c2314181   3.870   5.995   5.593 -0.1000  0.0023  0.2566
 2982poe    c2314182   3.986   6.028   5.689  0.2261  0.1162 -0.1745
 2982poe     o214183   4.096   5.941   5.678  0.2398  0.1253 -0.1070
 2982poe    c3114184   4.201   5.978   5.765 -0.0018  0.1985  0.1536
 2983poe    c3114185   6.271   1.559   6.648  0.3450  0.1844  0.1459
 2983poe     o214186   6.145   1.622   6.647  0.0661 -0.3623  0.0236
 2983poe    c2314187   6.047   1.528   6.611  0.0561 -0.3046 -0.1001
 2983poe    c2314188   5.916   1.603   6.581  0.1405 -0.1141  0.0102
 2983poe     o214189   5.897   1.680   6.698 -0.1185 -0.1809  0.0138
 2983poe    c2314190   5.763   1.723   6.710 -0.2418 -0.4573 -0.3526
 2983poe    c2314191   5.760   1.804   6.841  0.1350 -0.0783 -0.5708
 2983poe     o214192   5.873   1.886   6.855  0.0688 -0.0814 -0.0002
 2983poe    c2314193   5.846   1.984   6.953 -0.0222 -0.2111  0.1042
 2983poe    c2314194   5.985   2.027   7.004  0.0579 -0.3522  0.0046
 2983poe     o214195   6.047   1.925   7.078 -0.3065 -0.3014  0.3824
 2983poe    c3114196   6.150   1.976   7.159  0.1212 -0.2583 -0.1868
 2984poe    c3114197   4.853   4.270   0.244  0.4435  0.1745  0.1918
 2984poe     o214198   4.742   4.322   0.315  0.4784  0.3686  0.1063
 2984poe    c2314199   4.686   4.221   0.395  0.3633  0.4975  0.1879
 2984poe    c2314200   4.571   4.281   0.477  0.2486  0.3486  0.1372
 2984poe     o214201   4.611   4.354   0.591  0.4326  0.0373  0.2725
 2984poe    c2314202   4.495   4.380   0.667  0.2826 -0.2043  0.1289
 2984poe    c2314203   4.519   4.476   0.785  0.4820 -0.0531 -0.0330
 2984poe     o214204   4.558   4.611   0.773 -0.5329  0.2663  0.1500
 2984poe    c2314205   4.517   4.681   0.888 -0.5655 -0.1215  0.3749
 2984poe    c2314206   4.385   4.751   0.849 -0.4650 -0.0613  0.1412
 2984poe     o214207   4.412   4.845   0.748 -0.3141 -0.2788 -0.0228
 2984poe    c3114208   4.297   4.918   0.713  0.2410  0.3617 -0.5503
 2985poe    c3114209   3.164   5.213   2.117 -0.2015 -0.5544 -0.2109
 2985poe     o214210   3.048   5.217   2.037 -0.2720  0.3943 -0.0778
 2985poe    c2314211   3.043   5.349   1.990  0.1446  0.3341 -0.2996
 2985poe    c2314212   2.922   5.382   1.900 -0.1514  0.3270  0.0943
 2985poe     o214213   2.800   5.362   1.967 -0.1539 -0.6279 -0.1824
 2985poe    c2314214   2.688   5.359   1.882  0.0675 -0.3108 -0.4880
 2985poe    c2314215   2.558   5.298   1.938 -0.1477  0.5715 -0.0058
 2985poe     o214216   2.514   5.352   2.061 -0.0791  0.4638  0.0663
 2985poe    c2314217   2.418   5.454   2.046 -0.4016  0.1781  0.1900
 2985poe    c2314218   2.410   5.522   2.184  0.0384 -0.2520  0.4306
 2985poe     o214219   2.533   5.558   2.242 -0.0277  0.4303  0.1560
 2985poe    c3114220   2.501   5.649   2.345 -0.1998  0.8290 -0.2474
 2986poe    c3114221   7.167   5.001   6.325 -0.0658 -0.3256 -0.2577
 2986poe     o214222   7.155   5.104   6.229  0.2501 -0.1786 -0.1389
 2986poe    c2314223   7.128   5.227   6.293  0.3915  0.0562 -0.5290
 2986poe    c2314224   7.091   5.330   6.185  0.2461  0.5029 -0.0553
 2986poe     o214225   7.188   5.320   6.083  0.0553  0.0250 -0.1907
 2986poe    c2314226   7.185   5.438   6.006 -0.0092  0.1348 -0.0191
 2986poe    c2314227   7.221   5.419   5.858 -0.5401 -0.1868 -0.1105
 2986poe     o214228   7.137   5.344   5.772 -0.5679 -0.1249 -0.1377
 2986poe    c2314229   7.148   5.389   5.639 -0.0431  0.3247  0.0483
 2986poe    c2314230   7.051   5.308   5.550 -0.3703  0.0580  0.6333
 2986poe     o214231   6.923   5.330   5.604 -0.3730  0.4702  0.4667
 2986poe    c3114232   6.819   5.289   5.519 -0.0753  0.2647  0.1952
 2987poe    c3114233   4.518   4.295   3.728 -0.3119 -0.0082  0.6617
 2987poe     o214234   4.380   4.265   3.722 -0.3178  0.1513 -0.1431
 2987poe    c2314235   4.306   4.385   3.725 -0.0266  0.3255  0.1554
 2987poe    c2314236   4.161   4.361   3.771  0.1000 -0.2523  0.2579
 2987poe     o214237   4.071   4.311   3.675 -0.0774  0.2112  0.1795
 2987poe    c2314238   3.941   4.271   3.711 -0.0395 -0.1368 -0.0619
 2987poe    c2314239   3.862   4.258   3.579 -0.3587  0.0396  0.1115
 2987poe     o214240   3.943   4.184   3.491 -0.1723  0.3072  0.0557
 2987poe    c2314241   3.859   4.121   3.397 -0.1140  0.0291  0.1885
 2987poe    c2314242   3.930   4.005   3.325  0.3360  0.1649  0.4107
 2987poe     o214243   4.024   4.031   3.222 -0.0577 -0.3581 -0.0821
 2987poe    c3114244   3.970   4.097   3.110 -0.0787 -0.0158  0.1306
 2988poe    c3114245   3.973   1.100   4.732 -0.1966 -0.1912 -0.5382
 2988poe     o214246   3.910   0.975   4.746  0.6920 -0.5552  0.3603
 2988poe    c2314247   3.907   0.903   4.624 -0.2378  0.0100  0.0447
 2988poe    c2314248   3.774   0.830   4.602 -0.0375 -0.1694 -0.5681
 2988poe     o214249   3.659   0.904   4.635  0.2942 -0.0095  0.2414
 2988poe    c2314250   3.555   0.810   4.650 -0.1125  0.4820  0.5367
 2988poe    c2314251   3.419   0.858   4.595  0.0213  0.1143 -0.1132
 2988poe     o214252   3.354   0.957   4.670 -0.0690  0.0332 -0.0857
 2988poe    c2314253   3.222   0.970   4.622  0.0455  0.0029 -0.4079
 2988poe    c2314254   3.163   1.105   4.665 -0.1998 -0.2241 -0.0241
 2988poe     o214255   3.214   1.223   4.605 -0.3101 -0.1476  0.0318
 2988poe    c3114256   3.158   1.342   4.654 -0.3153 -0.3580  0.5463
 2989poe    c3114257   3.073   6.910   4.389  0.0057  0.3742  0.2501
 2989poe     o214258   2.961   6.924   4.306  0.0652  0.4363  0.1808
 2989poe    c2314259   2.876   6.816   4.335 -0.4946  0.8192 -0.0130
 2989poe    c2314260   2.733   6.838   4.281 -0.7641 -0.6006  0.0798
 2989poe     o214261   2.713   6.836   4.141 -0.3232 -0.3049  0.0101
 2989poe    c2314262   2.599   6.916   4.118 -0.0002 -0.0537 -0.7385
 2989poe    c2314263   2.455   6.863   4.106 -0.0461  0.0436 -0.6204
 2989poe     o214264   2.444   6.837   3.968  0.0906  0.0148 -0.6265
 2989poe    c2314265   2.309   6.797   3.952 -0.0127  0.0480  0.1091
 2989poe    c2314266   2.265   6.740   3.816 -0.1673  0.1121  0.1321
 2989poe     o214267   2.343   6.636   3.759  0.4858  0.8615 -0.3671
 2989poe    c3114268   2.278   6.607   3.638  0.1464 -0.0394  0.0188
 2990poe    c3114269   4.035   0.891   2.050  0.6959 -0.0304  0.6047
 2990poe     o214270   4.070   1.011   1.984 -0.2809 -0.2668 -0.3648
 2990poe    c2314271   3.985   1.117   2.021  0.3119 -0.1673  0.7671
 2990poe    c2314272   4.011   1.254   1.956  0.7007 -0.7041 -0.2421
 2990poe     o214273   4.143   1.294   1.988  0.4358  0.0915 -0.1185
 2990poe    c2314274   4.191   1.410   1.923  0.3450  0.2209  0.0448
 2990poe    c2314275   4.336   1.443   1.966  0.4691 -0.1411 -0.0945
 2990poe     o214276   4.431   1.352   1.915  0.0121 -0.2687 -0.7372
 2990poe    c2314277   4.563   1.402   1.917 -0.0492 -0.1279  0.3530
 2990poe    c2314278   4.653   1.302   1.843  0.2471  0.1623  0.3179
 2990poe     o214279   4.593   1.179   1.877 -0.2686  0.1707 -0.5279
 2990poe    c3114280   4.689   1.080   1.849 -0.1757  0.1567 -0.1613
 2991poe    c3114281   4.629   4.606   2.050 -0.1293 -0.1368 -0.0697
 2991poe     o214282   4.705   4.617   2.168 -0.6005  0.0009  0.2209
 2991poe    c2314283   4.683   4.505   2.251 -0.0834 -0.0087  0.3475
 2991poe    c2314284   4.728   4.521   2.397  0.2857 -0.2441  0.2591
 2991poe     o214285   4.674   4.630   2.468 -0.2441 -0.0590 -0.4235
 2991poe    c2314286   4.686   4.615   2.607 -0.1002 -0.2908 -0.4610
 2991poe    c2314287   4.599   4.714   2.687 -0.5483 -0.3844 -0.8341
 2991poe     o214288   4.632   4.837   2.628  0.2683 -0.2971 -0.2092
 2991poe    c2314289   4.545   4.938   2.673  0.6976 -0.0429  0.0538
 2991poe    c2314290   4.603   5.073   2.626  0.1121  0.3053  0.3291
 2991poe     o214291   4.634   5.056   2.490  0.0192  0.1851  0.3227
 2991poe    c3114292   4.643   5.179   2.421  0.5292 -0.1507 -0.2167
 2992poe    c3114293   4.886   3.086   6.783 -0.2790 -0.0803  0.0140
 2992poe     o214294   4.880   3.210   6.716  0.0203 -0.1890 -0.2152
 2992poe    c2314295   4.911   3.304   6.816  0.4817 -0.2719 -0.2789
 2992poe    c2314296   4.990   3.425   6.763  0.5668 -0.5768 -0.8580
 2992poe     o214297   4.932   3.497   6.657  0.3798 -0.0142 -0.3819
 2992poe    c2314298   4.999   3.620   6.642  0.3650  0.0502  0.0598
 2992poe    c2314299   4.920   3.701   6.537  0.2036  0.0589  0.1870
 2992poe     o214300   4.889   3.619   6.427 -0.1090 -0.1339  0.4186
 2992poe    c2314301   4.848   3.691   6.313 -0.3697 -0.0598  0.5593
 2992poe    c2314302   4.815   3.580   6.211  0.1124  0.1555  0.1641
 2992poe     o214303   4.733   3.485   6.276  0.3890 -0.1936  0.0004
 2992poe    c3114304   4.656   3.407   6.188 -0.1666 -0.0325  0.3447
 2993poe    c3114305   2.402   6.093   1.196 -0.1468  0.3057  0.0181
 2993poe     o214306   2.367   5.960   1.165  0.0326  0.3003 -0.1575
 2993poe    c2314307   2.483   5.882   1.146 -0.0616  0.2146 -0.3872
 2993poe    c2314308   2.452   5.732   1.153 -0.3245  0.2811 -0.1082
 2993poe     o214309   2.430   5.697   1.288 -0.0757  0.1068 -0.1112
 2993poe    c2314310   2.428   5.557   1.279 -0.3710  0.1443 -0.6249
 2993poe    c2314311   2.406   5.484   1.413  0.1747  0.7898 -0.1835
 2993poe     o214312   2.286   5.525   1.475 -0.5290 -0.3603 -0.7624
 2993poe    c2314313   2.237   5.434   1.570 -0.3793  0.1900 -0.1533
 2993poe    c2314314   2.088   5.423   1.531 -0.4808 -0.2503  0.3511
 2993poe     o214315   2.028   5.550   1.540  0.4260  0.2025  0.1367
 2993poe    c3114316   1.892   5.546   1.576  0.2356  0.3137 -0.5539
 2994poe    c3114317   2.774   7.000   5.806  0.6987 -0.0261  0.1939
 2994poe     o214318   2.748   6.906   5.908 -0.3701  0.3938  0.3223
 2994poe    c2314319   2.846   6.896   6.008  0.1464 -0.8498 -0.2744
 2994poe    c2314320   2.810   6.802   6.125  0.7198  0.1049  0.6981
 2994poe     o214321   2.806   6.662   6.108  0.4182  0.1762  0.1462
 2994poe    c2314322   2.710   6.611   6.018 -0.0209  0.2341  0.5792
 2994poe    c2314323   2.714   6.458   6.012  0.1065  0.2439  0.4218
 2994poe     o214324   2.821   6.402   5.939 -0.2414  0.2634 -0.1118
 2994poe    c2314325   2.805   6.263   5.924  0.1393  0.1745  0.2863
 2994poe    c2314326   2.935   6.206   5.864  0.1292  0.2974  0.1475
 2994poe     o214327   2.960   6.266   5.739 -0.2460 -0.2345 -0.1832
 2994poe    c3114328   3.051   6.201   5.653  0.1983  0.1080  0.0266
 2995poe    c3114329   3.839   5.835   3.140  0.0336 -0.4913  0.3237
 2995poe     o214330   3.879   5.715   3.077  0.0248 -0.0981 -0.4472
 2995poe    c2314331   4.015   5.726   3.039  0.1090 -0.1392 -0.1612
 2995poe    c2314332   4.065   5.597   2.973 -0.1722 -0.3725  0.0803
 2995poe     o214333   3.986   5.502   3.041  0.1156 -0.1221  0.7802
 2995poe    c2314334   4.026   5.369   3.013  0.0677 -0.0130  0.1848
 2995poe    c2314335   3.986   5.277   3.129 -0.1666  0.4946  0.5117
 2995poe     o214336   3.846   5.288   3.147 -0.2850  0.6995 -0.4947
 2995poe    c2314337   3.812   5.200   3.252  0.1436  0.4652 -0.5471
 2995poe    c2314338   3.660   5.191   3.278  0.3720  0.2605  0.7416
 2995poe     o214339   3.594   5.311   3.313 -0.4968  0.0560 -0.1790
 2995poe    c3114340   3.470   5.290   3.376 -0.3632 -0.8005 -0.1890
 2996poe    c3114341   1.362   3.587   0.318 -0.1369  0.5100 -0.8343
 2996poe     o214342   1.401   3.565   0.452 -0.5334 -0.1987 -0.8244
 2996poe    c2314343   1.276   3.548   0.514 -0.1564  0.2574  0.0817
 2996poe    c2314344   1.302   3.513   0.662 -0.4655 -0.4557 -0.0311
 2996poe     o214345   1.377   3.613   0.726 -0.2144 -0.7343  0.1098
 2996poe    c2314346   1.318   3.736   0.760  0.1270 -0.3704 -0.5768
 2996poe    c2314347   1.423   3.820   0.835 -0.1670 -0.2153 -0.3338
 2996poe     o214348   1.526   3.874   0.755 -0.2822 -0.0173 -0.3474
 2996poe    c2314349   1.628   3.938   0.827 -0.2511 -0.2883 -0.1476
 2996poe    c2314350   1.720   4.029   0.743 -0.5956 -0.0231 -0.2401
 2996poe     o214351   1.651   4.130   0.672 -0.0240  0.4924 -0.0748
 2996poe    c3114352   1.736   4.197   0.582  0.4192  0.0290 -0.0097
 2997poe    c3114353   2.861   4.601   3.903  0.1691 -0.5011 -0.3311
 2997poe     o214354   2.855   4.721   3.828 -0.2974 -0.1322  0.2919
 2997poe    c2314355   2.764   4.718   3.720  0.4382 -0.2415 -0.3311
 2997poe    c2314356   2.795   4.843   3.635  0.5200  0.4027  0.6325
 2997poe     o214357   2.927   4.858   3.589  0.3899  0.1535  0.1732
 2997poe    c2314358   2.957   4.964   3.500  0.0990 -0.0596 -0.1836
 2997poe    c2314359   3.103   4.959   3.452  0.0889  0.4388 -0.2701
 2997poe     o214360   3.188   4.946   3.564  0.3084  0.2955 -0.4529
 2997poe    c2314361   3.327   4.954   3.541  0.3647 -0.1011 -0.2575
 2997poe    c2314362   3.402   4.961   3.676 -0.1553 -0.2112  0.0397
 2997poe     o214363   3.390   4.853   3.765  0.1167 -0.3322 -0.0695
 2997poe    c3114364   3.456   4.903   3.878 -0.0303  0.2055 -0.2189
 2998poe    c3114365   4.418   6.669   0.357  0.2317  0.3156 -0.2253
 2998poe     o214366   4.280   6.683   0.379  0.2207 -0.2847  0.1101
 2998poe    c2314367   4.273   6.793   0.467  0.3253  0.2508 -0.5424
 2998poe    c2314368   4.132   6.808   0.527  0.5174  0.5093 -0.1516
 2998poe     o214369   4.031   6.865   0.447  0.2335  0.1008 -0.0859
 2998poe    c2314370   3.909   6.841   0.515  0.2014  0.3478 -0.0527
 2998poe    c2314371   3.792   6.864   0.418  0.3235 -0.2833 -0.3559
 2998poe     o214372   3.799   6.999   0.377 -0.2854 -0.2749 -0.4439
 2998poe    c2314373   3.705   7.022   0.274 -0.3870 -0.0661 -0.3049
 2998poe    c2314374   3.728   7.156   0.203  0.2387 -0.0471 -0.0744
 2998poe     o214375   3.856   7.150   0.146  0.3704  0.2502  0.1861
 2998poe    c3114376   3.871   7.242   0.040  0.0370  0.5305  0.3813
 2999poe    c3114377   4.166   4.952   2.572 -0.0554 -0.2209  0.0565
 2999poe     o214378   4.028   4.925   2.578 -0.0418 -0.2039  0.4842
 2999poe    c2314379   4.004   4.786   2.565 -0.0880 -0.1123 -0.4697
 2999poe    c2314380   3.857   4.743   2.573 -0.1557  0.2397  0.3538
 2999poe     o214381   3.781   4.777   2.459  0.2201  0.2015  0.0879
 2999poe    c2314382   3.699   4.668   2.421 -0.0506  0.4486 -0.0377
 2999poe    c2314383   3.650   4.670   2.275 -0.6250 -0.3745  0.1424
 2999poe     o214384   3.576   4.783   2.236  0.4176  0.2739  0.0090
 2999poe    c2314385   3.585   4.795   2.096 -0.1502  0.0801 -0.0503
 2999poe    c2314386   3.554   4.942   2.061 -0.7291 -0.0031  0.1086
 2999poe     o214387   3.651   5.021   2.127  0.1078 -0.1809 -0.8797
 2999poe    c3114388   3.728   5.108   2.047  1.0321 -0.0089  0.1771
 3000poe    c3114389   0.575   3.460   2.524 -0.0340 -0.7363  0.0247
 3000poe     o214390   0.474   3.490   2.431  0.5615  0.2614 -0.3146
 3000poe    c2314391   0.391   3.382   2.397  0.4199  0.2446  0.0765
 3000poe    c2314392   0.281   3.431   2.301  0.1867 -0.8368 -0.2228
 3000poe     o214393   0.332   3.484   2.181 -0.0204  0.2613  0.1687
 3000poe    c2314394   0.234   3.570   2.127  0.2024  0.3266 -0.1381
 3000poe    c2314395   0.285   3.641   2.000 -0.2220  0.1495 -0.4062
 3000poe     o214396   0.389   3.732   2.027  0.0875 -0.3343  0.0526
 3000poe    c2314397   0.404   3.800   1.905 -0.1964  0.0607  0.2334
 3000poe    c2314398   0.516   3.903   1.928  0.0397 -0.2150  0.3291
 3000poe     o214399   0.640   3.836   1.939  0.2815  0.2021  0.1825
 3000poe    c3114400   0.741   3.913   2.001 -0.0357  0.7473  0.0358
 3001poe    c3114401   5.835   2.408   5.717 -0.4555 -0.7769 -0.1845
 3001poe     o214402   5.900   2.446   5.597 -1.0732  0.0065 -0.2811
 3001poe    c2314403   5.949   2.332   5.529 -0.6276  0.3956 -0.6145
 3001poe    c2314404   6.034   2.363   5.404 -0.7086  0.0298 -0.7615
 3001poe     o214405   6.150   2.443   5.420 -0.4884 -0.4710  0.3025
 3001poe    c2314406   6.223   2.440   5.299  0.0946 -0.3845  0.6488
 3001poe    c2314407   6.347   2.531   5.307 -0.0823 -0.0638 -0.1255
 3001poe     o214408   6.310   2.667   5.293 -0.3111 -0.1103  0.0202
 3001poe    c2314409   6.405   2.746   5.362 -0.1189  0.1903 -0.5892
 3001poe    c2314410   6.379   2.898   5.370  0.2359  0.2384 -0.3526
 3001poe     o214411   6.275   2.934   5.458  0.1612 -0.0538 -0.3198
 3001poe    c3114412   6.256   3.072   5.436 -1.2707 -0.1267  0.3536
 3002poe    c3114413   7.035   5.078   3.670  0.0233  0.3111 -0.4007
 3002poe     o214414   6.959   4.988   3.593  0.3777 -0.1184 -0.2562
 3002poe    c2314415   6.963   5.040   3.462 -0.1768  0.3222 -0.1043
 3002poe    c2314416   6.888   4.964   3.351 -0.1714  0.0212  0.0991
 3002poe     o214417   6.752   4.958   3.387 -0.2505  0.1324 -0.1794
 3002poe    c2314418   6.704   4.858   3.301  0.5423 -0.3002 -0.1215
 3002poe    c2314419   6.558   4.836   3.343  0.5421  0.2155  0.1487
 3002poe     o214420   6.524   4.778   3.467  0.4633  0.2881  0.1617
 3002poe    c2314421   6.387   4.744   3.465  0.5132  0.0808  0.2266
 3002poe    c2314422   6.323   4.692   3.594  0.1942  0.5755  0.2681
 3002poe     o214423   6.298   4.789   3.693 -0.8243  0.4737  0.1237
 3002poe    c3114424   6.267   4.720   3.813  0.5869 -0.6806 -0.1416
 3003poe    c3114425   5.787   0.824   4.482  0.0845 -0.5507  0.5088
 3003poe     o214426   5.827   0.823   4.617  0.5321  0.4989  0.3926
 3003poe    c2314427   5.870   0.951   4.659 -0.6571  0.7545  0.8731
 3003poe    c2314428   5.918   0.941   4.805 -0.2969 -0.5926  0.6845
 3003poe     o214429   6.039   0.868   4.805 -0.2703 -0.5506  0.2383
 3003poe    c2314430   6.106   0.866   4.929  0.0721  0.5581  0.0870
 3003poe    c2314431   6.187   0.735   4.926 -0.1487  0.4111  0.5386
 3003poe     o214432   6.107   0.619   4.936  0.2304  0.1522  0.5973
 3003poe    c2314433   6.178   0.502   4.902  0.1040  0.3704 -0.4213
 3003poe    c2314434   6.083   0.383   4.924  0.0283  0.5896  0.4790
 3003poe     o214435   5.973   0.386   4.836  0.2126 -0.4129  0.1965
 3003poe    c3114436   5.870   0.297   4.872 -0.4041  0.2884  0.1857
 3004poe    c3114437   1.813   2.504   1.445 -0.1484 -0.6374 -0.0042
 3004poe     o214438   1.924   2.467   1.525 -0.0400 -0.9415 -0.2909
 3004poe    c2314439   1.895   2.445   1.661 -0.2053  0.0413 -0.1603
 3004poe    c2314440   2.022   2.402   1.737  0.0402  0.5637 -0.2665
 3004poe     o214441   2.072   2.283   1.680 -0.4610 -0.0051  0.4608
 3004poe    c2314442   2.195   2.239   1.734 -0.4509 -0.5316  0.0143
 3004poe    c2314443   2.240   2.104   1.674 -0.2967 -0.5254  0.1154
 3004poe     o214444   2.251   2.114   1.533  0.0869 -0.1867  0.1662
 3004poe    c2314445   2.354   2.028   1.490 -0.4539 -0.3825 -0.7627
 3004poe    c2314446   2.345   1.982   1.344  0.1016 -0.3910 -0.7980
 3004poe     o214447   2.374   2.091   1.259  0.4845  0.0162 -0.1436
 3004poe    c3114448   2.366   2.043   1.127  0.0032  0.9157 -0.4515
 3005poe    c3114449   5.367   0.293   6.035 -0.1859 -0.4635  0.2787
 3005poe     o214450   5.267   0.389   6.062  0.0849 -0.0856 -0.0328
 3005poe    c2314451   5.146   0.335   6.012 -0.0830 -0.0301  0.3116
 3005poe    c2314452   5.045   0.446   5.977  0.1407  0.1074  0.1009
 3005poe     o214453   5.064   0.530   5.865  0.1706 -0.1383 -0.0797
 3005poe    c2314454   5.058   0.473   5.736  0.9365  0.3084 -0.3158
 3005poe    c2314455   5.022   0.580   5.632 -0.1317 -0.2397 -0.5188
 3005poe     o214456   5.125   0.674   5.613 -0.1153 -0.2410 -0.4326
 3005poe    c2314457   5.066   0.773   5.532 -0.1237 -0.2252 -0.4076
 3005poe    c2314458   5.170   0.881   5.496  0.2807 -0.3726  0.2875
 3005poe     o214459   5.223   0.932   5.616  0.1893 -0.5818  0.4177
 3005poe    c3114460   5.299   1.042   5.570 -0.7449 -0.0227  0.1844
 3006poe    c3114461   4.465   3.123   0.432  0.2682  0.4673  0.3177
 3006poe     o214462   4.477   3.117   0.292  0.1088  0.2616  0.3120
 3006poe    c2314463   4.545   2.999   0.257 -0.0492  0.2364  0.0889
 3006poe    c2314464   4.525   2.987   0.104  0.4770 -0.3862  0.0632
 3006poe     o214465   4.550   3.116   0.054 -0.1771 -0.1365  0.3641
 3006poe    c2314466   4.588   3.123  -0.081 -1.0413  0.1164  0.1282
 3006poe    c2314467   4.622   3.268  -0.120  0.0543 -0.0728  0.3329
 3006poe     o214468   4.514   3.340  -0.064  0.0197  0.1346  0.0075
 3006poe    c2314469   4.518   3.475  -0.103  0.0867  0.2590  0.4404
 3006poe    c2314470   4.379   3.541  -0.113 -0.5021 -1.0048  0.0793
 3006poe     o214471   4.313   3.529   0.011 -0.2868 -0.2037  0.2768
 3006poe    c3114472   4.207   3.622   0.025 -0.4614 -0.3346 -0.1473
 3007poe    c3114473   7.073   6.081   3.542  0.0425 -0.4868 -0.1807
 3007poe     o214474   7.183   6.002   3.582  0.1896 -0.1823  0.0153
 3007poe    c2314475   7.250   6.073   3.684 -0.1663  0.5474 -0.2562
 3007poe    c2314476   7.391   6.014   3.702 -0.6301 -0.3356  0.5119
 3007poe     o214477   7.347   5.880   3.702 -0.6749 -0.3220  0.1302
 3007poe    c2314478   7.443   5.801   3.769 -0.1131  0.0382 -0.2497
 3007poe    c2314479   7.475   5.664   3.707  0.3035 -0.0414  0.1346
 3007poe     o214480   7.354   5.601   3.671  0.3870 -0.0124 -0.2035
 3007poe    c2314481   7.360   5.460   3.672 -0.4042 -0.0525 -0.0510
 3007poe    c2314482   7.277   5.401   3.556 -0.2891  0.0647 -0.1944
 3007poe     o214483   7.146   5.452   3.548 -0.3252  0.0297  0.1268
 3007poe    c3114484   7.073   5.389   3.445  0.1608  0.4603 -0.4925
 3008poe    c3114485   2.756   4.480   2.018 -0.3939  0.0797  0.0509
 3008poe     o214486   2.768   4.431   1.886 -0.2117 -0.3441  0.2215
 3008poe    c2314487   2.811   4.297   1.892  0.4003 -0.1708 -0.2074
 3008poe    c2314488   2.841   4.239   1.752  0.3228 -0.0651 -0.2682
 3008poe     o214489   2.722   4.224   1.679  0.1248 -0.4899  0.1391
 3008poe    c2314490   2.743   4.250   1.542  0.1848  0.2700  0.2897
 3008poe    c2314491   2.773   4.393   1.493  0.4123  0.2610  0.4033
 3008poe     o214492   2.664   4.467   1.443  0.2226  0.0480  0.5036
 3008poe    c2314493   2.703   4.582   1.372 -0.2348  0.0670  0.2765
 3008poe    c2314494   2.587   4.650   1.297  0.2492 -0.1037 -0.6472
 3008poe     o214495   2.499   4.704   1.393  0.3958 -0.0312 -0.5518
 3008poe    c3114496   2.408   4.788   1.325  0.4364  0.5193  0.0702
 3009poe    c3114497   1.724   1.668   5.981 -0.4957 -0.1944 -0.5744
 3009poe     o214498   1.709   1.707   6.116 -0.6026  0.1815 -0.6941
 3009poe    c2314499   1.584   1.669   6.167  0.0351  0.0661  0.8354
 3009poe    c2314500   1.502   1.778   6.240 -0.4027  0.1950  0.1567
 3009poe     o214501   1.557   1.803   6.367 -0.1185 -0.3873  0.1534
 3009poe    c2314502   1.467   1.868   6.454  0.1299 -0.0461  0.1576
 3009poe    c2314503   1.524   1.932   6.582  0.2957 -0.1548  0.1380
 3009poe     o214504   1.619   2.028   6.542  0.3614 -0.3462 -0.1703
 3009poe    c2314505   1.683   2.081   6.656 -0.2854  0.2975 -0.0969
 3009poe    c2314506   1.823   2.146   6.645 -0.0057 -0.2556  0.1340
 3009poe     o214507   1.936   2.066   6.621 -0.0232 -0.2576  0.0588
 3009poe    c3114508   2.043   2.147   6.577 -0.3537  0.2965  0.2646
 3010poe    c3114509   1.744   4.404   3.533  0.4733 -0.4421 -0.0758
 3010poe     o214510   1.781   4.289   3.605  0.2020 -0.3073  0.2836
 3010poe    c2314511   1.663   4.249   3.669 -0.1469 -0.0089 -0.1668
 3010poe    c2314512   1.681   4.133   3.769 -0.5806  0.1794  0.1374
 3010poe     o214513   1.768   4.156   3.877 -0.0524 -0.3778 -0.1632
 3010poe    c2314514   1.749   4.034   3.946  0.1830 -0.3620 -0.0693
 3010poe    c2314515   1.826   4.025   4.080 -0.1610 -0.4732  0.1207
 3010poe     o214516   1.965   4.022   4.060 -0.1518  0.7108 -0.0674
 3010poe    c2314517   2.026   4.005   4.186 -0.1180 -0.0138 -0.1795
 3010poe    c2314518   2.177   3.977   4.168 -0.1102  0.0806 -0.2658
 3010poe     o214519   2.236   4.097   4.125 -0.5733  0.4973  0.2483
 3010poe    c3114520   2.354   4.128   4.196  0.0148 -0.0255 -0.4873
 3011poe    c3114521   1.711   6.938   4.772 -0.9973 -0.0697  0.3785
 3011poe     o214522   1.638   6.819   4.757 -0.3996 -0.3376 -0.5101
 3011poe    c2314523   1.533   6.788   4.846  0.1916 -0.0541  0.3000
 3011poe    c2314524   1.519   6.635   4.836 -0.1765 -0.0233  0.3056
 3011poe     o214525   1.514   6.579   4.707  0.1151 -0.1044  0.3285
 3011poe    c2314526   1.447   6.455   4.710 -0.2284  0.0749  0.0662
 3011poe    c2314527   1.410   6.404   4.570  0.0550  0.2116 -0.0597
 3011poe     o214528   1.498   6.460   4.476 -0.0146  0.0530 -0.2217
 3011poe    c2314529   1.493   6.387   4.355  0.5240 -0.2111 -0.0874
 3011poe    c2314530   1.614   6.421   4.265  0.3288 -0.3432 -0.3981
 3011poe     o214531   1.608   6.559   4.238  0.0900 -0.3530 -0.4018
 3011poe    c3114532   1.676   6.586   4.117  0.5899 -0.8835 -0.2455
 3012poe    c3114533   5.551   4.407   1.945  0.0604  0.3960 -0.1038
 3012poe     o214534   5.412   4.424   1.960 -0.0312 -0.2444 -0.1765
 3012poe    c2314535   5.373   4.546   1.900 -0.0533  0.1026  0.5286
 3012poe    c2314536   5.221   4.565   1.912 -0.1299  0.2004 -0.4923
 3012poe     o214537   5.185   4.629   2.033  0.2033  0.5325 -0.5676
 3012poe    c2314538   5.050   4.611   2.068  0.4328 -0.3029 -0.0818
 3012poe    c2314539   5.032   4.657   2.214 -0.0036 -0.0325 -0.2188
 3012poe     o214540   5.118   4.596   2.308 -0.2385 -0.0380 -0.0096
 3012poe    c2314541   5.086   4.649   2.435  0.4222  0.2614  0.0344
 3012poe    c2314542   5.127   4.539   2.534  0.4476  0.7876  0.6201
 3012poe     o214543   5.254   4.508   2.479 -0.0069  0.3445 -0.2159
 3012poe    c3114544   5.329   4.431   2.570 -0.1952  0.0800 -0.2840
 3013poe    c3114545   3.817   0.368   1.131 -0.0515 -0.2005  0.9094
 3013poe     o214546   3.797   0.268   1.033  0.0952  0.8047 -0.1648
 3013poe    c2314547   3.690   0.306   0.950 -0.2670  0.2382  0.0379
 3013poe    c2314548   3.648   0.186   0.863  0.2112 -0.1453  0.3338
 3013poe     o214549   3.759   0.142   0.788  0.1265 -0.1402  0.2047
 3013poe    c2314550   3.738   0.013   0.735  0.4498 -0.3466  0.5652
 3013poe    c2314551   3.874  -0.024   0.673 -0.0444 -0.6247 -0.3687
 3013poe     o214552   3.977  -0.051   0.765 -0.0504  0.3717 -0.0632
 3013poe    c2314553   4.101  -0.040   0.700 -0.0066 -0.0509 -0.0506
 3013poe    c2314554   4.211  -0.096   0.793 -0.2825 -0.4811  0.0182
 3013poe     o214555   4.342  -0.101   0.742 -0.1926 -0.5065  0.2527
 3013poe    c3114556   4.428  -0.197   0.800  0.1131 -0.3604  0.0447
 3014poe    c3114557   1.747   2.883   0.227 -0.1625  0.1373  0.8248
 3014poe     o214558   1.717   2.745   0.220 -0.1071  0.1724 -0.3122
 3014poe    c2314559   1.622   2.704   0.316  0.1876 -0.2636 -0.2016
 3014poe    c2314560   1.600   2.554   0.291  0.7070 -0.3842  0.0477
 3014poe     o214561   1.615   2.527   0.153  0.7962  0.4857 -0.1217
 3014poe    c2314562   1.618   2.386   0.143 -0.5644  0.4586 -0.4261
 3014poe    c2314563   1.691   2.354   0.012  0.3696 -0.4622  0.3000
 3014poe     o214564   1.784   2.458  -0.007 -0.1622 -0.0422 -0.0468
 3014poe    c2314565   1.859   2.448  -0.126  0.1253 -0.2778  0.1536
 3014poe    c2314566   1.789   2.471  -0.261  0.0212  0.2292  0.2905
 3014poe     o214567   1.729   2.598  -0.254 -0.5525 -0.0261  0.1096
 3014poe    c3114568   1.723   2.662  -0.379  0.0990 -0.4343 -0.1349
 3015poe    c3114569   1.706   1.447   0.284 -0.3752  0.4659  0.3536
 3015poe     o214570   1.618   1.557   0.287 -0.1088  0.6918 -0.0177
 3015poe    c2314571   1.677   1.666   0.221  0.5223 -0.2175 -0.9910
 3015poe    c2314572   1.596   1.794   0.249  0.0829 -0.5701 -0.6480
 3015poe     o214573   1.458   1.763   0.245  0.0128 -0.3307 -0.1812
 3015poe    c2314574   1.385   1.837   0.340 -0.0466 -0.3450 -0.2160
 3015poe    c2314575   1.240   1.792   0.314 -0.0615 -0.7128  0.4905
 3015poe     o214576   1.239   1.655   0.280  0.1948 -0.7033  0.4437
 3015poe    c2314577   1.104   1.627   0.250  0.1445 -0.6785  0.6466
 3015poe    c2314578   1.061   1.479   0.243 -0.4618 -0.4723 -0.0446
 3015poe     o214579   1.115   1.411   0.132 -0.4269  0.1485 -0.4153
 3015poe    c3114580   1.058   1.285   0.104  0.2147 -0.3227  0.3489
 3016poe    c3114581   2.954   1.633   5.139  0.2472 -0.3041  0.2209
 3016poe     o214582   2.963   1.503   5.085  0.0565 -0.1470 -0.1969
 3016poe    c2314583   2.951   1.511   4.945  0.0508  0.3853 -0.1684
 3016poe    c2314584   2.824   1.545   4.864 -0.3113 -0.4618  0.0356
 3016poe     o214585   2.744   1.430   4.846 -0.0851 -0.5610 -0.3466
 3016poe    c2314586   2.630   1.476   4.777 -0.2149 -0.3711 -0.0063
 3016poe    c2314587   2.534   1.357   4.762 -0.1697 -0.4123  0.0284
 3016poe     o214588   2.479   1.309   4.883 -0.0004 -0.0311  0.2584
 3016poe    c2314589   2.369   1.227   4.852  0.1769 -0.2162  0.1189
 3016poe    c2314590   2.237   1.301   4.825  0.0155 -0.6265 -0.2276
 3016poe     o214591   2.221   1.352   4.695 -0.0201  0.1067  0.0626
 3016poe    c3114592   2.114   1.444   4.689 -0.3165 -0.2566 -0.2430
 3017poe    c3114593   2.661   3.550   4.361  0.0891  0.0669  0.1123
 3017poe     o214594   2.772   3.550   4.448  0.0505  0.4292  0.1640
 3017poe    c2314595   2.800   3.418   4.490 -0.0933  0.4105  0.2009
 3017poe    c2314596   2.930   3.410   4.572  0.0004  0.4903  0.0605
 3017poe     o214597   3.051   3.444   4.508 -0.0711  0.0030 -0.3399
 3017poe    c2314598   3.163   3.427   4.591 -0.1567  0.1839 -0.1869
 3017poe    c2314599   3.298   3.451   4.519  0.3317 -0.1081  0.6243
 3017poe     o214600   3.304   3.588   4.487 -0.4670 -0.1603  0.2328
 3017poe    c2314601   3.432   3.596   4.428 -0.4075 -0.4652  0.3180
 3017poe    c2314602   3.439   3.680   4.299  0.4333 -0.3612  0.4291
 3017poe     o214603   3.363   3.639   4.188  0.4916  0.4951  0.0673
 3017poe    c3114604   3.347   3.737   4.088  0.2943  0.5217  0.1244
 3018poe    c3114605   6.486   0.951   0.711  0.3587 -0.8079 -0.2423
 3018poe     o214606   6.465   0.840   0.795 -0.4698 -0.1648  0.4178
 3018poe    c2314607   6.565   0.833   0.895  0.0524 -0.2274 -0.1061
 3018poe    c2314608   6.566   0.698   0.970  0.0047  0.0187  0.3379
 3018poe     o214609   6.614   0.586   0.899  0.1504  0.0186  0.4368
 3018poe    c2314610   6.648   0.478   0.982 -0.2789 -0.2175  0.3088
 3018poe    c2314611   6.671   0.343   0.910 -0.5219  0.4783 -1.1096
 3018poe     o214612   6.553   0.274   0.877 -0.2358 -0.3587 -0.4283
 3018poe    c2314613   6.571   0.135   0.884  0.3670 -0.2496  0.3255
 3018poe    c2314614   6.458   0.040   0.841  0.2102 -0.0473  0.2902
 3018poe     o214615   6.344   0.044   0.924  0.0485 -0.0549  0.0688
 3018poe    c3114616   6.262  -0.069   0.904 -0.2340  0.1287  0.1750
 3019poe    c3114617   2.238   4.116   5.415  0.3213  0.2794  0.1113
 3019poe     o214618   2.212   4.226   5.499  0.3213  0.0557  0.4047
 3019poe    c2314619   2.330   4.298   5.530  0.2016  0.5678 -0.3178
 3019poe    c2314620   2.313   4.432   5.603 -0.1232  0.5820 -0.4156
 3019poe     o214621   2.230   4.426   5.716  0.1851  0.2795 -0.2023
 3019poe    c2314622   2.289   4.359   5.826 -0.0799 -0.2108 -0.3530
 3019poe    c2314623   2.192   4.321   5.939  0.0814  0.6304  0.0792
 3019poe     o214624   2.109   4.221   5.884  0.4284  0.2522  0.2344
 3019poe    c2314625   2.019   4.179   5.985  0.2023 -0.7480 -0.3738
 3019poe    c2314626   1.930   4.062   5.940 -0.7792 -0.2451  0.2248
 3019poe     o214627   1.865   4.104   5.822 -0.2382  0.1235  0.0549
 3019poe    c3114628   1.824   3.984   5.761  0.1295  0.1223 -0.1907
 3020poe    c3114629   5.573   5.856   1.958 -0.0307 -0.1697 -0.5541
 3020poe     o214630   5.641   5.744   2.012  0.0204  0.2087  0.1700
 3020poe    c2314631   5.756   5.787   2.083  0.2025  0.2230 -0.1334
 3020poe    c2314632   5.837   5.665   2.131  0.2985  0.3317 -0.0215
 3020poe     o214633   5.893   5.581   2.032 -0.5651 -0.3666  0.0723
 3020poe    c2314634   5.946   5.459   2.079 -0.1121 -0.2223 -0.0582
 3020poe    c2314635   6.052   5.399   1.986  0.0988 -0.0032  0.0411
 3020poe     o214636   6.006   5.380   1.854  0.1976 -0.2429  0.0410
 3020poe    c2314637   6.043   5.265   1.781  0.0672  0.1100 -0.5935
 3020poe    c2314638   5.975   5.260   1.643 -0.1450  0.1008 -0.4881
 3020poe     o214639   5.837   5.231   1.643 -0.1413  0.0387  0.4235
 3020poe    c3114640   5.790   5.206   1.512 -0.0996  0.4932  0.3187
 3021poe    c3114641   5.426   2.501   0.994 -0.2864 -0.1537  0.1094
 3021poe     o214642   5.294   2.476   0.953 -0.3580 -0.0502  0.2741
 3021poe    c2314643   5.217   2.576   1.017  0.3461  0.3877  0.4467
 3021poe    c2314644   5.067   2.565   0.981  0.5260  0.0524 -0.2334
 3021poe     o214645   5.050   2.522   0.848 -0.4310 -0.4657  0.0475
 3021poe    c2314646   4.915   2.551   0.821 -0.4667 -0.4128  0.2831
 3021poe    c2314647   4.893   2.572   0.670  0.0237 -0.1870  0.2446
 3021poe     o214648   4.932   2.454   0.604  0.0638 -0.1151  0.1406
 3021poe    c2314649   4.987   2.485   0.477  0.2546 -0.3874  0.1561
 3021poe    c2314650   5.025   2.354   0.404 -0.0636 -0.2099 -0.3359
 3021poe     o214651   5.109   2.267   0.477  0.2156  0.4291  0.1257
 3021poe    c3114652   5.116   2.132   0.435  0.0244  0.3421  0.3736
 3022poe    c3114653   3.782   1.114   6.813 -0.5678  0.3060  0.4050
 3022poe     o214654   3.875   1.192   6.741  0.0666  0.1134  1.0045
 3022poe    c2314655   4.004   1.134   6.746  0.0065 -0.1242  0.0185
 3022poe    c2314656   4.113   1.192   6.655  0.1020 -0.4666 -0.0847
 3022poe     o214657   4.080   1.165   6.520  0.0225  0.2434 -0.2086
 3022poe    c2314658   4.103   1.278   6.438  0.0071  0.3127 -0.1182
 3022poe    c2314659   4.040   1.269   6.298 -0.2062 -0.0555  0.0013
 3022poe     o214660   3.913   1.328   6.315 -0.0032  0.3232  0.2075
 3022poe    c2314661   3.855   1.326   6.186  0.1053  0.2220  0.1599
 3022poe    c2314662   3.710   1.374   6.170 -0.1157 -0.3210  0.4922
 3022poe     o214663   3.695   1.514   6.163 -0.4399 -0.3887 -0.2506
 3022poe    c3114664   3.560   1.541   6.192 -0.3732  0.1270 -0.3972
 3023poe    c3114665   4.041   0.966   1.107 -0.2873  0.5611 -0.0559
 3023poe     o214666   4.032   1.015   1.239 -0.5569  0.2605  0.0380
 3023poe    c2314667   4.006   1.153   1.247  0.1409  0.4027 -0.1513
 3023poe    c2314668   3.865   1.198   1.208 -0.3186 -0.4543  0.4910
 3023poe     o214669   3.784   1.173   1.321 -0.4303 -0.4303  0.4171
 3023poe    c2314670   3.657   1.233   1.308  0.0177  0.5664  0.6354
 3023poe    c2314671   3.567   1.232   1.433 -0.8187  0.2877  0.0319
 3023poe     o214672   3.597   1.112   1.501 -0.2698  0.2782 -0.2187
 3023poe    c2314673   3.549   1.104   1.633  0.2743  0.0180 -0.0378
 3023poe    c2314674   3.575   0.964   1.691 -0.2481  0.2572  0.7888
 3023poe     o214675   3.712   0.930   1.690 -0.1614  0.6174  0.5387
 3023poe    c3114676   3.751   0.838   1.789 -0.2658 -0.2821 -0.2473
 3024poe    c3114677   4.010   3.970   1.739 -0.5092 -0.0686  0.0787
 3024poe     o214678   3.917   4.050   1.809  0.0159  0.5116  0.1226
 3024poe    c2314679   3.791   3.987   1.797  0.1139  0.2908  0.2450
 3024poe    c2314680   3.692   4.093   1.850  0.0606  0.3871 -0.0459
 3024poe     o214681   3.658   4.217   1.793 -0.0676  0.3759  0.0059
 3024poe    c2314682   3.556   4.204   1.696 -0.1088  0.0462  0.0932
 3024poe    c2314683   3.485   4.340   1.689 -0.1077  0.0289 -0.2725
 3024poe     o214684   3.573   4.438   1.637  0.1168 -0.1019 -0.1401
 3024poe    c2314685   3.516   4.566   1.624  0.5018  0.0860  0.0078
 3024poe    c2314686   3.619   4.679   1.600  0.3905  0.0663 -0.5761
 3024poe     o214687   3.717   4.685   1.701  0.2133  0.5109 -0.4280
 3024poe    c3114688   3.748   4.821   1.725  0.7893  0.4009 -0.5216
 3025poe    c3114689   2.474   5.182   6.474 -0.0811 -0.0324 -0.6366
 3025poe     o214690   2.424   5.063   6.531  0.6220  0.1888  0.4742
 3025poe    c2314691   2.420   5.077   6.671  0.2137  0.3757  0.4469
 3025poe    c2314692   2.352   4.959   6.743  0.0681  0.0003 -0.2919
 3025poe     o214693   2.430   4.842   6.753  0.3092  0.1884  0.0694
 3025poe    c2314694   2.351   4.725   6.761  0.6995 -0.0857 -0.0453
 3025poe    c2314695   2.398   4.601   6.684 -0.2019 -0.4799  0.0300
 3025poe     o214696   2.476   4.522   6.771 -0.0223 -0.0047  0.2983
 3025poe    c2314697   2.538   4.414   6.705  0.2767  0.3933 -0.0814
 3025poe    c2314698   2.612   4.325   6.807 -0.2096 -0.0489 -0.1097
 3025poe     o214699   2.526   4.263   6.900  0.1167 -0.2999  0.0259
 3025poe    c3114700   2.599   4.166   6.971  0.3999 -0.1078 -0.0005
 3026poe    c3114701   3.974   6.478   2.060  0.0482  0.2070 -0.3217
 3026poe     o214702   4.055   6.507   2.172 -0.1360  0.3869 -0.2353
 3026poe    c2314703   4.193   6.506   2.141 -0.0047  0.2464  0.3458
 3026poe    c2314704   4.269   6.564   2.262 -0.2061  0.3851  0.4073
 3026poe     o214705   4.228   6.493   2.376  0.2934 -0.1930  0.2285
 3026poe    c2314706   4.281   6.546   2.496 -0.1945  0.1936  0.2734
 3026poe    c2314707   4.224   6.472   2.617  0.1372 -0.1093  0.2473
 3026poe     o214708   4.083   6.472   2.614  0.1501  0.5404 -0.7727
 3026poe    c2314709   4.015   6.402   2.717  0.4442  0.1390 -0.8505
 3026poe    c2314710   3.870   6.450   2.730  0.4774  0.0313 -0.0243
 3026poe     o214711   3.793   6.419   2.616 -0.0423  0.4816  0.1995
 3026poe    c3114712   3.653   6.421   2.638 -0.0422  0.0107  0.2609
 3027poe    c3114713   3.931   2.533   2.284 -0.3033 -0.4457 -0.2463
 3027poe     o214714   3.872   2.503   2.409 -0.0375 -0.2182 -0.0644
 3027poe    c2314715   3.961   2.450   2.504 -0.0492 -0.0873  0.0200
 3027poe    c2314716   3.916   2.412   2.646  0.2343 -0.4772  0.0099
 3027poe     o214717   3.961   2.491   2.754 -0.1992 -0.3747  0.1177
 3027poe    c2314718   3.901   2.619   2.765  0.3574 -0.1036  0.0190
 3027poe    c2314719   3.984   2.700   2.867  0.4198 -0.2602  0.0939
 3027poe     o214720   4.110   2.743   2.822  0.1503  0.1947 -0.2404
 3027poe    c2314721   4.191   2.784   2.930  0.3258 -0.4847 -0.1094
 3027poe    c2314722   4.343   2.794   2.907  0.2627  0.2995 -0.1993
 3027poe     o214723   4.387   2.902   2.827  0.0410  0.6215  0.1089
 3027poe    c3114724   4.526   2.892   2.805 -0.0307 -0.0279 -0.0684
 3028poe    c3114725   0.315   2.958   6.476  0.3172  0.4577 -0.7097
 3028poe     o214726   0.197   2.974   6.400 -0.0801 -0.2475 -0.2525
 3028poe    c2314727   0.092   2.916   6.473  0.1556 -0.0428  0.2589
 3028poe    c2314728  -0.041   2.984   6.436 -0.2353 -0.9192  0.0221
 3028poe     o214729  -0.080   2.944   6.306 -0.4627 -0.1826 -0.1428
 3028poe    c2314730  -0.187   3.024   6.262  0.0835  0.4297 -0.3617
 3028poe    c2314731  -0.275   2.937   6.171  0.3046  0.1782 -0.3377
 3028poe     o214732  -0.202   2.889   6.061  0.1202 -0.6186 -0.1213
 3028poe    c2314733  -0.270   2.803   5.973 -0.1382 -0.0905 -0.4449
 3028poe    c2314734  -0.166   2.739   5.878  0.0295  0.0782 -0.3756
 3028poe     o214735  -0.059   2.679   5.945 -0.4663  0.0211  0.3716
 3028poe    c3114736   0.031   2.615   5.857 -0.1058  0.6342  0.2941
 3029poe    c3114737   2.680   1.881   5.575 -0.2511 -0.2527 -0.2456
 3029poe     o214738   2.711   1.744   5.585 -0.3093 -0.2346  0.2072
 3029poe    c2314739   2.801   1.711   5.481  0.1307 -0.2346  0.5833
 3029poe    c2314740   2.797   1.559   5.457  0.0856 -0.0838 -0.3780
 3029poe     o214741   2.677   1.488   5.434 -0.3636  0.4963  0.1239
 3029poe    c2314742   2.622   1.515   5.308 -0.0932 -0.1114 -0.1268
 3029poe    c2314743   2.490   1.435   5.308 -0.2640  0.1639 -0.5303
 3029poe     o214744   2.504   1.295   5.321 -0.5282  0.1511 -0.3669
 3029poe    c2314745   2.390   1.231   5.269 -0.3273 -0.4726 -0.0468
 3029poe    c2314746   2.416   1.086   5.223 -0.3606 -0.4561 -0.1163
 3029poe     o214747   2.522   1.083   5.130  0.0769 -0.3953  0.3776
 3029poe    c3114748   2.534   0.953   5.078  0.6953 -0.0575 -0.3402
 3030poe    c3114749   0.672   3.772   5.429  0.1210 -0.4564 -0.6894
 3030poe     o214750   0.787   3.718   5.369  0.1376 -0.7296 -0.4174
 3030poe    c2314751   0.843   3.817   5.285  0.0442 -0.0665  0.2870
 3030poe    c2314752   0.928   3.763   5.168  0.0374 -0.1850  0.3372
 3030poe     o214753   0.868   3.675   5.076 -0.0459  0.3207 -0.0938
 3030poe    c2314754   0.959   3.630   4.978  0.3856 -0.1112  0.4971
 3030poe    c2314755   0.895   3.526   4.885  0.1471  0.2525  0.2506
 3030poe     o214756   0.805   3.593   4.800 -0.0929 -0.2387  0.1113
 3030poe    c2314757   0.758   3.510   4.696 -0.0714 -0.2911  0.1442
 3030poe    c2314758   0.641   3.573   4.620  0.5995  0.6101 -0.1607
 3030poe     o214759   0.530   3.609   4.700  0.3227 -0.3922 -0.0829
 3030poe    c3114760   0.419   3.632   4.616  0.1544  0.1825  0.2954
 3031poe    c3114761   0.955   7.162   3.939  0.0623 -0.1136  0.7860
 3031poe     o214762   0.961   7.170   4.079  0.5888  0.8948  0.7157
 3031poe    c2314763   0.880   7.076   4.146  0.4434  0.1489 -0.4788
 3031poe    c2314764   0.902   7.107   4.295 -0.6887 -0.2014 -0.2291
 3031poe     o214765   0.908   7.248   4.304 -0.0557 -0.2661  0.4437
 3031poe    c2314766   0.914   7.282   4.441  0.4344  0.7188  0.1842
 3031poe    c2314767   0.869   7.427   4.468 -0.3564  0.5823 -0.3554
 3031poe     o214768   0.950   7.517   4.396  0.0030  0.5030 -0.0557
 3031poe    c2314769   0.934   7.652   4.433 -0.0898  0.3966  0.2923
 3031poe    c2314770   1.017   7.734   4.333 -0.1864  0.3989  0.2143
 3031poe     o214771   0.958   7.709   4.207  0.1148  0.0470  0.1419
 3031poe    c3114772   1.028   7.791   4.116  0.3279  0.0711  0.3256
 3032poe    c3114773   3.460   3.430   2.911  0.3294  0.4560  0.2549
 3032poe     o214774   3.355   3.478   2.991 -0.3154 -0.8969  0.2407
 3032poe    c2314775   3.246   3.516   2.909 -0.1309 -0.1613  0.3260
 3032poe    c2314776   3.125   3.576   2.983 -0.2308  0.2740 -0.1908
 3032poe     o214777   3.136   3.700   3.049  0.3310  0.1667 -0.0798
 3032poe    c2314778   3.141   3.812   2.963  0.5335  0.1565 -0.0829
 3032poe    c2314779   3.124   3.937   3.051 -0.1999 -0.0549  0.0897
 3032poe     o214780   3.009   3.954   3.130 -0.1039  0.1206  0.1927
 3032poe    c2314781   2.878   3.964   3.080  0.1772  0.2774 -0.5184
 3032poe    c2314782   2.831   4.088   3.001 -0.2407  0.1907 -0.4116
 3032poe     o214783   2.841   4.211   3.069 -0.1793  0.0239 -0.1168
 3032poe    c3114784   2.838   4.319   2.978  0.1986 -0.1533 -0.3385
 3033poe    c3114785   6.751   6.942   1.526 -0.3066  0.3533  0.3553
 3033poe     o214786   6.841   6.848   1.471 -0.4680  0.1376  0.4565
 3033poe    c2314787   6.773   6.764   1.382  0.4860 -0.0909 -0.0760
 3033poe    c2314788   6.863   6.656   1.319  0.0876 -0.4234 -0.0825
 3033poe     o214789   6.957   6.708   1.228 -0.3587  0.0761 -0.2647
 3033poe    c2314790   7.039   6.596   1.202 -0.0625  0.2769 -0.2092
 3033poe    c2314791   7.101   6.600   1.061  0.2206 -0.1799 -0.0961
 3033poe     o214792   7.010   6.601   0.954 -0.3226  0.3820  0.3670
 3033poe    c2314793   7.001   6.471   0.902 -0.0318  0.4571  0.1277
 3033poe    c2314794   6.897   6.461   0.789  0.1340 -0.1158  0.0204
 3033poe     o214795   6.775   6.507   0.844  0.4023  0.6026  0.0264
 3033poe    c3114796   6.669   6.465   0.761  0.1626  0.1947  0.5296
 3034poe    c3114797   2.431   6.738   0.796 -0.5572 -0.0401 -0.4908
 3034poe     o214798   2.450   6.865   0.854  0.0146 -0.4683  0.2717
 3034poe    c2314799   2.376   6.865   0.974 -0.3861 -0.0153  0.0256
 3034poe    c2314800   2.358   7.011   1.020  0.5671  0.1513 -0.0927
 3034poe     o214801   2.473   7.078   1.067  0.3468  0.0529  0.5942
 3034poe    c2314802   2.427   7.204   1.110  0.1384  0.2111 -0.0740
 3034poe    c2314803   2.517   7.249   1.227 -0.4459  0.8261  0.1393
 3034poe     o214804   2.639   7.301   1.179  0.0956 -0.1412  0.4519
 3034poe    c2314805   2.738   7.339   1.272  0.3955  0.1400  0.0219
 3034poe    c2314806   2.802   7.231   1.361  0.8187  0.5125  0.1715
 3034poe     o214807   2.902   7.165   1.285  0.8120  0.4203  0.2432
 3034poe    c3114808   2.978   7.071   1.358  0.2240 -0.1096  0.1858
 3035poe    c3114809   2.007   6.408   6.736  0.2376 -0.2973  0.3314
 3035poe     o214810   1.962   6.306   6.822  0.0937 -0.0597  0.5400
 3035poe    c2314811   1.829   6.273   6.789  0.2062  0.0116  0.0104
 3035poe    c2314812   1.778   6.147   6.861 -0.0735  0.3355  0.3824
 3035poe     o214813   1.846   6.039   6.802 -0.0841  0.3955  0.2591
 3035poe    c2314814   1.838   5.920   6.878 -0.1846 -0.2197 -0.7097
 3035poe    c2314815   1.934   5.803   6.850 -0.0924 -0.2332 -0.3410
 3035poe     o214816   2.068   5.845   6.865 -0.0605 -0.4351 -0.0617
 3035poe    c2314817   2.163   5.769   6.793  0.0755 -0.6813  0.3698
 3035poe    c2314818   2.298   5.843   6.798 -0.1544 -0.2371  0.0624
 3035poe     o214819   2.312   5.899   6.926 -0.5468 -0.1648  0.0780
 3035poe    c3114820   2.452   5.890   6.947 -0.5750 -0.2253  0.2385
 3036poe    c3114821   5.377   1.659   3.285 -0.0980  0.0393 -0.0352
 3036poe     o214822   5.339   1.563   3.190  0.2810 -0.1368 -0.0075
 3036poe    c2314823   5.454   1.521   3.120  0.3186  0.1350 -0.1095
 3036poe    c2314824   5.416   1.396   3.039 -0.5895  0.1099  0.3443
 3036poe     o214825   5.335   1.430   2.928 -0.5332 -0.0630  0.2487
 3036poe    c2314826   5.325   1.317   2.844  0.3486  0.2364 -0.2702
 3036poe    c2314827   5.263   1.346   2.706  0.0084  0.2280 -0.1217
 3036poe     o214828   5.127   1.380   2.715 -0.0960 -0.1696 -0.1688
 3036poe    c2314829   5.046   1.331   2.611 -0.0772 -0.6566  0.0415
 3036poe    c2314830   4.907   1.305   2.673 -0.1665 -0.1458  0.0584
 3036poe     o214831   4.850   1.430   2.705 -0.0052 -0.1440  0.3338
 3036poe    c3114832   4.726   1.431   2.771 -0.1079 -0.1214  0.1408
 3037poe    c3114833   3.021   1.523   1.483  0.4898 -0.0660  0.0263
 3037poe     o214834   3.026   1.417   1.391  0.0890 -0.0015 -0.0717
 3037poe    c2314835   3.066   1.296   1.450 -0.2991 -0.0020  0.1975
 3037poe    c2314836   3.070   1.176   1.353 -0.3737  0.0565  0.1228
 3037poe     o214837   2.938   1.139   1.318 -0.2533 -0.3124  0.0601
 3037poe    c2314838   2.933   1.114   1.180 -0.0768 -0.0297  0.0013
 3037poe    c2314839   2.793   1.118   1.116 -0.2370 -0.6704  0.3028
 3037poe     o214840   2.733   1.245   1.106  0.6133 -0.2931 -0.1475
 3037poe    c2314841   2.632   1.223   1.010 -0.1469 -0.1839  0.6084
 3037poe    c2314842   2.516   1.323   1.020 -0.3182 -0.3208  0.0332
 3037poe     o214843   2.544   1.458   0.990 -0.0986 -0.3242  0.2227
 3037poe    c3114844   2.424   1.530   1.003 -0.2151 -0.4191 -0.3132
 3038poe    c3114845   1.920   6.094   4.199 -0.1971  0.0618 -0.1253
 3038poe     o214846   1.882   5.958   4.197 -0.0041  0.0066 -0.0603
 3038poe    c2314847   1.984   5.889   4.266  0.2060  0.1195 -0.2573
 3038poe    c2314848   1.941   5.741   4.273  0.2634  0.1006 -0.2944
 3038poe     o214849   1.897   5.706   4.144 -0.6799 -0.2909  0.1216
 3038poe    c2314850   1.893   5.567   4.123 -0.0994 -0.3401  0.3217
 3038poe    c2314851   1.833   5.546   3.983 -0.3073  0.3241  0.3111
 3038poe     o214852   1.729   5.640   3.962 -0.7844 -0.2176  0.2182
 3038poe    c2314853   1.670   5.599   3.841  0.1276 -0.1770 -0.2534
 3038poe    c2314854   1.605   5.719   3.769  0.2666 -0.1710 -0.3687
 3038poe     o214855   1.710   5.799   3.719 -0.1217  0.6071  0.0352
 3038poe    c3114856   1.682   5.864   3.597 -0.4586 -0.1539 -0.3011
 3039poe    c3114857   0.906   1.377   0.586  0.6671  0.1403  0.4615
 3039poe     o214858   0.959   1.246   0.589  0.0616 -0.1201  0.1231
 3039poe    c2314859   1.097   1.266   0.563  0.0431 -0.6105 -0.3556
 3039poe    c2314860   1.160   1.127   0.542 -0.7269 -0.9785 -0.2940
 3039poe     o214861   1.162   1.068   0.670 -0.6337 -0.2444  0.0466
 3039poe    c2314862   1.251   0.960   0.680 -0.3045  0.0261  0.0455
 3039poe    c2314863   1.248   0.927   0.831 -0.1420 -0.0485  0.0332
 3039poe     o214864   1.122   0.913   0.893 -0.0125  0.5009  0.4308
 3039poe    c2314865   1.130   0.838   1.012 -0.2232  0.3058  0.3220
 3039poe    c2314866   0.987   0.833   1.068 -0.1241 -0.5269  0.5108
 3039poe     o214867   0.925   0.959   1.055  0.1740 -0.4489 -0.1539
 3039poe    c3114868   0.813   0.973   1.139  0.6493  0.1223  0.3927
 3040poe    c3114869   6.127   2.497   6.445  0.0093 -0.2399 -0.3637
 3040poe     o214870   6.016   2.558   6.505  0.3863  0.1915 -0.0975
 3040poe    c2314871   6.043   2.669   6.589 -0.1219  0.1550  0.1229
 3040poe    c2314872   5.937   2.672   6.700 -0.3189  0.3883 -0.0700
 3040poe     o214873   5.810   2.667   6.639 -0.2144  0.2302 -0.2739
 3040poe    c2314874   5.702   2.681   6.729  0.1644  0.2443  0.1866
 3040poe    c2314875   5.573   2.701   6.647 -0.0871 -0.1780  0.4772
 3040poe     o214876   5.527   2.584   6.582 -0.5792  0.0906  0.3371
 3040poe    c2314877   5.445   2.626   6.475 -0.3470  0.3918  0.2741
 3040poe    c2314878   5.425   2.506   6.381  0.2335  0.5799 -0.0924
 3040poe     o214879   5.535   2.505   6.294  0.0983  0.3243 -0.2599
 3040poe    c3114880   5.538   2.395   6.205 -0.7210 -0.2864  0.4527
 3041poe    c3114881   1.070   5.350   3.197  0.7452  0.1181  0.0207
 3041poe     o214882   1.026   5.428   3.307 -0.6474 -0.5346 -0.0490
 3041poe    c2314883   1.064   5.562   3.285  0.0576 -0.6122  0.6567
 3041poe    c2314884   0.973   5.669   3.348 -0.5370 -0.5600 -0.2817
 3041poe     o214885   1.022   5.690   3.478 -0.0776 -0.1756 -0.5147
 3041poe    c2314886   0.961   5.802   3.538  0.1843 -0.0815 -0.4186
 3041poe    c2314887   1.054   5.860   3.646 -0.3454  0.1225 -0.0687
 3041poe     o214888   1.111   5.748   3.711 -0.3957  0.2288  0.1595
 3041poe    c2314889   1.196   5.791   3.815  0.2825 -0.1923 -0.2144
 3041poe    c2314890   1.232   5.678   3.914  0.0868 -0.0821 -0.0162
 3041poe     o214891   1.300   5.575   3.846  0.0837  0.0113 -0.1622
 3041poe    c3114892   1.311   5.463   3.931 -0.5742 -0.1881 -0.3391
 3042poe    c3114893   4.164   2.089   1.536  0.8375  0.3289 -0.1497
 3042poe     o214894   4.189   2.120   1.401 -0.1077  0.1113 -0.3850
 3042poe    c2314895   4.151   2.248   1.356 -0.5566  0.0988 -0.0408
 3042poe    c2314896   4.153   2.258   1.203 -0.1388  0.2029 -0.0287
 3042poe     o214897   4.054   2.165   1.168 -0.4829  0.6452 -0.2469
 3042poe    c2314898   4.002   2.192   1.039 -0.2612  0.8351 -0.2960
 3042poe    c2314899   3.875   2.110   1.009  0.0382  0.1561  0.2637
 3042poe     o214900   3.901   1.972   1.020 -0.4703 -0.0005 -0.4612
 3042poe    c2314901   3.813   1.884   0.954 -0.3033 -0.2792 -0.3167
 3042poe    c2314902   3.857   1.741   0.991  0.1117  0.0318  0.4142
 3042poe     o214903   3.894   1.742   1.127 -0.2243  0.0789  0.5069
 3042poe    c3114904   3.917   1.612   1.178  0.7799  0.3333  0.7237
 3043poe    c3114905   6.602   0.364   7.179 -0.1199 -0.3864  0.2941
 3043poe     o214906   6.586   0.469   7.272 -0.3246 -0.0199 -0.1506
 3043poe    c2314907   6.663   0.447   7.387  0.2358 -0.0173 -0.5202
 3043poe    c2314908   6.705   0.575   7.461 -0.0480  0.0819 -0.5289
 3043poe     o214909   6.602   0.671   7.470  0.0676  0.1985 -0.4422
 3043poe    c2314910   6.658   0.791   7.517  0.2489 -0.1435  0.2241
 3043poe    c2314911   6.554   0.902   7.491  0.2552 -0.2626 -0.3143
 3043poe     o214912   6.441   0.841   7.549  0.0979  0.2535 -0.0701
 3043poe    c2314913   6.324   0.918   7.537 -0.1310 -0.0430  0.2442
 3043poe    c2314914   6.197   0.840   7.577 -0.2929  0.1825  0.1682
 3043poe     o214915   6.181   0.716   7.512  0.1602 -0.1281  0.6444
 3043poe    c3114916   6.068   0.656   7.570 -0.5702  0.3336 -0.2738
 3044poe    c3114917   2.429   4.797   7.149 -0.1131  0.1034  0.1213
 3044poe     o214918   2.554   4.748   7.106 -0.1945  0.2300 -0.2603
 3044poe    c2314919   2.582   4.624   7.167 -0.4022  0.4149  0.2198
 3044poe    c2314920   2.712   4.574   7.101 -0.5951  0.2865 -0.0698
 3044poe     o214921   2.791   4.688   7.074  0.1991 -0.2386 -0.0149
 3044poe    c2314922   2.927   4.664   7.047  0.3582 -0.2398  0.7616
 3044poe    c2314923   3.022   4.780   7.082 -0.2688  0.4589  0.1731
 3044poe     o214924   3.010   4.881   6.984 -0.1281  0.5223  0.2205
 3044poe    c2314925   3.051   4.999   7.048 -0.1892  0.5812  0.1515
 3044poe    c2314926   3.018   5.123   6.963  0.4147  0.3327 -0.4475
 3044poe     o214927   2.880   5.150   6.957  0.3426  0.0068 -0.2507
 3044poe    c3114928   2.848   5.244   6.857  0.3709 -0.3575 -0.6063
 3045poe    c3114929   0.092   3.250   0.517  0.3731  0.2850  0.7784
 3045poe     o214930   0.217   3.201   0.475  0.0104 -0.3913  0.4639
 3045poe    c2314931   0.263   3.274   0.363  0.2234 -0.0751  0.7558
 3045poe    c2314932   0.385   3.203   0.302 -0.0240  0.4422 -0.3564
 3045poe     o214933   0.492   3.236   0.388 -0.2354  0.3238 -0.0502
 3045poe    c2314934   0.617   3.187   0.347 -0.4467 -0.2795  0.0056
 3045poe    c2314935   0.701   3.165   0.474  0.0503 -0.1245 -0.2934
 3045poe     o214936   0.637   3.075   0.561 -0.2171  0.4904  0.1494
 3045poe    c2314937   0.725   3.044   0.667  0.4899 -0.4551 -0.7007
 3045poe    c2314938   0.658   3.021   0.803  0.3820 -0.0133 -0.6773
 3045poe     o214939   0.576   3.126   0.849  0.9350  0.1269  0.0175
 3045poe    c3114940   0.563   3.119   0.989 -0.2060 -0.4832 -0.1112
 3046poe    c3114941   7.106   7.052   2.204  0.2597 -0.2880 -0.3111
 3046poe     o214942   6.972   7.057   2.162  0.0213  0.4791  0.4893
 3046poe    c2314943   6.940   7.189   2.124 -0.7526  0.2102  0.1860
 3046poe    c2314944   6.808   7.201   2.045 -0.5749 -0.6913 -0.2683
 3046poe     o214945   6.816   7.168   1.908  0.3024 -0.4598 -0.2779
 3046poe    c2314946   6.698   7.139   1.838  0.4448  0.0295 -0.7240
 3046poe    c2314947   6.637   7.005   1.884 -0.1662  0.4415 -0.3149
 3046poe     o214948   6.602   6.978   2.018 -0.2537  0.2124 -0.3838
 3046poe    c2314949   6.464   6.986   2.049 -0.1538 -0.0581  0.1333
 3046poe    c2314950   6.396   7.122   2.026 -0.5373 -0.2887 -0.1072
 3046poe     o214951   6.432   7.222   2.119 -0.2093 -0.2583 -0.2630
 3046poe    c3114952   6.371   7.343   2.081 -0.2437 -0.1191  0.2329
 3047poe    c3114953   2.743   0.136   4.936  0.6078 -0.2097  0.0604
 3047poe     o214954   2.646   0.236   4.916  0.3380 -0.3558  0.6337
 3047poe    c2314955   2.696   0.346   4.844 -0.3073 -0.9216 -0.7056
 3047poe    c2314956   2.598   0.435   4.765  0.1695  0.4026  0.1616
 3047poe     o214957   2.497   0.500   4.838  0.1409 -0.0544  0.5379
 3047poe    c2314958   2.395   0.568   4.768  0.3604 -0.2208  0.0572
 3047poe    c2314959   2.257   0.546   4.833  0.2087 -0.2192 -0.2570
 3047poe     o214960   2.286   0.578   4.968  0.2580  0.1447 -0.3543
 3047poe    c2314961   2.166   0.596   5.040  0.3516  0.7773 -0.3544
 3047poe    c2314962   2.222   0.631   5.179  0.6687  0.3119 -0.3646
 3047poe     o214963   2.325   0.537   5.203  0.5466  0.3033  0.1405
 3047poe    c3114964   2.362   0.538   5.339  0.0806 -0.6091  0.2815
 3048poe    c3114965   1.355   4.483   3.798  0.4765 -0.0363 -0.4433
 3048poe     o214966   1.463   4.573   3.780  0.4918 -0.0618 -0.4793
 3048poe    c2314967   1.407   4.678   3.704 -0.1243  0.1934  0.3202
 3048poe    c2314968   1.520   4.777   3.671  0.0817 -0.2310 -0.2573
 3048poe     o214969   1.624   4.729   3.589  0.2889 -0.3686  0.0864
 3048poe    c2314970   1.715   4.831   3.554 -0.3576  0.0772 -0.3343
 3048poe    c2314971   1.859   4.780   3.532 -0.4086 -0.1870 -0.0721
 3048poe     o214972   1.924   4.710   3.636  0.0260 -0.0393 -0.2415
 3048poe    c2314973   2.064   4.696   3.632  0.0234 -0.0772 -0.2049
 3048poe    c2314974   2.141   4.790   3.727 -0.7250  0.7710 -0.4192
 3048poe     o214975   2.165   4.915   3.668  0.5399  0.5936 -0.3071
 3048poe    c3114976   2.199   5.021   3.755  0.9978  0.0810  0.1497
 3049poe    c3114977   6.999   3.992   2.157 -0.3265 -0.1594 -0.4471
 3049poe     o214978   7.125   4.053   2.177 -0.4772 -0.2778  0.9530
 3049poe    c2314979   7.225   3.954   2.175 -0.2085  0.0071 -0.4480
 3049poe    c2314980   7.364   4.019   2.167 -0.0496 -0.2822 -0.0685
 3049poe     o214981   7.387   4.087   2.288  0.4331 -0.1859 -0.2119
 3049poe    c2314982   7.506   4.160   2.269  0.1904  0.0261 -0.9328
 3049poe    c2314983   7.637   4.080   2.286 -0.1974 -0.3883  0.1638
 3049poe     o214984   7.652   4.034   2.418 -0.3383  0.3004  0.4248
 3049poe    c2314985   7.605   3.901   2.418  0.2047  0.1048 -0.0319
 3049poe    c2314986   7.568   3.834   2.552  0.2317  0.1783  0.0125
 3049poe     o214987   7.434   3.853   2.591  0.3363 -0.2051  0.5786
 3049poe    c3114988   7.390   3.765   2.691  0.3842 -0.2225  0.5846
 3050poe    c3114989   5.610   1.315   6.319  0.2501 -0.7655 -0.5420
 3050poe     o214990   5.660   1.207   6.394 -0.0486 -0.2717  0.3819
 3050poe    c2314991   5.747   1.264   6.489  0.3304 -0.7867  0.3489
 3050poe    c2314992   5.733   1.213   6.634 -0.5310 -0.4395  0.3924
 3050poe     o214993   5.767   1.077   6.640 -0.1442 -0.3590  0.1282
 3050poe    c2314994   5.739   1.016   6.765  0.2606 -0.4763  0.1610
 3050poe    c2314995   5.728   0.865   6.738 -0.0530 -0.3952 -0.1804
 3050poe     o214996   5.854   0.808   6.706  0.2910  0.0568  0.3447
 3050poe    c2314997   5.882   0.701   6.794 -0.3858  0.1780  0.7245
 3050poe    c2314998   5.812   0.567   6.770 -0.5317  0.3990 -0.1198
 3050poe     o214999   5.857   0.512   6.647  0.4087 -0.6731  0.6807
 3050poe    c3115000   5.801   0.384   6.629 -0.1099 -0.3554  0.0133
 3051poe    c3115001   6.779   4.505   5.801 -0.1658 -0.3033 -0.0095
 3051poe     o215002   6.761   4.508   5.941 -0.1794  0.4862 -0.0193
 3051poe    c2315003   6.803   4.632   5.992  0.3528  0.0813  0.5389
 3051poe    c2315004   6.838   4.631   6.142  0.2063  0.3932  0.5762
 3051poe     o215005   6.960   4.567   6.173 -0.1481 -0.3980  0.3663
 3051poe    c2315006   6.966   4.571   6.314  0.2169 -0.2600  0.3486
 3051poe    c2315007   7.100   4.510   6.359  0.5825 -0.3162 -0.7737
 3051poe     o215008   7.093   4.370   6.371 -0.2088 -0.2525 -0.3678
 3051poe    c2315009   7.217   4.307   6.343  0.2275  0.4426 -0.0258
 3051poe    c2315010   7.229   4.154   6.348  0.1492  0.4425  0.1509
 3051poe     o215011   7.191   4.094   6.226  0.5791 -0.2421  0.3471
 3051poe    c3115012   7.241   3.965   6.200  0.5700 -0.1186 -0.2864
 3052poe    c3115013   0.625   0.577   1.008 -0.0199 -0.0577  0.5492
 3052poe     o215014   0.725   0.612   0.915 -0.1941 -0.2462  0.2864
 3052poe    c2315015   0.684   0.717   0.830 -0.2724 -0.8086 -0.3793
 3052poe    c2315016   0.793   0.770   0.735  0.1252 -0.3454  0.3230
 3052poe     o215017   0.831   0.695   0.622  0.0473  0.8011 -0.4913
 3052poe    c2315018   0.959   0.739   0.583  0.4176  0.2788  0.1083
 3052poe    c2315019   1.058   0.631   0.536  0.0204  0.0216 -0.1343
 3052poe     o215020   1.020   0.570   0.415 -0.0163  0.3602 -0.2948
 3052poe    c2315021   1.135   0.513   0.356  0.3713  0.5489  0.2802
 3052poe    c2315022   1.119   0.410   0.243  0.0375 -0.1743  0.9791
 3052poe     o215023   1.096   0.278   0.287 -0.4651 -0.1324  0.8474
 3052poe    c3115024   1.052   0.190   0.186 -0.7989 -0.0387  0.9076
 3053poe    c3115025   1.753   1.737   2.147 -0.3002 -0.2462  0.1402
 3053poe     o215026   1.864   1.652   2.125 -0.0088  0.1084  0.2277
 3053poe    c2315027   1.867   1.561   2.233  0.0448 -0.1280  0.0291
 3053poe    c2315028   2.017   1.534   2.256  0.0865 -0.1673 -0.2869
 3053poe     o215029   2.072   1.649   2.316  0.1115  0.0594 -0.7448
 3053poe    c2315030   2.208   1.625   2.342 -0.0555  0.0823  0.1616
 3053poe    c2315031   2.255   1.694   2.472 -0.0261 -0.2038  0.3054
 3053poe     o215032   2.239   1.833   2.452  0.1895 -0.2200 -0.0035
 3053poe    c2315033   2.322   1.903   2.541 -0.1813 -0.1366  0.2811
 3053poe    c2315034   2.358   2.043   2.487 -0.5230 -0.2419 -0.2202
 3053poe     o215035   2.257   2.141   2.493 -0.3259 -0.0566  0.0576
 3053poe    c3115036   2.277   2.221   2.379 -0.1837 -0.3054 -0.0913
 3054poe    c3115037   7.121   5.523   2.885  0.2857  0.7811 -0.2505
 3054poe     o215038   7.224   5.456   2.816 -0.2925 -0.9056  0.4604
 3054poe    c2315039   7.344   5.461   2.891  0.2324  0.0746 -0.4078
 3054poe    c2315040   7.426   5.338   2.850 -0.4869 -0.6639  0.3085
 3054poe     o215041   7.470   5.345   2.716 -0.1058  0.4540  0.4804
 3054poe    c2315042   7.575   5.257   2.681 -0.4239  0.1499  0.2828
 3054poe    c2315043   7.612   5.261   2.532  0.1338 -0.0916  0.4114
 3054poe     o215044   7.666   5.386   2.497  0.0667 -0.2440 -0.2618
 3054poe    c2315045   7.717   5.382   2.366  0.3597  0.0779 -0.1606
 3054poe    c2315046   7.784   5.519   2.345 -0.0889  0.3088 -0.0957
 3054poe     o215047   7.685   5.619   2.353 -0.1470  0.2367  0.0830
 3054poe    c3115048   7.736   5.746   2.322  0.4580 -0.0253 -0.0052
 3055poe    c3115049   2.826   5.438   7.179  0.1281 -0.3026  0.2284
 3055poe     o215050   2.847   5.418   7.317 -0.1466  0.5324  0.4005
 3055poe    c2315051   2.956   5.491   7.368 -0.0154  0.2839  0.4760
 3055poe    c2315052   2.954   5.473   7.521  0.0515 -0.2642  0.4161
 3055poe     o215053   2.859   5.561   7.576  0.3060  0.4023 -0.1958
 3055poe    c2315054   2.896   5.583   7.710 -0.3274  0.2076  0.0172
 3055poe    c2315055   2.812   5.700   7.766 -0.0602  0.4248 -0.0322
 3055poe     o215056   2.677   5.662   7.782 -0.1159  0.3556 -0.6427
 3055poe    c2315057   2.590   5.754   7.843  0.0357 -0.1489  0.3521
 3055poe    c2315058   2.443   5.717   7.819  0.0692 -0.2889  0.3661
 3055poe     o215059   2.409   5.684   7.686 -0.2126 -0.2147  0.4196
 3055poe    c3115060   2.275   5.647   7.662 -0.0409 -0.3100 -0.4245
 3056poe    c3115061   0.064   4.730   5.204 -0.3129 -0.2414 -0.4977
 3056poe     o215062   0.138   4.696   5.319 -0.1782 -0.1234 -0.5486
 3056poe    c2315063   0.231   4.593   5.292  0.3974  0.3316 -0.3345
 3056poe    c2315064   0.301   4.541   5.419  0.0187 -0.2729 -0.3663
 3056poe     o215065   0.376   4.640   5.485 -0.4250 -0.1533 -0.0312
 3056poe    c2315066   0.380   4.593   5.618 -0.5782 -0.0105  0.0239
 3056poe    c2315067   0.412   4.694   5.730 -0.4481 -0.2473  0.1998
 3056poe     o215068   0.315   4.796   5.741  0.1918  0.3551  0.3190
 3056poe    c2315069   0.365   4.921   5.781  0.5046  0.3361 -0.0063
 3056poe    c2315070   0.309   5.039   5.699 -0.4910 -0.2192 -0.1435
 3056poe     o215071   0.348   5.024   5.564 -0.0828  0.1440 -0.0700
 3056poe    c3115072   0.315   5.137   5.487 -0.4688  0.0294 -0.0768
 3057poe    c3115073   2.569   1.594   0.387  0.6631 -0.1474  0.5322
 3057poe     o215074   2.532   1.672   0.275  0.0158 -0.3832  0.5723
 3057poe    c2315075   2.479   1.790   0.331  0.6870  0.2012 -0.0062
 3057poe    c2315076   2.433   1.887   0.221  0.0396  0.2120  0.2740
 3057poe     o215077   2.542   1.920   0.138 -0.3699  0.2369 -0.2592
 3057poe    c2315078   2.614   2.029   0.190  0.4880 -0.4824  0.0685
 3057poe    c2315079   2.733   2.068   0.100  0.1720 -0.4681 -0.3434
 3057poe     o215080   2.827   1.964   0.099  0.1321 -0.5216  0.6450
 3057poe    c2315081   2.934   2.009   0.020 -0.5789 -0.0317 -0.0516
 3057poe    c2315082   3.013   1.889  -0.038  0.3704  0.5365  0.0360
 3057poe     o215083   3.141   1.881   0.020  0.2638  0.5469  0.2765
 3057poe    c3115084   3.225   1.792  -0.052  0.3074  0.2875  0.6466
 3058poe    c3115085   5.756   5.916   0.404  0.3640 -0.0560  0.2519
 3058poe     o215086   5.754   5.888   0.542 -0.0790 -0.0741  0.2424
 3058poe    c2315087   5.831   5.771   0.560 -0.1561 -0.2000 -0.2473
 3058poe    c2315088   5.740   5.689   0.654  0.0213  0.1592  0.2417
 3058poe     o215089   5.702   5.775   0.758 -0.0306  0.3992  0.0256
 3058poe    c2315090   5.592   5.730   0.834  0.1287 -0.4348 -0.2245
 3058poe    c2315091   5.554   5.843   0.932  0.4839 -0.2661 -0.2804
 3058poe     o215092   5.535   5.964   0.862  0.4045  0.0499  0.2824
 3058poe    c2315093   5.483   6.065   0.946 -0.1331  0.0481 -0.0393
 3058poe    c2315094   5.460   6.202   0.879  0.2481  0.2582  0.2543
 3058poe     o215095   5.378   6.188   0.765  0.1010  0.1684  0.3715
 3058poe    c3115096   5.357   6.317   0.712  0.0681  0.2152  0.4979
 3059poe    c3115097   6.307   3.447   1.525 -0.3493 -0.1810 -0.5764
 3059poe     o215098   6.431   3.384   1.551 -0.2321  0.3549  0.2045
 3059poe    c2315099   6.416   3.250   1.592 -0.2842  0.2526 -0.1441
 3059poe    c2315100   6.556   3.186   1.581 -0.0630  0.6719  0.1796
 3059poe     o215101   6.650   3.262   1.653  0.1164 -0.0758  0.7468
 3059poe    c2315102   6.779   3.209   1.634 -0.0770 -0.2356 -0.1881
 3059poe    c2315103   6.882   3.267   1.734 -0.5082 -0.0886  0.1744
 3059poe     o215104   6.841   3.399   1.759 -0.0570  0.1107 -0.1385
 3059poe    c2315105   6.899   3.468   1.868  0.4070 -0.3849 -0.0668
 3059poe    c2315106   6.839   3.607   1.897 -0.4606 -0.6576 -0.5003
 3059poe     o215107   6.702   3.595   1.925 -0.2876 -0.3821  0.4900
 3059poe    c3115108   6.654   3.694   2.014  0.1561 -0.0366  0.3467
 3060poe    c3115109   1.233   7.065   6.520  0.7685 -0.2344  0.0223
 3060poe     o215110   1.340   7.146   6.476  0.5261  0.2564  0.3360
 3060poe    c2315111   1.321   7.278   6.523 -0.0993 -0.0693  1.0216
 3060poe    c2315112   1.449   7.356   6.489 -0.2610 -0.0984  0.3399
 3060poe     o215113   1.470   7.384   6.352 -0.4046 -0.0584  0.3260
 3060poe    c2315114   1.594   7.445   6.326 -0.1483 -0.6535  0.1412
 3060poe    c2315115   1.725   7.369   6.356  0.1393  0.1293  0.9151
 3060poe     o215116   1.739   7.247   6.285  0.0326  0.1076  0.9305
 3060poe    c2315117   1.875   7.208   6.279 -0.1945 -0.6819  0.8236
 3060poe    c2315118   1.905   7.079   6.201  1.0147  0.0985 -0.0491
 3060poe     o215119   1.886   7.083   6.062 -0.2300 -0.1375  0.0997
 3060poe    c3115120   1.754   7.078   6.011 -0.2177  0.3399  0.0181
 3061poe    c3115121   4.758   3.860   1.640 -0.4190 -0.0117 -0.0601
 3061poe     o215122   4.757   3.793   1.515  0.8145 -0.5916  0.2209
 3061poe    c2315123   4.831   3.872   1.425 -0.2103  0.2808  0.1091
 3061poe    c2315124   4.862   3.787   1.300  0.0281  0.2276  0.2034
 3061poe     o215125   4.938   3.672   1.331 -0.2271  0.0521  0.1882
 3061poe    c2315126   4.955   3.604   1.209 -0.1503  0.5503 -0.0834
 3061poe    c2315127   5.035   3.475   1.237 -0.2915  0.4649 -0.0704
 3061poe     o215128   4.983   3.394   1.340  0.1696 -0.0369 -0.2273
 3061poe    c2315129   5.048   3.270   1.352 -0.1253 -0.2076 -0.3934
 3061poe    c2315130   5.016   3.208   1.489 -0.1221  0.7443  0.0467
 3061poe     o215131   4.884   3.238   1.527 -0.1992  0.6339 -0.1291
 3061poe    c3115132   4.846   3.172   1.646 -0.3233 -0.1462 -0.6018
 3062poe    c3115133   1.984   5.255   4.833 -0.1458  0.0295  0.0260
 3062poe     o215134   2.052   5.201   4.944 -0.4606 -0.2801  0.0688
 3062poe    c2315135   2.174   5.144   4.904 -0.2260  0.3666 -0.1387
 3062poe    c2315136   2.259   5.068   5.007  0.6986  0.2426 -0.9699
 3062poe     o215137   2.302   5.148   5.114  0.0754 -0.5266 -0.1235
 3062poe    c2315138   2.407   5.084   5.184  0.1599  0.0972  0.3359
 3062poe    c2315139   2.466   5.160   5.304  0.6043  0.0997  0.1176
 3062poe     o215140   2.386   5.161   5.420  0.3049 -0.3634 -0.0823
 3062poe    c2315141   2.450   5.247   5.512 -0.1987  0.2520 -0.3014
 3062poe    c2315142   2.354   5.265   5.632 -0.4123 -0.1654 -0.4059
 3062poe     o215143   2.230   5.326   5.604 -0.3072  0.1148 -0.2622
 3062poe    c3115144   2.140   5.281   5.702 -0.0667  0.9337  0.3401
 3063poe    c3115145   0.184   1.637   0.408 -0.1422  0.4911  0.0476
 3063poe     o215146   0.308   1.702   0.398  0.2057 -0.1735 -0.0438
 3063poe    c2315147   0.407   1.625   0.333  0.1875 -0.2647  0.0365
 3063poe    c2315148   0.536   1.709   0.330 -0.3539  0.5558 -0.5920
 3063poe     o215149   0.584   1.726   0.461  0.2371 -0.2988 -0.6911
 3063poe    c2315150   0.711   1.786   0.465  0.0485  0.0945 -0.4896
 3063poe    c2315151   0.748   1.840   0.604 -0.5723  0.1083 -0.3301
 3063poe     o215152   0.712   1.744   0.702 -0.1312  0.3286  0.0494
 3063poe    c2315153   0.749   1.778   0.834  0.1645 -0.1209  0.0872
 3063poe    c2315154   0.686   1.669   0.923 -0.3224 -0.1452 -0.2790
 3063poe     o215155   0.562   1.628   0.871 -0.2382 -0.3199 -0.3451
 3063poe    c3115156   0.494   1.533   0.950 -0.1612  0.5823  0.8248
 3064poe    c3115157   4.115   2.983   3.218 -0.0975  0.2042  0.5663
 3064poe     o215158   4.201   3.089   3.252  0.0712  0.3131 -0.1778
 3064poe    c2315159   4.333   3.084   3.202  0.1993  0.2012  0.1662
 3064poe    c2315160   4.422   3.201   3.248 -0.0536  0.2703  0.4831
 3064poe     o215161   4.389   3.329   3.201  0.3155  0.1762 -0.0408
 3064poe    c2315162   4.476   3.416   3.270  0.3853 -0.1701  0.3092
 3064poe    c2315163   4.450   3.558   3.217  0.1736 -0.2066  0.3156
 3064poe     o215164   4.311   3.584   3.224  0.1789 -0.0382 -0.1352
 3064poe    c2315165   4.283   3.711   3.171  0.0290 -0.0989 -0.2028
 3064poe    c2315166   4.131   3.712   3.145 -0.0594 -0.1343  0.3020
 3064poe     o215167   4.090   3.589   3.091  0.1840  0.3258 -0.9633
 3064poe    c3115168   3.961   3.614   3.041 -0.1667  0.8220  0.1480
 3065poe    c3115169   1.115   1.590   4.659  0.4931 -0.0096  0.6586
 3065poe     o215170   1.216   1.499   4.624  0.2557  0.0078 -0.0886
 3065poe    c2315171   1.172   1.365   4.635 -0.1398  0.1004 -0.5054
 3065poe    c2315172   1.290   1.269   4.620  0.0460  0.2345  0.0601
 3065poe     o215173   1.392   1.278   4.717  0.1036  0.3724 -0.0131
 3065poe    c2315174   1.470   1.161   4.717 -0.6642 -0.1480  0.5367
 3065poe    c2315175   1.523   1.106   4.851  0.0081 -0.3646  0.1893
 3065poe     o215176   1.430   1.071   4.952  0.0158  0.3222  0.4358
 3065poe    c2315177   1.382   0.941   4.928  0.5539  0.1596  0.2444
 3065poe    c2315178   1.301   0.876   5.041  0.2695 -0.8368 -0.5215
 3065poe     o215179   1.353   0.884   5.172 -0.3362 -0.3246 -0.3061
 3065poe    c3115180   1.271   0.837   5.276 -0.0824 -0.1476 -0.0240
 3066poe    c3115181   1.560   3.734   2.160  0.3937  0.2412 -0.5444
 3066poe     o215182   1.631   3.656   2.067 -0.1299 -0.3707 -0.4386
 3066poe    c2315183   1.621   3.728   1.946 -0.2025  0.2775 -0.0550
 3066poe    c2315184   1.709   3.691   1.824  0.1941 -0.1403  0.3549
 3066poe     o215185   1.682   3.558   1.785 -0.0342 -0.0867  0.3268
 3066poe    c2315186   1.762   3.519   1.676  0.0977 -0.0308  0.4041
 3066poe    c2315187   1.710   3.387   1.615 -0.2860  0.2517  0.1213
 3066poe     o215188   1.584   3.399   1.553 -0.2560  0.2052  0.0523
 3066poe    c2315189   1.469   3.385   1.633 -0.2374  0.0316  0.0495
 3066poe    c2315190   1.407   3.244   1.625  0.1028 -0.0890 -0.4824
 3066poe     o215191   1.376   3.199   1.495  0.2626 -0.0224 -0.5444
 3066poe    c3115192   1.256   3.258   1.448  0.2623  0.4419  0.0205
 3067poe    c3115193   6.266   3.227   1.142  0.2916 -0.2506 -0.6874
 3067poe     o215194   6.143   3.161   1.162  0.0978  0.3310  0.1100
 3067poe    c2315195   6.146   3.092   1.285 -0.0693 -0.1577 -0.1546
 3067poe    c2315196   6.012   3.017   1.294 -0.3861  0.4376  0.2159
 3067poe     o215197   5.919   3.100   1.229 -0.5340 -0.1915 -0.3842
 3067poe    c2315198   5.788   3.052   1.248 -0.4709 -0.0220  0.4961
 3067poe    c2315199   5.688   3.137   1.168 -0.6111 -0.9920 -0.3729
 3067poe     o215200   5.740   3.177   1.043  0.0211  0.2686  0.2767
 3067poe    c2315201   5.661   3.288   1.004  0.2490  0.2051 -0.3689
 3067poe    c2315202   5.701   3.350   0.869 -0.0232  0.0984 -0.4990
 3067poe     o215203   5.810   3.436   0.896 -0.3859  0.4352 -0.1108
 3067poe    c3115204   5.867   3.469   0.771 -0.0127 -0.1974 -0.1118
 3068poe    c3115205   2.485   5.328   4.808 -0.2172 -0.7190 -0.0887
 3068poe     o215206   2.457   5.411   4.919  0.1826 -0.0269 -0.4991
 3068poe    c2315207   2.555   5.393   5.020  0.1580 -0.7336 -0.5941
 3068poe    c2315208   2.568   5.500   5.130 -0.0495 -0.1809 -1.0942
 3068poe     o215209   2.446   5.522   5.197  0.5512 -0.0683 -0.0070
 3068poe    c2315210   2.443   5.637   5.279  0.1932 -0.1046  0.0321
 3068poe    c2315211   2.305   5.648   5.346  0.4089  0.2310  0.4282
 3068poe     o215212   2.210   5.699   5.255  0.3424 -0.0905  0.3170
 3068poe    c2315213   2.116   5.762   5.339 -0.1086 -0.2402 -0.0712
 3068poe    c2315214   2.031   5.860   5.254  0.1424 -0.2825 -0.3732
 3068poe     o215215   1.948   5.790   5.165 -0.3773 -0.5333  0.2985
 3068poe    c3115216   1.871   5.888   5.099 -0.0812 -0.4183  0.1218
 3069poe    c3115217   6.921   3.451   5.177  0.7219 -0.3172 -0.1783
 3069poe     o215218   6.832   3.471   5.070  0.0910 -0.0000  0.4040
 3069poe    c2315219   6.699   3.429   5.091  0.1190 -0.0908  0.4016
 3069poe    c2315220   6.621   3.428   4.958 -0.0108  0.4767  0.4681
 3069poe     o215221   6.652   3.545   4.887 -0.4693  0.3002 -0.0340
 3069poe    c2315222   6.592   3.564   4.761 -0.3344  0.2516 -0.1045
 3069poe    c2315223   6.647   3.693   4.697  0.0415 -0.2001 -0.7063
 3069poe     o215224   6.788   3.690   4.708  0.0402 -0.0110 -0.6373
 3069poe    c2315225   6.831   3.812   4.652 -0.3974  0.3725 -0.1485
 3069poe    c2315226   6.984   3.800   4.634 -0.3834  0.2612  0.0455
 3069poe     o215227   7.046   3.808   4.761 -0.2002  0.7977 -0.0759
 3069poe    c3115228   7.184   3.791   4.740 -0.3320 -0.6222  0.0969
 3070poe    c3115229   0.145   4.843   4.293 -0.6298  0.5341 -0.0524
 3070poe     o215230   0.172   4.711   4.250  0.0733  0.4567  0.6068
 3070poe    c2315231   0.103   4.621   4.333 -0.3401  0.4881  0.3002
 3070poe    c2315232   0.169   4.484   4.309  0.0790  0.7882 -0.2671
 3070poe     o215233   0.303   4.515   4.279  0.2129  0.2679 -0.2227
 3070poe    c2315234   0.377   4.396   4.273 -0.3473 -0.1045  0.1575
 3070poe    c2315235   0.528   4.428   4.276 -0.2507 -0.4627 -0.6895
 3070poe     o215236   0.570   4.500   4.163 -0.4032  0.0761 -0.4040
 3070poe    c2315237   0.705   4.538   4.181 -0.4045 -0.1247  0.0363
 3070poe    c2315238   0.756   4.585   4.043  0.0850  0.6315  0.4659
 3070poe     o215239   0.671   4.679   3.982 -0.2012  0.1426  0.1041
 3070poe    c3115240   0.734   4.761   3.887 -0.1606 -0.4293 -0.3710
 3071poe    c3115241   6.406   2.067   0.887  0.7185  0.4399  0.2745
 3071poe     o215242   6.309   2.066   0.990  0.7575  0.0305  0.3064
 3071poe    c2315243   6.213   2.167   0.972  0.3381 -0.3858  0.1805
 3071poe    c2315244   6.109   2.133   1.080  0.3672 -0.8586  0.0618
 3071poe     o215245   6.149   2.178   1.208  0.1893  0.4975 -0.3491
 3071poe    c2315246   6.041   2.175   1.299  0.0999 -0.2504 -0.4731
 3071poe    c2315247   6.006   2.039   1.361  0.1171  0.1439  0.4124
 3071poe     o215248   6.120   1.988   1.427 -0.1222  0.2423  0.9133
 3071poe    c2315249   6.085   1.861   1.478 -0.1263  0.0242  0.3776
 3071poe    c2315250   6.195   1.799   1.566  0.1705  0.3942  0.2716
 3071poe     o215251   6.314   1.798   1.491 -0.3603 -0.1580 -0.5780
 3071poe    c3115252   6.431   1.770   1.564 -0.4461  1.0791  0.0513
 3072poe    c3115253   4.878   1.069   3.088  0.0111 -0.1672 -0.0094
 3072poe     o215254   4.973   0.966   3.096  0.0247 -0.1539 -0.0026
 3072poe    c2315255   4.976   0.885   2.981  0.1104 -0.0595 -0.0673
 3072poe    c2315256   5.110   0.812   2.964  0.2951  0.2658 -0.0106
 3072poe     o215257   5.208   0.911   2.990  0.1848  0.3616  0.0414
 3072poe    c2315258   5.338   0.861   2.966  0.1024  0.3513 -0.3961
 3072poe    c2315259   5.440   0.964   3.019 -0.3354  0.6432 -0.1088
 3072poe     o215260   5.407   1.021   3.143 -0.4071  0.0110  0.1658
 3072poe    c2315261   5.523   1.049   3.220  0.1211 -0.2936 -0.5126
 3072poe    c2315262   5.475   1.103   3.355  0.5141 -0.1673 -0.4233
 3072poe     o215263   5.411   1.228   3.338 -0.2259 -0.4228  0.3593
 3072poe    c3115264   5.406   1.297   3.461  0.0009  0.5375 -0.1623
 3073poe    c3115265   1.776   1.272   4.116  0.1970  0.4698  0.1844
 3073poe     o215266   1.877   1.196   4.051 -0.4934 -0.1001 -0.2424
 3073poe    c2315267   1.842   1.061   4.029 -0.3278 -0.1447 -0.2304
 3073poe    c2315268   1.965   0.977   3.991 -0.2256 -0.1142  0.0281
 3073poe     o215269   2.028   1.028   3.877  0.1384 -0.4134  0.0936
 3073poe    c2315270   1.968   0.984   3.757  0.2713  0.6528 -0.3813
 3073poe    c2315271   2.068   0.926   3.654  0.2148 -0.4675  0.1767
 3073poe     o215272   2.156   1.031   3.619 -0.4074  0.0446  0.1220
 3073poe    c2315273   2.218   0.993   3.499 -0.2682 -0.4753  0.3529
 3073poe    c2315274   2.298   1.105   3.430 -0.1924 -0.3885  0.5811
 3073poe     o215275   2.219   1.209   3.376  0.1000 -0.6202 -0.3182
 3073poe    c3115276   2.287   1.302   3.295 -0.4991 -0.2114 -0.3654
 3074poe    c3115277   2.983   1.463   5.832  0.1542  0.6925 -0.3331
 3074poe     o215278   2.971   1.323   5.832 -0.3333  0.7336 -0.1397
 3074poe    c2315279   3.044   1.266   5.726  0.2914 -0.0496  0.6877
 3074poe    c2315280   3.017   1.115   5.709 -0.3974  0.1326  0.1191
 3074poe     o215281   3.066   1.043   5.819 -0.3530 -0.1581 -0.0917
 3074poe    c2315282   3.022   0.909   5.812 -0.6968 -0.0524  0.0465
 3074poe    c2315283   3.052   0.812   5.929  0.1701  0.2314  0.0634
 3074poe     o215284   2.974   0.851   6.039 -0.9007 -0.6491 -0.3701
 3074poe    c2315285   2.977   0.754   6.141 -0.0072  0.0319  0.2628
 3074poe    c2315286   2.896   0.783   6.269 -0.4492  0.0569 -0.0209
 3074poe     o215287   2.949   0.886   6.350 -0.6576 -0.0090  0.1995
 3074poe    c3115288   2.913   0.860   6.484  0.2427 -0.2118  0.4134
 3075poe    c3115289   0.740   6.220   5.183  0.2627 -0.2563  0.1751
 3075poe     o215290   0.654   6.166   5.085  0.1546 -0.0249  0.1398
 3075poe    c2315291   0.593   6.052   5.144  0.1087  0.1773  0.4857
 3075poe    c2315292   0.520   5.961   5.044  0.3036  0.7435 -0.1826
 3075poe     o215293   0.604   5.889   4.957 -0.2799 -0.1165 -0.0456
 3075poe    c2315294   0.670   5.777   5.013  0.1722  0.2708  0.2058
 3075poe    c2315295   0.746   5.696   4.907 -0.2695  0.1275 -0.0049
 3075poe     o215296   0.824   5.788   4.833  0.3477 -0.2844  0.1340
 3075poe    c2315297   0.912   5.729   4.739  0.5437  0.2309 -0.0080
 3075poe    c2315298   0.978   5.855   4.680  0.2388  0.0817 -0.6700
 3075poe     o215299   0.888   5.962   4.659 -0.2217 -0.3583 -0.9878
 3075poe    c3115300   0.944   6.068   4.585  0.0319 -0.4552 -0.9368
 3076poe    c3115301   6.905   3.906   3.894 -0.1826 -0.2477  0.2492
 3076poe     o215302   6.785   3.980   3.897 -0.0266  0.0040  0.2971
 3076poe    c2315303   6.695   3.919   3.987 -0.1899 -0.3350 -0.0903
 3076poe    c2315304   6.570   4.004   4.014  0.0864 -0.0662  0.3638
 3076poe     o215305   6.485   3.997   3.901 -0.1896 -0.0299  0.5676
 3076poe    c2315306   6.366   4.068   3.927 -0.0164  0.5401 -0.1863
 3076poe    c2315307   6.271   4.059   3.807 -0.2329 -0.0943  0.0276
 3076poe     o215308   6.323   4.148   3.710 -0.0283 -0.0142  0.2092
 3076poe    c2315309   6.250   4.155   3.589  0.1546 -0.0989  0.0923
 3076poe    c2315310   6.298   4.253   3.481 -0.1219 -0.4209 -0.3241
 3076poe     o215311   6.420   4.221   3.418  0.1938  0.2727 -0.0714
 3076poe    c3115312   6.403   4.139   3.305  0.3298 -0.0055  0.1113
 3077poe    c3115313   3.420   2.438   0.157 -0.1692  0.9759 -0.2642
 3077poe     o215314   3.459   2.400   0.027 -0.5568 -0.1610 -0.0537
 3077poe    c2315315   3.462   2.512  -0.058 -0.0255 -0.3214 -0.2474
 3077poe    c2315316   3.547   2.492  -0.186  0.2764 -0.1052 -0.0820
 3077poe     o215317   3.683   2.517  -0.160  0.2468 -0.3028  0.2755
 3077poe    c2315318   3.766   2.514  -0.274 -0.2586 -0.1630 -0.0975
 3077poe    c2315319   3.913   2.554  -0.254 -0.3295  0.1206 -0.1286
 3077poe     o215320   3.978   2.469  -0.162 -0.0915  0.3239 -0.1094
 3077poe    c2315321   4.119   2.468  -0.163 -0.0939 -0.3127  0.0358
 3077poe    c2315322   4.188   2.348  -0.095  0.1533 -0.3439 -0.2622
 3077poe     o215323   4.140   2.223  -0.139 -0.0308 -0.1291 -0.6722
 3077poe    c3115324   4.180   2.122  -0.050 -0.2517  0.3402 -0.0349
 3078poe    c3115325   6.434   6.198   6.449 -0.3031 -0.0707 -0.0438
 3078poe     o215326   6.374   6.151   6.330  0.3443  0.0924 -0.4385
 3078poe    c2315327   6.412   6.016   6.311  0.4391  0.0440  0.0669
 3078poe    c2315328   6.356   5.955   6.181 -0.1498  0.5128  0.0964
 3078poe     o215329   6.418   5.982   6.057  0.0410 -0.3423  0.0004
 3078poe    c2315330   6.546   5.929   6.032 -0.1823 -0.9334  0.0987
 3078poe    c2315331   6.612   5.952   5.895  0.1752 -0.2972  0.3722
 3078poe     o215332   6.539   5.882   5.797 -0.3882  0.7631  0.0267
 3078poe    c2315333   6.528   5.954   5.676 -0.6753  0.4147 -0.1567
 3078poe    c2315334   6.427   5.901   5.573 -0.3540 -0.0101 -0.2548
 3078poe     o215335   6.300   5.960   5.587 -0.3163 -0.0536  0.3037
 3078poe    c3115336   6.282   6.069   5.499 -0.3591 -0.4919 -0.2343
 3079poe    c3115337   5.055   6.141   1.907 -0.3309 -0.5297 -0.4792
 3079poe     o215338   4.959   6.200   1.992  0.0349 -0.1090 -0.3572
 3079poe    c2315339   4.885   6.105   2.064  0.1508  0.0424 -0.0359
 3079poe    c2315340   4.802   6.190   2.162  0.3724  0.1776  0.0351
 3079poe     o215341   4.686   6.249   2.108  0.0648 -0.4448  0.0098
 3079poe    c2315342   4.614   6.318   2.207 -0.0494 -0.0503 -0.3462
 3079poe    c2315343   4.499   6.249   2.282  0.2166  0.0208  0.1364
 3079poe     o215344   4.400   6.200   2.194 -0.1506  0.1531  0.4717
 3079poe    c2315345   4.314   6.101   2.247 -0.2597  0.1394  0.2696
 3079poe    c2315346   4.207   6.050   2.148 -0.2536 -0.1376  0.4073
 3079poe     o215347   4.083   6.116   2.155 -0.1162  0.2180 -0.5191
 3079poe    c3115348   3.995   6.068   2.056 -0.1138 -0.3221 -0.2621
 3080poe    c3115349   4.717   0.702   2.257 -0.4232  0.2004  0.3457
 3080poe     o215350   4.595   0.649   2.210 -0.1641  0.1785 -0.3157
 3080poe    c2315351   4.508   0.743   2.151 -0.2282  0.0296 -0.4575
 3080poe    c2315352   4.374   0.675   2.116 -0.3758  0.1423 -0.1121
 3080poe     o215353   4.322   0.611   2.230  0.3878 -0.2349  0.0261
 3080poe    c2315354   4.228   0.516   2.185 -0.1690  0.4019 -0.1725
 3080poe    c2315355   4.191   0.411   2.291  0.3643  0.2241 -0.1597
 3080poe     o215356   4.306   0.329   2.300 -0.1531 -0.4947 -0.0008
 3080poe    c2315357   4.282   0.197   2.344 -0.0201 -0.4750  0.1314
 3080poe    c2315358   4.419   0.127   2.352  0.0806 -0.2714  0.1989
 3080poe     o215359   4.517   0.205   2.418  0.4927  0.0035 -0.7241
 3080poe    c3115360   4.598   0.128   2.504 -0.3672 -0.0464  0.0544
 3081poe    c3115361   6.581   3.792   3.367  0.5791  0.6170 -0.3780
 3081poe     o215362   6.488   3.830   3.466  0.3748 -0.3255 -0.2005
 3081poe    c2315363   6.530   3.840   3.600  0.1779  0.4430 -0.1949
 3081poe    c2315364   6.573   3.724   3.690 -0.0063  0.8099  0.3708
 3081poe     o215365   6.471   3.656   3.759  0.5070  0.1685  0.5137
 3081poe    c2315366   6.532   3.544   3.819 -0.1158 -0.1511  0.5636
 3081poe    c2315367   6.438   3.488   3.928 -0.2980 -0.5014  0.2265
 3081poe     o215368   6.313   3.434   3.889 -0.5261 -0.0757  0.3607
 3081poe    c2315369   6.217   3.412   3.990 -0.3178 -0.1020  0.5557
 3081poe    c2315370   6.085   3.479   3.945 -0.2235 -0.2983 -0.0241
 3081poe     o215371   6.096   3.616   3.915 -0.6037 -0.2974 -0.1636
 3081poe    c3115372   6.070   3.697   4.027 -0.1442  0.3198 -0.4934
 3082poe    c3115373   3.261   0.131   0.898 -0.4086  0.1338 -0.0307
 3082poe     o215374   3.273   0.120   0.758 -0.7613  0.5662 -0.0967
 3082poe    c2315375   3.206   0.006   0.711  0.1490 -0.0446  0.0706
 3082poe    c2315376   3.190   0.006   0.557  0.0390 -0.3217  0.0807
 3082poe     o215377   3.080   0.086   0.520  0.2943 -0.1985 -0.4184
 3082poe    c2315378   3.053   0.093   0.382 -0.1410  0.0272 -0.3234
 3082poe    c2315379   2.945   0.197   0.346 -0.3569 -0.0999 -0.0397
 3082poe     o215380   2.818   0.152   0.390 -0.4263 -0.1245 -0.2651
 3082poe    c2315381   2.738   0.267   0.399 -0.1322  0.0603  0.0041
 3082poe    c2315382   2.609   0.227   0.472 -0.3641  0.3482 -0.2452
 3082poe     o215383   2.635   0.189   0.605 -0.1960 -0.8302 -0.6036
 3082poe    c3115384   2.520   0.151   0.677 -0.1210  0.1058  0.0297
 3083poe    c3115385   2.741   3.373   2.966 -0.3147  0.1187  0.1337
 3083poe     o215386   2.698   3.451   3.075 -0.0272  0.3257  0.1006
 3083poe    c2315387   2.789   3.423   3.179 -0.2855  0.0062  0.2407
 3083poe    c2315388   2.760   3.312   3.282  0.2009 -0.4509 -0.1124
 3083poe     o215389   2.642   3.336   3.355  0.2986  0.0284 -0.1126
 3083poe    c2315390   2.610   3.233   3.446 -0.1096  0.3799  0.1458
 3083poe    c2315391   2.461   3.242   3.486 -0.2159 -0.3326 -0.0769
 3083poe     o215392   2.416   3.373   3.511 -0.1739 -0.2596 -0.3807
 3083poe    c2315393   2.282   3.380   3.554 -0.1340  0.2306 -0.3328
 3083poe    c2315394   2.174   3.375   3.445  0.4731 -0.3278 -0.9191
 3083poe     o215395   2.210   3.473   3.350 -0.1364  0.5577 -0.2649
 3083poe    c3115396   2.112   3.480   3.249 -0.4598  0.0732  0.0123
 3084poe    c3115397   1.629   3.772   5.140 -0.2926  0.3561  0.3530
 3084poe     o215398   1.562   3.892   5.170  0.1448  0.6459  0.1836
 3084poe    c2315399   1.649   4.002   5.166  0.6079  0.2701 -0.1660
 3084poe    c2315400   1.586   4.141   5.190 -0.3454 -0.1919  0.0193
 3084poe     o215401   1.523   4.168   5.313 -0.0683  0.4597  0.0214
 3084poe    c2315402   1.457   4.293   5.315 -0.0105  0.4861  0.2487
 3084poe    c2315403   1.395   4.325   5.452  0.2447  0.5237  0.3563
 3084poe     o215404   1.335   4.213   5.514  0.4463  0.6091  0.7090
 3084poe    c2315405   1.287   4.230   5.646 -0.6807  0.2841  0.3548
 3084poe    c2315406   1.202   4.106   5.680  0.4052 -0.5337  0.1474
 3084poe     o215407   1.261   3.996   5.614  0.8265 -0.0890 -0.2260
 3084poe    c3115408   1.197   3.877   5.653  0.4866  0.1823  0.0605
 3085poe    c3115409   1.742   2.618   2.092  0.6541  0.3583 -0.1098
 3085poe     o215410   1.654   2.687   2.007  0.1024  0.3114  0.4192
 3085poe    c2315411   1.692   2.822   1.995  0.7740  0.0634 -0.3389
 3085poe    c2315412   1.603   2.919   1.916 -0.1310 -0.0012  0.5780
 3085poe     o215413   1.464   2.934   1.932 -0.2328 -0.0942 -0.1905
 3085poe    c2315414   1.425   2.967   2.063 -0.1583  0.0210 -0.1971
 3085poe    c2315415   1.285   3.029   2.068 -0.3057 -0.3157 -0.0957
 3085poe     o215416   1.173   2.958   2.021 -0.3474 -0.5099  0.2907
 3085poe    c2315417   1.065   3.035   1.973  0.5154  0.3604 -0.2783
 3085poe    c2315418   0.994   2.975   1.850  0.0395  0.3666 -0.0049
 3085poe     o215419   1.084   3.003   1.746  0.2059 -0.1746 -0.0074
 3085poe    c3115420   1.012   2.993   1.625 -0.6497  0.2702  0.4595
 3086poe    c3115421   7.164   3.448   2.917  0.0042  0.5984 -0.0325
 3086poe     o215422   7.186   3.331   2.993 -0.3050  0.5582 -0.0061
 3086poe    c2315423   7.142   3.351   3.126 -0.5870  0.5443 -0.0967
 3086poe    c2315424   7.163   3.227   3.215  0.0814  0.2213 -0.6954
 3086poe     o215425   7.276   3.168   3.155  0.0030 -0.2788 -0.3555
 3086poe    c2315426   7.311   3.051   3.225  0.3912  0.2132  0.2851
 3086poe    c2315427   7.456   3.009   3.194  0.1137 -0.4355 -0.1681
 3086poe     o215428   7.475   2.985   3.056  0.1560  0.4169 -0.3185
 3086poe    c2315429   7.613   2.973   3.028  0.1844  0.2639 -0.1241
 3086poe    c2315430   7.622   2.978   2.874  0.3559  0.0568 -0.1205
 3086poe     o215431   7.569   3.101   2.831 -0.0813 -0.0425  0.1327
 3086poe    c3115432   7.562   3.105   2.690 -0.1591  0.0203  0.1381
 3087poe    c3115433   4.958   7.166   0.320 -0.4310 -0.1443 -0.0308
 3087poe     o215434   4.970   7.185   0.180  0.2622  0.0185  0.0437
 3087poe    c2315435   4.933   7.312   0.130 -0.5707 -0.2343 -0.0001
 3087poe    c2315436   4.989   7.337  -0.011 -0.3484 -0.0943  0.1133
 3087poe     o215437   5.130   7.334  -0.020 -0.3455  0.2215  0.0177
 3087poe    c2315438   5.168   7.387  -0.145 -0.2021  0.4856  0.1736
 3087poe    c2315439   5.320   7.414  -0.155 -0.2313  0.6192  0.0915
 3087poe     o215440   5.363   7.534  -0.096  0.2860  0.2803  0.4126
 3087poe    c2315441   5.349   7.644  -0.183 -0.6765 -0.0736  0.1116
 3087poe    c2315442   5.398   7.768  -0.106  0.2629 -0.3304 -0.0717
 3087poe     o215443   5.314   7.803   0.002  0.2128  0.2923 -0.3103
 3087poe    c3115444   5.394   7.859   0.103  0.0221 -0.1915  0.1140
 3088poe    c3115445   0.755   4.126   1.460 -0.1220  0.6324  0.4463
 3088poe     o215446   0.889   4.117   1.417 -0.3576  0.0172 -0.1894
 3088poe    c2315447   0.889   4.145   1.279 -0.3537  0.5019 -0.0927
 3088poe    c2315448   1.036   4.156   1.234 -0.3437  0.6566 -0.0233
 3088poe     o215449   1.117   4.095   1.332 -0.5929  0.1911 -0.1025
 3088poe    c2315450   1.251   4.109   1.292 -0.7301  0.6882 -0.3983
 3088poe    c2315451   1.345   4.040   1.392 -0.3354  0.9194 -0.6031
 3088poe     o215452   1.341   4.101   1.519  0.2773  0.1574 -0.2051
 3088poe    c2315453   1.405   4.023   1.618  0.1224  0.5659  0.2242
 3088poe    c2315454   1.409   4.108   1.746  0.2887  0.3668  0.3513
 3088poe     o215455   1.281   4.141   1.796  0.0977  0.9866 -0.5271
 3088poe    c3115456   1.280   4.234   1.902 -1.0167  0.4123 -0.0294
 3089poe    c3115457   1.432   0.636   6.381  0.0164  0.1966  0.5826
 3089poe     o215458   1.295   0.669   6.394 -0.0054  0.1441  0.4879
 3089poe    c2315459   1.223   0.595   6.491  0.0688 -0.7975 -0.1581
 3089poe    c2315460   1.235   0.629   6.641 -0.2673  0.1359 -0.3390
 3089poe     o215461   1.214   0.766   6.669 -0.0699  0.1914 -0.4599
 3089poe    c2315462   1.230   0.789   6.807  0.0515  0.0891 -0.4582
 3089poe    c2315463   1.140   0.904   6.853  0.4881  0.0450  0.5309
 3089poe     o215464   1.204   1.016   6.795 -0.5244  0.2906 -0.1360
 3089poe    c2315465   1.155   1.139   6.844 -0.1601  0.3757  0.0118
 3089poe    c2315466   1.241   1.252   6.784  0.1945  0.2134  0.2056
 3089poe     o215467   1.233   1.259   6.644 -0.3334  0.2380  0.2335
 3089poe    c3115468   1.200   1.381   6.581 -0.5526  0.1300  0.1353
 3090poe    c3115469   4.376   0.966   4.103 -0.0853  0.0454 -0.1134
 3090poe     o215470   4.453   0.848   4.119  0.4471  0.4443  0.2941
 3090poe    c2315471   4.410   0.766   4.225 -0.0451 -0.2168 -0.4152
 3090poe    c2315472   4.510   0.700   4.321 -0.0921  0.2838 -0.0217
 3090poe     o215473   4.589   0.805   4.373 -0.4411  0.5384 -0.0015
 3090poe    c2315474   4.718   0.760   4.406 -0.6949  0.0462  0.3291
 3090poe    c2315475   4.799   0.873   4.471  0.0376 -0.4342  0.2626
 3090poe     o215476   4.838   0.974   4.381 -0.5142 -0.2140  0.2661
 3090poe    c2315477   4.892   1.070   4.469 -0.6888 -0.0370  0.1801
 3090poe    c2315478   4.953   1.188   4.390 -0.1488 -0.6373 -0.3166
 3090poe     o215479   4.859   1.272   4.328 -0.0884 -0.3471 -0.0243
 3090poe    c3115480   4.931   1.383   4.280 -0.2966 -0.0890  0.2559
 3091poe    c3115481   4.869   1.536   4.627  0.0257 -0.2294 -0.4031
 3091poe     o215482   4.872   1.676   4.605  0.2160 -0.2702 -0.6422
 3091poe    c2315483   4.747   1.729   4.568 -0.0368 -0.3246  0.1114
 3091poe    c2315484   4.770   1.868   4.507 -0.1475 -0.2895  0.1491
 3091poe     o215485   4.803   1.967   4.602 -0.5308  0.0219 -0.0378
 3091poe    c2315486   4.822   2.092   4.540 -0.2266  0.2631  0.5313
 3091poe    c2315487   4.856   2.205   4.638  0.1368  0.8256 -0.2330
 3091poe     o215488   4.970   2.154   4.704  0.1648  0.0990 -0.8352
 3091poe    c2315489   5.011   2.227   4.818 -0.2158  0.1402 -0.7233
 3091poe    c2315490   5.107   2.144   4.906 -0.0175  0.1787 -0.9023
 3091poe     o215491   5.056   2.014   4.919  0.8387 -0.0605  0.1247
 3091poe    c3115492   5.131   1.937   5.011  1.3964  0.4426  0.0886
 3092poe    c3115493   5.371   3.754   5.518  0.2580  0.1103 -0.4660
 3092poe     o215494   5.335   3.716   5.649  0.9741  0.0417 -0.2812
 3092poe    c2315495   5.343   3.825   5.739 -0.1223  0.0293 -0.1565
 3092poe    c2315496   5.324   3.785   5.887 -0.3381 -0.5736 -0.3429
 3092poe     o215497   5.442   3.739   5.948 -0.0604  0.4699 -0.0823
 3092poe    c2315498   5.547   3.829   5.973  0.1620  0.1248  0.2335
 3092poe    c2315499   5.674   3.757   6.024  0.2702 -0.0411 -0.2639
 3092poe     o215500   5.654   3.694   6.148  0.1555 -0.0823 -0.3025
 3092poe    c2315501   5.784   3.656   6.188  0.0709  0.2628  0.3137
 3092poe    c2315502   5.796   3.562   6.310  0.3092  0.1227  0.1821
 3092poe     o215503   5.719   3.631   6.406 -0.8022 -0.3400 -0.3464
 3092poe    c3115504   5.748   3.592   6.538  0.0490  0.1227 -0.3864
 3093poe    c3115505   4.220   1.510   0.455 -0.1142 -0.3352  0.0775
 3093poe     o215506   4.317   1.612   0.453 -0.5622  0.0892 -0.1954
 3093poe    c2315507   4.362   1.664   0.330 -0.3444  0.2148 -0.0626
 3093poe    c2315508   4.459   1.782   0.355  0.0664 -0.2278  0.4553
 3093poe     o215509   4.580   1.742   0.415 -0.2342 -0.9001  0.6344
 3093poe    c2315510   4.672   1.848   0.400 -0.7959 -0.5099 -0.1337
 3093poe    c2315511   4.694   1.935   0.525 -0.0371  0.1018 -0.6786
 3093poe     o215512   4.773   1.882   0.629 -1.0035  0.0135  0.0261
 3093poe    c2315513   4.764   1.970   0.739  0.1378  0.2597 -0.0709
 3093poe    c2315514   4.877   1.941   0.839  0.0134 -0.0012 -0.0065
 3093poe     o215515   4.885   1.833   0.930 -0.1214  0.2876  0.3529
 3093poe    c3115516   4.788   1.831   1.032 -0.1992  0.2327  0.2784
 3094poe    c3115517   0.041   2.270   2.506 -0.9707  0.1970  0.2599
 3094poe     o215518   0.157   2.286   2.585 -0.5379 -0.0417 -0.3189
 3094poe    c2315519   0.257   2.287   2.486 -0.1508  0.4251  0.0712
 3094poe    c2315520   0.396   2.338   2.530 -0.1998  0.3714  0.2886
 3094poe     o215521   0.456   2.286   2.647 -0.6246 -0.2897  0.2184
 3094poe    c2315522   0.585   2.340   2.658 -0.5767 -0.4226  0.3018
 3094poe    c2315523   0.668   2.284   2.776  0.0516 -0.1347 -0.0004
 3094poe     o215524   0.733   2.161   2.755  0.3801 -0.0791  0.6696
 3094poe    c2315525   0.850   2.168   2.833  0.4378 -0.2145  0.5952
 3094poe    c2315526   0.946   2.052   2.800 -0.0277 -0.3477 -0.3196
 3094poe     o215527   0.905   1.921   2.832 -0.3894  0.0224  0.7729
 3094poe    c3115528   1.001   1.822   2.802 -0.2754  0.3765 -0.0540
 3095poe    c3115529   5.581   6.462   3.317 -0.2191  0.3123 -0.3194
 3095poe     o215530   5.698   6.440   3.240  0.0015  0.4509 -0.0284
 3095poe    c2315531   5.665   6.484   3.110 -0.3239  0.1070 -0.0659
 3095poe    c2315532   5.781   6.497   3.010 -0.4336 -0.5707 -0.2817
 3095poe     o215533   5.859   6.380   2.994  0.0248 -0.3768  0.4660
 3095poe    c2315534   5.986   6.411   2.941 -0.3348 -0.2668 -0.3471
 3095poe    c2315535   6.069   6.282   2.927  0.1680  0.0181 -0.0412
 3095poe     o215536   6.078   6.203   3.044 -0.0401  0.0242 -0.0202
 3095poe    c2315537   6.160   6.090   3.028  0.0068  0.0024  0.3758
 3095poe    c2315538   6.094   5.990   3.125 -0.4102  0.0983  0.1958
 3095poe     o215539   6.074   6.065   3.243 -0.3575 -0.2251  0.4116
 3095poe    c3115540   6.064   5.996   3.366  0.4739 -0.4084  0.3799
 3096poe    c3115541   3.718   0.787   1.077  0.1695 -0.0648 -0.1961
 3096poe     o215542   3.840   0.737   1.028  0.0890  0.0147 -0.4759
 3096poe    c2315543   3.837   0.716   0.888  0.1841  0.1578 -0.4995
 3096poe    c2315544   3.921   0.588   0.875  0.7683  0.4821  0.0235
 3096poe     o215545   3.978   0.565   0.748 -0.1735 -0.2909 -0.2730
 3096poe    c2315546   4.044   0.440   0.744  0.1916 -0.1066 -0.1016
 3096poe    c2315547   4.132   0.432   0.618  0.4931 -0.5568  0.1325
 3096poe     o215548   4.066   0.440   0.493  0.0761  0.1396  0.3893
 3096poe    c2315549   3.997   0.322   0.458  0.3648  0.1745 -0.3209
 3096poe    c2315550   3.975   0.311   0.306 -0.0016  0.1249 -0.2668
 3096poe     o215551   3.908   0.422   0.253  0.4860  0.2509 -0.6238
 3096poe    c3115552   3.854   0.389   0.127 -0.3488 -0.0512 -0.1909
 3097poe    c3115553   6.372   5.854   5.211 -0.0485 -0.5051 -0.3922
 3097poe     o215554   6.360   5.727   5.151  0.1652 -0.8635  0.3147
 3097poe    c2315555   6.223   5.694   5.142  0.0555 -0.3599  0.1069
 3097poe    c2315556   6.156   5.624   5.262 -0.7986  0.2051 -0.0352
 3097poe     o215557   6.191   5.488   5.265 -0.4293  0.2983 -0.0970
 3097poe    c2315558   6.150   5.418   5.380  0.5587  0.2883  0.2562
 3097poe    c2315559   6.192   5.271   5.371 -0.4726  0.0024  0.0648
 3097poe     o215560   6.323   5.273   5.319 -0.4645  0.4445  0.1054
 3097poe    c2315561   6.353   5.148   5.263  0.2446  0.4263  0.5154
 3097poe    c2315562   6.506   5.126   5.257  0.1381 -0.1637 -0.3209
 3097poe     o215563   6.572   5.237   5.201 -0.5516  0.2546 -0.3196
 3097poe    c3115564   6.705   5.214   5.160 -0.2682 -0.1247  0.8016
 3098poe    c3115565   1.668   3.078   5.130  0.0584 -0.5636 -0.3414
 3098poe     o215566   1.668   3.043   5.267 -0.5185  0.2222 -0.1288
 3098poe    c2315567   1.658   3.153   5.354  0.5005 -0.0670  0.3701
 3098poe    c2315568   1.544   3.134   5.457  0.4412 -0.2286  0.2749
 3098poe     o215569   1.572   3.028   5.545  0.2861 -0.0650  0.5189
 3098poe    c2315570   1.485   3.043   5.656 -0.3072  0.4394 -0.0049
 3098poe    c2315571   1.543   2.964   5.775 -0.1808  0.3102 -0.1528
 3098poe     o215572   1.566   2.832   5.731 -0.0771  0.1951  0.2409
 3098poe    c2315573   1.600   2.743   5.835 -0.4181  0.0131  0.1977
 3098poe    c2315574   1.653   2.613   5.772 -0.3604  0.2381 -0.2243
 3098poe     o215575   1.757   2.638   5.680 -0.2976 -0.6999 -0.4240
 3098poe    c3115576   1.875   2.571   5.716  0.0548 -0.1059 -0.4495
 3099poe    c3115577   2.616   2.960   6.922  0.4868  0.0919  0.1530
 3099poe     o215578   2.560   3.073   6.987 -0.1735 -0.0919 -0.0885
 3099poe    c2315579   2.531   3.061   7.124  0.1298 -0.1515 -0.0272
 3099poe    c2315580   2.473   3.196   7.171 -0.6072 -0.3676 -0.2983
 3099poe     o215581   2.378   3.238   7.075 -0.1079 -0.3438 -0.7865
 3099poe    c2315582   2.286   3.331   7.128  0.3694 -0.3673  0.1075
 3099poe    c2315583   2.184   3.397   7.033  0.2503 -0.7441 -0.0278
 3099poe     o215584   2.106   3.305   6.960 -0.2762 -0.1101 -0.2707
 3099poe    c2315585   1.979   3.361   6.937 -0.2272  0.2084  0.2176
 3099poe    c2315586   1.862   3.266   6.905 -0.0175 -0.1470  0.4925
 3099poe     o215587   1.811   3.200   7.019 -0.0491  0.1659  0.6614
 3099poe    c3115588   1.888   3.089   7.059 -0.2982 -0.2484 -0.0003
 3100poe    c3115589   7.019   6.790   0.432  0.5904  0.3988 -0.3677
 3100poe     o215590   7.131   6.764   0.514  0.1465 -0.7616 -0.1222
 3100poe    c2315591   7.209   6.881   0.509 -0.4701 -0.3305  0.3404
 3100poe    c2315592   7.328   6.861   0.605 -0.1869  0.3784  0.1470
 3100poe     o215593   7.286   6.834   0.737  0.2766  0.2165  0.2631
 3100poe    c2315594   7.393   6.848   0.828  0.5087  0.3002 -0.0224
 3100poe    c2315595   7.403   6.726   0.921 -0.3689 -0.2880 -0.6751
 3100poe     o215596   7.443   6.610   0.852  0.1201 -0.5312  0.0021
 3100poe    c2315597   7.581   6.579   0.845  0.1578 -0.3308 -0.1515
 3100poe    c2315598   7.647   6.493   0.953 -0.2599 -0.3204  0.1156
 3100poe     o215599   7.649   6.544   1.085 -0.2600 -0.1868  0.0636
 3100poe    c3115600   7.673   6.422   1.152  0.8488 -0.3003 -0.5023
 3101poe    c3115601   5.261   4.926   6.788 -0.0055  0.2325  0.2736
 3101poe     o215602   5.374   4.860   6.736 -0.1358 -0.0005  0.2812
 3101poe    c2315603   5.493   4.904   6.799  0.0542  0.0628 -0.1209
 3101poe    c2315604   5.618   4.828   6.749  0.0820 -0.0693  0.1486
 3101poe     o215605   5.636   4.695   6.791 -0.2801 -0.1551  0.0343
 3101poe    c2315606   5.699   4.696   6.917  0.4154 -0.0820 -0.3119
 3101poe    c2315607   5.794   4.577   6.941  0.5886  0.2248  0.5678
 3101poe     o215608   5.733   4.464   6.882  0.5536  0.3636  0.3378
 3101poe    c2315609   5.802   4.345   6.913 -0.3324 -0.1843  0.2321
 3101poe    c2315610   5.779   4.230   6.814  0.0734  0.2755 -0.4010
 3101poe     o215611   5.827   4.269   6.687  0.5436 -0.4537 -0.4521
 3101poe    c3115612   5.839   4.148   6.616 -0.4447 -0.6961 -0.2233
 3102poe    c3115613   1.769   5.357   4.563 -0.0197 -0.5326  0.4486
 3102poe     o215614   1.685   5.420   4.657  0.0673 -0.2606  0.3441
 3102poe    c2315615   1.553   5.422   4.608  0.0929  0.0681  0.2818
 3102poe    c2315616   1.446   5.451   4.715 -0.2798 -0.0312 -0.0590
 3102poe     o215617   1.456   5.361   4.823  0.0484  0.3502  0.2364
 3102poe    c2315618   1.355   5.371   4.921  0.3216  0.0203  0.5498
 3102poe    c2315619   1.307   5.240   4.987 -0.1860 -0.1047 -0.0595
 3102poe     o215620   1.421   5.168   5.029 -0.3665 -0.2878  0.1183
 3102poe    c2315621   1.389   5.041   5.081 -0.1578 -0.4341 -0.1096
 3102poe    c2315622   1.524   4.992   5.137  0.1836  0.5346 -0.0608
 3102poe     o215623   1.628   5.026   5.049  0.4104  0.1991  0.0751
 3102poe    c3115624   1.747   4.962   5.089  0.1462 -0.4948 -0.2243
 3103poe    c3115625   5.318   2.331   3.127 -0.1984 -0.5170 -0.3415
 3103poe     o215626   5.360   2.214   3.194 -0.1122 -0.2007  0.1685
 3103poe    c2315627   5.433   2.250   3.309 -0.2139  0.1599  0.1206
 3103poe    c2315628   5.489   2.125   3.380 -0.6865 -0.2041 -0.1400
 3103poe     o215629   5.594   2.079   3.299 -0.1544  0.2584  0.2845
 3103poe    c2315630   5.675   1.983   3.363  0.2006  0.1662 -0.2888
 3103poe    c2315631   5.779   1.917   3.271  0.0565 -0.3814 -0.0669
 3103poe     o215632   5.725   1.879   3.147  0.1916 -0.0184 -0.2374
 3103poe    c2315633   5.819   1.808   3.069  0.2106 -0.5897  0.3011
 3103poe    c2315634   5.767   1.801   2.924  0.1968  0.4901  0.2492
 3103poe     o215635   5.741   1.937   2.898  0.4442  0.4953  0.0182
 3103poe    c3115636   5.672   1.959   2.777  0.0479 -0.9956 -0.0407
 3104poe    c3115637   2.457   2.198   4.441  0.1599  0.5879 -0.1302
 3104poe     o215638   2.589   2.247   4.437  0.1323  0.6786  0.0582
 3104poe    c2315639   2.693   2.165   4.485 -0.2211  0.4329  0.4182
 3104poe    c2315640   2.714   2.190   4.635  0.4717 -0.1938  0.4319
 3104poe     o215641   2.753   2.318   4.681  0.4511 -0.0116 -0.0570
 3104poe    c2315642   2.850   2.287   4.778  0.3338 -0.2513 -0.0153
 3104poe    c2315643   2.915   2.418   4.827 -0.7089  0.1046  0.4493
 3104poe     o215644   2.986   2.493   4.731 -0.1517 -0.5029  0.3794
 3104poe    c2315645   3.087   2.571   4.791  0.3653 -0.6476 -0.2979
 3104poe    c2315646   3.231   2.543   4.743  0.5393  0.0158 -0.1777
 3104poe     o215647   3.297   2.429   4.793  0.4002  0.0169  0.0075
 3104poe    c3115648   3.408   2.388   4.717  0.2847 -0.0428 -0.1308
 3105poe    c3115649   3.128   2.069   5.507  0.3846 -0.4366  0.2137
 3105poe     o215650   3.195   2.111   5.391 -0.2642 -0.3084 -0.1196
 3105poe    c2315651   3.197   2.017   5.286  0.1651 -0.3415 -0.0855
 3105poe    c2315652   3.335   2.001   5.220  0.0769 -0.1620 -0.3170
 3105poe     o215653   3.367   2.118   5.149  0.1928  0.4346  0.6908
 3105poe    c2315654   3.503   2.146   5.173  0.4557  0.0684 -0.2883
 3105poe    c2315655   3.542   2.278   5.104 -0.2719 -0.1070 -1.0553
 3105poe     o215656   3.456   2.383   5.142  0.6288  0.3091 -0.0953
 3105poe    c2315657   3.473   2.507   5.078  0.1135  0.3782 -0.1001
 3105poe    c2315658   3.374   2.617   5.123 -0.0638 -0.2409  1.0692
 3105poe     o215659   3.240   2.582   5.099  0.0215 -0.1004  0.3304
 3105poe    c3115660   3.166   2.694   5.142 -0.2921 -0.1590 -0.0552
 3106poe    c3115661   2.697   0.464   4.123  0.4428 -0.4998  0.1499
 3106poe     o215662   2.759   0.574   4.061 -0.4597  0.2020  0.4574
 3106poe    c2315663   2.897   0.587   4.087 -0.3496 -0.0299  0.0083
 3106poe    c2315664   2.988   0.566   3.964 -0.2308  0.0022  0.0902
 3106poe     o215665   2.983   0.675   3.875  0.2769 -0.3621 -0.3921
 3106poe    c2315666   3.091   0.660   3.787  0.1723 -0.5686 -0.4858
 3106poe    c2315667   3.085   0.769   3.678  0.2943 -0.6378 -0.5628
 3106poe     o215668   2.949   0.798   3.658  0.2966 -0.4057 -0.2641
 3106poe    c2315669   2.917   0.910   3.578 -0.1954 -0.2739  0.1092
 3106poe    c2315670   2.767   0.926   3.552 -0.1131 -0.1857 -0.3188
 3106poe     o215671   2.696   0.892   3.670  0.2483 -0.0259 -0.0537
 3106poe    c3115672   2.557   0.888   3.651  0.2880  0.3081 -0.4296
 3107poe    c3115673   2.323   4.131   5.088 -0.0505  0.1116  0.1805
 3107poe     o215674   2.254   4.238   5.029 -0.3984 -0.2581 -0.0890
 3107poe    c2315675   2.166   4.312   5.111 -0.1322 -0.1230  0.0779
 3107poe    c2315676   2.037   4.358   5.039 -0.1160 -0.5623 -0.2365
 3107poe     o215677   2.044   4.458   4.939  0.3205  0.0538  0.3965
 3107poe    c2315678   2.071   4.584   4.997  0.7066  0.1738 -0.0373
 3107poe    c2315679   2.085   4.684   4.881 -1.0871  0.2712 -0.1979
 3107poe     o215680   2.164   4.630   4.778 -0.2768  0.1035  0.4965
 3107poe    c2315681   2.131   4.697   4.658 -0.5115 -0.0293  0.4851
 3107poe    c2315682   2.167   4.619   4.530  0.2385  0.0920  0.6146
 3107poe     o215683   2.156   4.489   4.581  0.0823 -0.0275  0.2818
 3107poe    c3115684   2.184   4.395   4.480  0.1116  0.3371 -0.0498
 3108poe    c3115685   6.351   1.655   2.982  0.1371 -0.6243 -0.6893
 3108poe     o215686   6.474   1.631   3.047  0.2750  0.6016 -0.4690
 3108poe    c2315687   6.558   1.744   3.063  0.4378  0.4264 -0.0692
 3108poe    c2315688   6.677   1.721   3.157  0.1245 -0.2195  0.1756
 3108poe     o215689   6.646   1.687   3.290 -0.4261  0.5586  0.2541
 3108poe    c2315690   6.570   1.783   3.360 -0.6637  0.2954  0.3627
 3108poe    c2315691   6.562   1.738   3.507  0.1921  0.1929  0.3781
 3108poe     o215692   6.539   1.599   3.508 -0.2726  0.2645  0.0246
 3108poe    c2315693   6.525   1.539   3.635 -0.1587  0.3308  0.0684
 3108poe    c2315694   6.499   1.391   3.603  0.1556  0.2975 -0.0400
 3108poe     o215695   6.572   1.347   3.490 -0.0465  0.3644 -0.1975
 3108poe    c3115696   6.542   1.213   3.460 -0.3505  0.3638  0.1020
 3109poe    c3115697   5.716   5.965   4.651  0.1157  0.3401  0.3285
 3109poe     o215698   5.749   6.079   4.575 -0.3728  0.5996  0.4960
 3109poe    c2315699   5.638   6.136   4.508 -0.2524 -0.0987 -0.3221
 3109poe    c2315700   5.684   6.252   4.419 -0.5570 -0.0288 -0.3898
 3109poe     o215701   5.796   6.217   4.340 -0.2152  0.0041  0.0790
 3109poe    c2315702   5.856   6.328   4.276  0.0256 -0.2244 -0.0954
 3109poe    c2315703   5.971   6.290   4.181  0.2166  0.0663  0.0220
 3109poe     o215704   6.025   6.168   4.227  0.1189 -0.0154 -0.0823
 3109poe    c2315705   6.124   6.111   4.145  0.3410  0.3513 -0.0728
 3109poe    c2315706   6.189   5.981   4.197  0.1224  0.4107  0.3549
 3109poe     o215707   6.101   5.872   4.179  0.6212  0.0239  0.2300
 3109poe    c3115708   6.156   5.746   4.208 -0.2369 -0.4123 -0.0177
 3110poe    c3115709   2.301   5.692   4.324 -0.3852  0.1670 -0.2283
 3110poe     o215710   2.260   5.744   4.448 -0.3274 -0.0034 -0.1384
 3110poe    c2315711   2.223   5.642   4.538 -0.2923  0.0501 -0.0622
 3110poe    c2315712   2.164   5.693   4.671 -0.2089  0.2698 -0.1097
 3110poe     o215713   2.257   5.773   4.741  0.3125 -0.0800 -0.3951
 3110poe    c2315714   2.228   5.761   4.878  0.6621 -0.6622 -0.3692
 3110poe    c2315715   2.325   5.852   4.956 -0.0098 -0.0044 -0.2904
 3110poe     o215716   2.298   5.981   4.907 -0.2842 -0.0704 -0.3134
 3110poe    c2315717   2.408   6.062   4.940 -0.4634  0.0985 -0.1256
 3110poe    c2315718   2.367   6.207   4.907 -0.5942  0.1426  0.2250
 3110poe     o215719   2.303   6.196   4.781 -0.3562  0.0581  0.1104
 3110poe    c3115720   2.282   6.327   4.733 -0.4476  0.0936  0.2462
 3111poe    c3115721   4.697   1.778   5.851 -0.5819 -0.1959  0.5010
 3111poe     o215722   4.681   1.822   5.983 -0.2808 -0.2483  0.5564
 3111poe    c2315723   4.714   1.958   5.998 -0.8629  0.0045 -0.3731
 3111poe    c2315724   4.784   1.977   6.134 -0.9808 -0.0262 -0.3091
 3111poe     o215725   4.702   1.933   6.240 -0.3215 -0.0951  0.1766
 3111poe    c2315726   4.751   1.974   6.366 -0.5360  0.4301  0.0896
 3111poe    c2315727   4.648   1.967   6.480 -0.6434  0.1161 -0.0276
 3111poe     o215728   4.574   1.848   6.461 -0.0444 -0.2078 -0.3741
 3111poe    c2315729   4.610   1.741   6.544 -0.0902  0.2849  0.2900
 3111poe    c2315730   4.547   1.602   6.521  0.4982  0.0011  0.3625
 3111poe     o215731   4.588   1.520   6.414  0.0055  0.0657  0.1214
 3111poe    c3115732   4.519   1.397   6.403 -0.3084  0.2090  0.4963
 3112poe    c3115733   1.815   3.022   1.554 -0.5252  0.2506 -0.1674
 3112poe     o215734   1.758   2.997   1.427  0.1799 -0.3653 -0.3722
 3112poe    c2315735   1.855   2.924   1.356  0.3509 -0.1943 -0.3162
 3112poe    c2315736   1.860   2.973   1.210  0.5218 -0.1752 -0.3037
 3112poe     o215737   1.745   2.947   1.132  0.0296  0.5829  0.1678
 3112poe    c2315738   1.740   3.005   1.004 -0.1715  0.6880  0.2224
 3112poe    c2315739   1.597   3.052   0.973 -0.2136  0.3028 -0.1876
 3112poe     o215740   1.583   3.186   1.017 -0.0080  0.3385 -0.2308
 3112poe    c2315741   1.457   3.243   0.989 -0.1183 -0.0349 -0.5097
 3112poe    c2315742   1.461   3.397   0.997 -0.5018 -0.0486 -0.0228
 3112poe     o215743   1.523   3.440   1.116  0.2387 -0.1261 -0.3760
 3112poe    c3115744   1.466   3.563   1.154 -0.2747 -0.5376  0.2057
 3113poe    c3115745   6.337   6.395   5.317 -0.2688  0.0698 -0.2633
 3113poe     o215746   6.289   6.371   5.187 -0.0238 -0.7018 -0.2147
 3113poe    c2315747   6.388   6.377   5.087  0.1098  0.4673 -0.0305
 3113poe    c2315748   6.322   6.422   4.955  0.7478 -0.2862 -0.6195
 3113poe     o215749   6.320   6.562   4.948  0.3217 -0.2683 -0.1935
 3113poe    c2315750   6.258   6.603   4.828 -0.3321 -0.2780  0.1297
 3113poe    c2315751   6.260   6.755   4.809 -0.3225 -0.2629  0.2542
 3113poe     o215752   6.170   6.835   4.884 -0.3019 -0.3362  0.3559
 3113poe    c2315753   6.176   6.969   4.843 -0.5867 -0.3602  0.2338
 3113poe    c2315754   6.101   7.070   4.932 -0.0656  0.1869  0.0626
 3113poe     o215755   6.143   7.066   5.067  0.0290 -0.2002  0.0233
 3113poe    c3115756   6.085   7.156   5.160  0.4050  0.4849 -0.3994
 3114poe    c3115757   4.892   5.218   1.024 -0.4549  0.2754 -0.1904
 3114poe     o215758   4.759   5.200   1.068 -0.6324  0.7632 -0.5255
 3114poe    c2315759   4.694   5.122   0.970 -0.3715 -0.0666 -0.0460
 3114poe    c2315760   4.548   5.085   1.005 -0.5235 -0.3133 -0.9199
 3114poe     o215761   4.553   4.987   1.106 -0.7284  0.1896 -0.4187
 3114poe    c2315762   4.431   4.969   1.175 -0.4831 -0.0965 -0.0523
 3114poe    c2315763   4.448   4.907   1.315 -0.2383  0.3423  0.1170
 3114poe     o215764   4.523   4.988   1.402  1.0119 -0.8693  0.1989
 3114poe    c2315765   4.509   4.957   1.539  0.1966 -0.2991  0.2489
 3114poe    c2315766   4.562   5.068   1.632  0.2374 -0.3987  0.3449
 3114poe     o215767   4.694   5.109   1.601  0.3626 -1.0954 -0.0662
 3114poe    c3115768   4.762   5.163   1.712 -0.1409  0.0860 -0.3233
 3115poe    c3115769   4.396   2.286   3.659 -0.5607 -0.0634  0.4622
 3115poe     o215770   4.354   2.174   3.584 -0.4961  0.3794 -0.2376
 3115poe    c2315771   4.241   2.111   3.639 -0.2706  0.3068  0.1431
 3115poe    c2315772   4.146   2.037   3.543 -0.0344  0.1848  0.0016
 3115poe     o215773   4.200   1.922   3.480 -0.4510  0.0423 -0.1003
 3115poe    c2315774   4.099   1.832   3.441 -0.0862 -0.3191 -0.2176
 3115poe    c2315775   4.051   1.724   3.539 -0.3027  0.0456  0.0843
 3115poe     o215776   4.153   1.630   3.564 -0.1089  0.1685 -0.2381
 3115poe    c2315777   4.099   1.534   3.653  0.3426  0.1224 -0.0144
 3115poe    c2315778   4.153   1.540   3.797 -0.1209  0.0671  0.1607
 3115poe     o215779   4.283   1.491   3.821 -0.1238  0.1129  0.2742
 3115poe    c3115780   4.320   1.493   3.957 -0.0054  0.0198  0.2433
 3116poe    c3115781   3.974   0.981   0.393  0.1483 -0.5861 -0.0695
 3116poe     o215782   3.894   1.057   0.481  0.4462 -0.4305  0.0692
 3116poe    c2315783   3.894   0.997   0.608  0.0836 -0.2289  0.1666
 3116poe    c2315784   3.795   1.073   0.699  0.1853 -0.2612  0.3058
 3116poe     o215785   3.666   1.017   0.696 -0.0070  0.1952  0.0418
 3116poe    c2315786   3.592   1.062   0.808  0.0561  0.0599  0.1385
 3116poe    c2315787   3.444   1.022   0.797 -0.0752  0.4304  0.5386
 3116poe     o215788   3.438   0.882   0.815  0.1982  0.2789 -0.5097
 3116poe    c2315789   3.324   0.808   0.777 -0.0219 -0.1035  0.8446
 3116poe    c2315790   3.334   0.656   0.800 -0.9504 -0.3035  0.0222
 3116poe     o215791   3.447   0.618   0.725 -0.9100 -0.1493  0.0051
 3116poe    c3115792   3.453   0.481   0.693  0.2880 -0.0099 -0.4177
 3117poe    c3115793   5.181   0.582   1.622  0.2222  0.3734  0.0844
 3117poe     o215794   5.181   0.562   1.482  0.0188  0.4788  0.0689
 3117poe    c2315795   5.305   0.520   1.430 -0.1618 -0.0830  0.0934
 3117poe    c2315796   5.268   0.449   1.298 -0.8148  0.7380 -0.1683
 3117poe     o215797   5.171   0.347   1.302 -0.3449  0.2991  0.2324
 3117poe    c2315798   5.122   0.319   1.172 -0.7863  0.2690  0.4023
 3117poe    c2315799   5.034   0.194   1.191 -0.0529 -0.3430 -0.1722
 3117poe     o215800   4.931   0.223   1.283 -0.0964 -0.0432 -0.3134
 3117poe    c2315801   4.877   0.095   1.306 -0.0952 -0.0048 -0.0972
 3117poe    c2315802   4.765   0.104   1.411  0.1244 -0.3603  0.1714
 3117poe     o215803   4.830   0.156   1.524 -0.3286  0.0363  0.2553
 3117poe    c3115804   4.727   0.175   1.618 -0.8608  0.0813 -0.3293
 3118poe    c3115805   1.425   7.093   2.521  0.2966  0.2752  0.1230
 3118poe     o215806   1.339   7.102   2.632  0.0922 -0.1170  0.0017
 3118poe    c2315807   1.324   7.239   2.663  0.6748 -0.1086  0.2744
 3118poe    c2315808   1.255   7.264   2.798 -0.0113  0.0224 -0.0938
 3118poe     o215809   1.133   7.194   2.799  0.0686 -0.1214 -0.3266
 3118poe    c2315810   1.033   7.269   2.864 -0.2698 -0.2042 -0.7462
 3118poe    c2315811   0.913   7.172   2.861 -0.3778 -0.0890 -0.1732
 3118poe     o215812   0.917   7.084   2.971  0.0098  0.3401  0.1651
 3118poe    c2315813   0.800   7.004   2.965 -0.2539  0.7161  0.2783
 3118poe    c2315814   0.767   6.928   3.094  0.0278  0.7209  0.3539
 3118poe     o215815   0.873   6.838   3.119 -0.1805  0.3826  0.0251
 3118poe    c3115816   0.864   6.782   3.248  0.0816  0.1336 -0.0638
 3119poe    c3115817   0.126   4.515   2.000  0.0985 -0.3639 -0.6870
 3119poe     o215818   0.080   4.465   1.876 -0.2068  0.0233 -0.7332
 3119poe    c2315819  -0.049   4.408   1.878 -0.3003  0.2581  0.0226
 3119poe    c2315820  -0.092   4.359   1.739  0.5404 -0.1890 -0.0869
 3119poe     o215821  -0.118   4.475   1.663  0.2636 -0.1601  0.0515
 3119poe    c2315822  -0.188   4.440   1.545  0.3289  0.2608 -0.1124
 3119poe    c2315823  -0.197   4.550   1.438 -0.2915  0.2100 -0.1175
 3119poe     o215824  -0.071   4.594   1.392 -0.5120  0.5569 -0.4000
 3119poe    c2315825  -0.100   4.645   1.264 -0.9134 -0.4876 -0.7371
 3119poe    c2315826   0.024   4.694   1.187 -0.5931  0.1745  0.1789
 3119poe     o215827   0.110   4.777   1.262  0.2410 -0.2794 -0.2554
 3119poe    c3115828   0.212   4.829   1.180  0.1991 -0.1846 -0.2484
 3120poe    c3115829   2.402   0.199   2.581 -0.2658  0.2056  0.5699
 3120poe     o215830   2.448   0.216   2.713 -0.7986  0.3129  0.7438
 3120poe    c2315831   2.404   0.101   2.783  0.2836 -0.5349  0.0829
 3120poe    c2315832   2.390   0.110   2.936  0.2839 -0.0735  0.0599
 3120poe     o215833   2.514   0.144   2.995  0.3478 -0.0655 -0.0773
 3120poe    c2315834   2.516   0.141   3.136 -0.0251 -0.0905 -0.0717
 3120poe    c2315835   2.657   0.186   3.179  0.0055  0.2952 -0.5621
 3120poe     o215836   2.761   0.094   3.157 -0.2036 -0.0746 -0.0379
 3120poe    c2315837   2.886   0.155   3.183  0.0024 -0.6948  0.4724
 3120poe    c2315838   3.000   0.054   3.204  0.5069 -0.1373  0.4507
 3120poe     o215839   3.047  -0.015   3.090 -0.4213  0.0217 -0.0442
 3120poe    c3115840   3.092  -0.144   3.124 -0.2033  0.1667  0.2234
 3121poe    c3115841   3.158   6.913   1.019  0.4919 -0.6175  0.6981
 3121poe     o215842   3.041   6.834   1.015  0.0622  0.0294  0.2522
 3121poe    c2315843   2.945   6.910   0.945  0.3410 -0.1084 -0.2864
 3121poe    c2315844   2.811   6.847   0.987  0.5838 -0.1567  0.4350
 3121poe     o215845   2.828   6.707   0.973 -0.2989 -0.1503 -0.9152
 3121poe    c2315846   2.723   6.626   1.021  0.0562 -0.1181 -0.0603
 3121poe    c2315847   2.766   6.478   1.028  0.0158 -0.1480 -0.4166
 3121poe     o215848   2.893   6.462   1.088 -0.3181 -0.0916  0.3175
 3121poe    c2315849   2.931   6.327   1.072  0.0989  0.0859 -0.2106
 3121poe    c2315850   3.081   6.294   1.089  0.0377  0.1786  0.5238
 3121poe     o215851   3.150   6.321   0.969  0.3479 -0.3380  0.5826
 3121poe    c3115852   3.172   6.208   0.888 -0.5434  0.0393 -0.2003
 3122poe    c3115853   2.154   2.538   0.526 -0.1631  0.8942 -0.7141
 3122poe     o215854   2.224   2.490   0.414  0.5156 -0.4748  0.2693
 3122poe    c2315855   2.351   2.550   0.418  0.5596 -0.5572  0.1399
 3122poe    c2315856   2.386   2.579   0.271  0.0346 -0.0960  0.1018
 3122poe     o215857   2.369   2.456   0.205  0.3188 -0.3009  0.4023
 3122poe    c2315858   2.384   2.464   0.065 -0.1206  0.1984  0.3789
 3122poe    c2315859   2.374   2.315   0.026 -0.2700  0.1954  0.4307
 3122poe     o215860   2.270   2.250   0.096 -0.0236 -0.2965  0.3392
 3122poe    c2315861   2.227   2.129   0.037 -0.5900 -0.2005  0.5511
 3122poe    c2315862   2.084   2.151  -0.016 -0.1956 -0.5916 -0.7114
 3122poe     o215863   1.983   2.155   0.082  0.5343 -0.6487  0.0613
 3122poe    c3115864   1.900   2.041   0.096 -0.3702  0.0371  0.4270
 3123poe    c3115865   6.064   6.262   2.550 -0.0932  0.5855  0.5793
 3123poe     o215866   6.019   6.140   2.604 -0.0126  0.2352 -0.1341
 3123poe    c2315867   5.887   6.108   2.566  0.0436 -0.2684  0.0858
 3123poe    c2315868   5.812   5.991   2.632 -0.6682 -0.0482 -0.3210
 3123poe     o215869   5.847   5.860   2.592 -0.0560 -0.0779  0.2811
 3123poe    c2315870   5.809   5.767   2.691  0.4431 -0.3209  0.2466
 3123poe    c2315871   5.841   5.624   2.647 -0.0979 -0.3691 -0.0054
 3123poe     o215872   5.977   5.586   2.655  0.2160  0.7515  0.0529
 3123poe    c2315873   6.017   5.522   2.537  0.1677  0.5698  0.1357
 3123poe    c2315874   6.170   5.508   2.547  0.1379 -0.0370 -0.2064
 3123poe     o215875   6.205   5.401   2.633  0.2220  0.0586 -0.1231
 3123poe    c3115876   6.345   5.411   2.634  0.1998  0.3519  0.1194
 3124poe    c3115877   4.694   6.482   6.380  0.6602  0.0478  0.7419
 3124poe     o215878   4.792   6.452   6.283 -0.2151  0.3067 -0.2424
 3124poe    c2315879   4.916   6.409   6.337 -0.3787 -0.1669 -0.2381
 3124poe    c2315880   4.996   6.362   6.214  0.0730  0.2625 -0.1142
 3124poe     o215881   4.992   6.470   6.124  0.6378  0.3396 -0.0507
 3124poe    c2315882   5.068   6.457   6.006  0.0136  0.1573 -0.4390
 3124poe    c2315883   5.050   6.574   5.907 -0.5858  0.1030 -0.4011
 3124poe     o215884   4.911   6.591   5.892 -0.6346 -0.1169 -0.2073
 3124poe    c2315885   4.888   6.684   5.789  0.6817 -0.0743 -0.4854
 3124poe    c2315886   4.740   6.728   5.796  0.7077 -0.1196  0.3182
 3124poe     o215887   4.715   6.814   5.905  0.0023 -0.0270  0.0822
 3124poe    c3115888   4.604   6.898   5.878  0.3422  0.2804 -0.3766
 3125poe    c3115889   0.782   3.405   0.767  0.0264  0.0423  0.5473
 3125poe     o215890   0.664   3.476   0.739  0.1829  0.1166  0.0761
 3125poe    c2315891   0.645   3.508   0.603  0.4211  0.3956  0.1062
 3125poe    c2315892   0.601   3.653   0.573 -0.0511  0.2727  0.1859
 3125poe     o215893   0.465   3.670   0.606 -0.0329  0.1466  0.3277
 3125poe    c2315894   0.372   3.622   0.512 -0.4214 -0.3594  0.9605
 3125poe    c2315895   0.229   3.677   0.512 -0.4881 -0.5162 -0.0263
 3125poe     o215896   0.173   3.650   0.638 -0.1302  0.1582  0.2841
 3125poe    c2315897   0.050   3.718   0.654 -0.2873  0.0395 -0.4132
 3125poe    c2315898  -0.050   3.638   0.740 -0.2568  0.1952 -0.2332
 3125poe     o215899   0.004   3.603   0.866 -0.3040 -0.1054 -0.2951
 3125poe    c3115900  -0.095   3.574   0.962 -0.2821 -0.1067 -0.2730
 3126poe    c3115901   4.245   3.843   1.108  0.2610  0.6436  0.5558
 3126poe     o215902   4.317   3.766   1.201  0.2811 -0.0397 -0.0179
 3126poe    c2315903   4.303   3.818   1.331  0.4849  0.2474 -0.1101
 3126poe    c2315904   4.367   3.715   1.426 -0.3624 -0.2232 -0.0346
 3126poe     o215905   4.329   3.580   1.414 -0.2449 -0.2860  0.3007
 3126poe    c2315906   4.410   3.497   1.494  0.3733 -0.1504 -0.1735
 3126poe    c2315907   4.391   3.348   1.459  0.2407 -0.2159  0.1782
 3126poe     o215908   4.461   3.318   1.341 -0.2400  0.4590 -0.2876
 3126poe    c2315909   4.380   3.228   1.267  0.3856 -0.0279 -0.3868
 3126poe    c2315910   4.364   3.080   1.304  0.1152  0.1095  0.0531
 3126poe     o215911   4.248   3.066   1.383  0.0149  0.1325 -0.0885
 3126poe    c3115912   4.217   2.929   1.397 -0.3476  0.1804 -0.4041
 3127poe    c3115913   0.911   2.101   6.188  0.0739  0.2082 -0.0235
 3127poe     o215914   0.779   2.050   6.187  0.1972 -0.1249  0.4708
 3127poe    c2315915   0.693   2.153   6.227  0.0512  0.0828 -0.3540
 3127poe    c2315916   0.545   2.115   6.206  0.0696 -0.4394  0.4005
 3127poe     o215917   0.520   2.105   6.067 -0.0688 -0.0582  0.3950
 3127poe    c2315918   0.384   2.069   6.054 -0.0648  0.0834 -0.0249
 3127poe    c2315919   0.333   2.041   5.911 -0.2044 -0.4676  0.1308
 3127poe     o215920   0.385   1.914   5.878  0.3330 -0.2619  0.1766
 3127poe    c2315921   0.367   1.895   5.740  0.2889  0.1752  0.1195
 3127poe    c2315922   0.421   1.760   5.688  0.1553  0.2579 -0.2347
 3127poe     o215923   0.561   1.769   5.703  0.0481  0.4321  0.7187
 3127poe    c3115924   0.612   1.641   5.736 -0.1013  0.2505  0.2635
 3128poe    c3115925   3.712   1.357   5.801  0.2144  0.4058  0.0853
 3128poe     o215926   3.716   1.482   5.866  0.4643  0.1339  0.5958
 3128poe    c2315927   3.780   1.583   5.791 -0.3234  0.0638 -0.1840
 3128poe    c2315928   3.710   1.663   5.679  0.4940  1.0592 -0.0026
 3128poe     o215929   3.612   1.733   5.752  0.1942  0.0492  0.5956
 3128poe    c2315930   3.566   1.847   5.683  0.3706 -0.5430 -0.5229
 3128poe    c2315931   3.516   1.962   5.773  0.5420 -0.6894 -0.2382
 3128poe     o215932   3.624   2.041   5.820  0.6493 -0.8319 -0.2457
 3128poe    c2315933   3.687   2.134   5.736  0.2435 -0.3671 -0.0411
 3128poe    c2315934   3.810   2.191   5.810  0.2287  0.2711 -0.4985
 3128poe     o215935   3.769   2.289   5.903  0.1849  0.3050 -0.5532
 3128poe    c3115936   3.873   2.331   5.988 -0.5470  0.6636  0.1882
 3129poe    c3115937   6.010   4.714   5.520  0.0549 -0.1471  0.1139
 3129poe     o215938   6.077   4.642   5.621 -0.2712 -0.3347  0.1996
 3129poe    c2315939   6.213   4.614   5.593 -0.2693 -0.1041 -0.0320
 3129poe    c2315940   6.272   4.523   5.703  0.3584  0.3122 -0.0226
 3129poe     o215941   6.274   4.585   5.830  0.5474 -0.1054  0.1816
 3129poe    c2315942   6.342   4.509   5.926  0.9260  0.2003  0.1581
 3129poe    c2315943   6.438   4.606   5.998  0.6115  0.4223  0.2771
 3129poe     o215944   6.360   4.710   6.053 -0.4305 -0.3369  0.2866
 3129poe    c2315945   6.434   4.775   6.154 -0.4815  0.0846  0.0540
 3129poe    c2315946   6.360   4.896   6.214 -0.2412  0.2468  0.0264
 3129poe     o215947   6.233   4.850   6.254 -0.0731  0.2212  0.5337
 3129poe    c3115948   6.152   4.959   6.291 -0.3263  0.2325 -0.0425
 3130poe    c3115949   1.880   2.831   0.574 -0.3390  0.0588  0.1098
 3130poe     o215950   1.853   2.787   0.706  0.1507  0.0707  0.2139
 3130poe    c2315951   1.982   2.772   0.763  0.1674 -0.0651  0.1423
 3130poe    c2315952   1.977   2.728   0.910 -0.0276  0.4555  0.2943
 3130poe     o215953   1.902   2.609   0.908  0.5780  0.0796 -0.2432
 3130poe    c2315954   1.912   2.529   1.023  0.4080 -0.7995 -0.8272
 3130poe    c2315955   1.820   2.406   1.016 -0.1802 -0.3626 -0.8810
 3130poe     o215956   1.687   2.452   1.019  0.0445  0.2454  0.1185
 3130poe    c2315957   1.600   2.342   1.024  0.3001 -0.0230 -0.9823
 3130poe    c2315958   1.463   2.412   1.029  0.4141  0.1443  0.0685
 3130poe     o215959   1.437   2.508   0.930  0.2077 -0.2121 -0.2260
 3130poe    c3115960   1.307   2.560   0.952  0.2551 -0.1085 -0.1926
 3131poe    c3115961   6.022   2.242   3.768  0.0385 -0.5243  0.4764
 3131poe     o215962   6.073   2.213   3.640 -0.0034  0.3921  0.2413
 3131poe    c2315963   6.048   2.328   3.563  0.6661  0.5341  0.2284
 3131poe    c2315964   6.000   2.288   3.423  0.3457 -0.1965  0.5392
 3131poe     o215965   6.092   2.195   3.370  0.1053 -0.4367  0.5397
 3131poe    c2315966   6.045   2.147   3.246 -0.2786  0.4622  0.3254
 3131poe    c2315967   6.140   2.032   3.208  0.3408  0.9673  0.3185
 3131poe     o215968   6.129   1.931   3.306  0.1130  0.3887 -0.2855
 3131poe    c2315969   6.172   1.801   3.274 -1.4373 -0.2262  0.0477
 3131poe    c2315970   6.187   1.713   3.400 -0.1356 -0.5429 -0.3106
 3131poe     o215971   6.077   1.729   3.487 -0.2130  0.1070 -0.5217
 3131poe    c3115972   6.080   1.628   3.585  0.7085  0.2496 -0.3928
 3132poe    c3115973   3.625   0.011   4.143 -0.1992  0.0417  0.0480
 3132poe     o215974   3.518   0.097   4.173 -0.1040  0.1013  0.2220
 3132poe    c2315975   3.397   0.057   4.111 -0.2413  0.1851  0.4332
 3132poe    c2315976   3.270   0.128   4.162 -0.1419  0.3310  0.4797
 3132poe     o215977   3.261   0.105   4.301 -0.0667 -0.3372  0.3799
 3132poe    c2315978   3.145   0.158   4.362  0.0833  0.4116  0.0322
 3132poe    c2315979   3.155   0.176   4.514  0.7034 -0.0675  0.0529
 3132poe     o215980   3.247   0.282   4.532  0.0671  0.5432 -0.2571
 3132poe    c2315981   3.225   0.333   4.661 -0.0886 -0.4593  0.1213
 3132poe    c2315982   3.306   0.461   4.691  0.1569 -0.5865  0.0055
 3132poe     o215983   3.439   0.447   4.734  0.2208  0.0825  0.0410
 3132poe    c3115984   3.437   0.436   4.875  0.2417  0.4339  0.0680
 3133poe    c3115985   5.766   1.881   1.099 -0.1641 -0.1599 -0.1073
 3133poe     o215986   5.866   1.785   1.074  0.4319  0.2721  0.5527
 3133poe    c2315987   5.973   1.824   0.992  0.4299 -0.1471  0.3457
 3133poe    c2315988   6.048   1.701   0.939 -0.0278 -0.4576  0.4161
 3133poe     o215989   6.092   1.621   1.047  0.0923 -0.0974  0.6375
 3133poe    c2315990   6.180   1.521   0.998 -0.1338 -0.0328  0.0851
 3133poe    c2315991   6.219   1.453   1.131  0.2184  0.4861  0.2512
 3133poe     o215992   6.116   1.404   1.213  0.3069  0.1568  0.1663
 3133poe    c2315993   6.169   1.348   1.331 -0.0901  0.1054  0.3233
 3133poe    c2315994   6.057   1.297   1.423  0.1280  0.3688  0.7363
 3133poe     o215995   5.944   1.382   1.415 -0.1129  0.0077  0.2717
 3133poe    c3115996   5.834   1.322   1.480 -0.1937 -0.2437 -0.0907
 3134poe    c3115997   6.195   4.485   1.226  0.1878 -0.3526 -0.2594
 3134poe     o215998   6.241   4.597   1.154  0.1484 -0.1096  0.0893
 3134poe    c2315999   6.369   4.643   1.189 -0.0234  0.1662  0.3604
 3134poe    c2316000   6.414   4.742   1.079 -0.5285  0.0102  0.0096
 3134poe     o216001   6.290   4.810   1.075 -0.2770  0.5406  0.7998
 3134poe    c2316002   6.302   4.919   0.986  0.3098 -0.0540  0.1214
 3134poe    c2316003   6.181   5.015   0.993  0.0938 -0.3269  0.1673
 3134poe     o216004   6.065   4.938   0.972 -0.2104  0.2274 -0.2275
 3134poe    c2316005   5.948   5.016   0.971 -0.3522  0.0139 -0.3204
 3134poe    c2316006   5.824   4.932   0.936 -0.0443 -0.2564 -0.7668
 3134poe     o216007   5.794   4.846   1.043 -0.0498  0.1311 -0.4540
 3134poe    c3116008   5.676   4.775   1.011  0.1054 -0.3211 -0.0506
 3135poe    c3116009   6.665   0.733   3.621 -0.2576 -0.0393 -0.2324
 3135poe     o216010   6.634   0.759   3.757  0.0549 -0.1070 -0.1488
 3135poe    c2316011   6.748   0.808   3.824 -0.0765 -0.4357  0.3166
 3135poe    c2316012   6.724   0.841   3.973  0.6617  0.5428  0.2278
 3135poe     o216013   6.724   0.982   3.985 -0.1581  0.5657  0.0496
 3135poe    c2316014   6.684   1.045   4.104 -0.1875  0.3239  0.1692
 3135poe    c2316015   6.534   1.036   4.136 -0.1786  0.7152  0.3337
 3135poe     o216016   6.460   1.114   4.045 -0.0809  0.2937 -0.1094
 3135poe    c2316017   6.338   1.051   4.013 -0.2080  0.5489 -0.1273
 3135poe    c2316018   6.244   1.158   3.954 -0.2653  0.4229 -0.2651
 3135poe     o216019   6.261   1.150   3.814  0.2554  0.1853 -0.1915
 3135poe    c3116020   6.197   1.255   3.745 -0.2704 -0.1039 -0.1527
 3136poe    c3116021   5.962   2.738   0.094  0.2356  0.0550  0.2256
 3136poe     o216022   5.969   2.839  -0.004  0.4458 -0.2308 -0.0563
 3136poe    c2316023   6.018   2.959   0.053  0.0601 -0.0436 -0.1106
 3136poe    c2316024   6.005   3.068  -0.055  0.1235  0.0045 -0.0695
 3136poe     o216025   5.876   3.086  -0.108  0.2735  0.4533 -0.2892
 3136poe    c2316026   5.867   3.207  -0.180  0.1325  0.4384 -0.2972
 3136poe    c2316027   5.741   3.217  -0.268 -0.2880 -0.3221  0.1994
 3136poe     o216028   5.654   3.130  -0.200 -0.3403 -0.2953  0.1661
 3136poe    c2316029   5.534   3.108  -0.271 -0.2917  0.1456 -0.0626
 3136poe    c2316030   5.449   3.007  -0.190 -0.3407  0.3936  0.1971
 3136poe     o216031   5.526   2.895  -0.153  0.1420  0.6191 -0.1131
 3136poe    c3116032   5.441   2.793  -0.106  0.1060  0.4383 -0.5615
 3137poe    c3116033   4.973   5.390   5.891 -0.2810 -0.1786  0.1922
 3137poe     o216034   5.020   5.516   5.849 -0.0101 -0.3433  0.0034
 3137poe    c2316035   5.038   5.514   5.710 -0.5044  0.3680 -0.0742
 3137poe    c2316036   5.086   5.649   5.652  0.3435 -0.1427 -0.5917
 3137poe     o216037   5.216   5.669   5.703  0.1132 -0.0605 -0.0237
 3137poe    c2316038   5.280   5.761   5.617 -0.5246 -0.3547 -0.8369
 3137poe    c2316039   5.432   5.759   5.639 -0.6817 -0.5383  0.2947
 3137poe     o216040   5.467   5.832   5.755 -0.4035 -0.1049 -0.0585
 3137poe    c2316041   5.607   5.827   5.775 -0.4798  0.3058  0.6096
 3137poe    c2316042   5.628   5.811   5.927  0.2253  0.3137  0.5127
 3137poe     o216043   5.556   5.700   5.975  0.0686  0.0095 -0.4023
 3137poe    c3116044   5.587   5.668   6.109 -0.5358  0.1884 -0.2136
 3138poe    c3116045   4.881   5.355   0.634 -0.0602  0.1349  0.2728
 3138poe     o216046   4.838   5.356   0.500  0.1698  0.0306  0.1974
 3138poe    c2316047   4.867   5.230   0.444  0.2119 -0.0962  0.5065
 3138poe    c2316048   4.876   5.244   0.291 -0.2547 -0.2176  0.4663
 3138poe     o216049   4.973   5.340   0.257 -0.3700 -0.0581  0.5891
 3138poe    c2316050   5.005   5.331   0.120 -0.3036 -0.4233  0.6272
 3138poe    c2316051   4.919   5.422   0.030  0.4820 -0.4428 -0.1580
 3138poe     o216052   4.940   5.560   0.047 -0.2274 -0.3219 -0.2577
 3138poe    c2316053   5.042   5.617  -0.032 -0.4263 -0.0368 -0.3126
 3138poe    c2316054   5.035   5.768  -0.004  0.6941  0.0188 -0.2895
 3138poe     o216055   5.065   5.814   0.126 -0.0287 -0.5854  0.1023
 3138poe    c3116056   5.077   5.955   0.121 -0.2363 -0.5589  0.3390
 3139poe    c3116057   0.464   2.356   6.524  0.0882  0.1794 -0.1661
 3139poe     o216058   0.488   2.488   6.566  0.0100  0.0502  0.2824
 3139poe    c2316059   0.487   2.502   6.707  0.4142 -0.0821  0.2997
 3139poe    c2316060   0.495   2.647   6.757 -0.0672  0.2722 -0.6145
 3139poe     o216061   0.605   2.711   6.695 -0.2242  0.6689 -0.4861
 3139poe    c2316062   0.615   2.840   6.752  0.3845  0.4571 -0.1036
 3139poe    c2316063   0.731   2.919   6.690  0.4457  0.2980 -0.1927
 3139poe     o216064   0.822   2.819   6.648  0.3397 -0.0208  0.3266
 3139poe    c2316065   0.935   2.873   6.583  0.0962  0.2595  0.1310
 3139poe    c2316066   1.014   2.753   6.528  0.1479  0.2203  0.2905
 3139poe     o216067   0.917   2.658   6.490  0.4800 -0.1971  0.4796
 3139poe    c3116068   0.965   2.564   6.397 -0.3297  0.0760 -0.2350
 3140poe    c3116069   4.044   4.677   1.071  0.0726 -0.2011 -0.0122
 3140poe     o216070   4.146   4.588   1.033  0.2185 -0.1201  0.1936
 3140poe    c2316071   4.153   4.483   1.128  0.1296 -0.1041  0.2176
 3140poe    c2316072   4.100   4.354   1.063  0.4640 -0.0497 -0.1663
 3140poe     o216073   4.172   4.304   0.952  0.3842 -0.3732 -0.0738
 3140poe    c2316074   4.069   4.231   0.889 -0.2886  0.5220 -0.0371
 3140poe    c2316075   4.124   4.182   0.754  0.4483  0.5473  0.2529
 3140poe     o216076   4.227   4.086   0.759 -0.1576 -0.1036  0.3353
 3140poe    c2316077   4.249   4.033   0.629  0.0155  0.1040  0.2793
 3140poe    c2316078   4.271   3.883   0.652  0.1429  0.0598 -0.1312
 3140poe     o216079   4.396   3.845   0.706 -0.0070 -0.4379 -0.1305
 3140poe    c3116080   4.394   3.717   0.765  0.0390 -0.6031 -0.4806
 3141poe    c3116081   0.706   2.371   4.019 -0.1988 -0.1369 -0.1953
 3141poe     o216082   0.727   2.508   3.992  0.1211 -0.1658 -0.1007
 3141poe    c2316083   0.852   2.541   4.046  0.2105 -0.1247 -0.3299
 3141poe    c2316084   0.891   2.690   4.038  0.4008 -0.1237  0.4665
 3141poe     o216085   0.813   2.770   4.124  0.3434  0.0481  0.2559
 3141poe    c2316086   0.873   2.898   4.115  0.0609  0.1724  0.1362
 3141poe    c2316087   0.757   2.999   4.115  0.2494  0.3878  0.6155
 3141poe     o216088   0.657   2.967   4.021  0.4130  0.5658  0.3769
 3141poe    c2316089   0.577   3.080   3.993  0.0696  0.4087  0.7087
 3141poe    c2316090   0.443   3.028   3.938  0.4846 -0.0545  0.1110
 3141poe     o216091   0.405   2.926   4.029  0.0346  0.3205  0.3492
 3141poe    c3116092   0.269   2.894   4.019  0.1961 -0.4113  0.4526
 3142poe    c3116093   3.584   0.855   3.648 -0.4568  0.1644 -0.1146
 3142poe     o216094   3.645   0.737   3.600 -0.6474  0.1686 -0.3654
 3142poe    c2316095   3.738   0.774   3.500 -0.7277  0.4114 -0.3513
 3142poe    c2316096   3.693   0.721   3.363 -0.9468  0.1415 -0.1770
 3142poe     o216097   3.711   0.582   3.349  0.2436  0.2866 -0.1110
 3142poe    c2316098   3.638   0.539   3.237  0.1046 -0.3115  0.2015
 3142poe    c2316099   3.665   0.396   3.186  0.1704 -0.1779 -0.1463
 3142poe     o216100   3.627   0.289   3.269  0.0887 -0.4438 -0.5251
 3142poe    c2316101   3.728   0.247   3.358 -0.1281 -0.0654 -0.0977
 3142poe    c2316102   3.674   0.133   3.446 -0.1752 -0.3685 -0.5211
 3142poe     o216103   3.584   0.194   3.536  0.4060 -0.2121 -0.0405
 3142poe    c3116104   3.546   0.096   3.630  0.1611 -0.4416 -0.3763
 3143poe    c3116105   3.570   5.279   1.357  0.1158 -0.4193  0.5781
 3143poe     o216106   3.430   5.289   1.350  0.1580  0.1567  0.4935
 3143poe    c2316107   3.386   5.382   1.254 -0.1598  0.0334  0.5177
 3143poe    c2316108   3.234   5.378   1.230 -0.0240  0.5877 -0.4891
 3143poe     o216109   3.205   5.247   1.187  0.0855  0.4571 -0.1734
 3143poe    c2316110   3.065   5.241   1.174  0.1072 -0.4774 -0.0315
 3143poe    c2316111   3.021   5.110   1.104 -0.3041 -0.3664  0.0156
 3143poe     o216112   3.083   4.993   1.152 -0.2242 -0.2273  0.2536
 3143poe    c2316113   3.041   4.874   1.088  0.2745 -0.0624 -0.3890
 3143poe    c2316114   3.110   4.760   1.165 -0.0806  0.5260  0.8375
 3143poe     o216115   3.237   4.809   1.202  0.0477  0.5751  0.3457
 3143poe    c3116116   3.309   4.702   1.260 -0.4971  0.0449  0.0576
 3144poe    c3116117   0.895   5.230   1.605  0.3659 -0.1745  0.4034
 3144poe     o216118   0.811   5.155   1.519 -0.1280  0.2524  0.5066
 3144poe    c2316119   0.869   5.130   1.393 -0.6304 -0.0281  0.3304
 3144poe    c2316120   0.803   5.209   1.278 -0.1126 -0.1653 -0.0647
 3144poe     o216121   0.874   5.214   1.157 -0.3849 -0.1797 -0.2239
 3144poe    c2316122   0.788   5.262   1.055 -0.0628 -0.0176 -0.4200
 3144poe    c2316123   0.872   5.357   0.967 -0.1909  0.2933 -0.2085
 3144poe     o216124   0.946   5.453   1.038  0.1121 -0.1065  0.0256
 3144poe    c2316125   1.006   5.556   0.963 -0.1644  0.0201 -0.0258
 3144poe    c2316126   1.148   5.514   0.919  0.0206  0.3680  0.2286
 3144poe     o216127   1.227   5.476   1.029  0.3244  0.8872  0.1924
 3144poe    c3116128   1.360   5.461   0.982  0.1455 -0.0630 -0.0462
 3145poe    c3116129   2.265   1.815   4.621 -0.1321  0.0432 -0.4367
 3145poe     o216130   2.174   1.913   4.666  0.0130  0.2976 -0.6941
 3145poe    c2316131   2.049   1.863   4.625  0.1777 -0.1087 -0.7038
 3145poe    c2316132   1.951   1.982   4.638 -0.1437 -0.4441 -0.0152
 3145poe     o216133   1.950   2.053   4.760  0.2662 -0.4889  0.0159
 3145poe    c2316134   1.830   2.127   4.764  0.4352 -0.2165  0.1435
 3145poe    c2316135   1.844   2.214   4.890  0.3429  0.4346 -0.2884
 3145poe     o216136   1.968   2.282   4.888  0.5277  0.1219  0.2125
 3145poe    c2316137   1.978   2.383   4.985  0.1759  0.1910  0.1795
 3145poe    c2316138   2.128   2.399   5.018  0.1482  0.5194  0.1548
 3145poe     o216139   2.202   2.364   4.903  0.1601 -0.2947  0.4034
 3145poe    c3116140   2.337   2.371   4.940  0.1924  0.5004  0.1556
 3146poe    c3116141   5.958   0.129   4.281 -0.2964  0.1098  0.0490
 3146poe     o216142   5.946   0.172   4.415  0.6688 -0.1149  0.2142
 3146poe    c2316143   5.881   0.078   4.497 -0.1896 -0.3260 -0.6873
 3146poe    c2316144   5.728   0.082   4.513 -0.1563 -0.3034 -0.3512
 3146poe     o216145   5.657   0.188   4.572  0.0771 -0.4273  0.1593
 3146poe    c2316146   5.524   0.151   4.601  0.1504 -0.6192  0.2506
 3146poe    c2316147   5.454   0.238   4.707  0.0697 -0.5024  0.1022
 3146poe     o216148   5.510   0.233   4.837 -0.3710  0.3676  0.3326
 3146poe    c2316149   5.431   0.298   4.934 -0.6664  0.4588  0.0324
 3146poe    c2316150   5.504   0.285   5.068  0.0204 -0.1971 -0.3982
 3146poe     o216151   5.495   0.155   5.122  0.2984 -0.0632 -0.0215
 3146poe    c3116152   5.614   0.107   5.180  0.4699  0.2588 -0.1035
 3147poe    c3116153   4.239   6.277   4.634  0.2951  0.4630 -0.4141
 3147poe     o216154   4.154   6.353   4.717 -0.4917 -0.2360 -0.5672
 3147poe    c2316155   4.173   6.490   4.693 -0.2471 -0.2100 -0.2218
 3147poe    c2316156   4.120   6.592   4.796  0.5133  0.3345 -0.3565
 3147poe     o216157   4.213   6.636   4.892  0.3939  0.1115 -0.1360
 3147poe    c2316158   4.284   6.752   4.854  0.2749  0.2724  0.1366
 3147poe    c2316159   4.421   6.752   4.925  0.0568 -1.1467  0.5903
 3147poe     o216160   4.426   6.795   5.059 -0.4830  0.1908  0.2003
 3147poe    c2316161   4.547   6.759   5.121 -0.2318  0.4084 -0.1649
 3147poe    c2316162   4.545   6.815   5.264  0.9179 -0.0412  0.0442
 3147poe     o216163   4.556   6.956   5.263 -0.4419  0.0724 -0.3377
 3147poe    c3116164   4.533   7.014   5.389 -0.0960 -0.6358  0.0608
 3148poe    c3116165   6.704   5.804   0.010  0.0977 -0.1444 -0.0795
 3148poe     o216166   6.632   5.686   0.038 -0.0720 -0.0497 -0.1137
 3148poe    c2316167   6.688   5.625   0.152  0.1288 -0.2547 -0.3184
 3148poe    c2316168   6.630   5.483   0.157 -0.6094  0.0521  0.0788
 3148poe     o216169   6.622   5.427   0.027  0.6698 -0.0891  0.0496
 3148poe    c2316170   6.610   5.287   0.035 -0.0129 -0.0325  0.0582
 3148poe    c2316171   6.575   5.223  -0.101  0.0689  0.6952 -0.3123
 3148poe     o216172   6.674   5.241  -0.199  0.0201  0.6010 -0.3795
 3148poe    c2316173   6.808   5.203  -0.177 -0.2054  0.1285  0.1754
 3148poe    c2316174   6.878   5.222  -0.312  0.1322 -0.0362  0.3245
 3148poe     o216175   6.917   5.356  -0.332  0.5195 -0.1684  0.1974
 3148poe    c3116176   6.954   5.386  -0.465 -0.5356  0.5075  0.0512
 3149poe    c3116177   0.756   5.146   5.627 -0.3410  0.1704  0.4214
 3149poe     o216178   0.713   5.018   5.586  0.0832  0.3461 -0.6058
 3149poe    c2316179   0.747   4.911   5.671 -0.2026  0.6985 -0.0458
 3149poe    c2316180   0.819   4.799   5.594 -0.3699  0.3199  0.3441
 3149poe     o216181   0.752   4.747   5.482  0.5584 -0.0623 -0.0444
 3149poe    c2316182   0.815   4.625   5.452  0.4349 -0.1688  0.1280
 3149poe    c2316183   0.735   4.561   5.337  0.0203  0.0164  0.3123
 3149poe     o216184   0.688   4.661   5.250  0.1285 -0.6073 -0.4733
 3149poe    c2316185   0.613   4.601   5.146 -0.1311 -0.5307 -0.3334
 3149poe    c2316186   0.576   4.729   5.069  0.7551  0.2447  0.4884
 3149poe     o216187   0.533   4.835   5.151  0.0234  0.3009  0.0467
 3149poe    c3116188   0.431   4.914   5.094  0.0546  0.3818  0.1026
 3150poe    c3116189   1.171   5.390   6.546 -0.0710 -0.0002 -0.0325
 3150poe     o216190   1.149   5.251   6.545  0.1928 -0.0515  0.6587
 3150poe    c2316191   1.203   5.213   6.420 -0.6709  0.5385  0.0928
 3150poe    c2316192   1.238   5.063   6.419  0.5058  0.8022  0.2492
 3150poe     o216193   1.358   5.045   6.490  0.3765  0.1025  0.2931
 3150poe    c2316194   1.348   4.910   6.530  0.3489 -0.1189 -0.4653
 3150poe    c2316195   1.469   4.859   6.611  0.2658  0.0124 -0.2583
 3150poe     o216196   1.472   4.937   6.728  0.0486  0.0994 -0.3094
 3150poe    c2316197   1.597   4.916   6.792 -0.1722  0.4520  0.2468
 3150poe    c2316198   1.596   4.802   6.895  0.1863  0.4268  0.2209
 3150poe     o216199   1.516   4.841   7.004 -0.1901 -0.3012  0.2171
 3150poe    c3116200   1.505   4.750   7.111 -0.0428  0.1294  0.6058
 3151poe    c3116201   0.893   4.732   3.478 -0.3275  0.0781 -0.0748
 3151poe     o216202   0.775   4.788   3.424 -0.3085  0.0850 -0.1093
 3151poe    c2316203   0.773   4.780   3.284 -0.1706  0.1681 -0.1161
 3151poe    c2316204   0.805   4.912   3.210 -0.2103 -0.0763 -0.5756
 3151poe     o216205   0.704   5.007   3.236 -0.6180 -0.5178 -0.5184
 3151poe    c2316206   0.731   5.119   3.154  0.2262 -0.4957 -0.2142
 3151poe    c2316207   0.616   5.221   3.156  0.6295 -0.0389  0.1116
 3151poe     o216208   0.613   5.287   3.280  0.1562  0.3409 -0.0960
 3151poe    c2316209   0.515   5.389   3.281  0.1325  0.3184 -0.1475
 3151poe    c2316210   0.542   5.475   3.405  0.0718  0.4695 -0.2386
 3151poe     o216211   0.571   5.385   3.510 -0.2271  0.3285 -0.2756
 3151poe    c3116212   0.606   5.457   3.626  0.2065  0.2037 -0.3278
 3152poe    c3116213   5.364   4.028   3.582 -0.4118 -0.4486  0.2654
 3152poe     o216214   5.270   4.014   3.477 -0.5084 -0.2423  0.3238
 3152poe    c2316215   5.268   3.887   3.417  0.6181 -0.2428  0.2575
 3152poe    c2316216   5.388   3.849   3.328  0.2356 -0.5472 -0.1396
 3152poe     o216217   5.398   3.933   3.215  0.7315 -0.2296  0.1352
 3152poe    c2316218   5.535   3.965   3.202  0.5859  0.4225  0.1550
 3152poe    c2316219   5.557   4.075   3.097  0.1749  0.3176 -0.0439
 3152poe     o216220   5.526   4.042   2.963 -0.1205  0.4217 -0.0039
 3152poe    c2316221   5.574   4.131   2.866 -0.3567  0.2554 -0.2727
 3152poe    c2316222   5.584   4.071   2.724  0.1949  0.0944 -0.1654
 3152poe     o216223   5.456   4.037   2.675  0.2065 -0.3524  0.1065
 3152poe    c3116224   5.459   4.037   2.534  0.3518 -0.3962  0.1094
 3153poe    c3116225   2.374   6.384   6.815  0.1146 -0.0124  0.0002
 3153poe     o216226   2.354   6.272   6.898 -0.3820  0.1586  0.1124
 3153poe    c2316227   2.379   6.302   7.034 -0.5002  0.1422  0.1381
 3153poe    c2316228   2.425   6.182   7.119 -0.0540  0.3074  0.1343
 3153poe     o216229   2.350   6.167   7.238 -0.3529 -0.6243 -0.1615
 3153poe    c2316230   2.386   6.050   7.309  0.1771 -0.1218  0.4122
 3153poe    c2316231   2.284   6.035   7.423  0.6448 -0.1299  0.8336
 3153poe     o216232   2.176   5.955   7.379  0.7545  0.2324 -0.1264
 3153poe    c2316233   2.110   5.926   7.501  0.2377  0.1508 -0.4242
 3153poe    c2316234   1.993   5.829   7.474  0.0253  0.3083 -0.0691
 3153poe     o216235   1.896   5.911   7.413 -0.3936  0.0236  0.2091
 3153poe    c3116236   1.796   5.827   7.362 -0.3466  0.1945 -0.1679
 3154poe    c3116237   3.806   5.281   6.240 -0.4154  0.0006  0.0537
 3154poe     o216238   3.722   5.360   6.159 -0.9335 -0.3256  0.2675
 3154poe    c2316239   3.706   5.474   6.242  0.2206 -0.2173  0.3572
 3154poe    c2316240   3.626   5.586   6.173 -0.0863 -0.3074  0.5640
 3154poe     o216241   3.491   5.554   6.147 -0.1035  0.0988  0.1378
 3154poe    c2316242   3.414   5.656   6.087  0.0814 -0.0413 -0.3445
 3154poe    c2316243   3.316   5.589   5.989 -0.0259 -0.4819  0.0546
 3154poe     o216244   3.365   5.485   5.907 -0.0828 -0.4898  0.0309
 3154poe    c2316245   3.289   5.468   5.789 -0.3396  0.2050  0.0873
 3154poe    c2316246   3.303   5.329   5.724  0.0378  0.4177 -0.2905
 3154poe     o216247   3.255   5.223   5.804  0.4072  0.5185  0.0666
 3154poe    c3116248   3.290   5.099   5.747 -1.2257  0.1248 -0.1366
 3155poe    c3116249   2.757   0.327   1.649  0.6984  0.0678  0.0553
 3155poe     o216250   2.740   0.370   1.516 -0.2972 -0.2168  0.0830
 3155poe    c2316251   2.613   0.432   1.506 -0.2244 -0.1080 -0.1801
 3155poe    c2316252   2.600   0.538   1.395 -0.1989 -0.2455 -0.3151
 3155poe     o216253   2.680   0.652   1.416 -0.1489 -0.4186  0.4751
 3155poe    c2316254   2.616   0.762   1.478 -0.0033  0.3401 -0.6839
 3155poe    c2316255   2.707   0.887   1.488  0.0278  0.2627  0.1247
 3155poe     o216256   2.803   0.895   1.590  0.8594  0.1064 -0.6363
 3155poe    c2316257   2.796   1.018   1.658 -0.8486 -0.4553  0.2557
 3155poe    c2316258   2.826   1.008   1.809  0.5452  0.0426  0.0240
 3155poe     o216259   2.717   0.938   1.864  0.0268  0.5361 -0.3619
 3155poe    c3116260   2.725   0.949   2.004  0.0924 -1.0056 -0.2219
 3156poe    c3116261   2.136   1.914   6.856 -0.0416  0.1682  0.3154
 3156poe     o216262   2.137   1.807   6.765  0.5767  0.3491  0.1065
 3156poe    c2316263   2.141   1.687   6.839  0.1672  0.3291  0.0983
 3156poe    c2316264   2.079   1.567   6.765 -0.1194  0.4467  0.1452
 3156poe     o216265   2.169   1.509   6.673 -0.1752 -0.2296  0.5078
 3156poe    c2316266   2.139   1.371   6.665 -0.7200 -0.0647 -0.4499
 3156poe    c2316267   2.216   1.304   6.551 -0.1441  0.0389 -0.1272
 3156poe     o216268   2.172   1.340   6.422 -0.0312 -0.0896 -0.2032
 3156poe    c2316269   2.273   1.314   6.328  0.3151 -0.6707  0.3210
 3156poe    c2316270   2.210   1.345   6.190  0.3193  0.0659  0.4788
 3156poe     o216271   2.175   1.481   6.189 -0.2314 -0.0769  0.4552
 3156poe    c3116272   2.149   1.527   6.058  0.5512 -0.2908  0.2215
 3157poe    c3116273   0.388   5.280   1.348 -0.3417  0.1827 -0.2875
 3157poe     o216274   0.434   5.411   1.375  0.4023 -0.1164 -0.0827
 3157poe    c2316275   0.532   5.406   1.476 -0.0547 -0.0386  0.3757
 3157poe    c2316276   0.617   5.534   1.490 -0.1897  0.1279 -0.2934
 3157poe     o216277   0.661   5.579   1.363  0.3235 -0.4713 -0.3357
 3157poe    c2316278   0.759   5.680   1.369 -0.4074  0.2882 -0.9540
 3157poe    c2316279   0.713   5.823   1.407  0.3824  0.1879  0.4522
 3157poe     o216280   0.635   5.876   1.302  0.4935  0.0352  0.2913
 3157poe    c2316281   0.585   6.005   1.327  0.1803 -0.0720  0.2265
 3157poe    c2316282   0.686   6.122   1.324  0.3060 -0.1799  0.2367
 3157poe     o216283   0.750   6.107   1.200 -0.2562  0.5646 -0.1518
 3157poe    c3116284   0.849   6.208   1.197 -0.4138  0.7130 -0.3680
 3158poe    c3116285   4.851   0.413   3.457 -0.1972  0.0665 -0.0324
 3158poe     o216286   4.844   0.545   3.506 -0.8928  0.0908 -0.1769
 3158poe    c2316287   4.886   0.616   3.392  0.2061 -0.0747  0.1091
 3158poe    c2316288   4.805   0.747   3.382  0.1297 -0.1818 -0.7217
 3158poe     o216289   4.666   0.740   3.363  0.0143  0.0915 -0.0148
 3158poe    c2316290   4.603   0.863   3.338  0.1051  0.2064  0.3218
 3158poe    c2316291   4.449   0.864   3.354  0.1163  0.3581  0.4366
 3158poe     o216292   4.398   0.844   3.483  0.2116  0.3738  0.4769
 3158poe    c2316293   4.264   0.798   3.482  0.2836  0.1609  0.5155
 3158poe    c2316294   4.238   0.718   3.611 -0.1780 -0.2438  0.1748
 3158poe     o216295   4.314   0.599   3.618 -0.0145 -0.1644 -0.1954
 3158poe    c3116296   4.295   0.542   3.746  0.4076  0.0361 -0.0437
 3159poe    c3116297   3.692   5.243   0.812 -0.4635  0.2351  0.0497
 3159poe     o216298   3.698   5.354   0.899 -0.8518  0.3637 -0.0875
 3159poe    c2316299   3.783   5.322   1.006 -0.0687  1.0407 -0.4921
 3159poe    c2316300   3.814   5.445   1.093  0.0942  0.4575  0.2922
 3159poe     o216301   3.846   5.542   0.996 -0.2220  0.2060 -0.0650
 3159poe    c2316302   3.894   5.665   1.045  0.5408 -0.0851 -0.0653
 3159poe    c2316303   3.914   5.762   0.928 -0.0427  0.0361 -0.0686
 3159poe     o216304   3.789   5.802   0.877 -0.0877 -0.1251 -0.0853
 3159poe    c2316305   3.788   5.917   0.795 -0.1226  0.0725  0.1893
 3159poe    c2316306   3.665   6.004   0.827 -0.0657  0.1886  0.0967
 3159poe     o216307   3.686   6.066   0.952  0.1994  0.0076  0.1434
 3159poe    c3116308   3.567   6.128   0.995  0.4516  0.7997 -0.2732
 3160poe    c3116309   5.638   0.055   6.835  0.0913 -0.1896  0.1085
 3160poe     o216310   5.550  -0.011   6.923 -0.3565  0.1764 -0.0572
 3160poe    c2316311   5.489  -0.120   6.860 -0.0771 -0.4253  0.6957
 3160poe    c2316312   5.350  -0.159   6.915 -0.5353  0.1843 -0.0039
 3160poe     o216313   5.367  -0.208   7.046 -0.4577  0.2594  0.0148
 3160poe    c2316314   5.247  -0.234   7.116 -0.5690  0.2403 -0.1841
 3160poe    c2316315   5.231  -0.202   7.265  0.3932 -0.0818 -0.0077
 3160poe     o216316   5.308  -0.268   7.363 -0.0833 -0.3530  0.1888
 3160poe    c2316317   5.247  -0.393   7.386 -0.5203 -0.1122  0.3304
 3160poe    c2316318   5.334  -0.471   7.486 -0.2452 -0.1509  0.0612
 3160poe     o216319   5.296  -0.446   7.620  0.0033 -0.1956  0.1409
 3160poe    c3116320   5.227  -0.557   7.671 -0.5744  0.0930 -0.0005
 3161poe    c3116321   2.698   5.795   4.970  0.1668  0.1505 -0.1610
 3161poe     o216322   2.739   5.852   4.848 -0.1716 -0.1814 -0.4353
 3161poe    c2316323   2.641   5.861   4.747 -0.1839 -0.4132 -0.4425
 3161poe    c2316324   2.691   5.952   4.634  0.2370  0.1761  0.2123
 3161poe     o216325   2.691   6.084   4.686  0.0120  0.2769 -0.0442
 3161poe    c2316326   2.763   6.173   4.604  0.0911 -0.1081 -0.3960
 3161poe    c2316327   2.731   6.317   4.646  0.1185 -0.2307  0.0473
 3161poe     o216328   2.767   6.348   4.779 -0.7433  0.2377  0.1776
 3161poe    c2316329   2.764   6.488   4.791  0.0385  0.2639  0.0823
 3161poe    c2316330   2.834   6.544   4.916 -0.0689  0.3753  0.0921
 3161poe     o216331   2.745   6.518   5.023  0.2141  0.5094  0.3635
 3161poe    c3116332   2.747   6.631   5.107  0.2780  0.5170  0.3520
 3162poe    c3116333   4.544   4.104   0.052 -0.6264  0.4275  0.6315
 3162poe     o216334   4.542   4.232  -0.008 -0.4473 -0.0994 -0.5299
 3162poe    c2316335   4.612   4.224  -0.130 -0.6466 -0.7603 -0.6038
 3162poe    c2316336   4.591   4.343  -0.224  0.0112 -0.2448 -0.1127
 3162poe     o216337   4.463   4.328  -0.282 -0.2135  0.3995  0.2049
 3162poe    c2316338   4.426   4.428  -0.374 -0.4149  0.4596  0.3511
 3162poe    c2316339   4.289   4.421  -0.444 -0.2806 -0.0808  0.1367
 3162poe     o216340   4.180   4.463  -0.365 -0.2845  0.1302  0.0214
 3162poe    c2316341   4.063   4.452  -0.444 -0.1295 -0.3873 -0.1450
 3162poe    c2316342   3.947   4.416  -0.350 -0.2431 -0.5428 -0.3471
 3162poe     o216343   3.902   4.528  -0.277  0.5130 -0.3320 -0.2019
 3162poe    c3116344   3.812   4.483  -0.179  0.1180 -0.3628 -0.5772
 3163poe    c3116345   3.626   4.779   5.170 -0.0220 -0.0212 -0.5327
 3163poe     o216346   3.550   4.887   5.219  0.0851 -0.1973  0.0255
 3163poe    c2316347   3.579   4.921   5.352  0.1880  0.0074 -0.0485
 3163poe    c2316348   3.456   4.983   5.419  0.0761 -0.3369  0.0693
 3163poe     o216349   3.428   5.094   5.336 -0.5424  0.0262  0.7473
 3163poe    c2316350   3.328   5.189   5.366 -0.1652  0.7067 -0.1048
 3163poe    c2316351   3.320   5.289   5.249  0.3003  0.3691 -0.4295
 3163poe     o216352   3.324   5.220   5.126 -0.1860 -0.0925 -0.1923
 3163poe    c2316353   3.294   5.302   5.015 -0.1278 -0.0800 -0.1985
 3163poe    c2316354   3.410   5.380   4.951 -0.0641 -0.0132 -0.0023
 3163poe     o216355   3.520   5.297   4.918  0.3982  0.5623  0.0764
 3163poe    c3116356   3.617   5.367   4.844  0.4167  0.1459 -0.2952
 3164poe    c3116357   0.238   6.458   6.547  0.2278  0.0782  0.4251
 3164poe     o216358   0.330   6.375   6.479 -0.3060 -0.0455 -0.1479
 3164poe    c2316359   0.293   6.240   6.498  0.1632 -0.1243  0.2211
 3164poe    c2316360   0.398   6.141   6.446 -0.1512 -0.2626 -0.1569
 3164poe     o216361   0.451   6.167   6.317  0.4767 -0.2186  0.1074
 3164poe    c2316362   0.547   6.077   6.266  0.3644 -0.3367  0.1046
 3164poe    c2316363   0.615   6.137   6.142  0.1794  0.1690  0.2469
 3164poe     o216364   0.653   6.272   6.159 -0.3181  0.3490 -0.0383
 3164poe    c2316365   0.744   6.310   6.058 -0.4329 -0.2671 -0.3807
 3164poe    c2316366   0.771   6.461   6.071 -0.1047 -0.3592  0.0152
 3164poe     o216367   0.784   6.485   6.210 -0.5191  0.0926 -0.0188
 3164poe    c3116368   0.799   6.625   6.223 -0.6772  0.2134 -1.0319
 3165poe    c3116369   6.690   0.394   1.716  0.3801 -0.6235 -0.4262
 3165poe     o216370   6.820   0.379   1.767  0.1587  0.5070  0.5359
 3165poe    c2316371   6.823   0.338   1.902  0.5929 -0.2327  0.3145
 3165poe    c2316372   6.944   0.386   1.984  0.5595  0.4814 -0.0500
 3165poe     o216373   7.063   0.326   1.939  0.0585 -0.3360 -0.3090
 3165poe    c2316374   7.176   0.381   2.004 -0.0022 -0.4957 -0.0701
 3165poe    c2316375   7.310   0.346   1.938  0.0033  0.1310 -0.4014
 3165poe     o216376   7.320   0.400   1.809 -0.3678  0.1106 -0.4407
 3165poe    c2316377   7.398   0.518   1.812 -0.5897  0.2380  0.4177
 3165poe    c2316378   7.448   0.551   1.670  0.2634 -0.4381  0.5516
 3165poe     o216379   7.544   0.463   1.619  0.1937 -0.1168 -0.1420
 3165poe    c3116380   7.574   0.504   1.487 -0.3583 -0.2981 -0.3251
 3166poe    c3116381   5.907   1.174   1.838 -0.6963  0.1232  0.3575
 3166poe     o216382   5.970   1.250   1.938  0.0583 -0.1414  0.0883
 3166poe    c2316383   5.922   1.382   1.945  0.1865 -0.1035  0.2602
 3166poe    c2316384   5.998   1.464   2.051  0.0950  0.3433 -0.0145
 3166poe     o216385   5.968   1.415   2.180 -0.4283 -0.1947 -0.3377
 3166poe    c2316386   6.006   1.521   2.264  0.3519 -0.5878 -0.1879
 3166poe    c2316387   6.088   1.478   2.387 -0.1179 -0.1544  0.2871
 3166poe     o216388   6.022   1.414   2.494  0.1091 -0.4590  0.2474
 3166poe    c2316389   6.132   1.383   2.577  0.1745 -0.4277  0.1728
 3166poe    c2316390   6.093   1.318   2.711 -0.1937 -0.2276  0.1642
 3166poe     o216391   6.044   1.188   2.689 -0.0330 -0.2295 -0.1834
 3166poe    c3116392   6.016   1.133   2.816 -0.2815  0.1692 -0.0625
 3167poe    c3116393   1.544   6.610   0.806  0.1931 -0.1861 -0.4176
 3167poe     o216394   1.586   6.637   0.674  0.4779  0.7669 -0.1426
 3167poe    c2316395   1.725   6.650   0.656  0.5838  0.0404  0.1258
 3167poe    c2316396   1.807   6.520   0.645 -0.5657 -0.7307  0.3872
 3167poe     o216397   1.782   6.462   0.519 -0.0294  0.3782 -0.2501
 3167poe    c2316398   1.845   6.338   0.499  0.3758  0.6054 -0.3854
 3167poe    c2316399   1.789   6.210   0.563  0.1406  0.9706  0.1485
 3167poe     o216400   1.653   6.184   0.538  0.3625 -0.2301  0.1110
 3167poe    c2316401   1.604   6.069   0.604 -0.0854 -0.0276  0.1321
 3167poe    c2316402   1.472   6.018   0.542  0.0674 -0.1953 -0.0577
 3167poe     o216403   1.365   6.108   0.558  0.0737 -0.2217  0.1374
 3167poe    c3116404   1.250   6.058   0.493  0.4043 -0.4704 -0.2578
 3168poe    c3116405   3.960   3.523   1.559  0.0030  0.3156  0.0678
 3168poe     o216406   3.891   3.409   1.606  0.1527  0.5476  0.8505
 3168poe    c2316407   3.972   3.334   1.694  0.3945  0.3006  0.4200
 3168poe    c2316408   3.894   3.204   1.721 -0.0117  0.3670 -0.3885
 3168poe     o216409   3.909   3.137   1.598 -0.1581 -0.0353 -0.1891
 3168poe    c2316410   3.839   3.015   1.603  0.0588 -0.1463  0.1455
 3168poe    c2316411   3.791   2.979   1.461 -0.1733 -0.0627  0.2019
 3168poe     o216412   3.725   3.087   1.400  0.5812  0.1550 -0.2493
 3168poe    c2316413   3.663   3.059   1.276  0.0839  0.4486 -0.0729
 3168poe    c2316414   3.516   3.014   1.277  0.1589  0.2066  0.1971
 3168poe     o216415   3.408   3.104   1.275  0.0757  0.1043  0.0837
 3168poe    c3116416   3.294   3.055   1.209  0.1367 -0.2591  0.2440
 3169poe    c3116417   6.118   7.141   3.122  0.2372 -0.1024 -0.7158
 3169poe     o216418   6.095   7.252   3.206 -0.0688 -0.7747  0.1039
 3169poe    c2316419   5.983   7.317   3.150 -0.0760 -0.3360  0.6262
 3169poe    c2316420   5.972   7.467   3.182  0.9526 -0.2674  0.6859
 3169poe     o216421   5.932   7.490   3.315 -0.0686  0.8238  0.2119
 3169poe    c2316422   5.913   7.628   3.335  0.0838  0.8752  0.0009
 3169poe    c2316423   5.906   7.647   3.488 -0.0652  0.0392  0.0987
 3169poe     o216424   6.035   7.635   3.543 -0.0811  0.2000  0.1720
 3169poe    c2316425   6.048   7.688   3.673  0.7426  0.0681  0.1460
 3169poe    c2316426   6.056   7.589   3.790  0.0221  0.3107  0.4007
 3169poe     o216427   6.152   7.492   3.755 -0.1873  0.3186 -0.1983
 3169poe    c3116428   6.169   7.400   3.861 -0.5002  0.3963 -0.0772
 3170poe    c3116429   0.031   1.134   4.768 -0.2197  0.3461 -0.1602
 3170poe     o216430   0.148   1.199   4.723 -0.0426  0.3324  0.2673
 3170poe    c2316431   0.271   1.153   4.774 -0.1257  0.3440  0.4784
 3170poe    c2316432   0.382   1.242   4.716  0.0580 -0.0103  0.2836
 3170poe     o216433   0.384   1.264   4.576  0.8654 -0.0578  0.2826
 3170poe    c2316434   0.405   1.149   4.497 -0.5262 -0.1855  0.0842
 3170poe    c2316435   0.413   1.182   4.346  0.1022 -0.5986  0.0241
 3170poe     o216436   0.291   1.228   4.292  0.1072 -0.3276  0.2383
 3170poe    c2316437   0.299   1.227   4.151 -0.1949 -0.2036  0.2187
 3170poe    c2316438   0.216   1.340   4.089  0.1605 -0.0552  0.0104
 3170poe     o216439   0.282   1.465   4.083  0.0845 -0.0287 -0.2886
 3170poe    c3116440   0.189   1.549   4.019 -0.2507  0.1138  0.3796
 3171poe    c3116441   2.665   2.961   2.096  0.0374  0.0093 -0.1035
 3171poe     o216442   2.601   3.075   2.044 -0.4619 -0.0257  0.4125
 3171poe    c2316443   2.593   3.069   1.903 -0.5419 -0.3734  0.4317
 3171poe    c2316444   2.485   3.175   1.876 -0.0783  0.0249  0.1178
 3171poe     o216445   2.507   3.290   1.955  0.0571  0.1201 -0.0597
 3171poe    c2316446   2.418   3.399   1.942 -0.0536  0.0721  0.2899
 3171poe    c2316447   2.451   3.523   2.027  0.6321 -0.1698  0.3841
 3171poe     o216448   2.456   3.465   2.156 -0.2892 -0.3146  0.3593
 3171poe    c2316449   2.479   3.566   2.251 -0.1555 -0.2185  0.2256
 3171poe    c2316450   2.558   3.512   2.371  0.2709 -0.1143 -0.0065
 3171poe     o216451   2.473   3.412   2.421 -0.0375  0.1459 -0.0113
 3171poe    c3116452   2.500   3.373   2.554 -0.1393  0.5324  0.1243
 3172poe    c3116453   3.873   0.098   5.408 -0.1769  0.2268  0.4450
 3172poe     o216454   3.824   0.204   5.329  0.2023  0.0457 -0.0460
 3172poe    c2316455   3.920   0.282   5.263  0.1163 -0.0322 -0.2641
 3172poe    c2316456   3.972   0.404   5.342  0.5232 -0.0975 -0.4260
 3172poe     o216457   3.883   0.512   5.359 -0.3279 -0.7783 -0.5043
 3172poe    c2316458   3.915   0.600   5.464  0.0228 -0.9172 -0.4952
 3172poe    c2316459   3.809   0.702   5.508  0.3228 -0.8122 -0.0173
 3172poe     o216460   3.702   0.639   5.573 -0.0282  0.0736  0.2785
 3172poe    c2316461   3.599   0.732   5.603 -0.3117 -0.0594 -0.2785
 3172poe    c2316462   3.471   0.658   5.647  0.0874 -0.4208  0.2896
 3172poe     o216463   3.404   0.598   5.538 -0.0731  0.0573  0.1241
 3172poe    c3116464   3.278   0.541   5.566  0.0558 -0.3621 -0.1468
 3173poe    c3116465   0.965   7.071   6.295 -0.8190  0.1436  0.0901
 3173poe     o216466   1.075   7.074   6.206 -0.6753  0.1553  0.2689
 3173poe    c2316467   1.065   6.992   6.092  0.2232  0.2418  0.1181
 3173poe    c2316468   1.194   6.974   6.011  0.1362  0.6207 -0.1059
 3173poe     o216469   1.219   7.095   5.943 -0.0301  0.4459 -0.4862
 3173poe    c2316470   1.322   7.083   5.847 -0.4998 -0.1626 -0.9171
 3173poe    c2316471   1.323   7.209   5.760  0.0300  0.3361 -0.2036
 3173poe     o216472   1.335   7.308   5.859 -0.1696  0.2958 -0.1403
 3173poe    c2316473   1.407   7.424   5.823  0.3570  0.1836  0.5307
 3173poe    c2316474   1.438   7.505   5.950  0.0387  0.1952  0.6021
 3173poe     o216475   1.310   7.501   6.011 -0.0000 -0.3611  0.4885
 3173poe    c3116476   1.289   7.598   6.111 -0.1412  0.3806 -0.2518
 3174poe    c3116477   4.460   5.321   1.305  0.3304  0.6270  0.0821
 3174poe     o216478   4.599   5.304   1.299  0.3094  0.4894 -0.0234
 3174poe    c2316479   4.655   5.411   1.373 -0.3841  1.2419 -0.5716
 3174poe    c2316480   4.797   5.430   1.316 -0.3141  0.3958 -0.6975
 3174poe     o216481   4.866   5.307   1.327 -0.0357  0.6075 -0.0568
 3174poe    c2316482   4.977   5.324   1.412 -0.2405  0.1707  0.3004
 3174poe    c2316483   5.065   5.199   1.433 -0.2406  0.1416  0.1316
 3174poe     o216484   5.008   5.088   1.499 -0.0034 -0.1098 -0.0888
 3174poe    c2316485   5.101   4.990   1.539  0.2356  0.1975  0.1060
 3174poe    c2316486   5.041   4.871   1.616  0.4315  0.0906  0.0956
 3174poe     o216487   4.983   4.777   1.529  0.1556  0.0380  0.3347
 3174poe    c3116488   4.947   4.667   1.609  0.1341 -0.0534  0.2001
 3175poe    c3116489   3.232   5.156   4.190  0.1401  0.1217  0.1016
 3175poe     o216490   3.134   5.151   4.089 -0.2823 -0.5787  0.5364
 3175poe    c2316491   3.121   5.018   4.045  0.3973 -0.3999 -0.2424
 3175poe    c2316492   3.005   5.021   3.944  0.2074 -0.3005 -0.0212
 3175poe     o216493   2.891   5.061   4.017  0.1892 -0.3613 -0.0167
 3175poe    c2316494   2.776   5.035   3.940 -0.0177  0.8142 -0.1197
 3175poe    c2316495   2.645   5.077   4.008 -0.3540  0.1062 -0.3238
 3175poe     o216496   2.670   5.207   4.056  0.2063 -0.0385 -0.2206
 3175poe    c2316497   2.554   5.280   4.090  0.2380  0.0426 -0.2855
 3175poe    c2316498   2.570   5.403   4.181 -0.4320 -0.2229  0.2019
 3175poe     o216499   2.664   5.377   4.284 -0.2809  0.1970  0.1728
 3175poe    c3116500   2.692   5.491   4.361  0.0713  0.2612 -0.0469
 3176poe    c3116501   3.666   5.289   6.588 -0.1748 -0.0368 -0.2964
 3176poe     o216502   3.558   5.216   6.640 -0.7068  0.7180 -0.3186
 3176poe    c2316503   3.521   5.266   6.767 -0.2720  0.3708 -0.0483
 3176poe    c2316504   3.383   5.228   6.824 -0.3636  0.4803 -0.1947
 3176poe     o216505   3.362   5.089   6.836  0.0483  0.4483  0.2004
 3176poe    c2316506   3.431   5.016   6.935 -0.3478 -0.0652  0.1008
 3176poe    c2316507   3.373   4.874   6.946 -0.4537 -0.0530 -0.2781
 3176poe     o216508   3.405   4.801   6.830 -0.2907 -0.1820 -0.1507
 3176poe    c2316509   3.395   4.661   6.840 -0.0689 -0.1866  0.0158
 3176poe    c2316510   3.528   4.598   6.794 -0.2422 -0.4012 -0.1917
 3176poe     o216511   3.547   4.653   6.665  0.3189  0.1175  0.1103
 3176poe    c3116512   3.676   4.615   6.623 -0.0057 -0.6823 -0.1767
 3177poe    c3116513   0.140   5.753   4.968  0.0201  0.0337  0.6230
 3177poe     o216514   0.100   5.888   4.962  0.0177  0.0058 -0.0576
 3177poe    c2316515  -0.012   5.884   4.876 -0.1476 -0.0748  0.1583
 3177poe    c2316516  -0.022   6.019   4.804 -0.2149 -0.6028 -0.8403
 3177poe     o216517   0.076   6.028   4.703 -0.0210  0.1362 -0.5915
 3177poe    c2316518   0.057   6.139   4.618 -0.2192  0.2606 -0.3841
 3177poe    c2316519   0.167   6.157   4.512  0.3370  0.2273  0.1803
 3177poe     o216520   0.295   6.176   4.567  0.3914  0.0959  0.1010
 3177poe    c2316521   0.386   6.210   4.465 -0.0336 -0.1180 -0.3517
 3177poe    c2316522   0.528   6.239   4.517 -0.0200 -0.5566 -0.1442
 3177poe     o216523   0.548   6.368   4.569 -0.3014 -0.5628 -0.0172
 3177poe    c3116524   0.660   6.368   4.655 -0.3004  0.2712 -0.0047
 3178poe    c3116525   1.131   2.802   6.891  0.2451 -0.5758  0.1283
 3178poe     o216526   1.227   2.901   6.921 -0.0563 -0.1817 -0.1874
 3178poe    c2316527   1.319   2.906   6.814 -0.0501 -0.3673 -0.1911
 3178poe    c2316528   1.433   2.998   6.859  0.1031 -0.7926  0.3084
 3178poe     o216529   1.368   3.109   6.917 -0.2609 -0.7279 -0.2232
 3178poe    c2316530   1.463   3.190   6.982 -0.3192 -0.7589 -0.1002
 3178poe    c2316531   1.383   3.300   7.056  0.0411 -0.3933 -0.2511
 3178poe     o216532   1.297   3.254   7.158  0.2209  0.0906  0.1237
 3178poe    c2316533   1.247   3.373   7.215  0.0154 -0.1815  0.5168
 3178poe    c2316534   1.136   3.336   7.315 -0.0704 -0.0675  0.4645
 3178poe     o216535   1.193   3.262   7.421  0.1673 -0.5850 -0.0200
 3178poe    c3116536   1.090   3.232   7.512  0.5054  0.1397  0.6130
 3179poe    c3116537   6.643   4.873   4.923  0.0113 -0.2509 -0.2686
 3179poe     o216538   6.589   4.755   4.869  0.0961 -0.3995 -0.0288
 3179poe    c2316539   6.458   4.738   4.919  0.2497 -0.1832  0.4556
 3179poe    c2316540   6.382   4.637   4.831  0.0975  0.1928  0.1450
 3179poe     o216541   6.462   4.522   4.812 -0.6036 -0.2780 -0.0021
 3179poe    c2316542   6.409   4.462   4.696 -0.3155 -0.5079 -0.0164
 3179poe    c2316543   6.504   4.352   4.648  0.1850 -0.1127  0.0587
 3179poe     o216544   6.632   4.389   4.600  0.2599  0.1381  0.4449
 3179poe    c2316545   6.674   4.285   4.514 -0.4834 -0.2117  0.4930
 3179poe    c2316546   6.824   4.306   4.484 -0.6702 -0.0149 -0.3484
 3179poe     o216547   6.908   4.266   4.590 -0.6356 -0.4251 -0.5277
 3179poe    c3116548   7.010   4.183   4.541 -0.1879  0.1347 -0.5426
 3180poe    c3116549   0.114   6.642   4.248  0.3519  0.0551  0.2390
 3180poe     o216550   0.254   6.638   4.231  0.2620  0.4532 -0.6496
 3180poe    c2316551   0.271   6.573   4.108  0.2440 -0.0198 -0.4025
 3180poe    c2316552   0.415   6.521   4.088  0.1407 -0.2115 -0.6601
 3180poe     o216553   0.496   6.613   4.157  0.2456 -0.6654 -0.1713
 3180poe    c2316554   0.634   6.593   4.139  0.2668  0.0434 -0.8460
 3180poe    c2316555   0.712   6.688   4.231  0.6606 -0.8466 -0.2473
 3180poe     o216556   0.637   6.687   4.350  0.1485  0.5703 -0.5384
 3180poe    c2316557   0.723   6.730   4.453 -0.5702  0.4571  0.1192
 3180poe    c2316558   0.647   6.807   4.563 -0.3320 -0.2369  0.7841
 3180poe     o216559   0.590   6.930   4.523 -0.5190 -0.5020  0.2296
 3180poe    c3116560   0.543   6.993   4.640 -0.0877 -0.2659  0.2770
 3181poe    c3116561   2.534   6.652   7.160  0.0140 -0.1854  0.1153
 3181poe     o216562   2.655   6.721   7.184  0.1286 -0.3847  0.1101
 3181poe    c2316563   2.765   6.651   7.131  0.2567 -0.1400  0.0527
 3181poe    c2316564   2.899   6.716   7.168  0.1270  0.0486  0.1925
 3181poe     o216565   2.872   6.855   7.162  0.2984  0.0911  0.4114
 3181poe    c2316566   2.974   6.942   7.208  0.3951  0.3913 -0.3639
 3181poe    c2316567   2.925   7.085   7.182 -0.3357  0.1438 -0.3770
 3181poe     o216568   2.800   7.105   7.245 -0.1276  0.0907  0.0507
 3181poe    c2316569   2.747   7.230   7.211  0.0370 -0.0555 -0.7536
 3181poe    c2316570   2.616   7.263   7.285  0.5375 -0.1749  0.1934
 3181poe     o216571   2.504   7.185   7.252  0.1582  0.2267  0.5292
 3181poe    c3116572   2.391   7.254   7.300 -0.0025  0.0114  0.4636
 3182poe    c3116573   4.147   2.819   6.720  0.5794  0.0694  0.5673
 3182poe     o216574   4.134   2.885   6.845  0.2778 -0.0867  0.6194
 3182poe    c2316575   4.206   3.006   6.852  0.1570  0.0422 -0.2044
 3182poe    c2316576   4.191   3.077   6.988 -0.0267 -0.2388 -0.0758
 3182poe     o216577   4.060   3.121   7.013  0.0612 -0.4456  0.7858
 3182poe    c2316578   4.059   3.228   7.104 -0.0481  0.3989 -0.1926
 3182poe    c2316579   3.916   3.242   7.159 -0.2651  0.9703 -0.8805
 3182poe     o216580   3.821   3.205   7.062 -0.1140  0.0646 -0.6889
 3182poe    c2316581   3.694   3.188   7.123  0.2206  0.0743  0.0216
 3182poe    c2316582   3.594   3.138   7.018 -0.0350 -0.1114  0.3530
 3182poe     o216583   3.653   3.020   6.969  0.1738  0.0108  0.3084
 3182poe    c3116584   3.550   2.932   6.928  0.2106  0.0171  0.2032
 3183poe    c3116585   1.095   1.858   7.147  0.4863 -0.2286 -0.1045
 3183poe     o216586   1.088   1.965   7.238  0.0050  0.0632 -0.4783
 3183poe    c2316587   1.196   2.052   7.212  0.2856 -0.2752 -0.4459
 3183poe    c2316588   1.183   2.179   7.298  0.2967 -0.2630 -0.4623
 3183poe     o216589   1.236   2.147   7.425  0.0182  0.7276 -0.0862
 3183poe    c2316590   1.252   2.262   7.505 -0.0840  0.5632  0.1681
 3183poe    c2316591   1.288   2.245   7.654  0.0690  0.6418  0.1396
 3183poe     o216592   1.172   2.240   7.734 -0.1726  0.8142 -0.1959
 3183poe    c2316593   1.215   2.214   7.866 -0.1225  0.2236 -0.3250
 3183poe    c2316594   1.098   2.211   7.967  0.0203 -0.2387 -0.1680
 3183poe     o216595   1.046   2.342   7.961 -0.1497 -0.2957  0.0436
 3183poe    c3116596   0.949   2.355   8.062 -0.6216  0.1482 -0.4563
 3184poe    c3116597   5.672   0.298   2.482 -0.4393  0.2029 -0.3210
 3184poe     o216598   5.553   0.291   2.558 -0.2431  0.1232 -0.0189
 3184poe    c2316599   5.572   0.191   2.656 -0.0066 -0.4901 -0.6772
 3184poe    c2316600   5.459   0.201   2.759  0.3897  0.1251 -0.2954
 3184poe     o216601   5.333   0.195   2.696  0.1007 -0.2427  0.3057
 3184poe    c2316602   5.234   0.176   2.794 -0.4553  0.1412 -0.1733
 3184poe    c2316603   5.102   0.180   2.715 -0.2880 -0.4180 -0.4877
 3184poe     o216604   5.094   0.302   2.644  0.0767 -0.0788  0.0464
 3184poe    c2316605   4.970   0.319   2.579 -0.0377 -0.2655  0.2139
 3184poe    c2316606   4.954   0.471   2.564  0.3448 -0.1868  0.5978
 3184poe     o216607   5.086   0.520   2.547 -0.0454  0.4139 -0.8782
 3184poe    c3116608   5.073   0.658   2.520  0.3874  0.5687 -0.3108
 3185poe    c3116609   2.469   3.269   0.477  0.0663  0.6092 -0.2766
 3185poe     o216610   2.593   3.203   0.468 -0.1304  0.2814 -0.6010
 3185poe    c2316611   2.565   3.067   0.442  0.1596  0.0934  0.0393
 3185poe    c2316612   2.690   2.978   0.431  0.0257 -0.0408 -0.4097
 3185poe     o216613   2.778   2.955   0.539  0.0331  0.0243 -0.4019
 3185poe    c2316614   2.875   2.860   0.497  0.1500  0.1654 -0.4528
 3185poe    c2316615   2.978   2.841   0.609 -0.3255 -0.0571 -0.0466
 3185poe     o216616   3.054   2.959   0.623  0.1426 -0.3457 -0.1177
 3185poe    c2316617   3.072   2.967   0.762 -0.7606  0.7403 -0.0494
 3185poe    c2316618   3.135   3.097   0.815  0.5817 -0.0135  0.2451
 3185poe     o216619   3.075   3.216   0.769  0.1482 -0.2303  0.2443
 3185poe    c3116620   3.118   3.332   0.836 -0.1176  0.2415 -0.3991
 3186poe    c3116621   0.456   4.569   4.706 -0.0799  0.0029  0.5105
 3186poe     o216622   0.397   4.442   4.691 -0.2321  0.1243  0.0974
 3186poe    c2316623   0.294   4.421   4.784 -0.6409  0.8380 -0.1825
 3186poe    c2316624   0.231   4.280   4.785 -0.1532  0.6171  0.4342
 3186poe     o216625   0.318   4.173   4.814 -0.2368  0.4645  0.1299
 3186poe    c2316626   0.281   4.046   4.766  0.5283  0.2454  0.1004
 3186poe    c2316627   0.396   3.950   4.800 -0.0468 -0.4442  0.1246
 3186poe     o216628   0.516   3.994   4.742 -0.2929 -0.4775 -0.4142
 3186poe    c2316629   0.632   3.952   4.812 -0.5994 -0.2058  0.2615
 3186poe    c2316630   0.749   3.979   4.716 -0.6500 -0.0731  0.2362
 3186poe     o216631   0.803   4.109   4.729 -0.2099 -0.2987  0.7265
 3186poe    c3116632   0.929   4.111   4.667 -0.2236 -0.9658  0.6747
 3187poe    c3116633   5.396   5.986   5.352  0.4408 -0.2133 -0.5010
 3187poe     o216634   5.355   5.893   5.254  0.1085 -0.4112 -0.1776
 3187poe    c2316635   5.214   5.895   5.242  0.1199  0.5498 -0.2542
 3187poe    c2316636   5.181   5.870   5.094 -0.0850 -0.4387 -0.0508
 3187poe     o216637   5.249   5.752   5.059  0.7751  0.0962 -0.2473
 3187poe    c2316638   5.275   5.750   4.920 -0.0498 -0.0698 -0.4064
 3187poe    c2316639   5.424   5.770   4.889  0.0825 -0.5834 -0.1086
 3187poe     o216640   5.500   5.665   4.944 -0.1325 -0.4178  0.5237
 3187poe    c2316641   5.630   5.665   4.891 -0.1747  0.1165  0.4167
 3187poe    c2316642   5.708   5.538   4.930  0.5478  0.4314  0.0342
 3187poe     o216643   5.686   5.521   5.068 -0.0249 -0.2521 -0.1313
 3187poe    c3116644   5.801   5.460   5.125  0.1907 -0.1677 -0.4733
 3188poe    c3116645   1.935   4.567   3.206  0.1959  0.2604 -0.0190
 3188poe     o216646   1.816   4.633   3.166 -0.1683 -0.3103  0.1068
 3188poe    c2316647   1.844   4.768   3.135  0.3717 -0.4752 -0.1445
 3188poe    c2316648   1.766   4.816   3.012  0.2243 -0.0877  0.0988
 3188poe     o216649   1.626   4.798   3.022  0.2240 -0.0331  0.1978
 3188poe    c2316650   1.575   4.726   2.912  0.3451 -0.3076  0.3200
 3188poe    c2316651   1.422   4.718   2.894  0.3399  0.2403  0.0819
 3188poe     o216652   1.359   4.679   3.014  0.0976  0.2872 -0.0299
 3188poe    c2316653   1.219   4.690   3.013  0.0543 -0.1864  0.4217
 3188poe    c2316654   1.178   4.677   3.161 -0.2059  0.2995  0.3974
 3188poe     o216655   1.280   4.745   3.231  0.4275  0.1732 -0.3810
 3188poe    c3116656   1.240   4.755   3.366 -0.0526  0.2700 -0.5267
 3189poe    c3116657   3.900   3.793   2.579 -0.1810 -0.5492  0.3180
 3189poe     o216658   3.793   3.793   2.487  0.0478 -0.2142  0.0515
 3189poe    c2316659   3.854   3.795   2.359  0.2914  0.5578  0.1711
 3189poe    c2316660   3.750   3.823   2.250  0.1161 -0.1885  0.1413
 3189poe     o216661   3.643   3.734   2.274 -0.0147 -0.0237  0.1731
 3189poe    c2316662   3.529   3.748   2.193  0.2461  0.3880 -0.1256
 3189poe    c2316663   3.409   3.685   2.266  0.0483  0.4735 -0.3716
 3189poe     o216664   3.420   3.759   2.386  0.1007 -0.0739 -0.0319
 3189poe    c2316665   3.293   3.751   2.448  0.0414  0.5010 -0.0773
 3189poe    c2316666   3.245   3.875   2.526 -0.1997  0.2079  0.2398
 3189poe     o216667   3.326   3.924   2.630 -0.3328 -0.1895  0.5317
 3189poe    c3116668   3.280   4.042   2.692  0.5255  0.5498 -0.2203
 3190poe    c3116669   6.180   5.437   6.987 -0.4511  0.7107  0.4713
 3190poe     o216670   6.157   5.483   6.856  0.1409 -0.3214 -0.0096
 3190poe    c2316671   6.053   5.408   6.799 -0.2460  0.1503  0.0617
 3190poe    c2316672   6.033   5.435   6.648 -0.7021  0.0623  0.1035
 3190poe     o216673   5.973   5.553   6.599 -0.4671  0.1250 -0.0372
 3190poe    c2316674   5.839   5.570   6.641 -0.5408 -0.1606 -0.1568
 3190poe    c2316675   5.780   5.700   6.584  0.2832  0.2228 -0.1410
 3190poe     o216676   5.847   5.818   6.623  0.4828 -0.0518  0.3564
 3190poe    c2316677   5.780   5.926   6.561  0.1966 -0.3166  0.1999
 3190poe    c2316678   5.770   6.054   6.646  0.2757  0.1045 -0.4256
 3190poe     o216679   5.905   6.093   6.663  0.1492  0.2876  0.1851
 3190poe    c3116680   5.919   6.169   6.781  0.0163  0.0266  0.3677
 3191poe    c3116681   2.170   0.701   4.213  0.1470  0.1906  0.4739
 3191poe     o216682   2.278   0.757   4.142  0.2081 -0.0544  0.3730
 3191poe    c2316683   2.407   0.718   4.185  0.4453  0.5618  0.2427
 3191poe    c2316684   2.522   0.815   4.155  0.5688  0.3960  0.1755
 3191poe     o216685   2.508   0.948   4.200  0.2686  0.4716 -0.1409
 3191poe    c2316686   2.626   1.015   4.161 -0.1140  1.0574 -0.3090
 3191poe    c2316687   2.716   1.049   4.281  0.1313 -0.2729 -0.1015
 3191poe     o216688   2.648   1.124   4.379  0.5433  0.0008 -0.0184
 3191poe    c2316689   2.745   1.172   4.469  0.0373  0.3166  0.3657
 3191poe    c2316690   2.808   1.310   4.438 -0.1022  0.3540  0.2462
 3191poe     o216691   2.717   1.416   4.454 -0.0827  0.3775  0.2006
 3191poe    c3116692   2.774   1.545   4.446 -0.0891  0.3680  0.0018
 3192poe    c3116693   6.042   0.813   3.952  0.3065 -0.0703  0.0964
 3192poe     o216694   6.127   0.795   4.063  0.1470  0.2847  0.2784
 3192poe    c2316695   6.078   0.851   4.183 -0.8559  0.0217 -0.0041
 3192poe    c2316696   6.191   0.844   4.287 -0.2316 -0.1626 -0.6827
 3192poe     o216697   6.235   0.722   4.344  0.1472  0.1528 -0.2926
 3192poe    c2316698   6.300   0.729   4.468  0.7691 -0.1092 -0.5989
 3192poe    c2316699   6.387   0.604   4.488  0.5543 -0.0933  0.4996
 3192poe     o216700   6.475   0.597   4.378  0.1651  0.1569  0.1708
 3192poe    c2316701   6.591   0.522   4.406 -0.0564 -0.1732  0.2002
 3192poe    c2316702   6.671   0.519   4.274  0.1687  0.2363  0.3277
 3192poe     o216703   6.586   0.489   4.166  0.1523 -0.1227  0.4401
 3192poe    c3116704   6.643   0.392   4.081 -0.0308 -0.4272  0.6595
 3193poe    c3116705   3.165   5.844   4.620 -0.0216  0.0586  0.3500
 3193poe     o216706   3.252   5.919   4.701  0.1789 -0.2613  0.4328
 3193poe    c2316707   3.384   5.872   4.714  0.4289  0.3758  0.1934
 3193poe    c2316708   3.402   5.775   4.831  0.0792  0.1716  0.0781
 3193poe     o216709   3.384   5.840   4.955  0.2882  0.2498  0.0665
 3193poe    c2316710   3.369   5.742   5.055  0.1810  0.1481 -0.0490
 3193poe    c2316711   3.338   5.777   5.201  0.1779 -0.0106 -0.0119
 3193poe     o216712   3.211   5.837   5.216  0.2238  0.0698  0.0517
 3193poe    c2316713   3.178   5.850   5.353  0.7127  0.4184  0.1427
 3193poe    c2316714   3.028   5.878   5.372  0.6563 -0.0264  0.3625
 3193poe     o216715   2.999   6.004   5.316  0.3794 -0.0466  0.4560
 3193poe    c3116716   2.864   6.044   5.315  0.4094  0.0595  0.5408
 3194poe    c3116717   4.286   3.322   2.345 -0.2135 -0.2910 -0.2999
 3194poe     o216718   4.411   3.261   2.364  0.1854  0.5210 -0.2549
 3194poe    c2316719   4.510   3.344   2.307  0.1067  1.1712  0.5458
 3194poe    c2316720   4.650   3.302   2.356 -0.4870 -0.5690  0.8403
 3194poe     o216721   4.710   3.346   2.476  0.0135  0.0935  0.3566
 3194poe    c2316722   4.638   3.326   2.595  0.1660  0.1571  0.4596
 3194poe    c2316723   4.703   3.398   2.715  0.8873  0.3483 -0.0436
 3194poe     o216724   4.822   3.335   2.758  0.9076  0.3991 -0.0245
 3194poe    c2316725   4.885   3.392   2.870 -0.1509  0.1740  0.6946
 3194poe    c2316726   4.995   3.302   2.929  0.0800  0.1477  0.2247
 3194poe     o216727   4.946   3.173   2.956  0.4441 -0.0288  0.0489
 3194poe    c3116728   5.022   3.092   3.043  0.1030 -0.4435 -0.0353
 3195poe    c3116729   5.942   5.599   3.100 -0.0553  0.4619  0.0034
 3195poe     o216730   5.881   5.557   3.220 -0.3348  0.2803 -0.2039
 3195poe    c2316731   5.827   5.672   3.280  0.5265  0.6098 -0.0568
 3195poe    c2316732   5.792   5.647   3.428 -0.0347 -0.5019 -0.3715
 3195poe     o216733   5.714   5.530   3.442 -0.5535 -0.1080  0.0604
 3195poe    c2316734   5.690   5.504   3.579  0.0277 -0.4065  0.1062
 3195poe    c2316735   5.798   5.463   3.681 -0.0177  0.1324  0.3784
 3195poe     o216736   5.875   5.357   3.627 -0.6580 -0.1872  0.0806
 3195poe    c2316737   5.965   5.302   3.720  0.3976  0.2573 -0.6643
 3195poe    c2316738   6.063   5.210   3.646  0.2409 -0.4654  0.0144
 3195poe     o216739   6.005   5.111   3.564 -0.2942  0.0707 -0.2606
 3195poe    c3116740   6.097   5.024   3.503  0.1005  0.3468 -0.0571
 3196poe    c3116741   0.453   2.656   5.406  0.1782 -0.6066 -0.2320
 3196poe     o216742   0.374   2.772   5.410  0.0562 -0.7078  0.3803
 3196poe    c2316743   0.282   2.759   5.516 -0.0619 -0.0406  0.3652
 3196poe    c2316744   0.240   2.897   5.569  0.6366  0.1789  0.3579
 3196poe     o216745   0.187   2.989   5.476  0.7639 -0.0718  0.0381
 3196poe    c2316746   0.127   3.103   5.533  0.8059  0.0105 -0.0810
 3196poe    c2316747   0.046   3.172   5.421  0.0684 -0.0075  0.4294
 3196poe     o216748   0.121   3.172   5.301 -0.2327  0.0533  0.2401
 3196poe    c2316749   0.072   3.257   5.200 -0.2662  0.0365  0.2425
 3196poe    c2316750   0.168   3.264   5.080 -0.3720 -0.2214  0.1427
 3196poe     o216751   0.184   3.138   5.017  0.4519  0.0773 -0.2665
 3196poe    c3116752   0.239   3.159   4.889  0.0138 -0.2034 -0.5044
 3197poe    c3116753   0.959   6.836   5.458 -0.0152  0.1762 -0.0919
 3197poe     o216754   0.870   6.729   5.483 -0.1428  0.3039  0.0019
 3197poe    c2316755   0.917   6.649   5.589  0.0234  0.0527 -0.2615
 3197poe    c2316756   0.794   6.589   5.659  0.2337 -0.3495 -0.2327
 3197poe     o216757   0.729   6.519   5.555 -0.2168 -0.4755  0.1274
 3197poe    c2316758   0.613   6.453   5.599 -0.4999 -0.2677 -0.2958
 3197poe    c2316759   0.543   6.401   5.472 -0.4472 -0.6340 -0.1772
 3197poe     o216760   0.538   6.500   5.373  0.0958 -0.0529  0.3672
 3197poe    c2316761   0.457   6.441   5.274  0.2045 -0.0655  0.2861
 3197poe    c2316762   0.435   6.534   5.153  0.3442 -0.2192  0.1414
 3197poe     o216763   0.556   6.565   5.087  0.1164 -0.1701 -0.2589
 3197poe    c3116764   0.530   6.629   4.965  0.3551  0.0043 -0.2177
 3198poe    c3116765   3.979   0.504   3.952 -0.0562  0.9984 -0.6214
 3198poe     o216766   3.943   0.392   3.874  0.1683  0.1524  0.4564
 3198poe    c2316767   4.059   0.314   3.858  0.1071  0.1776 -0.1234
 3198poe    c2316768   4.039   0.168   3.812  0.5095  0.0978 -0.0500
 3198poe     o216769   4.017   0.166   3.673  0.0590 -0.1029  0.0228
 3198poe    c2316770   4.040   0.038   3.619  0.0061 -0.1370  0.0819
 3198poe    c2316771   4.103   0.076   3.484 -0.4902  0.0501 -0.0997
 3198poe     o216772   4.239   0.112   3.491 -0.4708 -0.0509  0.0448
 3198poe    c2316773   4.339   0.014   3.504 -0.4480 -0.0814 -0.3477
 3198poe    c2316774   4.375  -0.054   3.370  0.0856 -0.3200 -0.0887
 3198poe     o216775   4.453   0.030   3.288 -0.3374  0.4429  0.2768
 3198poe    c3116776   4.528  -0.047   3.196 -0.4670 -0.6118  1.0332
 3199poe    c3116777   5.735   4.993   1.840  0.3217 -0.2928 -0.4764
 3199poe     o216778   5.795   4.930   1.951  0.0673  0.3574  0.0399
 3199poe    c2316779   5.935   4.940   1.939  0.0806 -0.2014 -0.3693
 3199poe    c2316780   5.995   4.841   2.041 -0.0098 -0.0078 -0.1245
 3199poe     o216781   5.942   4.851   2.171  0.3652  0.5870 -0.0150
 3199poe    c2316782   5.992   4.744   2.248  0.1189  0.4490 -0.0481
 3199poe    c2316783   5.934   4.773   2.388 -0.2871 -0.4844 -0.0106
 3199poe     o216784   5.803   4.824   2.379 -0.0282  0.2143  0.0942
 3199poe    c2316785   5.735   4.826   2.503  0.1239  0.4444  0.1758
 3199poe    c2316786   5.605   4.907   2.493 -0.1775 -0.0345  0.1883
 3199poe     o216787   5.505   4.845   2.415 -0.0297  0.0284 -0.0496
 3199poe    c3116788   5.392   4.928   2.400 -0.5054 -0.5260  0.4465
 3200poe    c3116789   4.638   2.296   5.875 -0.4677  0.1257  0.0994
 3200poe     o216790   4.746   2.334   5.957 -0.5543  0.1586  0.1980
 3200poe    c2316791   4.862   2.369   5.885 -0.3210 -0.7126  0.1361
 3200poe    c2316792   4.985   2.390   5.975 -0.3926 -0.0227  0.0840
 3200poe     o216793   4.978   2.510   6.049 -0.1300 -0.3411  0.6322
 3200poe    c2316794   5.083   2.511   6.143  0.2508  0.3184  0.2077
 3200poe    c2316795   5.058   2.600   6.266 -0.7314 -0.3922  0.5381
 3200poe     o216796   4.984   2.711   6.219  0.0022 -0.1855 -0.1376
 3200poe    c2316797   4.949   2.796   6.326  0.5090  0.7343 -0.6873
 3200poe    c2316798   4.851   2.896   6.262 -0.2363  0.3019 -0.2348
 3200poe     o216799   4.758   2.834   6.176 -0.0030  0.0505 -0.3049
 3200poe    c3116800   4.638   2.906   6.161  0.0967  0.2032 -0.3789
 3201poe    c3116801   6.502   1.263   6.433 -0.5029  0.4734  0.6966
 3201poe     o216802   6.638   1.298   6.443 -0.2344 -0.3811  0.1574
 3201poe    c2316803   6.719   1.246   6.341  0.0189 -0.3401  0.3382
 3201poe    c2316804   6.865   1.295   6.340 -0.1850  0.2702  0.1125
 3201poe     o216805   6.912   1.274   6.471 -0.2363  0.2106  0.1209
 3201poe    c2316806   7.041   1.329   6.484 -0.1725  0.0698  0.0876
 3201poe    c2316807   7.078   1.362   6.629 -0.1607  0.3097  0.0302
 3201poe     o216808   7.016   1.479   6.677  0.1153  0.3694  0.2456
 3201poe    c2316809   7.031   1.484   6.817 -0.4077  0.5288  0.2984
 3201poe    c2316810   6.930   1.578   6.884 -0.6095  0.0013  0.7474
 3201poe     o216811   6.959   1.715   6.867  0.3205 -0.3063 -0.2148
 3201poe    c3116812   6.842   1.793   6.882 -0.1432 -1.0174 -0.1109
 3202poe    c3116813   2.701   3.191   3.791  0.4223  0.3499 -0.5246
 3202poe     o216814   2.706   3.329   3.821  0.0580  0.1920  0.2894
 3202poe    c2316815   2.582   3.367   3.876 -0.0456  0.4462 -0.1154
 3202poe    c2316816   2.571   3.510   3.932  0.9266  0.4879 -0.0052
 3202poe     o216817   2.586   3.626   3.854 -0.0547  0.0337 -0.9051
 3202poe    c2316818   2.549   3.730   3.943  0.5441 -0.2553 -0.3080
 3202poe    c2316819   2.553   3.872   3.883 -0.0690 -0.3426 -0.5670
 3202poe     o216820   2.683   3.905   3.839  0.0232 -0.2577 -0.2391
 3202poe    c2316821   2.678   4.010   3.745 -0.1421  0.1211  0.1899
 3202poe    c2316822   2.741   3.985   3.607 -0.1167 -0.4120  0.2967
 3202poe     o216823   2.882   3.989   3.593 -0.1104 -0.1740  0.4230
 3202poe    c3116824   2.904   3.980   3.455 -0.0242  0.3050  0.4066
 3203poe    c3116825   4.246   1.575   4.394 -0.1928 -0.0781 -0.0792
 3203poe     o216826   4.140   1.668   4.394  0.5695  0.8015 -0.7217
 3203poe    c2316827   4.107   1.724   4.519  0.1606 -0.5094 -0.2281
 3203poe    c2316828   3.957   1.756   4.507  0.2964  0.1483 -0.2329
 3203poe     o216829   3.939   1.809   4.378 -0.2214 -0.0027 -0.2265
 3203poe    c2316830   3.829   1.897   4.382 -0.4502 -0.2894 -0.1718
 3203poe    c2316831   3.798   1.969   4.249 -0.0193 -0.2960 -0.2766
 3203poe     o216832   3.920   2.031   4.214 -0.1240  0.1410  0.1197
 3203poe    c2316833   3.924   2.075   4.080 -0.0435  0.4056  0.2084
 3203poe    c2316834   4.042   2.168   4.047  0.3394 -0.0573  0.2473
 3203poe     o216835   4.169   2.113   4.074  0.3286 -0.1137  0.1820
 3203poe    c3116836   4.275   2.169   3.999 -0.3410  0.1085 -0.6092
 3204poe    c3116837   3.276   1.303   2.836  0.6494 -0.6114 -0.4368
 3204poe     o216838   3.386   1.391   2.848 -0.2349  0.4244  0.1591
 3204poe    c2316839   3.351   1.511   2.915 -0.0193  0.2302  0.6258
 3204poe    c2316840   3.470   1.608   2.926  0.2978 -0.0355 -0.3328
 3204poe     o216841   3.571   1.568   3.015  0.0614 -0.0738 -0.0776
 3204poe    c2316842   3.662   1.676   3.010  0.2837 -0.2442  0.2305
 3204poe    c2316843   3.769   1.652   3.118  0.9033 -0.1919 -0.3674
 3204poe     o216844   3.812   1.519   3.103  0.0620 -0.4739 -0.2983
 3204poe    c2316845   3.942   1.493   3.151  0.1913  0.5263 -0.0921
 3204poe    c2316846   3.959   1.345   3.110 -0.0808  0.4586  0.0406
 3204poe     o216847   3.841   1.277   3.145  0.1795  0.0119  0.0493
 3204poe    c3116848   3.863   1.140   3.120 -0.6041 -0.1552  0.2500
 3205poe    c3116849   3.872   6.115   3.999  0.1349  0.1459 -0.5274
 3205poe     o216850   3.734   6.128   3.974 -0.1118 -0.3524  0.5399
 3205poe    c2316851   3.659   6.018   4.021 -0.1016 -0.4891  0.2337
 3205poe    c2316852   3.507   6.038   4.022 -0.1170 -0.5001 -0.6929
 3205poe     o216853   3.476   6.065   3.887 -0.0711  0.6844 -0.4797
 3205poe    c2316854   3.349   6.123   3.867 -0.2720  0.5800  0.4549
 3205poe    c2316855   3.309   6.144   3.720  0.3561 -0.2030  0.1637
 3205poe     o216856   3.281   6.024   3.651  0.2355 -0.1458  0.1143
 3205poe    c2316857   3.299   6.036   3.512  0.0864  0.0939  0.1150
 3205poe    c2316858   3.189   6.123   3.448  0.0780  0.2637  0.3555
 3205poe     o216859   3.058   6.076   3.428  0.0187  0.4886  0.2082
 3205poe    c3116860   2.979   6.193   3.435 -0.5168  0.1224  0.3228
 3206poe    c3116861   1.795   5.753   2.967  0.0909 -0.1000 -0.0514
 3206poe     o216862   1.826   5.615   2.974  0.6715  0.0636  0.6883
 3206poe    c2316863   1.941   5.584   2.898  0.4290 -0.0258  0.3584
 3206poe    c2316864   1.929   5.436   2.860  0.4983  0.0174  0.1678
 3206poe     o216865   1.809   5.403   2.793  0.3683 -0.1322  0.4761
 3206poe    c2316866   1.743   5.283   2.828  0.0416  0.0508  0.4999
 3206poe    c2316867   1.608   5.269   2.757  0.1502 -0.8060  0.4502
 3206poe     o216868   1.505   5.339   2.823  0.1074 -0.4130 -0.0304
 3206poe    c2316869   1.384   5.292   2.768 -0.4511  0.7082  0.2016
 3206poe    c2316870   1.287   5.263   2.884 -0.0696 -0.0499  0.3353
 3206poe     o216871   1.357   5.179   2.973  0.5645  0.0386 -0.0673
 3206poe    c3116872   1.292   5.056   2.999 -0.0620  0.3778 -0.0098
 3207poe    c3116873   6.458   5.579   4.574 -0.4171 -0.0355  0.4838
 3207poe     o216874   6.480   5.510   4.695 -0.3596 -0.4106  0.2596
 3207poe    c2316875   6.576   5.566   4.782 -0.4171  0.3681 -0.1728
 3207poe    c2316876   6.722   5.603   4.751 -0.0285 -0.2009  0.9440
 3207poe     o216877   6.806   5.495   4.718  0.0104  0.3483 -0.8225
 3207poe    c2316878   6.932   5.529   4.663  0.3685 -0.0551 -0.2622
 3207poe    c2316879   7.021   5.413   4.614  0.1460 -0.4814  0.3265
 3207poe     o216880   6.983   5.358   4.490  0.1120  0.2268  0.0151
 3207poe    c2316881   7.071   5.257   4.448  0.2671  0.3273  0.0984
 3207poe    c2316882   7.066   5.202   4.304 -0.1835  0.1951  0.1641
 3207poe     o216883   6.957   5.118   4.274 -0.1531  0.2825 -0.1921
 3207poe    c3116884   6.924   5.123   4.137 -0.1971  0.0356 -0.1927
 3208poe    c3116885   6.462   2.127   1.758 -0.0218 -0.2645 -0.3676
 3208poe     o216886   6.536   2.230   1.820  0.1149 -0.0574 -0.8673
 3208poe    c2316887   6.534   2.349   1.745  0.6982  0.1216 -0.6100
 3208poe    c2316888   6.621   2.455   1.814  0.0808  0.1696  0.1018
 3208poe     o216889   6.601   2.492   1.949 -0.0743  0.2222  0.0648
 3208poe    c2316890   6.691   2.581   2.011 -0.0392 -0.1275  0.5115
 3208poe    c2316891   6.664   2.611   2.160  0.0987 -0.1016  0.5316
 3208poe     o216892   6.711   2.505   2.240  0.3157 -0.3933  0.0279
 3208poe    c2316893   6.712   2.545   2.376  0.5753  0.4021 -0.2036
 3208poe    c2316894   6.759   2.449   2.486 -1.0018  0.1448  0.2731
 3208poe     o216895   6.696   2.322   2.492 -0.4850 -0.1232  0.0881
 3208poe    c3116896   6.710   2.260   2.618  0.2104 -0.3758 -0.1094
 3209poe    c3116897   0.730   4.246   3.530  0.5985  0.5822 -0.8134
 3209poe     o216898   0.658   4.145   3.464  0.1202  0.7172 -0.5022
 3209poe    c2316899   0.520   4.171   3.447  0.0065  0.2821 -0.2587
 3209poe    c2316900   0.469   4.071   3.341 -0.3239  0.2463 -0.0678
 3209poe     o216901   0.515   4.112   3.213 -0.6072  0.6351 -0.0483
 3209poe    c2316902   0.481   4.022   3.110 -0.1573 -0.0461  0.3857
 3209poe    c2316903   0.480   4.059   2.961 -0.0471 -0.3451  0.3102
 3209poe     o216904   0.380   4.157   2.945  0.0697 -0.2513  0.1476
 3209poe    c2316905   0.363   4.190   2.809 -0.0002  0.1890  0.2615
 3209poe    c2316906   0.237   4.279   2.801  0.4957  0.8536 -0.3756
 3209poe     o216907   0.228   4.360   2.916  0.0657  0.1114  0.1181
 3209poe    c3116908   0.129   4.456   2.887 -0.1689 -0.1148  0.1544
 3210poe    c3116909   6.113   7.090   0.513 -0.0042 -0.1936 -0.1500
 3210poe     o216910   5.988   7.048   0.564  0.0363 -0.1461 -0.0100
 3210poe    c2316911   6.001   6.975   0.683  0.2970 -0.1150 -0.0188
 3210poe    c2316912   5.870   6.942   0.756  0.4867  0.0185  0.3846
 3210poe     o216913   5.784   7.054   0.767  0.0847 -0.1640 -0.8324
 3210poe    c2316914   5.653   7.006   0.786  0.2033  0.1347  0.8104
 3210poe    c2316915   5.552   7.121   0.806 -0.6036 -0.4673  0.2176
 3210poe     o216916   5.579   7.184   0.928 -0.0143  0.3912 -0.3489
 3210poe    c2316917   5.491   7.293   0.949 -0.1220  0.1892  0.2781
 3210poe    c2316918   5.498   7.354   1.091  0.4162  0.2202  0.2436
 3210poe     o216919   5.633   7.392   1.096  0.3275  0.5411  0.2606
 3210poe    c3116920   5.667   7.406   1.232  0.0471  0.4669  0.3386
 3211poe    c3116921   1.167   5.221   1.861 -0.0211  0.4192  0.0660
 3211poe     o216922   1.149   5.152   1.739  0.1886 -0.5127  0.5535
 3211poe    c2316923   1.256   5.173   1.650  0.0330 -0.3220  0.4123
 3211poe    c2316924   1.236   5.089   1.523 -0.1215 -0.3172  0.4326
 3211poe     o216925   1.222   4.952   1.553 -0.0092 -0.3511  0.3329
 3211poe    c2316926   1.173   4.894   1.434  0.0092  0.2583  0.0253
 3211poe    c2316927   1.118   4.752   1.456  0.0875  0.3243  0.6839
 3211poe     o216928   1.221   4.660   1.482 -0.0468 -0.0221  0.0382
 3211poe    c2316929   1.170   4.530   1.498  0.2349 -0.2119 -0.6072
 3211poe    c2316930   1.284   4.443   1.555 -0.3022 -0.3182  0.3181
 3211poe     o216931   1.401   4.468   1.480 -0.7456 -0.7540 -0.5271
 3211poe    c3116932   1.509   4.395   1.533  0.1599  0.5187 -0.5633
 3212poe    c3116933   0.817   0.600   3.728  0.5176 -0.4120 -0.1432
 3212poe     o216934   0.698   0.527   3.707  0.0794  0.2385  0.0645
 3212poe    c2316935   0.687   0.492   3.570  0.1993 -0.5229  0.2469
 3212poe    c2316936   0.541   0.469   3.526 -0.0085  0.3766  0.4372
 3212poe     o216937   0.456   0.572   3.570 -0.1996  0.2585  0.3424
 3212poe    c2316938   0.325   0.526   3.546 -0.0105 -0.1728  0.1253
 3212poe    c2316939   0.218   0.631   3.583  0.4278  0.2271  0.2641
 3212poe     o216940   0.215   0.647   3.723  0.0409 -0.2203  0.3100
 3212poe    c2316941   0.105   0.710   3.784  0.0371  0.0052  0.0726
 3212poe    c2316942   0.146   0.747   3.928 -0.0018 -0.3128  0.1661
 3212poe     o216943   0.221   0.639   3.979  0.8030  0.3402  0.3964
 3212poe    c3116944   0.279   0.688   4.098  0.2483  0.7880  0.4922
 3213poe    c3116945   6.344   6.369   3.335  0.0611 -0.3902  0.2606
 3213poe     o216946   6.342   6.293   3.454  0.2117 -0.1650  0.4062
 3213poe    c2316947   6.270   6.369   3.549  0.6628  0.1486  0.5033
 3213poe    c2316948   6.175   6.283   3.634  0.1057  0.1137 -0.1477
 3213poe     o216949   6.045   6.271   3.581  0.0422 -0.2268  0.0820
 3213poe    c2316950   5.954   6.203   3.665  0.1942 -0.4931  0.0320
 3213poe    c2316951   5.808   6.224   3.623  0.1608 -0.6501  0.0702
 3213poe     o216952   5.779   6.173   3.494 -0.0732 -0.1848 -0.0636
 3213poe    c2316953   5.726   6.043   3.499  0.0065 -0.2289 -0.3310
 3213poe    c2316954   5.579   6.041   3.453 -0.1979 -0.1132  0.3118
 3213poe     o216955   5.571   6.057   3.313  0.1617 -1.2949  0.1503
 3213poe    c3116956   5.432   6.052   3.290  0.0422  0.0915  0.4798
 3214poe    c3116957   2.544   3.311   0.851 -0.0412  0.1403  0.1064
 3214poe     o216958   2.510   3.419   0.767 -0.4415 -0.2439 -0.2337
 3214poe    c2316959   2.597   3.531   0.770 -0.4160 -0.2685 -0.0324
 3214poe    c2316960   2.635   3.558   0.623  0.0770 -0.0665  0.1313
 3214poe     o216961   2.535   3.632   0.556  0.3875  0.1689 -0.0730
 3214poe    c2316962   2.541   3.618   0.416 -0.4170 -0.3812 -0.0551
 3214poe    c2316963   2.413   3.673   0.351 -0.2759 -0.0023 -0.0150
 3214poe     o216964   2.303   3.601   0.401 -0.1268 -0.7300 -0.7115
 3214poe    c2316965   2.180   3.655   0.356 -0.1724 -0.0492  0.2095
 3214poe    c2316966   2.046   3.609   0.415 -0.1228 -0.2276  0.1832
 3214poe     o216967   1.996   3.670   0.532 -0.0515  0.1263  0.0308
 3214poe    c3116968   1.944   3.799   0.511  0.1190  0.0615 -0.8213
 3215poe    c3116969   4.081   1.587   5.993 -0.0328 -0.1470  0.2591
 3215poe     o216970   4.066   1.623   6.128  0.1573 -0.6827  0.4229
 3215poe    c2316971   4.191   1.659   6.184  0.1259  0.5821 -0.2965
 3215poe    c2316972   4.189   1.667   6.337  0.1080 -0.2083 -0.2510
 3215poe     o216973   4.140   1.786   6.396 -0.0597 -0.3840 -0.0302
 3215poe    c2316974   4.229   1.895   6.391 -0.2018 -0.2608  0.1209
 3215poe    c2316975   4.176   2.026   6.452 -0.1694 -0.1292 -0.1320
 3215poe     o216976   4.077   2.096   6.381 -0.1661 -0.1483 -0.1544
 3215poe    c2316977   4.013   2.196   6.457  0.2769  0.4311 -0.5356
 3215poe    c2316978   3.893   2.271   6.397  0.1034  0.2430 -0.4247
 3215poe     o216979   3.780   2.189   6.374  0.2869 -0.1731  0.1400
 3215poe    c3116980   3.674   2.270   6.329  0.0552 -0.3283  0.4002
 3216poe    c3116981   1.602   3.207   4.728 -0.2292 -0.8588  0.5352
 3216poe     o216982   1.520   3.265   4.628  0.0777 -0.4190  0.5346
 3216poe    c2316983   1.497   3.163   4.534  0.1275  0.4427 -0.4241
 3216poe    c2316984   1.401   3.191   4.416 -0.2214  0.5090 -0.1251
 3216poe     o216985   1.466   3.266   4.316  0.0839  0.1048 -0.2282
 3216poe    c2316986   1.369   3.344   4.250 -0.1962 -0.1399 -0.1076
 3216poe    c2316987   1.436   3.469   4.190  0.2056 -0.2785  0.0507
 3216poe     o216988   1.493   3.559   4.283 -0.3338 -0.2814  0.3880
 3216poe    c2316989   1.543   3.675   4.220 -0.0092 -0.1951  0.7978
 3216poe    c2316990   1.633   3.761   4.310  0.2162 -0.3660  0.7355
 3216poe     o216991   1.761   3.706   4.335  0.2171 -0.3962  0.6663
 3216poe    c3116992   1.813   3.764   4.452  0.0206 -0.5731  0.8429
 3217poe    c3116993   1.208   2.035   1.261  0.5109 -0.3262  0.1136
 3217poe     o216994   1.192   2.174   1.274 -0.2862 -0.3867 -0.1567
 3217poe    c2316995   1.085   2.234   1.204  0.0241  0.5429  0.1550
 3217poe    c2316996   1.038   2.366   1.269 -0.1685  0.4460  0.2112
 3217poe     o216997   1.128   2.472   1.290  0.1530  0.2489 -0.1660
 3217poe    c2316998   1.054   2.588   1.320 -0.3008 -0.1590  0.3193
 3217poe    c2316999   1.152   2.707   1.305  0.4222 -0.8463 -0.5402
 3217poe     o217000   1.227   2.726   1.422  0.0430 -0.2161 -0.3971
 3217poe    c2317001   1.317   2.832   1.399  0.1909 -0.2472  0.0226
 3217poe    c2317002   1.455   2.767   1.421  0.5236  0.5849  0.4359
 3217poe     o217003   1.485   2.670   1.324 -1.0912  0.2635  0.2288
 3217poe    c3117004   1.450   2.543   1.375 -0.4461 -0.1583 -0.3565
 3218poe    c3117005   2.584   3.035   6.087  0.3780 -0.5744  0.1518
 3218poe     o217006   2.483   2.979   6.007  0.0447 -0.2666  0.3560
 3218poe    c2317007   2.367   2.945   6.080 -0.2627  0.3309  0.1504
 3218poe    c2317008   2.273   2.893   5.970  0.1786  0.0412 -0.0946
 3218poe     o217009   2.358   2.824   5.882  0.1760  0.4967 -0.4583
 3218poe    c2317010   2.287   2.759   5.779  0.1807  0.5745 -0.5110
 3218poe    c2317011   2.368   2.663   5.690  0.1575  0.4257 -0.3729
 3218poe     o217012   2.485   2.735   5.661  0.4395  0.2912  0.3992
 3218poe    c2317013   2.560   2.653   5.574  0.0572  0.3424  0.0166
 3218poe    c2317014   2.671   2.731   5.500  0.0635 -0.1210 -0.4641
 3218poe     o217015   2.758   2.802   5.584 -0.6220  0.3822 -0.1678
 3218poe    c3117016   2.810   2.910   5.509 -0.0455  0.4981  0.3850
 3219poe    c3117017   7.131   5.145   2.675  0.0587  0.1738 -0.2874
 3219poe     o217018   7.200   5.181   2.558  0.3432  0.2178 -0.1089
 3219poe    c2317019   7.206   5.077   2.462  0.0744  0.1419 -0.0446
 3219poe    c2317020   7.264   5.139   2.333 -0.0709 -0.7145 -0.5268
 3219poe     o217021   7.159   5.220   2.288  0.0581  0.0084  0.4399
 3219poe    c2317022   7.189   5.311   2.185  0.6360 -0.5801  0.0878
 3219poe    c2317023   7.094   5.279   2.067 -0.0582 -0.0837  0.5091
 3219poe     o217024   7.132   5.165   1.994  0.0946 -0.0029  0.4631
 3219poe    c2317025   7.092   5.036   2.033  0.0525 -0.1597 -0.0922
 3219poe    c2317026   7.107   4.941   1.912  0.5699  0.2863 -0.3859
 3219poe     o217027   7.006   4.955   1.815 -0.2350 -0.7122  0.2800
 3219poe    c3117028   7.024   4.842   1.734 -0.1732 -0.5204  0.0241
 3220poe    c3117029   6.963   1.340   1.740  0.0912  0.3219  0.4170
 3220poe     o217030   6.911   1.329   1.610 -0.1675  0.0807  0.5397
 3220poe    c2317031   6.788   1.398   1.594  0.2800  0.6908 -0.3928
 3220poe    c2317032   6.713   1.367   1.464 -0.1606  0.4898 -0.0930
 3220poe     o217033   6.803   1.368   1.355  0.2440 -0.2848  0.2269
 3220poe    c2317034   6.745   1.331   1.232  0.0022  1.0564 -0.0760
 3220poe    c2317035   6.861   1.340   1.132  0.4086 -0.2941  0.2593
 3220poe     o217036   6.974   1.277   1.189  0.3582 -0.1593  0.5097
 3220poe    c2317037   7.066   1.265   1.083 -0.2680 -0.0753 -0.0520
 3220poe    c2317038   7.195   1.197   1.134  0.0309  0.2880 -0.3181
 3220poe     o217039   7.252   1.264   1.245  0.0778  0.8450 -0.6763
 3220poe    c3117040   7.382   1.226   1.284 -0.2191 -0.0508 -0.5385
 3221poe    c3117041   0.186   6.361   6.136 -0.9375  0.8278 -0.6757
 3221poe     o217042   0.179   6.494   6.182  0.4480  0.5299  0.4376
 3221poe    c2317043   0.304   6.557   6.165  0.8101 -0.1829  0.4206
 3221poe    c2317044   0.312   6.703   6.212 -0.3541 -0.1224  0.4511
 3221poe     o217045   0.226   6.776   6.127 -0.1907  0.2003  0.5588
 3221poe    c2317046   0.272   6.906   6.101  0.1259 -0.0364 -0.0915
 3221poe    c2317047   0.187   6.956   5.983  0.2433  0.2751 -0.0476
 3221poe     o217048   0.053   6.946   6.027  0.0862  0.7432 -0.4094
 3221poe    c2317049  -0.041   7.001   5.938 -0.4728 -0.3670 -0.5199
 3221poe    c2317050  -0.171   6.969   6.014 -0.2012  0.0569  0.1285
 3221poe     o217051  -0.168   6.840   6.072 -0.2866  0.1027  0.2350
 3221poe    c3117052  -0.299   6.809   6.115 -0.4803  0.7017  0.0912
 3222poe    c3117053   1.185   4.785   6.897 -0.1154 -0.2086 -0.2637
 3222poe     o217054   1.045   4.793   6.912 -0.0437  0.0811  0.2610
 3222poe    c2317055   0.984   4.667   6.928  0.3475 -0.1472 -0.0239
 3222poe    c2317056   0.836   4.680   6.887  0.3094 -0.3128  0.0573
 3222poe     o217057   0.818   4.746   6.764 -0.2673 -0.5144  0.0303
 3222poe    c2317058   0.697   4.818   6.755  0.3946  0.6673  0.3321
 3222poe    c2317059   0.684   4.907   6.630 -0.3475  1.0149  0.6508
 3222poe     o217060   0.781   5.010   6.631 -0.0258  0.7188  0.3241
 3222poe    c2317061   0.802   5.060   6.501  0.6816 -0.1363  0.0985
 3222poe    c2317062   0.769   5.211   6.506 -0.5259 -0.3564 -0.7360
 3222poe     o217063   0.638   5.252   6.538  0.0537  0.3514  0.8642
 3222poe    c3117064   0.553   5.260   6.425  0.7792 -0.2315  0.2601
 3223poe    c3117065   5.476   5.068   3.224 -0.1933 -0.5061  0.4016
 3223poe     o217066   5.338   5.059   3.251 -0.2994 -0.3419 -0.0747
 3223poe    c2317067   5.306   5.045   3.388 -0.0403 -0.0014  0.0230
 3223poe    c2317068   5.153   5.042   3.404 -0.0922  0.0202 -0.4616
 3223poe     o217069   5.095   5.167   3.374 -0.6791 -0.2348 -0.4076
 3223poe    c2317070   4.958   5.169   3.408 -0.6550 -0.0758 -0.3210
 3223poe    c2317071   4.917   5.316   3.386  0.5032  0.2896 -0.1219
 3223poe     o217072   4.929   5.344   3.248  0.8026  0.4498 -0.0632
 3223poe    c2317073   4.875   5.470   3.216 -0.1465 -0.0350 -0.3824
 3223poe    c2317074   4.859   5.483   3.063  0.0767 -0.6013 -0.4547
 3223poe     o217075   4.984   5.490   2.998  0.2341 -0.1911 -0.1110
 3223poe    c3117076   4.967   5.462   2.861 -0.2772 -0.5238  0.0156
 3224poe    c3117077   2.736   3.170   5.178  0.1188  0.3491  0.2427
 3224poe     o217078   2.777   3.290   5.117  0.1363 -0.1423 -0.7237
 3224poe    c2317079   2.893   3.275   5.038  0.1482 -0.1197 -0.7106
 3224poe    c2317080   2.891   3.388   4.933 -0.1353  0.3203 -0.2341
 3224poe     o217081   2.936   3.510   4.989 -0.0309  0.1491  0.0554
 3224poe    c2317082   2.913   3.614   4.897 -0.0448  0.4372  0.3844
 3224poe    c2317083   2.888   3.752   4.961 -0.2971  0.3474  0.4793
 3224poe     o217084   2.764   3.750   5.029 -0.6015 -0.1227 -0.0736
 3224poe    c2317085   2.740   3.881   5.075  0.4179 -0.1746  0.6550
 3224poe    c2317086   2.620   3.871   5.171 -0.1633 -0.5188 -0.0944
 3224poe     o217087   2.494   3.843   5.114 -0.0809 -0.1432 -0.4582
 3224poe    c3117088   2.397   3.809   5.209  0.1297  0.1761 -0.1245
 3225poe    c3117089   3.955   0.871   5.159  0.0219 -0.3342 -0.0015
 3225poe     o217090   3.947   1.010   5.140  0.1871 -0.3623 -0.2833
 3225poe    c2317091   4.077   1.062   5.121 -0.0809  0.2582 -0.4515
 3225poe    c2317092   4.062   1.215   5.118  0.1128  0.2726 -0.7556
 3225poe     o217093   3.951   1.253   5.040  0.1682  0.6453 -0.6544
 3225poe    c2317094   3.929   1.393   5.043 -0.3295  0.5632 -0.3154
 3225poe    c2317095   3.798   1.429   4.970 -0.7006  0.4111  0.2747
 3225poe     o217096   3.706   1.333   5.019 -0.0702 -0.3048  0.0816
 3225poe    c2317097   3.577   1.384   4.994  0.0042  0.0117  0.3327
 3225poe    c2317098   3.467   1.307   5.070 -0.4510  0.0703 -0.2584
 3225poe     o217099   3.448   1.180   5.012  0.1301  0.0429 -0.3889
 3225poe    c3117100   3.353   1.111   5.090  0.5063 -0.0238  0.0156
 3226poe    c3117101   0.618   3.281   6.695 -0.4368 -0.1921 -0.3673
 3226poe     o217102   0.643   3.234   6.564  0.2803  0.0571 -0.3221
 3226poe    c2317103   0.549   3.283   6.470  0.0293 -0.0457 -0.1259
 3226poe    c2317104   0.595   3.258   6.325  0.0698  0.1734 -0.1517
 3226poe     o217105   0.709   3.328   6.283  0.0189  0.3088 -0.0665
 3226poe    c2317106   0.783   3.269   6.178 -0.0905  0.6274 -0.3243
 3226poe    c2317107   0.913   3.348   6.161  0.1422  0.3907  0.3234
 3226poe     o217108   0.993   3.334   6.276 -0.2932 -0.0089  0.5774
 3226poe    c2317109   1.127   3.354   6.235 -0.3737 -0.2768  0.1799
 3226poe    c2317110   1.222   3.405   6.345 -0.0261 -0.1159 -0.1965
 3226poe     o217111   1.198   3.538   6.384  0.1963 -0.2138  0.2781
 3226poe    c3117112   1.273   3.582   6.495  0.1164 -0.7694  0.5575
 3227poe    c3117113   2.577   3.698   6.567  0.3810 -0.0365 -0.2390
 3227poe     o217114   2.693   3.630   6.612  0.2255  0.0291  0.2596
 3227poe    c2317115   2.779   3.625   6.501  0.3943 -0.1455  0.3980
 3227poe    c2317116   2.913   3.555   6.529  0.1409 -0.5714  0.5500
 3227poe     o217117   2.988   3.631   6.621  0.3128  0.0841 -0.1288
 3227poe    c2317118   3.110   3.568   6.653  0.2999  0.0857 -0.0772
 3227poe    c2317119   3.139   3.606   6.800 -0.6153 -0.4947  0.2664
 3227poe     o217120   3.137   3.747   6.808  0.7866 -0.4426 -0.0331
 3227poe    c2317121   3.148   3.783   6.944  0.1864 -0.1495 -0.0589
 3227poe    c2317122   3.120   3.934   6.952  0.2552 -0.1553  0.3172
 3227poe     o217123   2.997   3.953   6.885  0.3495 -0.0271  0.1783
 3227poe    c3117124   2.952   4.072   6.945  0.3348  0.3263 -0.5287
 3228poe    c3117125   1.343   0.504   2.726  0.0249  0.5606  0.2746
 3228poe     o217126   1.425   0.489   2.612 -0.2838  0.3018  0.0828
 3228poe    c2317127   1.362   0.439   2.496 -0.6094 -0.3059  0.5196
 3228poe    c2317128   1.472   0.371   2.414 -0.4120  0.7840 -0.1359
 3228poe     o217129   1.574   0.462   2.378  0.2606  0.0379 -0.1479
 3228poe    c2317130   1.679   0.398   2.310  0.2055 -0.2050 -0.0055
 3228poe    c2317131   1.805   0.480   2.277 -0.1289  0.3595  0.1148
 3228poe     o217132   1.791   0.566   2.166  0.3674  0.4479  0.1180
 3228poe    c2317133   1.919   0.613   2.130  0.3381  0.5322  0.1236
 3228poe    c2317134   1.928   0.666   1.986  0.6275  0.4505  0.1102
 3228poe     o217135   1.827   0.762   1.965  0.0694 -0.0786  0.3361
 3228poe    c3117136   1.891   0.874   1.907 -0.4671  0.1266  0.1335
 3229poe    c3117137   6.917   0.630   0.763 -0.0266 -0.0411 -0.1633
 3229poe     o217138   6.960   0.558   0.876  0.0702 -0.3852 -0.4165
 3229poe    c2317139   7.069   0.472   0.855  0.2021 -0.1797 -0.5736
 3229poe    c2317140   7.078   0.351   0.950  0.3008  0.2799  0.0102
 3229poe     o217141   7.101   0.380   1.086  0.1556  0.2717  0.0369
 3229poe    c2317142   7.219   0.449   1.122  0.3785 -0.0853 -0.0015
 3229poe    c2317143   7.221   0.434   1.275  0.1900  1.1258  0.1256
 3229poe     o217144   7.092   0.459   1.327 -0.2787 -0.3759 -0.2747
 3229poe    c2317145   7.093   0.470   1.468 -0.2006 -0.0038 -0.3047
 3229poe    c2317146   6.971   0.558   1.504 -0.1491  0.1079 -0.4005
 3229poe     o217147   6.875   0.554   1.402 -0.1100  0.2951 -0.4443
 3229poe    c3117148   6.759   0.629   1.429 -0.0502  0.1624  0.1857
 3230poe    c3117149   4.961   4.821   1.007 -0.2245 -0.1252 -0.6353
 3230poe     o217150   5.070   4.735   0.985 -0.1383 -0.1178 -0.2386
 3230poe    c2317151   5.072   4.676   0.857  0.0411 -0.4465 -0.0859
 3230poe    c2317152   5.212   4.639   0.804  0.2327  0.0744  0.0497
 3230poe     o217153   5.264   4.533   0.881 -0.4528  0.2039  0.7079
 3230poe    c2317154   5.405   4.541   0.873 -0.4690 -0.0561  0.0696
 3230poe    c2317155   5.473   4.470   0.992 -0.0886  0.0392 -0.0905
 3230poe     o217156   5.431   4.510   1.121 -0.2518 -0.0044 -0.1299
 3230poe    c2317157   5.481   4.425   1.222 -0.0064  0.9510  0.5724
 3230poe    c2317158   5.402   4.400   1.351 -0.2593  0.6286  0.3560
 3230poe     o217159   5.271   4.369   1.308 -0.0707  0.5524 -0.1746
 3230poe    c3117160   5.184   4.356   1.419  0.0879 -0.3123 -0.1457
 3231poe    c3117161   6.635   3.775   0.115  0.0922 -0.1585  0.0442
 3231poe     o217162   6.643   3.776   0.255 -0.0030  0.1082  0.0483
 3231poe    c2317163   6.546   3.691   0.313  0.0360 -0.0165 -0.0684
 3231poe    c2317164   6.549   3.720   0.464  0.2530 -0.1933 -0.0391
 3231poe     o217165   6.503   3.847   0.506  0.3037 -0.0979 -0.2702
 3231poe    c2317166   6.368   3.850   0.546  0.4546 -0.1752  0.2523
 3231poe    c2317167   6.317   3.995   0.558  0.5297 -0.1314  0.0401
 3231poe     o217168   6.334   4.084   0.450 -0.0451  0.1231  0.1535
 3231poe    c2317169   6.279   4.211   0.478  0.2695  0.1779  0.5340
 3231poe    c2317170   6.306   4.319   0.371 -0.1298 -0.2758 -0.0355
 3231poe     o217171   6.436   4.370   0.389 -0.4815  0.3950  0.6750
 3231poe    c3117172   6.461   4.472   0.294 -0.8594 -0.3133 -0.1998
 3232poe    c3117173   3.284   0.217   2.960 -0.0608  0.2532 -0.6757
 3232poe     o217174   3.248   0.341   3.018  0.1906  0.0549 -0.0842
 3232poe    c2317175   3.276   0.344   3.156 -0.5799  0.0824  0.0746
 3232poe    c2317176   3.238   0.480   3.218  0.7569  0.2905  0.4638
 3232poe     o217177   3.303   0.594   3.166 -0.0918  0.4695 -0.2236
 3232poe    c2317178   3.261   0.712   3.232  0.0243  0.2194  0.3037
 3232poe    c2317179   3.337   0.826   3.162  0.2530  0.0979  0.3536
 3232poe     o217180   3.309   0.835   3.024 -0.3181  0.3070  0.4833
 3232poe    c2317181   3.244   0.958   3.000 -0.0897  0.3866  0.2719
 3232poe    c2317182   3.141   0.933   2.887 -0.2427  0.0360  0.4865
 3232poe     o217183   3.212   0.855   2.794  0.1588  0.5980  0.3115
 3232poe    c3117184   3.168   0.894   2.665 -0.1041  0.0216  0.2199
 3233poe    c3117185   6.399   5.420   0.968 -0.5330 -0.3923  0.5914
 3233poe     o217186   6.503   5.452   0.879 -0.6327 -0.1524  0.5610
 3233poe    c2317187   6.475   5.405   0.749  0.2989  0.1479  0.2415
 3233poe    c2317188   6.576   5.466   0.650  0.0200  0.1886 -0.0209
 3233poe     o217189   6.589   5.606   0.656 -0.2842  0.2075  0.2194
 3233poe    c2317190   6.691   5.664   0.578 -0.4072 -0.1547 -0.2164
 3233poe    c2317191   6.683   5.818   0.579  0.5264 -0.1003  0.2489
 3233poe     o217192   6.691   5.863   0.713  1.0059  0.2931  0.0879
 3233poe    c2317193   6.690   6.004   0.711 -0.4685  0.2940  0.0527
 3233poe    c2317194   6.752   6.047   0.845 -0.3223 -0.1816  0.1399
 3233poe     o217195   6.890   6.038   0.874 -0.1617  0.6397 -0.3266
 3233poe    c3117196   6.917   6.097   0.999  0.2122 -0.1121 -0.0482
 3234poe    c3117197   0.877   5.952   5.927  0.3255  0.0759 -0.1771
 3234poe     o217198   1.001   5.936   5.992  0.0646 -0.5064  0.1800
 3234poe    c2317199   1.093   5.881   5.900  0.5390 -0.0558  0.3772
 3234poe    c2317200   1.230   5.863   5.968  0.8781 -0.4396 -0.3886
 3234poe     o217201   1.223   5.815   6.100  1.0334  0.5951  0.0097
 3234poe    c2317202   1.300   5.697   6.109 -0.1157 -0.1733  0.1361
 3234poe    c2317203   1.260   5.635   6.244 -0.1758 -0.0521  0.1742
 3234poe     o217204   1.310   5.702   6.358  0.0448 -0.0207  0.0594
 3234poe    c2317205   1.435   5.654   6.405 -0.2197 -0.6619  0.1215
 3234poe    c2317206   1.456   5.712   6.546 -0.1096 -0.1999 -0.0819
 3234poe     o217207   1.462   5.852   6.532 -0.5492 -0.1378  0.3113
 3234poe    c3117208   1.554   5.906   6.625  0.0271 -0.2753 -0.1717
 3235poe    c3117209   4.454   1.364   0.029  0.5553 -0.2915  0.3791
 3235poe     o217210   4.535   1.283   0.112  0.1847 -0.8467  0.2030
 3235poe    c2317211   4.513   1.300   0.250 -0.8460  0.0215 -0.0548
 3235poe    c2317212   4.593   1.192   0.325 -0.3485  0.4956  0.0990
 3235poe     o217213   4.733   1.197   0.311 -0.3124 -0.2337  0.1650
 3235poe    c2317214   4.796   1.078   0.351 -0.0471  0.0205  0.5138
 3235poe    c2317215   4.950   1.080   0.356 -0.0271  0.4123 -0.1822
 3235poe     o217216   4.993   1.084   0.222 -0.2421  0.4399 -0.2506
 3235poe    c2317217   5.127   1.127   0.226 -0.1169 -0.0037  0.4477
 3235poe    c2317218   5.188   1.197   0.104 -0.3644 -0.4747  0.0522
 3235poe     o217219   5.240   1.118  -0.001 -0.3064 -0.3702  0.0014
 3235poe    c3117220   5.366   1.066   0.033 -0.1934 -0.0787  0.0276
 3236poe    c3117221   5.708   3.625   1.968  0.2885 -0.5761  0.1880
 3236poe     o217222   5.571   3.612   1.936  0.3655  0.1341 -0.4696
 3236poe    c2317223   5.525   3.485   1.975  0.3140  0.1484 -0.4840
 3236poe    c2317224   5.371   3.489   1.985  0.2962 -0.6084 -0.3903
 3236poe     o217225   5.327   3.540   1.861 -0.0710 -0.1856 -0.0867
 3236poe    c2317226   5.191   3.507   1.841 -0.2155  0.5849 -0.4086
 3236poe    c2317227   5.167   3.580   1.708 -0.0263  0.5573 -0.4582
 3236poe     o217228   5.247   3.694   1.686  0.4243  0.2208 -0.5952
 3236poe    c2317229   5.178   3.774   1.592 -0.1668  0.4075 -0.0142
 3236poe    c2317230   5.229   3.760   1.447  0.0756 -0.4327  0.1468
 3236poe     o217231   5.362   3.802   1.426 -0.3983  1.0218  0.0018
 3236poe    c3117232   5.406   3.788   1.293 -0.2067  0.4218  0.1252
 3237poe    c3117233   1.031   1.217   4.982 -0.2585 -0.1351  0.2043
 3237poe     o217234   1.132   1.316   4.987 -0.3854 -0.0295  0.7709
 3237poe    c2317235   1.100   1.453   4.994  0.4374  0.1830  0.4424
 3237poe    c2317236   1.054   1.498   5.134  0.0483 -0.3091  0.4718
 3237poe     o217237   1.157   1.527   5.224  0.3293  0.2307 -0.0211
 3237poe    c2317238   1.108   1.601   5.334  0.4614  0.0577  0.1540
 3237poe    c2317239   1.211   1.700   5.391  0.3846  0.4799 -0.4439
 3237poe     o217240   1.324   1.639   5.449  0.2664  0.4281 -0.2692
 3237poe    c2317241   1.398   1.741   5.513  0.0301  0.0650  0.6016
 3237poe    c2317242   1.539   1.712   5.458 -0.2811 -0.3801  0.0138
 3237poe     o217243   1.549   1.747   5.322 -0.2813  0.1070  0.1368
 3237poe    c3117244   1.683   1.784   5.294 -0.4003  0.2286 -0.2830
 3238poe    c3117245   4.782   3.699   0.740 -0.1248  0.1853  0.5855
 3238poe     o217246   4.819   3.565   0.717 -0.0187  0.3661 -0.3218
 3238poe    c2317247   4.914   3.554   0.613  0.3856 -0.2738  0.1063
 3238poe    c2317248   4.942   3.403   0.597  0.3936 -0.1586 -1.0950
 3238poe     o217249   4.817   3.343   0.617  0.4869 -0.1099 -0.3196
 3238poe    c2317250   4.816   3.205   0.587  0.0129 -0.1760 -0.0163
 3238poe    c2317251   4.745   3.130   0.701  0.1670 -0.4345 -0.0918
 3238poe     o217252   4.614   3.179   0.711  0.2573 -0.2216  0.0618
 3238poe    c2317253   4.538   3.110   0.808  0.4679 -0.3377  0.1461
 3238poe    c2317254   4.427   3.201   0.865  0.3482 -0.0222 -0.5762
 3238poe     o217255   4.479   3.325   0.905  0.0838 -0.2706  0.6036
 3238poe    c3117256   4.390   3.419   0.960 -0.1275  0.0578 -0.2747
 3239poe    c3117257   5.143   4.877   4.802  0.0956  0.0625 -0.9093
 3239poe     o217258   5.103   4.898   4.668 -0.2164  0.0466 -0.8188
 3239poe    c2317259   4.999   4.815   4.621 -0.3683 -0.3202  0.1368
 3239poe    c2317260   4.997   4.821   4.467  0.3282  0.2399  0.1404
 3239poe     o217261   5.086   4.734   4.400 -0.0009 -0.0107  0.0231
 3239poe    c2317262   5.036   4.609   4.359  0.0761 -0.0383  0.0163
 3239poe    c2317263   5.158   4.530   4.307  0.1105 -0.2559  0.4250
 3239poe     o217264   5.261   4.556   4.400  0.1615  0.5667  0.1491
 3239poe    c2317265   5.378   4.492   4.353 -0.1318  0.0450  0.1222
 3239poe    c2317266   5.507   4.552   4.410 -0.2722  0.1146  0.3692
 3239poe     o217267   5.513   4.692   4.397 -0.4081  0.0468 -0.4316
 3239poe    c3117268   5.647   4.733   4.403 -0.2775 -0.4237 -0.0905
 3240poe    c3117269   6.419   6.200   0.949  0.2718 -0.4062  0.0080
 3240poe     o217270   6.319   6.204   1.048  0.1943  0.0317 -0.0860
 3240poe    c2317271   6.376   6.257   1.166  0.7672  0.0572 -0.3697
 3240poe    c2317272   6.394   6.407   1.197 -0.3691  0.1908 -0.3313
 3240poe     o217273   6.278   6.479   1.232 -0.4503 -0.0841 -0.0257
 3240poe    c2317274   6.322   6.611   1.253  0.1500 -0.3122  0.1429
 3240poe    c2317275   6.221   6.689   1.340  0.2724  0.0381 -0.0289
 3240poe     o217276   6.086   6.700   1.302  0.2764 -0.4690 -0.2051
 3240poe    c2317277   6.060   6.763   1.179 -0.4922 -0.1359  0.1206
 3240poe    c2317278   5.909   6.777   1.152 -0.3521  0.0122 -0.6200
 3240poe     o217279   5.855   6.652   1.114  0.4830 -0.4100 -0.4287
 3240poe    c3117280   5.731   6.676   1.051  0.2881 -0.9205 -0.2445
 3241lim     li17281   0.134   0.141   5.690  0.5387  0.5993  0.5134
 3242lim     li17282   3.161   2.340   6.311  0.3537 -0.1442  0.0618
 3243lim     li17283   1.270   1.089   6.569 -0.2078  0.8845 -0.0005
 3244lim     li17284   2.438   0.500   5.046 -0.2749 -0.9230  0.6037
 3245lim     li17285   3.643   5.285   6.005  0.0535 -0.5968  0.3470
 3246lim     li17286   4.484   4.575   0.193 -1.5008  0.1015 -0.0705
 3247lim     li17287   3.054   1.786   2.120 -0.2804 -0.4877 -0.2244
 3248lim     li17288   5.397   0.037   0.303  0.8561  0.2881 -0.2026
 3249lim     li17289   6.052   1.754   6.741  0.4571 -0.3182 -0.4354
 3250lim     li17290   2.305   3.835   1.585 -0.3580  0.6027 -0.4706
 3251lim     li17291   5.808   0.018   3.626  0.0933 -0.3843  0.6842
 3252lim     li17292   0.254   4.725   1.630  0.9859 -1.1143  0.2529
 3253lim     li17293   3.976   2.787   4.460  1.3339  0.1267 -0.1633
 3254lim     li17294   0.678   5.241   3.450  0.1562 -1.6846 -1.0432
 3255lim     li17295   0.016   2.738   4.982  0.5978  0.5976  0.1671
 3256lim     li17296   5.488   4.838   5.863 -0.9654  0.3197  0.2001
 3257lim     li17297   1.777   6.764   2.989  0.6712 -0.3346  0.0169
 3258lim     li17298   5.486   0.675   5.723 -0.1691  0.0901  0.0593
 3259lim     li17299   4.005   3.386   1.261 -0.3359  0.7100 -0.3659
 3260lim     li17300   1.585   0.475   3.597 -0.4849  0.6585 -0.0187
 3261lim     li17301   1.326   2.471   4.537  0.1939  0.6491 -0.4087
 3262lim     li17302   4.099   4.237   3.506 -0.4847 -0.7667 -0.2365
 3263lim     li17303   4.621   4.065   0.900 -0.2443 -0.7438  0.4343
 3264lim     li17304   6.939   0.474   1.262  0.4947  0.2551  0.5514
 3265lim     li17305   1.395   6.500   0.366 -0.4214  0.2511 -0.1075
 3266lim     li17306   0.697   6.541   7.109  0.2174  0.2240  0.1185
 3267lim     li17307   1.608   4.585   3.885  0.6939 -0.0435 -0.2520
 3268lim     li17308   4.223   6.317   5.132  0.3623  0.5392  0.0551
 3269lim     li17309   1.276   0.375   4.925  0.1897  0.5273  0.4276
 3270lim     li17310   5.513   5.567   5.109  1.2903 -0.1503  0.2667
 3271lim     li17311   0.465   1.487   6.378  0.3934  0.2775 -0.3424
 3272lim     li17312   2.260   6.035   4.737 -0.0153  0.5624  0.9512
 3273lim     li17313   2.636   3.463   5.390 -0.0299 -0.4648  0.0361
 3274lim     li17314   5.714   2.614   0.745  0.1972 -0.5457 -0.4627
 3275lim     li17315   6.412   5.417   5.283 -0.3089  0.5039  0.1850
 3276lim     li17316   6.277   3.298   2.455 -0.6057 -0.3411 -0.4749
 3277lim     li17317   6.466   2.429   3.994 -0.7457 -0.5453  0.3872
 3278lim     li17318   4.412   1.190   1.902  0.6563  0.5241 -0.6924
 3279lim     li17319   5.771   4.895   2.206  0.4021  0.7702  1.2350
 3280lim     li17320   4.493   5.086   4.865  0.3331  1.2490  0.8403
 3281lim     li17321   5.613   4.525   6.745  0.6486  0.2756 -1.5588
 3282lim     li17322   4.681   4.857   2.452  1.0535  0.0310  0.4323
 3283lim     li17323   5.759   4.143   4.356 -0.1735  2.1427  0.6350
 3284lim     li17324   0.018   1.709   5.481 -1.0952 -0.1205  0.3971
 3285lim     li17325   3.312   4.921   2.481 -0.8002 -0.3650 -0.1360
 3286lim     li17326   0.844   0.263   1.865 -0.1542 -0.9164 -0.6651
 3287lim     li17327   4.321   4.453   6.116 -0.0172 -0.0880 -0.1916
 3288lim     li17328   6.492   2.203   2.243 -0.9858  0.6008 -0.2579
 3289lim     li17329   3.429   6.710   4.345 -0.1214 -0.4791  0.3688
 3290lim     li17330   1.384   4.644   1.404  0.2026 -0.5760  1.4547
 3291lim     li17331   0.145   0.147   6.470 -0.7802 -0.5420  0.4674
 3292lim     li17332   5.727   3.387   3.490  0.1064  0.6981  0.9953
 3293lim     li17333   1.935   5.364   6.573 -1.1147  0.6407  0.1190
 3294lim     li17334   0.620   5.750   6.789  0.7627  0.0982  0.5637
 3295lim     li17335   5.841   3.660   4.690  0.3976 -0.9407  0.6612
 3296lim     li17336   4.469   0.371   2.357 -0.1322 -0.2227  0.4464
 3297lim     li17337   4.961   7.170   6.280  0.0412 -0.2110  0.1205
 3298lim     li17338   3.251   4.998   1.202  0.2941  1.2085  0.2080
 3299lim     li17339   6.851   5.294   1.710  1.0137 -0.0406  0.0712
 3300lim     li17340   0.429   3.465   1.304 -1.0335  0.0263 -0.9530
 3301lim     li17341   6.762   4.624   7.030 -0.6898 -0.2789 -0.0594
 3302lim     li17342   5.153   4.817   5.351  0.0244  0.5973 -0.4825
 3303lim     li17343   1.008   3.741   3.305 -0.6658  0.5203  1.5320
 3304lim     li17344   6.727   3.431   6.458 -0.8983 -0.1354  0.4390
 3305lim     li17345   2.105   0.913   7.082  0.8661 -0.3199 -0.4563
 3306lim     li17346   6.208   6.332   6.010  0.3372  0.0447  1.0176
 3307lim     li17347   2.704   7.074   3.794  0.1950  0.4630 -0.6459
 3308lim     li17348   4.370   1.874   3.408  0.8142  0.0151 -0.2710
 3309lim     li17349   0.712   3.449   2.037  0.6054 -0.8550  0.1959
 3310lim     li17350   2.701   2.578   4.487  0.2856 -0.7174  0.5129
 3311lim     li17351   2.552   3.537   3.091  0.1989 -0.4531  0.7083
 3312lim     li17352   4.738   5.761   0.329  0.5270 -0.4883 -0.1857
 3313lim     li17353   0.136   5.346   7.149 -0.1786  1.1057 -0.5706
 3314lim     li17354   2.145   3.689   5.971 -0.4693  0.5214  0.0684
 3315lim     li17355   0.249   1.689   4.886 -0.5393 -0.5351  0.2121
 3316lim     li17356   0.299   4.276   3.070  1.1002  0.0711  0.8545
 3317lim     li17357   1.010   1.980   5.701 -0.0971  0.1254  1.3488
 3318lim     li17358   4.681   1.385   3.929 -1.0574 -0.5191 -0.6733
 3319lim     li17359   5.160   4.658   1.147  0.5262 -0.1774  0.1395
 3320lim     li17360   7.057   2.219   3.539  0.6091 -0.6716  0.6049
 3321lim     li17361   3.718   5.530   0.874  0.2560 -0.3124 -0.4874
 3322lim     li17362   3.848   3.067   3.586  0.5059  0.3427 -0.4001
 3323lim     li17363   0.587   5.737   0.996  0.1899 -0.9999 -1.0239
 3324lim     li17364   4.142   4.764   7.070 -1.7674  0.1194  0.2837
 3325lim     li17365   4.713   5.184   1.234  0.0314  0.1824 -1.0007
 3326lim     li17366   3.055   2.909   6.674  0.9217 -0.4180 -0.8520
 3327lim     li17367   6.894   6.920   0.907 -1.2107 -0.2578 -0.3552
 3328lim     li17368   0.068   0.288   3.336 -0.7532  0.1499 -0.0708
 3329lim     li17369   5.627   6.505   5.560 -1.2595 -0.5677  0.4803
 3330lim     li17370   6.792   5.535   4.257  0.2709 -0.8074 -0.1192
 3331lim     li17371   1.988   4.724   1.578 -0.0208  0.8572 -0.3410
 3332lim     li17372   6.641   0.109   2.468  1.0835  0.3424  1.2465
 3333lim     li17373   6.725   5.831   2.697 -1.2853 -0.0684  0.3519
 3334lim     li17374   1.368   3.807   4.727 -0.6196 -0.1365 -0.5763
 3335lim     li17375   3.825   6.896   3.149 -0.6381  1.1110  0.1546
 3336lim     li17376   0.242   3.896   6.804 -0.3492 -0.6640 -0.2842
 3337lim     li17377   6.532   6.483   7.050  0.1444  0.3324 -0.0010
 3338lim     li17378   1.241   6.152   6.326 -0.6881  0.5430  0.1317
 3339lim     li17379   4.760   3.665   4.063  0.2877 -1.1448  0.3970
 3340lim     li17380   1.867   0.583   3.037 -0.1726 -0.1886  0.1481
 3341lim     li17381   2.035   5.408   5.205 -0.0944 -0.3341  0.4992
 3342lim     li17382   0.603   2.919   2.465 -1.2511 -0.2358  0.7011
 3343lim     li17383   5.178   6.475   2.152 -0.3848 -0.1088 -0.6105
 3344lim     li17384   5.028   1.221   1.038  0.1248 -0.9906  0.9033
 3345lim     li17385   5.403   3.094   3.794  0.0896 -0.2091 -0.4073
 3346lim     li17386   0.950   7.072   1.152 -0.0957 -0.4322 -0.1910
 3347lim     li17387   5.088   5.436   4.258 -0.8027 -0.0198 -0.4177
 3348lim     li17388   1.194   6.842   2.939  0.5876 -0.1199  0.7087
 3349lim     li17389   6.674   1.298   6.739 -0.2896  0.1318  1.4339
 3350lim     li17390   5.504   4.279   6.045 -0.3083  1.4229 -1.2786
 3351lim     li17391   2.148   5.954   6.971 -1.2588 -0.0963  0.3914
 3352lim     li17392   0.299   4.017   0.856 -0.2439 -0.8729  0.6262
 3353lim     li17393   4.841   6.988   6.999  0.1962 -0.3856 -0.2272
 3354lim     li17394   2.986   6.664   1.039 -0.7418 -0.1872 -0.6556
 3355lim     li17395   5.991   6.228   3.201 -0.1824 -0.0604 -0.5347
 3356lim     li17396   0.707   0.387   0.388 -0.9540  1.5159 -0.7572
 3357lim     li17397   2.113   7.155   4.148 -0.1728  0.0684  0.3035
 3358lim     li17398   5.829   2.538   6.514  0.0453 -0.0611 -0.1324
 3359lim     li17399   2.994   6.091   4.931  1.1834 -0.9035 -0.4443
 3360lim     li17400   4.898   7.150   4.554 -0.7821  0.0738 -0.5548
 3361lim     li17401   7.162   0.455   5.200  0.4064  0.7274  0.7637
 3362lim     li17402   0.766   2.661   6.588 -0.2139 -0.1563  0.6794
 3363lim     li17403   6.124   2.076   3.531 -0.6291 -0.0057  0.0976
 3364lim     li17404   7.182   4.555   0.826  1.0602 -1.3032  0.7653
 3365lim     li17405   3.090   1.206   6.140  0.3638  0.9233  0.4176
 3366lim     li17406   0.556   1.663   0.682  0.9909 -0.3069  0.1597
 3367lim     li17407   3.319   5.531   1.678 -0.8410  0.4883 -0.0143
 3368lim     li17408   4.798   5.212   6.490 -0.0036 -0.3138 -0.0813
 3369lim     li17409   4.868   3.463   2.459 -0.4424 -0.1070 -0.1366
 3370lim     li17410   0.383   5.561   2.497  0.5156  0.2144  0.4747
 3371lim     li17411   1.215   3.053   7.015 -0.1702  0.5083  0.7239
 3372lim     li17412   0.728   6.631   5.401 -1.2223  0.0151 -0.3269
 3373lim     li17413   0.314   6.907   0.053 -1.1561  0.4382 -0.3752
 3374lim     li17414   1.613   2.587   0.924 -0.1615 -0.3425 -0.8867
 3375lim     li17415   4.348   5.132   3.800 -0.2553 -0.7632 -0.5629
 3376lim     li17416   0.108   6.590   3.267 -0.2823 -0.5010  0.0807
 3377lim     li17417   2.503   2.897   5.839 -0.2559  0.5081  0.6386
 3378lim     li17418   2.733   2.504   2.746  0.7114 -0.3963 -0.5985
 3379lim     li17419   6.360   6.931   6.182  0.1197 -0.3293  0.9675
 3380lim     li17420   1.879   4.259   5.729  0.2793 -0.3591  0.5945
 3381lim     li17421   5.320   6.753   1.182  0.2781  0.2160 -0.4233
 3382lim     li17422   6.131   6.258   1.762  0.1283  0.5153  0.3563
 3383lim     li17423   0.861   4.532   6.459 -0.9988  1.3656 -0.0333
 3384lim     li17424   1.055   6.370   3.754 -0.6525 -0.0669  0.1186
 3385lim     li17425   1.620   2.093   3.314 -0.1651 -0.4904 -0.5038
 3386lim     li17426   6.411   0.667   0.312 -0.4008 -0.8036  0.2375
 3387lim     li17427   0.348   4.674   4.225 -0.1118 -0.4149 -0.2018
 3388lim     li17428   4.688   6.272   1.702 -0.9983  0.5595  1.2249
 3389lim     li17429   1.125   5.183   6.696 -0.9511 -0.2034 -0.3568
 3390lim     li17430   5.215   1.279   1.978 -0.2049  0.8269 -0.0895
 3391lim     li17431   6.799   6.700   2.225  0.0592  0.5160 -0.3853
 3392lim     li17432   4.371   3.998   2.243  0.7274 -0.1223 -1.1184
 3393lim     li17433   0.731   6.606   2.611  0.7666 -0.1564  0.5165
 3394lim     li17434   6.888   6.768   2.956 -0.7329  0.3346 -0.5599
 3395lim     li17435   3.395   1.372   6.547  0.2255  0.4475  0.0064
 3396lim     li17436   1.513   2.237   2.685  0.5238  0.8230  1.4811
 3397lim     li17437   3.679   1.375   3.091 -0.0800 -0.4086  0.8061
 3398lim     li17438   1.699   0.961   2.366 -0.4786  0.3010  0.1050
 3399lim     li17439   4.438   0.751   5.573 -0.1767  1.7724 -0.5970
 3400lim     li17440   6.821   4.514   4.888  0.7296 -0.4795 -0.8096
 3401lim     li17441   5.594   2.344   4.995 -1.0561  0.5196 -0.6497
 3402lim     li17442   3.389   6.282   0.449 -0.5937  0.3841 -0.3093
 3403lim     li17443   6.423   2.122   1.363 -1.3046  0.2567  0.0686
 3404lim     li17444   5.330   5.602   1.701 -1.4420 -1.1710 -0.6998
 3405lim     li17445   3.501   3.230   4.184 -0.3566 -0.2757 -0.0067
 3406lim     li17446   3.684   5.848   2.525  0.0584  0.5223  0.5754
 3407lim     li17447   3.738   3.052   2.084 -0.8565  0.5898  0.0575
 3408lim     li17448   4.692   1.515   0.580 -0.5212  0.1650 -0.1425
 3409lim     li17449   7.158   2.661   1.903 -1.1630  0.8054  0.1101
 3410lim     li17450   5.262   4.158   0.007  0.6640  1.0840  0.1350
 3411lim     li17451   1.237   2.683   1.772  0.8246  0.4014 -0.7149
 3412lim     li17452   3.992   7.067   1.155 -0.0544 -0.5669  0.4294
 3413lim     li17453   1.819   1.945   1.186 -0.1651 -0.1110  1.4230
 3414lim     li17454   5.927   6.576   5.114 -0.3709 -0.0098  0.2901
 3415lim     li17455   2.702   6.894   0.037 -0.5103 -0.2100  1.0729
 3416lim     li17456   0.189   3.497   3.915 -0.0468 -0.5309 -0.5932
 3417lim     li17457   3.811   5.526   3.072  1.1392  0.4705 -0.8320
 3418lim     li17458   3.459   4.820   6.635  0.0247  0.4063  0.6019
 3419lim     li17459   4.014   4.235   4.196 -0.2914  0.9439 -0.0829
 3420lim     li17460   3.622   6.367   4.848 -0.5662 -0.3614  0.1745
 3421lim     li17461   2.239   6.991   6.179 -0.3126 -0.1041  0.1114
 3422lim     li17462   3.837   2.398   4.720  0.6103 -0.0899 -0.5442
 3423lim     li17463   2.692   4.834   7.032  0.4524  0.6673 -0.1795
 3424lim     li17464   4.837   3.395   1.459  1.2359  0.1581 -1.0473
 3425lim     li17465   3.932   2.570   0.649 -0.1921  0.5897 -0.1009
 3426lim     li17466   6.715   4.240   6.193  0.6309 -0.3083  1.2563
 3427lim     li17467   0.003   5.712   0.778 -1.1763 -0.8175 -0.3661
 3428lim     li17468   1.340   5.219   0.440  0.7935  0.1265 -0.4531
 3429lim     li17469   3.807   2.256   0.085  0.0616 -1.0520 -0.6422
 3430lim     li17470   1.833   3.276   2.314  0.4546  0.0591  0.0096
 3431lim     li17471   3.441   4.756   0.404 -0.1248 -0.7171  0.1451
 3432lim     li17472   0.713   5.569   5.655  0.5678  0.4575  0.1348
 3433lim     li17473   5.121   2.045   1.725  0.8059 -0.4969  0.7281
 3434lim     li17474   0.851   6.040   2.365  0.2159  0.1164  0.8685
 3435lim     li17475   0.115   1.789   6.683  0.2997 -0.0442  0.5958
 3436lim     li17476   4.426   0.912   1.371 -0.0907 -0.0026  0.2489
 3437lim     li17477   5.293   4.516   2.308  0.4407  1.3719 -1.0375
 3438lim     li17478   2.163   5.694   1.495  0.8129  0.7852  0.3373
 3439lim     li17479   4.944   2.395   1.354  0.4341  0.2920 -0.3712
 3440lim     li17480   2.058   7.172   4.774  0.8099  0.7741 -0.7819
 3441lim     li17481   3.619   3.762   2.461 -0.5096  0.4672  0.6160
 3442lim     li17482   0.101   3.198   2.985  0.1743 -0.0189 -0.5405
 3443lim     li17483   4.142   5.897   5.506  0.3859 -0.8196 -0.4722
 3444lim     li17484   6.249   0.199   6.576 -0.0476 -1.0315 -0.5223
 3445lim     li17485   0.003   4.347   5.913  0.7245 -0.7192  1.4660
 3446lim     li17486   6.603   5.564   7.094 -0.0804 -0.1801 -0.0300
 3447lim     li17487   5.092   5.267   3.202  0.0206 -0.3314  0.3658
 3448lim     li17488   4.956   3.567   5.670 -0.5087 -0.5744 -0.4938
 3449lim     li17489   4.847   6.745   3.975 -0.7097 -0.5934 -0.0710
 3450lim     li17490   6.910   1.692   0.709 -0.1010 -0.0967  0.1356
 3451lim     li17491   0.996   4.778   1.868  0.1611  0.0378  0.2455
 3452lim     li17492   2.607   5.966   6.330 -0.4289 -0.4274 -0.1927
 3453lim     li17493   5.773   4.041   1.543 -0.3191  1.3649 -0.0555
 3454lim     li17494   2.934   0.745   1.599 -0.3859 -0.4642 -0.7125
 3455lim     li17495   5.895   0.712   2.140 -0.5787  0.7003 -0.5636
 3456lim     li17496   2.244   3.273   4.903  0.1846 -0.6241 -0.4864
 3457lim     li17497   2.132   4.454   4.753  0.0126 -0.6049 -0.7232
 3458lim     li17498   6.430   0.562   4.203 -0.5583  1.3763 -0.6424
 3459lim     li17499   6.603   1.999   5.070  0.5447  0.1167 -0.3986
 3460lim     li17500   6.644   1.800   6.154 -0.7007 -0.0302 -0.1253
 3461lim     li17501   6.259   0.930   1.991 -0.3150  0.8276 -0.6910
 3462lim     li17502   6.203   5.224   2.986 -0.4416 -0.1389 -1.3012
 3463lim     li17503   5.411   0.117   2.146 -0.6441  1.0276 -0.8326
 3464lim     li17504   1.190   1.433   2.546  0.6418  1.1468 -0.1390
 3465lim     li17505   4.990   2.048   2.527 -0.2538  0.4753 -0.4395
 3466lim     li17506   3.775   1.645   6.900  0.1359  0.1676 -0.8185
 3467lim     li17507   2.541   5.809   3.517 -0.0316  0.0428  0.3507
 3468lim     li17508   0.968   2.622   5.314 -0.3264  0.1371  0.3994
 3469lim     li17509   1.048   4.050   1.486 -0.7691 -0.5266 -0.3224
 3470lim     li17510   7.131   1.033   2.748 -0.6313 -0.3634 -0.2586
 3471lim     li17511   5.987   3.189   1.081 -0.3903  0.2780  0.6685
 3472lim     li17512   4.077   1.782   4.270 -0.3864  0.1508 -0.3248
 3473lim     li17513   6.826   5.613   5.884 -0.7202  0.4547 -0.2880
 3474lim     li17514   6.190   2.848   5.574 -0.1925  0.7200 -0.7582
 3475lim     li17515   0.747   2.316   3.528 -0.6499 -0.3310 -0.2761
 3476lim     li17516   2.864   1.194   5.157  0.2206 -0.2304  0.5526
 3477lim     li17517   2.237   2.348   0.277  1.0395  0.3145 -0.3644
 3478lim     li17518   0.249   3.046   5.301 -0.2217 -0.4821 -0.1269
 3479lim     li17519   0.202   2.996   6.035 -0.5534  0.7359 -0.0843
 3480lim     li17520   2.049   4.186   2.271 -0.1714 -0.3784 -0.2440
 3481lim     li17521   5.424   3.409   0.458 -0.2619  0.3882  1.5022
 3482lim     li17522   2.383   4.386   1.584  0.3296 -0.5545  0.7433
 3483lim     li17523   5.221   1.679   5.912 -0.2963 -0.3997  1.4026
 3484lim     li17524   1.450   5.353   2.209  0.0236 -1.2338 -1.7908
 3485lim     li17525   1.187   6.850   5.111 -0.3990  0.9523  1.7378
 3486lim     li17526   6.620   5.289   3.583 -0.0646  0.5415  1.3081
 3487lim     li17527   6.191   3.344   4.675  1.2676 -0.6103 -0.0429
 3488lim     li17528   1.643   3.305   1.172 -0.0154 -0.3967  1.0545
 3489lim     li17529   5.419   5.897   6.861  0.0090  0.9936  0.9257
 3490lim     li17530   3.171   6.568   3.125 -0.2012  1.1822  0.6588
 3491lim     li17531   6.663   1.398   2.252 -0.0012  0.9063  0.5330
 3492lim     li17532   7.089   2.571   6.284 -0.0943 -0.8570 -0.3326
 3493lim     li17533   2.646   6.514   4.000 -1.7099 -0.3942 -0.4930
 3494lim     li17534   6.392   4.616   2.376 -1.0539 -0.6023  0.0005
 3495lim     li17535   6.544   4.189   2.020  0.3465  0.2072  0.2893
 3496lim     li17536   3.390   2.060   3.905 -0.4566  0.7917  0.0532
 3497lim     li17537   4.234   0.804   6.438 -0.5425  0.5147 -0.3925
 3498lim     li17538   5.879   1.643   0.190  0.4833  0.9415  1.1493
 3499lim     li17539   2.773   0.746   0.526  0.3535 -1.2045  0.3996
 3500lim     li17540   0.444   4.580   3.694 -0.0834  0.1525 -0.5702
 3501lim     li17541   2.309   6.922   0.364 -0.7577  0.0792  0.4358
 3502lim     li17542   0.100   2.598   0.230 -0.0738 -0.1549  0.5908
 3503lim     li17543   0.427   1.010   3.430  0.3907 -0.3627  0.1409
 3504lim     li17544   2.877   1.545   0.990 -0.5953 -0.9904 -0.1289
 3505lim     li17545   6.835   3.567   4.906 -0.9127 -0.2805 -0.5816
 3506lim     li17546   7.114   4.166   2.501  1.0353  0.7954  0.5559
 3507lim     li17547   1.808   5.850   4.061 -0.2507  0.4901  0.4426
 3508lim     li17548   5.390   3.693   1.795  0.0484 -0.7672 -0.2434
 3509lim     li17549   1.721   4.057   2.856  0.2582  0.0152 -0.0067
 3510lim     li17550   1.103   3.306   3.454  0.3760  1.6147  0.3352
 3511lim     li17551   4.617   1.735   6.128  0.2187 -0.3330  0.1295
 3512lim     li17552   2.967   5.218   4.084 -0.1959  0.3532  0.5655
 3513lim     li17553   3.970   1.916   1.176  0.0672  0.0961 -0.4046
 3514lim     li17554   1.611   6.340   1.575 -0.5743 -0.3195  0.3241
 3515lim     li17555   3.310   0.745   2.873  0.2707  0.7841 -0.2529
 3516lim     li17556   0.635   4.812   5.299  0.2439  0.6746  0.3262
 3517lim     li17557   2.943   3.334   0.392  0.6690  0.1448  0.5323
 3518lim     li17558   2.249   1.885   5.347  0.0552  0.6537 -0.0349
 3519lim     li17559   1.294   4.698   4.571  0.5683 -1.6031  0.1886
 3520lim     li17560   1.592   0.959   5.478  0.8230  0.1565  0.5763
 3521lim     li17561   3.981   3.711   6.769 -0.1565 -0.2235  0.7934
 3522lim     li17562   3.485   0.446   2.192 -1.1947  0.3780 -1.7573
 3523lim     li17563   5.461   5.434   2.203 -0.9062  0.0903 -0.6099
 3524lim     li17564   3.149   3.586   3.438  0.8801 -1.0060  0.6794
 3525lim     li17565   1.275   0.038   0.592 -1.1735  0.3492  0.1423
 3526lim     li17566   5.713   2.989   7.088  0.3364  0.0582  0.3146
 3527lim     li17567   3.145   0.674   6.939  0.5800  0.1753  0.2666
 3528lim     li17568   6.451   5.396   6.504  0.1223  0.7800 -1.1002
 3529lim     li17569   1.827   0.597   0.452  0.6474  0.0109 -0.8181
 3530lim     li17570   3.813   5.910   6.926 -0.3576 -0.7055 -1.2755
 3531lim     li17571   4.739   3.695   5.174 -1.0742 -0.2988 -1.1655
 3532lim     li17572   1.573   5.166   4.941 -0.3899  0.0732 -0.1565
 3533lim     li17573   4.019   2.781   6.037  1.0661  0.4028  0.4703
 3534lim     li17574   3.808   1.142   5.084  0.4976  0.0793  0.3741
 3535lim     li17575   4.396   5.242   6.029  0.3655 -1.0704  1.1410
 3536lim     li17576   1.874   3.335   4.340  0.1514  0.3680  0.0356
 3537lim     li17577   4.049   6.475   2.345  0.8831 -0.0756 -0.8806
 3538lim     li17578   2.741   2.313   1.251  0.0952  0.1200 -0.0114
 3539lim     li17579   1.680   2.867   5.319 -0.0825 -0.8574  0.9917
 3540lim     li17580   5.207   5.737   6.037 -0.2196  0.1025  1.0104
 3541lim     li17581   2.331   4.927   3.249  1.0662  0.0686  0.1975
 3542lim     li17582   4.849   6.461   0.878 -0.7226 -0.2619  1.0416
 3543lim     li17583   3.427   5.032   5.155  0.3504 -0.2054  0.1461
 3544lim     li17584   6.795   5.267   2.541  0.1468  1.1539  0.1356
 3545lim     li17585   3.633   0.317   4.433 -0.1900 -0.3882 -1.6694
 3546lim     li17586   0.360   2.702   0.853  0.5287 -0.9925 -0.1385
 3547lim     li17587   7.027   5.705   1.286 -0.0483 -0.0644  0.2226
 3548lim     li17588   6.246   0.968   5.382 -0.0461  0.3244 -0.6554
 3549lim     li17589   4.187   3.451   3.134 -0.1175 -0.5637  0.8888
 3550lim     li17590   1.326   4.343   0.593  0.0863 -0.0205 -0.1071
 3551lim     li17591   2.801   0.791   3.793  0.8249 -0.0616 -0.1732
 3552lim     li17592   6.716   4.303   3.634 -0.1236 -0.4853 -1.3855
 3553lim     li17593   5.212   7.000   3.747 -0.5879 -0.0170  0.3342
 3554lim     li17594   0.692   6.369   6.317  0.2677 -0.4693  0.1244
 3555lim     li17595   4.285   5.632   2.091  0.3894  0.1638 -0.3474
 3556lim     li17596   3.701   0.041   5.765  1.4732  0.7560 -0.0448
 3557lim     li17597   4.933   1.710   2.977  0.1899 -0.1582 -0.3998
 3558lim     li17598   0.769   1.788   2.348 -0.0299  0.5205  0.0325
 3559lim     li17599   0.017   6.809   6.145 -0.5149 -1.2433  0.5696
 3560lim     li17600   4.568   0.726   0.075  0.6366 -0.3910  0.7195
 3561lim     li17601   1.457   0.788   3.293  0.1330  0.1877 -0.7804
 3562lim     li17602   4.644   4.197   4.928  0.9846  0.4960  0.0981
 3563lim     li17603   0.079   6.100   5.235  0.0445  0.5007 -0.2583
 3564lim     li17604   0.068   6.449   1.801  0.1080 -1.6677 -0.1734
 3565lim     li17605   2.983   6.678   1.620 -0.0355  0.8791  0.3074
 3566lim     li17606   1.563   5.453   3.157  0.0920 -0.6351  0.5156
 3567lim     li17607   6.139   3.709   3.570  0.0975 -0.2275  0.9927
 3568lim     li17608   5.360   1.745   5.406  0.5180 -0.4467  1.6927
 3569lim     li17609   2.689   1.590   7.175  0.8218 -0.4826 -0.0787
 3570lim     li17610   3.973   4.429   1.731  0.0443 -0.4738 -0.9722
 3571lim     li17611   3.571   6.748   6.242 -0.1957  0.5187 -0.2584
 3572lim     li17612   5.726   5.030   4.075  0.2587  0.4185  0.8327
 3573lim     li17613   5.980   4.741   6.003 -0.9228  0.1311 -0.4514
 3574lim     li17614   4.263   5.491   0.089  0.1285 -0.6249 -0.1591
 3575lim     li17615   6.595   3.431   1.651 -0.8721 -0.1617  0.2015
 3576lim     li17616   3.015   4.846   1.848 -0.6433 -0.4526  0.4640
 3577lim     li17617   0.645   0.644   5.828 -0.4536  0.5421 -0.2350
 3578lim     li17618   0.443   6.689   4.310  0.1942  0.2445  1.2690
 3579lim     li17619   6.236   2.875   4.252 -0.1303 -0.0689  0.6871
 3580lim     li17620   6.165   6.137   1.030 -0.1629 -1.1450 -0.3617
 3581lim     li17621   6.665   6.949   3.982 -0.5700  0.3246 -0.6273
 3582lim     li17622   2.396   2.641   1.323  0.1464  0.4455  0.1103
 3583lim     li17623   6.498   2.712   3.026  0.1184 -0.3112  0.1496
 3584lim     li17624   1.120   5.600   3.622  0.1459  0.9200 -0.4714
 3585lim     li17625   0.075   2.633   4.285  0.1927 -0.2538 -0.0095
 3586lim     li17626   4.265   0.007   4.786  0.1475 -0.3402  1.2971
 3587lim     li17627   5.180   1.021   3.137  0.2250 -0.0662  0.2449
 3588lim     li17628   4.141   5.682   4.191  0.4320 -0.1417 -0.4496
 3589lim     li17629   4.831   2.886   3.991 -0.2384 -0.3974  0.6976
 3590lim     li17630   4.448   0.420   3.377 -0.1997  0.0571 -0.4872
 3591lim     li17631   2.602   0.843   2.444 -0.9125  0.3620  0.4629
 3592lim     li17632   5.776   0.899   5.988  0.2527 -0.6312 -0.4787
 3593lim     li17633   4.311   3.605   6.332  0.6583 -0.2687 -0.0041
 3594lim     li17634   6.611   6.190   3.685  0.7487 -0.7964 -1.4817
 3595lim     li17635   1.611   6.779   6.543 -0.8374 -1.2102 -0.2603
 3596lim     li17636   7.077   1.197   4.263 -0.4254 -0.2075 -0.3010
 3597lim     li17637   0.302   0.536   3.859  0.4573  1.0568 -0.3572
 3598lim     li17638   3.461   2.063   1.380 -1.0693 -0.3112  0.6596
 3599lim     li17639   3.037   2.277   3.445  0.2113 -0.7543  1.0860
 3600lim     li17640   2.891   1.512   2.908  0.1563  0.0994 -0.3214
 3601lim     li17641   3.286   4.698   3.753  0.4419 -0.5201 -0.0096
 3602lim     li17642   1.583   3.620   0.466 -0.1468  0.8418  1.0110
 3603lim     li17643   2.127   2.254   4.790 -0.9489 -0.3135  0.0271
 3604lim     li17644   2.582   4.663   0.619  1.1880 -0.4875 -0.2121
 3605lim     li17645   5.044   6.871   2.749  0.8422  0.0233 -0.4943
 3606lim     li17646   6.083   4.807   0.302  0.2131  0.5087 -0.6396
 3607lim     li17647   6.788   3.336   0.624 -0.1441  0.0582  0.6206
 3608lim     li17648   0.739   6.971   1.795 -0.0577  0.3218  0.1335
 3609lim     li17649   0.940   0.848   1.979 -0.0182 -0.7795 -0.6615
 3610lim     li17650   2.569   3.241   2.112 -0.5219  0.1023 -0.9221
 3611lim     li17651   3.195   6.606   2.147 -1.8102 -0.6042 -0.5609
 3612lim     li17652   0.626   1.857   7.062 -0.2603 -0.8960  0.0651
 3613lim     li17653   2.080   1.793   3.599 -0.2836 -0.2901  0.9579
 3614lim     li17654   4.031   0.006   1.632  0.3824 -0.3041  0.3029
 3615lim     li17655   3.624   3.266   5.599  0.0876  0.1950 -0.4093
 3616lim     li17656   0.871   3.811   5.985  0.8169  0.3599 -0.5633
 3617lim     li17657   3.451   4.297   5.204 -0.3696  0.1576 -0.0317
 3618lim     li17658   3.290   2.526   2.232 -0.4042 -0.0632  0.0876
 3619lim     li17659   5.045   1.823   6.964  0.3729  0.1280  0.0735
 3620lim     li17660   5.301   2.346   0.834 -0.1814 -0.0204 -0.1777
 3621lim     li17661   0.734   5.947   4.773  0.2136 -0.3468 -1.1388
 3622lim     li17662   6.426   4.065   5.524  0.3329 -0.6049 -0.0043
 3623lim     li17663   4.623   0.087   0.583  1.2706  0.4777 -0.2642
 3624lim     li17664   5.574   5.387   0.411 -0.1116  2.0287 -0.7488
 3625lim     li17665   0.723   4.262   4.751  0.6303  0.4137 -0.8380
 3626lim     li17666   3.363   0.062   6.841 -0.2718 -0.2204 -0.0135
 3627lim     li17667   6.730   2.680   7.053 -0.9653 -0.6032  0.0151
 3628lim     li17668   5.814   3.328   5.812  0.9112 -0.1631  0.3079
 3629lim     li17669   2.405   4.816   5.656 -0.4169 -0.1029 -0.8892
 3630lim     li17670   2.299   3.689   0.791 -0.1616 -0.4037 -0.6687
 3631lim     li17671   1.011   1.044   0.922 -0.8788 -1.0100 -0.3412
 3632lim     li17672   1.453   4.762   3.148 -0.7060 -0.4928 -0.7781
 3633lim     li17673   5.801   1.480   4.248  0.3886  0.1556 -0.8555
 3634lim     li17674   2.907   3.761   4.195  0.6083 -0.2661  0.5621
 3635lim     li17675   6.360   0.196   3.478  0.2846 -0.2495  0.1585
 3636lim     li17676   5.935   0.805   6.551 -0.1279 -0.8395 -0.4747
 3637lim     li17677   0.278   3.073   0.593  1.2695  0.1425  0.8908
 3638lim     li17678   4.893   2.747   2.485  0.0591 -0.5452  0.0830
 3639lim     li17679   5.888   1.110   2.414 -0.4424  0.3316 -0.9920
 3640lim     li17680   6.163   0.375   0.740 -0.6620 -0.0436  0.4668
 3641lim     li17681   5.281   3.400   6.105 -0.2448  0.2191  0.0409
 3642lim     li17682   5.165   3.906   2.901  0.1952  0.1351  0.4865
 3643lim     li17683   3.083   4.286   5.999 -0.5931  0.2213 -0.4554
 3644lim     li17684   7.088   0.112   1.623  0.6714  0.2426 -0.5383
 3645lim     li17685   2.987   3.832   6.753  0.4243 -0.5434 -0.5920
 3646lim     li17686   1.599   1.463   1.267  1.0789 -0.0019 -0.2469
 3647lim     li17687   6.398   3.923   2.920 -0.2014  0.0659 -0.8051
 3648lim     li17688   1.761   2.636   0.088 -0.8293  0.3657 -0.3567
 3649lim     li17689   2.075   7.180   1.435  0.8614  0.7283 -0.9610
 3650lim     li17690   5.939   1.448   1.208  0.1543 -0.8617 -1.2069
 3651lim     li17691   4.008   4.132   5.569  0.0823  0.0528 -0.6310
 3652lim     li17692   2.538   5.356   0.356 -0.2239  0.3151  0.5487
 3653lim     li17693   0.771   1.543   3.816  0.9961 -0.8299 -0.0473
 3654lim     li17694   3.508   0.265   5.331  0.2296 -0.9516  0.9742
 3655lim     li17695   6.710   4.133   0.291  0.3751  0.2631  0.2355
 3656lim     li17696   3.951   0.586   0.374  0.1860  0.2037  1.1752
 3657lim     li17697   0.435   5.378   4.342  0.1221 -1.7092 -0.5862
 3658lim     li17698   5.311   6.735   1.730 -0.8113 -0.2417 -0.0730
 3659lim     li17699   4.028   1.234   2.562  0.2145 -0.5646 -0.5989
 3660lim     li17700   3.736   0.585   6.125  0.0284 -0.1584 -0.0342
 3661lim     li17701   2.245   1.078   4.423 -0.0247 -0.0443  0.1617
 3662lim     li17702   0.545   2.831   4.071  0.0800  0.6455  0.2564
 3663lim     li17703   4.515   1.517   5.255  0.0138 -0.9030  0.1197
 3664lim     li17704   0.506   0.796   4.924 -0.8597  0.4476 -0.5951
 3665lim     li17705   3.480   3.315   0.560  0.2087  0.3725 -0.6113
 3666lim     li17706   2.868   2.761   3.710  0.1686 -0.4867  0.0821
 3667lim     li17707   2.099   1.770   1.845  1.0020  0.7919  0.1432
 3668lim     li17708   1.215   1.577   4.132 -0.6491  0.3609  0.3236
 3669lim     li17709   2.096   4.208   6.880 -1.2501 -0.0631 -0.4283
 3670lim     li17710   1.588   6.604   4.549 -0.1114  0.5934 -0.0612
 3671lim     li17711   2.022   5.952   0.964  0.5518  0.3580  0.5366
 3672lim     li17712   4.495   3.254   0.168  1.2687  0.5663  0.5897
 3673lim     li17713   1.470   1.402   5.062  0.1798 -0.2405 -0.4301
 3674lim     li17714   5.915   6.108   4.358  0.1453  0.4896 -0.0287
 3675lim     li17715   3.663   0.559   3.674 -0.3027 -0.7389  0.0585
 3676lim     li17716   5.146   6.143   4.210  1.0370  0.5731  0.1183
 3677lim     li17717   5.633   6.718   7.128 -0.5618  0.2567  0.1314
 3678lim     li17718   4.251   2.458   3.262 -0.0278  0.1108  0.7728
 3679lim     li17719   2.269   6.051   1.841  0.3147 -0.9999  0.1464
 3680lim     li17720   2.757   5.373   2.618 -1.0377 -0.6534  0.2254
 3681lim     li17721   2.020   2.933   2.929 -1.0028  0.7357  0.4633
 3682lim     li17722   2.436   3.188   6.918 -0.0265 -0.1672 -0.2605
 3683lim     li17723   0.255   1.648   1.529 -0.1379 -0.0810 -0.7000
 3684lim     li17724   1.897   2.473   6.265 -0.0332  0.1236  0.3666
 3685lim     li17725   6.819   4.889   4.496 -0.5646  0.0301 -0.4715
 3686lim     li17726   0.508   3.549   5.059 -0.3289 -0.4413 -1.2804
 3687lim     li17727   0.795   4.238   2.576 -0.4927  0.2014 -0.1767
 3688lim     li17728   1.372   4.030   5.471 -0.5203  0.9122 -0.2384
 3689lim     li17729   3.195   2.421   5.169 -0.1152 -0.4364  0.5757
 3690lim     li17730   0.394   0.225   6.999 -0.0674 -0.1137  0.5077
 3691lim     li17731   2.642   4.983   4.477  0.1066  0.0484  0.2458
 3692lim     li17732   6.953   1.298   1.393  0.4718  0.4751  0.1859
 3693lim     li17733   6.619   1.487   3.359  0.2744 -0.7433 -0.1486
 3694lim     li17734   4.936   1.981   4.759  0.3973  0.8513 -0.3700
 3695lim     li17735   0.884   3.640   6.440  0.5264 -1.1509 -0.2328
 3696lim     li17736   2.490   0.346   6.093 -0.1115 -0.3346  1.1562
 3697lim     li17737   5.443   0.752   4.127  0.7792  0.1699 -0.1421
 3698lim     li17738   1.230   0.148   5.996 -0.0164  0.2070  0.1924
 3699lim     li17739   3.833   3.059   6.934 -0.3840 -0.3009  0.1041
 3700lim     li17740   5.214   0.412   2.606  0.3952 -0.5735  0.6457
 3701lim     li17741   2.801   0.107   0.889 -1.0296 -0.3260 -0.6102
 3702lim     li17742   3.586   1.258   0.330 -0.2340 -0.7183  0.3108
 3703lim     li17743   0.108   6.387   0.554 -0.6788 -0.0617 -0.0688
 3704lim     li17744   3.607   6.450   3.983  0.4243 -0.3513  0.1779
 3705lim     li17745   2.568   1.432   5.810  0.9202  0.0885 -0.4245
 3706lim     li17746   4.670   2.359   6.752  1.0321 -0.1480  0.1469
 3707lim     li17747   3.772   1.895   6.184  0.5788  0.9340 -0.0821
 3708lim     li17748   2.899   5.063   5.866 -0.8940 -0.2994 -0.7177
 3709lim     li17749   4.813   6.525   6.110  0.6544  0.4229 -0.8421
 3710lim     li17750   5.778   5.433   3.286 -0.0099 -0.5995 -0.6702
 3711lim     li17751   4.328   2.402   5.183 -0.5050 -0.8482 -0.8634
 3712lim     li17752   1.414   1.575   0.267 -0.0185 -0.4614  0.4829
 3713lim     li17753   4.088   6.292   6.669  0.2428 -0.5985 -1.0647
 3714lim     li17754   0.960   2.177   1.826  0.1539 -0.6197  0.4397
 3715lim     li17755   0.474   1.531   2.831 -0.0788 -0.3560 -0.2263
 3716lim     li17756   3.313   3.557   1.483  0.6287  1.0398  0.2616
 3717lim     li17757   5.674   5.945   0.693 -0.1416 -0.6397  1.6820
 3718lim     li17758   0.082   7.045   4.614 -0.9383 -0.1668  0.1587
 3719lim     li17759   4.085   5.937   3.547 -0.3558  0.2030 -0.5434
 3720lim     li17760   6.229   5.844   6.748  0.3865 -0.8125  0.2722
 3721lim     li17761   5.852   1.249   5.005 -0.6137  0.7432 -0.0832
 3722lim     li17762   3.773   1.088   1.476  0.3097 -0.4406 -0.1265
 3723lim     li17763   3.924   2.093   2.218 -1.0927  0.4173  0.8317
 3724lim     li17764   1.179   5.438   1.210  0.7831 -0.9502  0.0095
 3725lim     li17765   1.928   6.247   5.449 -0.0470  0.0049  0.1321
 3726lim     li17766   5.668   2.021   3.044 -0.7913  0.4590  0.3920
 3727lim     li17767   0.053   5.836   3.572  0.1794  0.0237 -1.6956
 3728lim     li17768   0.057   5.110   6.064  0.1446  0.0906 -0.9269
 3729lim     li17769   2.155   1.170   3.894 -0.4718  0.1458 -0.4217
 3730lim     li17770   5.117   4.400   3.426 -0.5022  2.0953 -0.2247
 3731lim     li17771   1.398   5.366   5.435  0.1059  1.6766 -0.2769
 3732lim     li17772   5.816   3.056   1.961 -0.9651  0.4016  0.5717
 3733lim     li17773   6.395   5.350   4.711 -0.6217  0.6400  0.7568
 3734lim     li17774   6.134   4.730   1.065 -0.6227 -0.5381  1.0167
 3735lim     li17775   6.285   1.769   5.803  0.6190 -0.7299 -0.7202
 3736lim     li17776   5.282   7.064   5.299  1.1250 -0.2163 -0.4150
 3737lim     li17777   5.868   2.297   1.848  0.3653 -0.0921  0.7759
 3738lim     li17778   3.416   1.420   4.303  1.0471 -0.4722  0.5498
 3739lim     li17779   0.965   0.146   4.169  0.1420  0.6528  0.8500
 3740lim     li17780   4.691   0.798   3.779  0.3312  0.1149 -1.0404
 3741lim     li17781   2.155   2.186   2.635  1.1435  0.6343  0.1941
 3742lim     li17782   0.185   2.192   2.904 -0.4536  0.1206 -0.5674
 3743lim     li17783   3.349   6.004   6.438 -1.0568  0.3628 -0.7992
 3744lim     li17784   4.167   6.731   0.025  0.3325 -0.0411  0.5051
 3745lim     li17785   4.645   1.203   6.789 -0.6997 -0.9060  0.4522
 3746lim     li17786   3.205   2.122   0.278 -0.2342  0.6590 -0.1267
 3747lim     li17787   6.878   1.701   0.158  0.4677  0.4688 -0.1025
 3748lim     li17788   2.753   6.540   5.543  0.3379 -0.2667  0.0814
 3749lim     li17789   1.705   6.527   2.258  0.4294  0.7256 -0.3424
 3750lim     li17790   0.452   1.611   4.392 -0.0473 -1.3731 -0.7864
 3751lim     li17791   4.832   3.455   6.461 -0.3574 -0.0244  0.6617
 3752lim     li17792   1.779   5.291   0.176 -0.2564  0.7104  0.7805
 3753lim     li17793   1.799   0.921   6.500 -0.5587 -0.7001  0.1963
 3754lim     li17794   1.705   5.702   2.507 -1.4375  0.9816  0.2198
 3755lim     li17795   2.344   0.795   1.755 -1.1865  0.8152  0.6011
 3756lim     li17796   1.968   1.741   6.401 -1.4275 -0.5520  1.2020
 3757lim     li17797   4.813   4.779   0.538  1.1011  0.4314 -0.1508
 3758lim     li17798   3.260   3.947   4.641 -0.3698 -0.4335  0.5714
 3759lim     li17799   6.253   3.767   6.717  0.1111  0.4188 -0.0892
 3760lim     li17800   5.267   4.744   4.374  0.2892  0.8306 -1.1184
 3761lim     li17801   3.166   4.416   3.286 -0.7465 -0.7577 -2.2202
 3762lim     li17802   3.808   5.209   2.474 -0.8154 -0.1191  0.7342
 3763lim     li17803   4.211   2.936   2.456  0.5095  0.6166  0.5540
 3764lim     li17804   3.080   5.748   3.858 -0.5602  0.0847 -0.6360
 3765lim     li17805   2.793   7.035   2.812  0.5105 -0.4406  1.3571
 3766lim     li17806   6.675   6.757   4.995 -0.3779  0.0563 -0.2922
 3767lim     li17807   0.907   4.435   0.312 -0.0147  0.0905 -0.7228
 3768lim     li17808   4.878   2.689   6.085  0.0399  0.4452  0.3494
 3769lim     li17809   5.943   0.801   3.208  0.5306  0.4310  0.3051
 3770lim     li17810   2.119   4.088   3.686  0.5205  0.2304  0.2705
 3771lim     li17811   3.211   4.313   0.677  0.4613  0.4613 -0.2682
 3772lim     li17812   0.260   0.637   0.045  0.6237 -0.5009  0.6242
 3773lim     li17813   4.708   3.445   0.722  0.1403  0.4077 -0.8159
 3774lim     li17814   1.622   2.579   3.798 -0.0370 -1.3803 -0.1759
 3775lim     li17815   3.999   6.098   1.201  0.4394 -0.1185 -0.3882
 3776lim     li17816   4.984   2.708   5.068  0.2345  0.3490  0.4125
 3777lim     li17817   5.013   0.345   1.401 -0.3441  0.5748 -0.1640
 3778lim     li17818   5.931   0.440   4.664 -0.7769  0.1609  0.9532
 3779lim     li17819   4.971   6.325   3.116  0.8846  0.4533 -0.0448
 3780lim     li17820   1.774   6.336   6.136 -0.1090 -0.2875 -0.1826
 3781ntf    cn117821   4.353   6.825   6.354  0.1175  0.0840 -0.2293
 3781ntf    sn217822   4.512   6.913   6.365 -0.1050  0.4833 -0.1815
 3781ntf    nn317823   4.462   7.062   6.355 -1.0713  0.1707 -0.1077
 3781ntf    sn217824   4.408   7.150   6.473 -0.1469  0.3082  0.2155
 3781ntf    cn117825   4.261   7.225   6.397 -0.2285 -0.1101 -0.0404
 3781ntf    fn417826   4.262   6.893   6.422  0.1370  0.3210 -0.4356
 3781ntf    fn417827   4.307   6.809   6.230 -0.5629 -0.2434  0.0604
 3781ntf    fn417828   4.358   6.703   6.403 -0.8501  0.0339 -0.2277
 3781ntf    on517829   4.567   6.862   6.488  0.2454 -0.0121 -0.5430
 3781ntf    on517830   4.587   6.883   6.245  0.1484 -0.2447  0.1568
 3781ntf    on517831   4.491   7.263   6.506  0.5697 -0.0892 -0.2069
 3781ntf    on517832   4.349   7.079   6.584 -0.3209  0.3793  0.1685
 3781ntf    fn417833   4.307   7.305   6.302 -0.0228  0.2067  0.3249
 3781ntf    fn417834   4.183   7.139   6.333  0.2523 -0.2630 -0.4296
 3781ntf    fn417835   4.193   7.298   6.484 -0.0571  0.1868 -0.1541
 3782ntf    cn117836   6.613   0.492   6.337 -0.3115 -0.0513 -0.0904
 3782ntf    sn217837   6.474   0.578   6.258 -0.0130  0.2866 -0.2524
 3782ntf    nn317838   6.540   0.720   6.254  0.1494  0.2273  0.2677
 3782ntf    sn217839   6.493   0.846   6.173  0.2412  0.1295  0.0634
 3782ntf    cn117840   6.612   0.844   6.035 -0.0712 -0.2706 -0.2035
 3782ntf    fn417841   6.727   0.515   6.274 -0.0403 -0.2030  0.3404
 3782ntf    fn417842   6.635   0.548   6.454 -0.0462  0.3943 -0.3514
 3782ntf    fn417843   6.607   0.360   6.351  0.0582  0.0025  0.5902
 3782ntf    on517844   6.468   0.508   6.132  0.9374 -0.3625  0.0534
 3782ntf    on517845   6.361   0.569   6.348  0.1118 -0.5395 -0.1688
 3782ntf    on517846   6.511   0.971   6.242  0.0713  0.1450  0.0802
 3782ntf    on517847   6.368   0.834   6.102  0.2105 -0.3310  0.1875
 3782ntf    fn417848   6.729   0.876   6.086 -0.4657  0.3350  0.3379
 3782ntf    fn417849   6.619   0.725   5.978 -0.4266 -0.2945 -0.2020
 3782ntf    fn417850   6.588   0.930   5.937 -0.6126 -0.2513 -0.0593
 3783ntf    cn117851   4.608   5.612   3.501 -0.1284 -0.0261  0.1316
 3783ntf    sn217852   4.432   5.578   3.471 -0.0371 -0.3910 -0.0020
 3783ntf    nn317853   4.446   5.455   3.375 -0.2324 -0.0293 -0.4931
 3783ntf    sn217854   4.414   5.302   3.381 -0.0382 -0.0399  0.3666
 3783ntf    cn117855   4.430   5.250   3.208 -0.2897 -0.4035  0.4510
 3783ntf    fn417856   4.673   5.629   3.387 -0.2275  0.2457  0.1149
 3783ntf    fn417857   4.631   5.712   3.584  0.6650 -0.0595 -0.0385
 3783ntf    fn417858   4.668   5.509   3.560 -0.5647 -0.3165  0.0718
 3783ntf    on517859   4.385   5.544   3.603 -0.1959  0.0597  0.0589
 3783ntf    on517860   4.393   5.699   3.403 -0.2130 -0.1622  0.5022
 3783ntf    on517861   4.275   5.268   3.400 -0.0334 -0.0892  0.3167
 3783ntf    on517862   4.517   5.221   3.441 -0.3115 -0.2921  0.4962
 3783ntf    fn417863   4.533   5.307   3.147 -0.6016 -0.4083 -0.0870
 3783ntf    fn417864   4.446   5.120   3.188 -0.0327 -0.3465  0.2748
 3783ntf    fn417865   4.326   5.293   3.139 -0.2328 -0.1908  0.4988
 3784ntf    cn117866   5.900   3.425   1.578 -0.0602 -0.2204  0.0502
 3784ntf    sn217867   5.760   3.438   1.463 -0.0962 -0.1398  0.1036
 3784ntf    nn317868   5.684   3.304   1.494 -0.5461 -0.0173 -0.4501
 3784ntf    sn217869   5.543   3.272   1.556 -0.3154 -0.0863  0.0412
 3784ntf    cn117870   5.452   3.227   1.406  0.1699 -0.4804 -0.1399
 3784ntf    fn417871   5.852   3.429   1.701  0.6028  0.0486  0.3045
 3784ntf    fn417872   5.963   3.310   1.560  0.1886 -0.1513  0.4669
 3784ntf    fn417873   5.990   3.522   1.561 -0.5394  0.1993 -0.1276
 3784ntf    on517874   5.689   3.559   1.493 -0.2213 -0.0578 -0.4973
 3784ntf    on517875   5.810   3.427   1.328  0.2502  0.7343  0.1518
 3784ntf    on517876   5.462   3.381   1.603 -0.0667  0.0216  0.2225
 3784ntf    on517877   5.548   3.145   1.625 -0.4891 -0.1806 -0.1183
 3784ntf    fn417878   5.442   3.328   1.321  0.2553 -0.3968 -0.0496
 3784ntf    fn417879   5.512   3.127   1.343  0.2735 -0.4901 -0.0242
 3784ntf    fn417880   5.329   3.185   1.433 -0.1136  0.3056 -0.1956
 3785ntf    cn117881   4.495   2.989   6.571  0.0542  0.0951  0.1087
 3785ntf    sn217882   4.447   3.164   6.556 -0.2046  0.0299  0.1742
 3785ntf    nn317883   4.295   3.159   6.515 -0.1192  0.1296 -0.1543
 3785ntf    sn217884   4.171   3.245   6.556 -0.3387 -0.2490 -0.0192
 3785ntf    cn117885   4.123   3.298   6.389 -0.0609 -0.1768 -0.0768
 3785ntf    fn417886   4.409   2.924   6.648  0.0685 -0.5882 -0.4401
 3785ntf    fn417887   4.492   2.929   6.453  0.0937  0.4166 -0.0562
 3785ntf    fn417888   4.614   2.977   6.629  0.1513 -0.1456 -0.1382
 3785ntf    on517889   4.469   3.222   6.686  0.3712 -0.5216  0.3307
 3785ntf    on517890   4.536   3.221   6.458  0.0300 -0.1249  0.2969
 3785ntf    on517891   4.188   3.370   6.626  0.4804 -0.5953  0.4146
 3785ntf    on517892   4.063   3.155   6.591 -0.3131 -0.0801  0.4985
 3785ntf    fn417893   4.115   3.190   6.312 -0.0090  0.2449 -0.6822
 3785ntf    fn417894   4.012   3.369   6.380  0.2113  0.2355 -0.2049
 3785ntf    fn417895   4.226   3.366   6.341  0.3831 -0.9429 -0.2319
 3786ntf    cn117896   3.920   0.978   3.735 -0.1469  0.1814  0.0614
 3786ntf    sn217897   4.046   1.070   3.828  0.0199 -0.1408  0.1582
 3786ntf    nn317898   4.054   0.981   3.957 -0.1772  0.0523  0.3049
 3786ntf    sn217899   3.950   0.974   4.075 -0.0836 -0.0247  0.3837
 3786ntf    cn117900   4.039   1.064   4.206  0.1392  0.0119  0.2088
 3786ntf    fn417901   3.918   1.018   3.609  0.6707  0.2691  0.0722
 3786ntf    fn417902   3.956   0.850   3.732 -0.4701  0.0866  0.2021
 3786ntf    fn417903   3.794   0.985   3.775 -0.0252  0.9169  0.3288
 3786ntf    on517904   4.162   1.059   3.744 -0.2308 -0.2459 -0.1749
 3786ntf    on517905   4.006   1.206   3.856  0.3003  0.0540 -0.3736
 3786ntf    on517906   3.937   0.840   4.125  0.0874 -0.2910 -0.2740
 3786ntf    on517907   3.827   1.048   4.060  0.1462  0.1920 -0.5003
 3786ntf    fn417908   3.962   1.130   4.291 -0.3009 -0.0841 -0.1074
 3786ntf    fn417909   4.119   0.989   4.279  0.2344  0.0266  0.1200
 3786ntf    fn417910   4.116   1.155   4.150  0.1135 -0.3149 -0.3646
 3787ntf    cn117911   1.813   4.589   0.705  0.1567  0.1310  0.1393
 3787ntf    sn217912   1.822   4.496   0.860 -0.2135  0.0706  0.1261
 3787ntf    nn317913   1.865   4.601   0.969 -0.1110 -0.1348  0.2849
 3787ntf    sn217914   2.008   4.645   1.017 -0.0304 -0.1981  0.1057
 3787ntf    cn117915   2.021   4.817   0.961 -0.2641 -0.2505 -0.1140
 3787ntf    fn417916   1.720   4.684   0.708  0.4195  0.3894  0.1103
 3787ntf    fn417917   1.922   4.659   0.679 -0.2223  0.6671 -0.0339
 3787ntf    fn417918   1.798   4.514   0.597  0.4914  0.1372  0.0876
 3787ntf    on517919   1.684   4.458   0.877 -0.2648  0.0146 -0.4053
 3787ntf    on517920   1.909   4.386   0.828 -0.2910 -0.1233  0.5719
 3787ntf    on517921   2.121   4.588   0.948 -0.0893  0.0143 -0.1662
 3787ntf    on517922   2.009   4.650   1.161 -0.3337 -0.0265  0.1030
 3787ntf    fn417923   2.144   4.866   0.970 -0.5529  0.5285 -0.3623
 3787ntf    fn417924   1.974   4.826   0.838  0.2925 -0.4246 -0.3437
 3787ntf    fn417925   1.945   4.898   1.033 -0.0293 -0.2514  0.1371
 3788ntf    cn117926   4.172   1.593   6.684 -0.2036  0.1494 -0.1292
 3788ntf    sn217927   4.230   1.513   6.836 -0.1281  0.2649 -0.0974
 3788ntf    nn317928   4.244   1.629   6.941  0.5723 -0.2328  0.3699
 3788ntf    sn217929   4.329   1.761   6.937 -0.2713  0.2946 -0.5607
 3788ntf    cn117930   4.313   1.805   7.113 -0.4316 -0.1588 -0.4599
 3788ntf    fn417931   4.042   1.612   6.696 -0.2948 -0.8840  0.6111
 3788ntf    fn417932   4.224   1.712   6.659 -0.3320  0.2242 -0.0435
 3788ntf    fn417933   4.193   1.513   6.580  0.2562  0.6691 -0.4441
 3788ntf    on517934   4.128   1.423   6.884  0.6683 -0.5371  0.1303
 3788ntf    on517935   4.358   1.459   6.799 -0.3419  0.0892 -0.5853
 3788ntf    on517936   4.257   1.868   6.871 -0.1625  0.3861 -0.5323
 3788ntf    on517937   4.472   1.751   6.927 -0.2050  0.0142  0.5131
 3788ntf    fn417938   4.193   1.846   7.149  0.0334  0.3952  0.5012
 3788ntf    fn417939   4.351   1.710   7.196  0.5273  0.7078  0.1281
 3788ntf    fn417940   4.397   1.902   7.147 -0.4555 -0.0603 -0.6803
 3789ntf    cn117941   1.225   6.655   4.233  0.4917 -0.2526  0.4606
 3789ntf    sn217942   1.213   6.808   4.331  0.2151 -0.0575  0.1232
 3789ntf    nn317943   1.232   6.902   4.206 -0.4411  0.3716  0.3402
 3789ntf    sn217944   1.343   7.009   4.177 -0.1431 -0.0392 -0.0512
 3789ntf    cn117945   1.372   6.965   4.003  0.2600 -0.1306  0.0374
 3789ntf    fn417946   1.128   6.646   4.144  0.2951 -0.0491  0.6521
 3789ntf    fn417947   1.335   6.651   4.160  0.1740 -0.5010 -0.0114
 3789ntf    fn417948   1.209   6.547   4.308 -0.2224 -0.5967 -0.1704
 3789ntf    on517949   1.081   6.810   4.388 -0.0227 -0.3665 -0.4086
 3789ntf    on517950   1.328   6.808   4.418  0.3288 -0.3740 -0.0235
 3789ntf    on517951   1.474   6.989   4.234 -0.1532 -0.0366 -0.0278
 3789ntf    on517952   1.292   7.144   4.185  0.5121  0.1775  0.6691
 3789ntf    fn417953   1.474   7.025   3.945  0.1764 -0.1546 -0.1357
 3789ntf    fn417954   1.393   6.835   3.988  0.0070 -0.1373 -0.2665
 3789ntf    fn417955   1.266   6.986   3.927 -0.0190 -0.5732  0.2921
 3790ntf    cn117956   6.699   5.970   5.342  0.0575 -0.3006  0.2045
 3790ntf    sn217957   6.756   5.803   5.388 -0.0974 -0.4200 -0.0339
 3790ntf    nn317958   6.854   5.772   5.269 -0.1860 -0.2000 -0.1667
 3790ntf    sn217959   6.836   5.682   5.142 -0.1086 -0.0797 -0.2624
 3790ntf    cn117960   6.934   5.539   5.196 -0.0680 -0.0715 -0.3153
 3790ntf    fn417961   6.605   6.017   5.422 -0.3158 -0.7083  0.0107
 3790ntf    fn417962   6.797   6.058   5.341 -0.2069 -0.0056 -0.0307
 3790ntf    fn417963   6.642   5.974   5.223  0.1544 -0.3622  0.1564
 3790ntf    on517964   6.831   5.818   5.510 -0.1203 -0.2318 -0.0420
 3790ntf    on517965   6.636   5.723   5.399 -0.4263  0.1087  0.3052
 3790ntf    on517966   6.913   5.730   5.030  0.5795 -0.4368  0.0503
 3790ntf    on517967   6.704   5.634   5.112 -0.2309  0.0872  0.0039
 3790ntf    fn417968   7.055   5.582   5.225 -0.0073 -0.2287 -0.3353
 3790ntf    fn417969   6.888   5.479   5.305  0.0888  0.8973  0.2913
 3790ntf    fn417970   6.938   5.437   5.111  0.2743  0.3270 -0.7778
 3791ntf    cn117971   1.552   1.535   2.961  0.1210  0.1278  0.0595
 3791ntf    sn217972   1.558   1.682   2.856 -0.0122  0.0118 -0.1107
 3791ntf    nn317973   1.673   1.643   2.757 -0.0990  0.2923 -0.3251
 3791ntf    sn217974   1.683   1.615   2.602  0.2663 -0.5327 -0.1612
 3791ntf    cn117975   1.783   1.464   2.598  0.4123 -0.4535  0.3935
 3791ntf    fn417976   1.531   1.425   2.890  0.2475 -0.3394  0.7328
 3791ntf    fn417977   1.669   1.515   3.020 -0.0245  0.0056  0.3111
 3791ntf    fn417978   1.458   1.537   3.055 -0.0476  0.2516 -0.1128
 3791ntf    on517979   1.423   1.698   2.807  0.0430  0.3623 -0.1532
 3791ntf    on517980   1.596   1.781   2.953 -0.0562 -0.2703  0.1933
 3791ntf    on517981   1.754   1.715   2.526 -0.0621 -0.1525  0.0269
 3791ntf    on517982   1.556   1.574   2.549  0.0341 -0.8355  0.6119
 3791ntf    fn417983   1.725   1.361   2.658  0.1801 -0.3287  0.3822
 3791ntf    fn417984   1.820   1.421   2.478 -0.2859 -0.1080  0.0543
 3791ntf    fn417985   1.895   1.480   2.667  0.0327  0.5197  0.8046
 3792ntf    cn117986   5.075   6.417   6.697  0.1483  0.0767  0.1914
 3792ntf    sn217987   5.043   6.593   6.732  0.1870  0.1263 -0.0171
 3792ntf    nn317988   5.164   6.664   6.662  0.2873 -0.0217  0.0069
 3792ntf    sn217989   5.181   6.813   6.615 -0.1619  0.1197  0.2936
 3792ntf    cn117990   5.167   6.789   6.435  0.4352  0.0569  0.2541
 3792ntf    fn417991   5.080   6.392   6.567 -0.1400 -0.0845  0.2102
 3792ntf    fn417992   5.197   6.378   6.731  0.3469  0.5207 -0.0042
 3792ntf    fn417993   4.984   6.336   6.748  0.2259 -0.4113 -0.4324
 3792ntf    on517994   4.914   6.604   6.670 -0.1116  0.4254  0.6482
 3792ntf    on517995   5.051   6.607   6.876 -0.3597 -0.5138  0.0773
 3792ntf    on517996   5.316   6.860   6.627 -0.2070  0.2230  0.4057
 3792ntf    on517997   5.080   6.907   6.656  0.0870  0.4740  0.0966
 3792ntf    fn417998   5.201   6.900   6.371 -1.1071  0.0144 -0.6953
 3792ntf    fn417999   5.260   6.707   6.389 -0.1791 -0.5244  0.0391
 3792ntf    fn418000   5.047   6.756   6.391  0.5113 -0.3663  0.3648
 3793ntf    cn118001   6.587   6.071   4.941 -0.2518 -0.1491 -0.2264
 3793ntf    sn218002   6.578   6.084   4.760 -0.2378 -0.2378 -0.2338
 3793ntf    nn318003   6.713   6.160   4.737 -0.4295  0.0441 -0.4325
 3793ntf    sn218004   6.801   6.153   4.607  0.1219  0.2395 -0.0790
 3793ntf    cn118005   6.900   6.303   4.634 -0.0655  0.3572 -0.0452
 3793ntf    fn418006   6.656   6.169   4.996 -0.0755 -0.6184  0.3925
 3793ntf    fn418007   6.473   6.071   5.007  0.1949 -1.0427  0.5779
 3793ntf    fn418008   6.647   5.959   4.979 -0.4113 -0.1699 -0.0311
 3793ntf    on518009   6.568   5.946   4.719  0.2763 -0.2615 -0.2813
 3793ntf    on518010   6.465   6.172   4.742  0.0116  0.0498 -0.4176
 3793ntf    on518011   6.720   6.182   4.491  0.1597  0.8551  0.0441
 3793ntf    on518012   6.896   6.045   4.601 -0.1685 -0.0239  0.0396
 3793ntf    fn418013   7.005   6.309   4.554 -0.0366 -0.2633 -0.0556
 3793ntf    fn418014   6.826   6.410   4.612  0.2925  0.4902 -0.6019
 3793ntf    fn418015   6.945   6.309   4.758  0.0552  0.2422 -0.0830
 3794ntf    cn118016   4.587   4.798   4.552 -0.1808  0.3148 -0.4001
 3794ntf    sn218017   4.529   4.949   4.468 -0.2410  0.3450 -0.3041
 3794ntf    nn318018   4.666   4.995   4.407  0.1321 -0.9284 -0.4597
 3794ntf    sn218019   4.685   5.106   4.297 -0.3151  0.0018  0.3849
 3794ntf    cn118020   4.696   4.998   4.151 -0.0215  0.5421  0.0022
 3794ntf    fn418021   4.624   4.703   4.467 -0.6829  0.2156 -0.5087
 3794ntf    fn418022   4.691   4.828   4.628 -0.2736  0.5781 -0.3768
 3794ntf    fn418023   4.495   4.743   4.629  0.1672 -0.0237 -0.2215
 3794ntf    on518024   4.441   4.909   4.361 -0.7271  0.1583  0.1615
 3794ntf    on518025   4.482   5.031   4.577  0.0322  0.4350 -0.2540
 3794ntf    on518026   4.815   5.167   4.308 -0.2095 -0.1781  0.1455
 3794ntf    on518027   4.576   5.199   4.283 -0.2992 -0.0654 -0.2405
 3794ntf    fn418028   4.751   5.065   4.051  0.6911  0.1065  0.0963
 3794ntf    fn418029   4.773   4.892   4.172 -0.1988  0.3766 -0.1764
 3794ntf    fn418030   4.577   4.955   4.111  0.1398 -0.3142  0.4028
 3795ntf    cn118031   5.364   1.490   0.602 -0.0005  0.2699 -0.2544
 3795ntf    sn218032   5.208   1.468   0.511  0.0129  0.0615 -0.2246
 3795ntf    nn318033   5.242   1.526   0.370  0.2931  0.2889 -0.0640
 3795ntf    sn218034   5.145   1.585   0.261 -0.0871  0.3042  0.2843
 3795ntf    cn118035   5.115   1.757   0.312  0.0407  0.3290  0.2760
 3795ntf    fn418036   5.456   1.403   0.567 -0.3966 -0.3125  0.1332
 3795ntf    fn418037   5.421   1.609   0.587  0.6331  0.0747  0.5859
 3795ntf    fn418038   5.347   1.480   0.733 -0.3578 -0.2164 -0.3360
 3795ntf    on518039   5.192   1.324   0.513  0.0388  0.0603 -0.0817
 3795ntf    on518040   5.115   1.545   0.590  0.0242 -0.4080  0.2515
 3795ntf    on518041   5.016   1.520   0.271  0.2463 -0.5258 -0.6511
 3795ntf    on518042   5.204   1.596   0.130  0.1699  0.0824  0.3809
 3795ntf    fn418043   5.225   1.828   0.301  0.2077  0.0312  0.0095
 3795ntf    fn418044   5.028   1.812   0.229 -0.3183 -0.1753  0.3119
 3795ntf    fn418045   5.069   1.774   0.435 -0.3140  0.2672  0.1536
 3796ntf    cn118046   5.303   3.155   2.235  0.1478  0.3611 -0.1578
 3796ntf    sn218047   5.295   3.047   2.089 -0.0536  0.1623 -0.0003
 3796ntf    nn318048   5.178   3.105   2.000  0.2817 -0.2696 -0.7324
 3796ntf    sn218049   5.024   3.080   2.019  0.2771  0.1803 -0.1562
 3796ntf    cn118050   5.011   2.941   1.903  0.3334  0.3027 -0.3090
 3796ntf    fn418051   5.396   3.112   2.318 -0.1079  0.0263 -0.0434
 3796ntf    fn418052   5.329   3.283   2.212  0.0110  0.4184  0.0023
 3796ntf    fn418053   5.184   3.151   2.293  0.1440  0.0390 -0.1845
 3796ntf    on518054   5.424   3.064   2.027  0.0118  0.1275  0.1260
 3796ntf    on518055   5.277   2.917   2.147  0.7608  0.1693  0.2701
 3796ntf    on518056   4.944   3.189   1.969 -0.1654 -0.0341  0.0842
 3796ntf    on518057   4.984   3.016   2.142 -0.0196 -0.4341 -0.5703
 3796ntf    fn418058   5.109   2.852   1.906 -0.0350 -0.1108 -0.4087
 3796ntf    fn418059   4.900   2.871   1.923  0.7442 -0.3796 -0.3971
 3796ntf    fn418060   5.006   2.980   1.776 -0.0798 -0.0559 -0.4082
 3797ntf    cn118061   1.403   1.969   4.985 -0.2916 -0.0809 -0.3586
 3797ntf    sn218062   1.511   1.864   4.884 -0.0496 -0.2089  0.0308
 3797ntf    nn318063   1.531   1.964   4.765 -0.3131  0.4858  0.5627
 3797ntf    sn218064   1.446   1.966   4.632  0.1925  0.3943  0.2367
 3797ntf    cn118065   1.586   1.959   4.516 -0.0641 -0.3242 -0.0367
 3797ntf    fn418066   1.454   2.087   5.015 -0.0886 -0.2028 -0.2178
 3797ntf    fn418067   1.281   1.983   4.936 -0.1870  0.1044 -0.5688
 3797ntf    fn418068   1.381   1.911   5.102  0.0283 -0.0858 -0.3005
 3797ntf    on518069   1.630   1.848   4.964 -0.1231 -0.2195  0.1383
 3797ntf    on518070   1.435   1.743   4.864 -0.4219  0.0403 -0.0729
 3797ntf    on518071   1.397   2.099   4.606  0.2252  0.4685  0.5441
 3797ntf    on518072   1.365   1.853   4.596  0.5915  0.3011 -0.3871
 3797ntf    fn418073   1.660   1.850   4.528 -0.1330 -0.3796 -0.1133
 3797ntf    fn418074   1.542   1.962   4.391 -0.2213  0.7217  0.0277
 3797ntf    fn418075   1.671   2.060   4.528 -0.3410 -0.1329  0.3127
 3798ntf    cn118076   5.233   6.320   0.246 -0.0178  0.2241  0.1937
 3798ntf    sn218077   5.386   6.313   0.148 -0.1146 -0.2342  0.0787
 3798ntf    nn318078   5.483   6.401   0.234 -0.4753 -0.1769  0.4250
 3798ntf    sn218079   5.597   6.355   0.331 -0.3818  0.1481  0.4698
 3798ntf    cn118080   5.734   6.329   0.214 -0.3575  0.2753  0.4701
 3798ntf    fn418081   5.258   6.266   0.364  0.2648 -0.4138 -0.1533
 3798ntf    fn418082   5.188   6.442   0.271 -0.7041 -0.0580  0.3540
 3798ntf    fn418083   5.134   6.248   0.198 -0.0249  0.1169  0.3696
 3798ntf    on518084   5.411   6.171   0.143  0.3792 -0.1274 -0.9166
 3798ntf    on518085   5.353   6.381   0.025 -0.2530 -0.0052  0.2436
 3798ntf    on518086   5.586   6.221   0.384  0.1893  0.0043  0.2278
 3798ntf    on518087   5.634   6.464   0.419  0.0962  0.2665  0.1249
 3798ntf    fn418088   5.698   6.255   0.111 -0.1422 -0.1173  0.6756
 3798ntf    fn418089   5.786   6.438   0.161  0.6468 -0.3405  0.1589
 3798ntf    fn418090   5.831   6.263   0.275  0.1323  0.5482 -0.0085
 3799ntf    cn118091   6.332   5.937   0.199  0.2533 -0.3062 -0.3402
 3799ntf    sn218092   6.262   5.846   0.058 -0.0467 -0.2581 -0.2234
 3799ntf    nn318093   6.113   5.851   0.108 -0.0906  0.0182 -0.3764
 3799ntf    sn218094   5.984   5.891   0.030 -0.1735 -0.0089 -0.2535
 3799ntf    cn118095   5.996   6.070   0.059 -0.2229 -0.0043 -0.2661
 3799ntf    fn418096   6.318   6.068   0.190 -0.6304 -0.4228 -0.7140
 3799ntf    fn418097   6.284   5.894   0.315  0.1596  0.1305 -0.2142
 3799ntf    fn418098   6.461   5.913   0.218  0.0758 -0.5298  0.6554
 3799ntf    on518099   6.285   5.939  -0.049 -0.5491  0.2857  0.1361
 3799ntf    on518100   6.334   5.721   0.067 -0.3805 -0.4588 -0.3554
 3799ntf    on518101   5.861   5.863   0.101  0.1089 -0.2211  0.1538
 3799ntf    on518102   5.991   5.880  -0.114 -0.1712  0.2318 -0.2723
 3799ntf    fn418103   6.006   6.113   0.184 -0.6522  0.8167 -0.5070
 3799ntf    fn418104   6.105   6.122   0.005 -0.2369  0.1168 -0.1788
 3799ntf    fn418105   5.888   6.128   0.010 -0.1259  0.3615 -0.0575
 3800ntf    cn118106   2.658   3.980   6.311  0.2661  0.2493  0.0551
 3800ntf    sn218107   2.665   4.125   6.422 -0.2280  0.0260  0.3826
 3800ntf    nn318108   2.665   4.239   6.314  0.2683 -0.4821 -0.1668
 3800ntf    sn218109   2.552   4.294   6.220  0.2715  0.2427  0.2437
 3800ntf    cn118110   2.513   4.444   6.315 -0.0502  0.1441  0.2728
 3800ntf    fn418111   2.536   3.964   6.262  0.1047  0.0539  0.5081
 3800ntf    fn418112   2.740   3.982   6.208  0.5767 -0.0736  0.2917
 3800ntf    fn418113   2.684   3.866   6.373 -0.1320  0.2769  0.2797
 3800ntf    on518114   2.550   4.118   6.508 -0.6274  0.6935 -0.0874
 3800ntf    on518115   2.798   4.114   6.476  0.2139 -0.3919 -0.7578
 3800ntf    on518116   2.427   4.222   6.216  0.5417 -0.2085 -0.1716
 3800ntf    on518117   2.597   4.341   6.092  0.7811 -0.1386  0.2789
 3800ntf    fn418118   2.622   4.519   6.331 -0.1006  0.2208  0.2572
 3800ntf    fn418119   2.426   4.525   6.257 -0.3845 -0.3648  0.0661
 3800ntf    fn418120   2.465   4.414   6.434  0.6468 -0.0739  0.5054
 3801ntf    cn118121   4.066   2.466   3.768  0.0412  0.3666 -0.2277
 3801ntf    sn218122   3.907   2.542   3.721 -0.3446 -0.1371  0.2376
 3801ntf    nn318123   3.819   2.413   3.713 -0.0453 -0.3356  0.1378
 3801ntf    sn218124   3.783   2.325   3.588 -0.1741  0.0636 -0.1069
 3801ntf    cn118125   3.666   2.424   3.489  0.1764  0.5178 -0.0704
 3801ntf    fn418126   4.166   2.552   3.768 -0.0321  0.4703  0.7076
 3801ntf    fn418127   4.064   2.424   3.894 -0.2028  0.2147 -0.2804
 3801ntf    fn418128   4.094   2.361   3.693 -0.0046  0.1610  0.0386
 3801ntf    on518129   3.870   2.627   3.832 -0.2253  0.6496 -0.3118
 3801ntf    on518130   3.939   2.611   3.598 -0.6035 -0.1698  0.1522
 3801ntf    on518131   3.707   2.209   3.628  0.6606 -0.3371  0.3267
 3801ntf    on518132   3.896   2.304   3.501 -0.1036 -0.5071  0.1189
 3801ntf    fn418133   3.590   2.348   3.412 -0.4108  0.6271  0.3925
 3801ntf    fn418134   3.568   2.476   3.562 -0.0409 -0.2040  0.1598
 3801ntf    fn418135   3.721   2.525   3.425  0.6380  0.4225  0.1694
 3802ntf    cn118136   0.542   0.933   3.832  0.4180 -0.1724  0.2462
 3802ntf    sn218137   0.648   1.033   3.941  0.1520  0.0811  0.2753
 3802ntf    nn318138   0.789   0.964   3.935  0.0471 -0.1257  0.1695
 3802ntf    sn218139   0.912   1.011   3.849  0.0207 -0.1890  0.0971
 3802ntf    cn118140   1.052   0.912   3.908  0.3079  0.1061 -0.0877
 3802ntf    fn418141   0.421   0.984   3.817  0.3853 -0.3164  0.0209
 3802ntf    fn418142   0.599   0.916   3.714  0.1489  0.1987  0.0589
 3802ntf    fn418143   0.515   0.815   3.885 -0.5354 -0.0598  0.0229
 3802ntf    on518144   0.645   1.164   3.881  0.4777  0.1211  0.3416
 3802ntf    on518145   0.576   1.010   4.064 -0.6587  0.1068 -0.1864
 3802ntf    on518146   0.959   1.145   3.875  0.2388 -0.2592  0.0667
 3802ntf    on518147   0.896   0.963   3.714  0.4049 -0.3604  0.1120
 3802ntf    fn418148   1.085   0.925   4.036  0.0837 -0.3335  0.0164
 3802ntf    fn418149   1.033   0.781   3.893  0.2431  0.0774  0.2393
 3802ntf    fn418150   1.167   0.930   3.844  0.2338  0.3360 -0.1570
 3803ntf    cn118151   2.699   4.150   5.744 -0.3798  0.5318 -0.1137
 3803ntf    sn218152   2.797   3.997   5.736 -0.3918  0.5205 -0.0413
 3803ntf    nn318153   2.886   4.030   5.611  0.2673 -0.1558  0.2430
 3803ntf    sn218154   2.924   3.932   5.495  0.2366 -0.0564  0.1490
 3803ntf    cn118155   3.086   3.880   5.560  0.2963  0.0038  0.0482
 3803ntf    fn418156   2.662   4.179   5.620  0.2382 -0.0252 -0.4347
 3803ntf    fn418157   2.596   4.141   5.826 -0.3978 -0.5011 -0.2413
 3803ntf    fn418158   2.772   4.249   5.793 -0.0213  0.4412 -0.4591
 3803ntf    on518159   2.874   3.996   5.858 -0.3179  0.0601 -0.0924
 3803ntf    on518160   2.692   3.899   5.724 -0.3805  0.4696  0.2547
 3803ntf    on518161   2.969   4.007   5.381 -0.3219  0.3283  0.1785
 3803ntf    on518162   2.856   3.806   5.473  0.2823 -0.0253 -0.1720
 3803ntf    fn418163   3.162   3.800   5.487  0.0260 -0.3889  0.1899
 3803ntf    fn418164   3.170   3.981   5.578  0.5276 -0.1713 -0.0505
 3803ntf    fn418165   3.083   3.814   5.674 -0.0570  0.3225  0.2270
 3804ntf    cn118166   2.452   5.145   1.093 -0.1174 -0.0683  0.2697
 3804ntf    sn218167   2.633   5.164   1.090 -0.1612  0.2894 -0.1876
 3804ntf    nn318168   2.640   5.319   1.064 -0.1057  0.3494  0.1786
 3804ntf    sn218169   2.639   5.395   0.927 -0.4686  0.2816  0.1437
 3804ntf    cn118170   2.814   5.429   0.895 -0.4026 -0.0396  0.1624
 3804ntf    fn418171   2.420   5.026   1.143  0.2039 -0.0910  0.4235
 3804ntf    fn418172   2.397   5.235   1.174 -0.3195  0.4884 -0.4787
 3804ntf    fn418173   2.398   5.163   0.974  0.3306  0.7354  0.1806
 3804ntf    on518174   2.670   5.132   1.226  0.0758  0.2657 -0.2586
 3804ntf    on518175   2.668   5.067   0.989  0.7041  0.0043  0.3809
 3804ntf    on518176   2.584   5.527   0.945  0.2755  0.5177  0.7120
 3804ntf    on518177   2.588   5.331   0.808  0.8667  0.4063 -0.5113
 3804ntf    fn418178   2.905   5.337   0.924 -0.4084 -0.1760 -0.2493
 3804ntf    fn418179   2.826   5.463   0.767 -0.2206 -0.0646  0.1723
 3804ntf    fn418180   2.849   5.541   0.956  0.2441 -0.2396  0.1730
 3805ntf    cn118181   5.344   5.326   3.716 -0.2326 -0.1111  0.1014
 3805ntf    sn218182   5.214   5.453   3.725 -0.2181 -0.1022  0.1959
 3805ntf    nn318183   5.288   5.564   3.641 -0.2664  0.4186  0.8369
 3805ntf    sn218184   5.222   5.664   3.539  0.0896  0.1775  0.3674
 3805ntf    cn118185   5.204   5.809   3.647 -0.1848  0.1889  0.3063
 3805ntf    fn418186   5.462   5.371   3.755  0.2077 -0.7598 -0.4665
 3805ntf    fn418187   5.335   5.221   3.796  0.1833 -0.0521  0.2263
 3805ntf    fn418188   5.366   5.285   3.592 -0.0081 -0.3492  0.2204
 3805ntf    on518189   5.109   5.380   3.658 -0.1362  0.0482 -0.1004
 3805ntf    on518190   5.211   5.483   3.866 -0.4501  0.1200  0.1452
 3805ntf    on518191   5.087   5.628   3.503  0.1656 -0.1965  0.4490
 3805ntf    on518192   5.310   5.709   3.434  0.0402 -0.7264 -0.0741
 3805ntf    fn418193   5.162   5.775   3.768 -0.0388 -0.7143  0.1116
 3805ntf    fn418194   5.308   5.890   3.658  0.2031 -0.2689  0.0167
 3805ntf    fn418195   5.106   5.879   3.591 -0.1763  0.0428  0.1077
 3806ntf    cn118196   6.734   3.461   4.259 -0.0322  0.7051  0.1512
 3806ntf    sn218197   6.729   3.369   4.415  0.2435  0.1634 -0.1548
 3806ntf    nn318198   6.758   3.223   4.366 -0.6098  0.1920 -0.7667
 3806ntf    sn218199   6.669   3.094   4.349 -0.0408 -0.3279  0.0873
 3806ntf    cn118200   6.683   3.086   4.168  0.4095 -0.3388  0.1199
 3806ntf    fn418201   6.720   3.591   4.278  0.2187  0.7578 -0.0122
 3806ntf    fn418202   6.848   3.456   4.192 -0.0738 -0.5726  0.1539
 3806ntf    fn418203   6.642   3.425   4.171  0.3509  0.1095 -0.0139
 3806ntf    on518204   6.836   3.428   4.492  0.0605  0.0090  0.2211
 3806ntf    on518205   6.592   3.391   4.455  0.3742  0.4358  0.1516
 3806ntf    on518206   6.527   3.106   4.367  0.0457  0.5737  0.2453
 3806ntf    on518207   6.731   2.968   4.378 -0.0226 -0.4121 -0.3063
 3806ntf    fn418208   6.641   3.197   4.109 -0.2719 -0.5732  0.1450
 3806ntf    fn418209   6.807   3.080   4.123  0.4049 -0.0167  0.0623
 3806ntf    fn418210   6.616   2.990   4.105 -0.4707  0.1012  0.3613
 3807ntf    cn118211   1.537   1.855   0.756 -0.1639 -0.3633 -0.0740
 3807ntf    sn218212   1.434   1.833   0.904 -0.0205 -0.0319  0.0757
 3807ntf    nn318213   1.289   1.857   0.848  0.2940  0.2743 -0.6100
 3807ntf    sn218214   1.214   1.764   0.746 -0.0047  0.2966 -0.4115
 3807ntf    cn118215   1.087   1.689   0.851  0.2959  0.2123 -0.1046
 3807ntf    fn418216   1.644   1.925   0.792  0.0253 -0.6854  0.0018
 3807ntf    fn418217   1.583   1.740   0.710 -0.4397 -0.5532  0.1222
 3807ntf    fn418218   1.481   1.927   0.660  0.3076  0.1393  0.0233
 3807ntf    on518219   1.455   1.702   0.959  0.4197  0.0537  0.1126
 3807ntf    on518220   1.475   1.945   0.985  0.0915 -0.0957  0.1083
 3807ntf    on518221   1.286   1.652   0.690 -0.1805  0.1479 -0.3399
 3807ntf    on518222   1.128   1.836   0.655 -0.6890 -0.8552 -0.6966
 3807ntf    fn418223   1.015   1.774   0.923  0.3054  0.1213  0.0122
 3807ntf    fn418224   1.005   1.614   0.779  0.2064 -0.1680  0.3851
 3807ntf    fn418225   1.137   1.602   0.937 -0.5100 -0.0186  0.1385
 3808ntf    cn118226   3.668   6.268   3.144 -0.1310 -0.2398  0.0856
 3808ntf    sn218227   3.548   6.397   3.191 -0.0794 -0.1755  0.0402
 3808ntf    nn318228   3.526   6.364   3.343 -0.0584 -0.3699  0.0009
 3808ntf    sn218229   3.624   6.398   3.461  0.0004 -0.0939 -0.1264
 3808ntf    cn118230   3.556   6.555   3.521 -0.0003 -0.1193 -0.0611
 3808ntf    fn418231   3.695   6.259   3.015  0.0591 -0.1643  0.1203
 3808ntf    fn418232   3.783   6.291   3.205  0.0053 -0.4200 -0.1039
 3808ntf    fn418233   3.634   6.145   3.179  0.4286 -0.5163 -0.3388
 3808ntf    on518234   3.593   6.528   3.150 -0.3828 -0.1874 -0.3336
 3808ntf    on518235   3.436   6.345   3.117 -0.1032  0.0104 -0.0552
 3808ntf    on518236   3.757   6.439   3.425  0.0186  0.1659  0.2342
 3808ntf    on518237   3.606   6.312   3.575  0.4440 -0.1873 -0.1267
 3808ntf    fn418238   3.649   6.640   3.559  0.2390 -0.1719 -0.5230
 3808ntf    fn418239   3.491   6.617   3.423  0.3310  0.1803 -0.0923
 3808ntf    fn418240   3.472   6.536   3.622  0.5762 -0.3567  0.3787
 3809ntf    cn118241   3.199   4.176   1.418 -0.4607 -0.2184  0.0655
 3809ntf    sn218242   3.213   4.348   1.361 -0.0918 -0.2854 -0.0492
 3809ntf    nn318243   3.368   4.365   1.339 -0.1830  0.0079 -0.4940
 3809ntf    sn218244   3.451   4.309   1.218  0.1901 -0.0269 -0.2231
 3809ntf    cn118245   3.616   4.322   1.294 -0.0895 -0.2846  0.4407
 3809ntf    fn418246   3.295   4.140   1.502 -0.4665 -0.2543  0.0567
 3809ntf    fn418247   3.085   4.154   1.481 -0.6188 -0.2140 -0.2179
 3809ntf    fn418248   3.192   4.089   1.319  0.6090 -0.2486  0.0060
 3809ntf    on518249   3.136   4.356   1.239 -0.2812 -0.1640  0.0799
 3809ntf    on518250   3.155   4.426   1.467  0.2470  0.0372 -0.0986
 3809ntf    on518251   3.460   4.402   1.109  0.4894  0.1278 -0.0683
 3809ntf    on518252   3.429   4.170   1.186  0.3635 -0.1787  0.3011
 3809ntf    fn418253   3.715   4.299   1.209 -0.0906 -0.3157  0.4477
 3809ntf    fn418254   3.643   4.442   1.343 -0.3198 -0.1372  0.2137
 3809ntf    fn418255   3.639   4.237   1.392  0.4737 -0.3870  0.2214
 3810ntf    cn118256   2.955   5.049   0.695 -0.1646  0.1307 -0.1429
 3810ntf    sn218257   2.965   5.142   0.539  0.1701 -0.0023 -0.2017
 3810ntf    nn318258   3.047   5.043   0.450  0.0756 -0.5213  0.2840
 3810ntf    sn218259   3.041   5.025   0.294  0.0447 -0.4880  0.2814
 3810ntf    cn118260   3.186   5.127   0.254 -0.4003 -0.1034 -0.3726
 3810ntf    fn418261   3.056   4.963   0.692 -0.0879  0.2097  0.1001
 3810ntf    fn418262   2.973   5.133   0.796  0.2290 -0.0183 -0.0879
 3810ntf    fn418263   2.845   4.976   0.698  0.0526 -0.2201 -0.5004
 3810ntf    on518264   2.827   5.157   0.503 -0.0155  0.2091  0.5719
 3810ntf    on518265   3.043   5.259   0.574 -0.1283  0.0852  0.1788
 3810ntf    on518266   2.930   5.090   0.229 -0.1719 -0.6510  0.4873
 3810ntf    on518267   3.076   4.893   0.248 -0.0031 -0.4348  0.0920
 3810ntf    fn418268   3.217   5.121   0.125  0.3232 -0.0280 -0.2074
 3810ntf    fn418269   3.184   5.256   0.283  0.1352 -0.0619 -0.4952
 3810ntf    fn418270   3.295   5.087   0.317 -0.3670  0.2199 -0.2263
 3811ntf    cn118271   0.752   0.149   4.873  0.1594 -0.0743 -0.2706
 3811ntf    sn218272   0.862   0.031   4.958  0.2561  0.0711 -0.1936
 3811ntf    nn318273   0.758  -0.039   5.052 -0.0019  0.4994 -0.1527
 3811ntf    sn218274   0.689  -0.179   5.037  0.2167  0.3723  0.0154
 3811ntf    cn118275   0.653  -0.217   5.211  0.3489 -0.0824 -0.0548
 3811ntf    fn418276   0.662   0.203   4.952  0.4542 -0.1562  0.1213
 3811ntf    fn418277   0.816   0.250   4.816 -0.3042  0.1129 -0.4610
 3811ntf    fn418278   0.671   0.094   4.783 -0.2023 -0.5940  0.3655
 3811ntf    on518279   0.919  -0.041   4.847  0.1513 -0.7392  0.2731
 3811ntf    on518280   0.956   0.121   5.021  0.1771 -0.1021  0.1698
 3811ntf    on518281   0.770  -0.293   5.002  0.5558  0.2718  1.0869
 3811ntf    on518282   0.558  -0.175   4.975 -0.0309  0.1132  0.5138
 3811ntf    fn418283   0.614  -0.115   5.286  0.3268 -0.1947  0.0858
 3811ntf    fn418284   0.558  -0.308   5.225  0.3996 -0.0913  0.2574
 3811ntf    fn418285   0.759  -0.266   5.273  0.4462  0.4492  0.2050
 3812ntf    cn118286   1.205   2.396   6.106 -0.2497  0.1225 -0.0384
 3812ntf    sn218287   1.295   2.239   6.096  0.0241  0.2755 -0.0014
 3812ntf    nn318288   1.427   2.284   6.024 -0.1354  0.6218 -0.0795
 3812ntf    sn218289   1.572   2.224   6.016 -0.2371  0.3901 -0.2221
 3812ntf    cn118290   1.584   2.156   5.848 -0.1636  0.0282 -0.0699
 3812ntf    fn418291   1.080   2.379   6.146 -0.0901  0.1357  0.4698
 3812ntf    fn418292   1.264   2.481   6.189  0.5789 -0.0894 -0.3994
 3812ntf    fn418293   1.204   2.450   5.985  0.1396 -0.1772 -0.1777
 3812ntf    on518294   1.305   2.190   6.231 -0.6665 -0.1802 -0.1059
 3812ntf    on518295   1.209   2.167   6.004  0.2803  0.3322 -0.2898
 3812ntf    on518296   1.592   2.105   6.094 -0.1539  0.3008 -0.3785
 3812ntf    on518297   1.677   2.323   6.025 -0.0112  0.1644 -0.3626
 3812ntf    fn418298   1.493   2.060   5.840 -0.0279 -0.0943 -0.1486
 3812ntf    fn418299   1.557   2.236   5.747 -0.2412  0.3149  0.1770
 3812ntf    fn418300   1.696   2.090   5.823 -0.2308 -0.1953  0.2110
 3813ntf    cn118301   4.297   0.339   1.034  0.0874 -0.1122  0.1272
 3813ntf    sn218302   4.449   0.347   0.936 -0.0179 -0.0077 -0.0282
 3813ntf    nn318303   4.545   0.370   1.059 -0.2449  0.4882  0.0605
 3813ntf    sn218304   4.599   0.507   1.113  0.2473  0.1495  0.4362
 3813ntf    cn118305   4.760   0.525   1.029  0.2006 -0.4933  0.2020
 3813ntf    fn418306   4.186   0.370   0.969 -0.2114  0.2374  0.7999
 3813ntf    fn418307   4.281   0.217   1.084  0.4018 -0.1255  0.1982
 3813ntf    fn418308   4.307   0.412   1.144 -0.4442  0.2705 -0.0705
 3813ntf    on518309   4.466   0.217   0.877 -0.2100  0.0681 -0.2503
 3813ntf    on518310   4.447   0.458   0.844 -0.3659 -0.2260 -0.2824
 3813ntf    on518311   4.632   0.496   1.253  0.0065 -0.1272  0.4730
 3813ntf    on518312   4.523   0.622   1.071  0.6785  0.2765 -0.0062
 3813ntf    fn418313   4.810   0.645   1.051  0.3473 -0.5129 -0.0282
 3813ntf    fn418314   4.845   0.432   1.069  0.7150 -0.0305  0.1826
 3813ntf    fn418315   4.747   0.511   0.898 -0.0345  0.6928  0.0860
 3814ntf    cn118316   4.585   5.855   3.059 -0.1646 -0.0697  0.0722
 3814ntf    sn218317   4.540   6.014   2.985 -0.0560 -0.2170 -0.3114
 3814ntf    nn318318   4.385   6.006   3.008  0.0252  0.4454  0.4953
 3814ntf    sn218319   4.277   6.096   2.937  0.2043  0.0495 -0.2835
 3814ntf    cn118320   4.234   6.215   3.067 -0.0287 -0.0691 -0.2502
 3814ntf    fn418321   4.528   5.749   3.003  0.1801 -0.3855  0.3058
 3814ntf    fn418322   4.714   5.826   3.072 -0.0366  0.3096 -0.3410
 3814ntf    fn418323   4.543   5.848   3.185 -0.2098  0.7372  0.1073
 3814ntf    on518324   4.609   6.103   3.075 -0.3107 -0.5683  0.2318
 3814ntf    on518325   4.588   6.008   2.849 -0.3419 -0.4407 -0.4039
 3814ntf    on518326   4.145   6.041   2.920  0.0945 -0.0007  0.6520
 3814ntf    on518327   4.326   6.176   2.827  0.5460  0.2692  0.0256
 3814ntf    fn418328   4.176   6.155   3.169  0.3789 -0.2433 -0.1207
 3814ntf    fn418329   4.346   6.273   3.108  0.0912 -0.3460 -0.1831
 3814ntf    fn418330   4.151   6.310   3.028 -0.0325  0.0551  0.0581
 3815ntf    cn118331   4.445   5.788   6.790 -0.2269 -0.2813  0.3511
 3815ntf    sn218332   4.383   5.901   6.918 -0.3231 -0.1472  0.1881
 3815ntf    nn318333   4.514   5.972   6.968 -0.5514  0.4782 -0.1023
 3815ntf    sn218334   4.570   5.978   7.114 -0.1898 -0.1123 -0.2143
 3815ntf    cn118335   4.673   6.128   7.113 -0.2143 -0.0938  0.1152
 3815ntf    fn418336   4.521   5.688   6.832  0.4497  0.0902  0.0163
 3815ntf    fn418337   4.343   5.741   6.720 -0.2514 -0.2275  0.3510
 3815ntf    fn418338   4.523   5.861   6.712 -0.1718 -0.1833  0.4995
 3815ntf    on518339   4.299   5.997   6.852 -0.2958 -0.1237  0.1880
 3815ntf    on518340   4.316   5.815   7.013 -0.1687  0.2378  0.6521
 3815ntf    on518341   4.657   5.863   7.124 -0.0956 -0.0306 -0.0928
 3815ntf    on518342   4.480   6.003   7.223  0.2082 -0.5808  0.2297
 3815ntf    fn418343   4.599   6.238   7.110  0.2105  0.1973  0.3352
 3815ntf    fn418344   4.744   6.136   7.224  0.0432 -0.0719 -0.0517
 3815ntf    fn418345   4.754   6.135   7.009  0.1069  0.4547  0.3957
 3816ntf    cn118346   6.888   1.730   4.651 -0.1777  0.1683  0.1127
 3816ntf    sn218347   6.968   1.732   4.815 -0.0016  0.0445  0.0280
 3816ntf    nn318348   6.908   1.601   4.876 -0.3036 -0.0980 -0.5616
 3816ntf    sn218349   6.967   1.457   4.900 -0.3681  0.0174  0.3486
 3816ntf    cn118350   6.839   1.389   5.009 -0.1907 -0.6594  0.1366
 3816ntf    fn418351   6.756   1.730   4.654 -0.1860 -0.3040 -0.2102
 3816ntf    fn418352   6.924   1.836   4.580  0.2090  0.0652  0.1545
 3816ntf    fn418353   6.915   1.624   4.578 -0.4240 -0.0635  0.3560
 3816ntf    on518354   7.110   1.742   4.790  0.0253 -0.5063 -0.0646
 3816ntf    on518355   6.912   1.850   4.875  0.2856  0.2662 -0.1397
 3816ntf    on518356   7.084   1.463   4.984 -0.0090 -0.1598 -0.1346
 3816ntf    on518357   6.975   1.367   4.787 -0.0953  0.4597  0.0107
 3816ntf    fn418358   6.869   1.266   5.048 -0.3267 -0.6523  0.2661
 3816ntf    fn418359   6.830   1.472   5.112  0.2803 -0.2171 -0.1785
 3816ntf    fn418360   6.719   1.384   4.955 -0.0727  0.4052 -0.2373
 3817ntf    cn118361   2.326   4.872   2.062 -0.5881  0.2163  0.0085
 3817ntf    sn218362   2.442   4.846   1.925 -0.2435  0.1331  0.3139
 3817ntf    nn318363   2.429   4.986   1.855 -0.7946 -0.1212 -0.0982
 3817ntf    sn218364   2.352   5.026   1.724  0.1012  0.2682 -0.5123
 3817ntf    cn118365   2.477   5.040   1.593  0.3751  0.4192 -0.2351
 3817ntf    fn418366   2.341   4.979   2.139 -0.3128  0.0409  0.1992
 3817ntf    fn418367   2.204   4.871   2.010 -0.6619 -0.6160  0.1889
 3817ntf    fn418368   2.329   4.767   2.142  0.1569  0.1677 -0.0785
 3817ntf    on518369   2.569   4.834   1.991  0.0732  0.1099 -0.2921
 3817ntf    on518370   2.381   4.741   1.848  0.6617 -0.4503  0.3902
 3817ntf    on518371   2.299   5.158   1.748 -0.3695 -0.0826  0.4406
 3817ntf    on518372   2.252   4.929   1.689 -0.2366  0.2629  0.4289
 3817ntf    fn418373   2.567   5.133   1.622  0.4135  0.2264  0.2727
 3817ntf    fn418374   2.536   4.924   1.569 -0.4533 -0.0879  0.1449
 3817ntf    fn418375   2.419   5.073   1.479 -0.3519 -0.2776 -0.0711
 3818ntf    cn118376   4.063   1.210   7.169  0.4476 -0.1309 -0.0055
 3818ntf    sn218377   4.173   1.068   7.142  0.2228 -0.2912 -0.0813
 3818ntf    nn318378   4.077   0.958   7.085 -0.4706  0.1765  0.1809
 3818ntf    sn218379   4.043   0.822   7.155  0.1427 -0.0293  0.0817
 3818ntf    cn118380   3.976   0.731   7.012  0.2839  0.4728 -0.3094
 3818ntf    fn418381   3.971   1.223   7.076  0.2512 -0.1456  0.1867
 3818ntf    fn418382   3.990   1.195   7.278  0.5665  0.0558  0.1008
 3818ntf    fn418383   4.119   1.330   7.183 -0.5503  0.3536 -0.0868
 3818ntf    on518384   4.272   1.110   7.045  0.2487 -0.0931  0.0317
 3818ntf    on518385   4.235   1.043   7.270 -0.2562  0.1969  0.2487
 3818ntf    on518386   3.935   0.843   7.248  0.0395 -0.0773 -0.0250
 3818ntf    on518387   4.158   0.744   7.193 -0.0189 -0.6665 -0.7054
 3818ntf    fn418388   3.939   0.611   7.056  0.4724  0.5667  0.1110
 3818ntf    fn418389   3.873   0.781   6.947  0.4901  0.0471 -0.9738
 3818ntf    fn418390   4.067   0.702   6.921  0.5739 -0.3146  0.2182
 3819ntf    cn118391   1.675   1.296   1.884  0.3117 -0.2228  0.0445
 3819ntf    sn218392   1.768   1.333   1.732  0.0036 -0.1318 -0.1228
 3819ntf    nn318393   1.852   1.202   1.716  0.3415  0.0894 -0.1664
 3819ntf    sn218394   1.912   1.138   1.586  0.3289  0.0627 -0.1592
 3819ntf    cn118395   1.790   1.012   1.541  0.1827  0.2026 -0.1540
 3819ntf    fn418396   1.568   1.221   1.863  0.1244  0.1864 -0.4815
 3819ntf    fn418397   1.751   1.225   1.966 -0.1726 -0.8552 -0.0449
 3819ntf    fn418398   1.637   1.405   1.949  0.3216 -0.1417 -0.0848
 3819ntf    on518399   1.658   1.352   1.641  0.4316 -0.0955 -0.6346
 3819ntf    on518400   1.852   1.444   1.770 -0.2303 -0.0458  0.1531
 3819ntf    on518401   2.032   1.064   1.614  0.1441 -0.2379 -0.1626
 3819ntf    on518402   1.920   1.235   1.479 -0.0439 -0.1255 -0.3599
 3819ntf    fn418403   1.774   0.905   1.617  0.1321 -0.1473 -0.6488
 3819ntf    fn418404   1.672   1.072   1.546  0.2350  0.2933 -0.0091
 3819ntf    fn418405   1.795   0.977   1.413 -0.1869  0.3652 -0.2150
 3820ntf    cn118406   6.686   2.866   5.589 -0.5851  0.4093  0.4344
 3820ntf    sn218407   6.752   3.023   5.653  0.2645  0.1688  0.1645
 3820ntf    nn318408   6.653   3.120   5.580 -0.0811 -0.3533 -0.0678
 3820ntf    sn218409   6.673   3.219   5.460 -0.0204 -0.3696 -0.0713
 3820ntf    cn118410   6.564   3.350   5.523  0.3833  0.1129 -0.3667
 3820ntf    fn418411   6.711   2.855   5.459 -0.0742 -0.0284  0.5674
 3820ntf    fn418412   6.739   2.764   5.655  0.0401  0.4669  0.0298
 3820ntf    fn418413   6.555   2.857   5.604 -0.5785 -0.3965  0.0180
 3820ntf    on518414   6.735   3.017   5.797 -0.1326 -0.5694  0.0900
 3820ntf    on518415   6.885   3.033   5.600  0.1272  0.5906 -0.1093
 3820ntf    on518416   6.613   3.179   5.336 -0.2840 -0.1244 -0.0237
 3820ntf    on518417   6.799   3.289   5.463 -0.0755 -0.2720 -0.0313
 3820ntf    fn418418   6.438   3.312   5.538  0.4107  0.1855  0.0679
 3820ntf    fn418419   6.605   3.406   5.636 -0.7817 -0.2667  0.2647
 3820ntf    fn418420   6.560   3.445   5.431  0.6021  0.3216 -0.1607
 3821ntf    cn118421   6.223   5.386   4.081 -0.0553 -0.2794 -0.0306
 3821ntf    sn218422   6.351   5.272   4.019  0.1007 -0.1991  0.1432
 3821ntf    nn318423   6.328   5.152   4.118 -0.0932  0.0982  0.4624
 3821ntf    sn218424   6.439   5.091   4.210  0.2062 -0.1237 -0.0411
 3821ntf    cn118425   6.495   4.954   4.103 -0.0125 -0.3309  0.1073
 3821ntf    fn418426   6.100   5.341   4.068 -0.0216 -0.2087 -0.6614
 3821ntf    fn418427   6.241   5.418   4.208  0.4043  0.0236 -0.1687
 3821ntf    fn418428   6.217   5.501   4.015 -0.3233 -0.4247 -0.2605
 3821ntf    on518429   6.309   5.244   3.884 -0.0610 -0.2338  0.2004
 3821ntf    on518430   6.476   5.343   4.022  0.0712 -0.1230 -0.3657
 3821ntf    on518431   6.379   5.023   4.322 -0.5509 -0.0751 -0.4137
 3821ntf    on518432   6.554   5.172   4.241 -0.1009  0.2631  0.0901
 3821ntf    fn418433   6.524   4.991   3.979 -0.1965 -0.0772  0.1372
 3821ntf    fn418434   6.601   4.892   4.151  0.0885 -0.2449 -0.0024
 3821ntf    fn418435   6.403   4.859   4.095  0.3433 -0.6422 -0.2815
 3822ntf    cn118436   1.833   2.058   4.241 -0.0988 -0.1427  0.1240
 3822ntf    sn218437   1.879   2.231   4.275  0.0218 -0.1645  0.0720
 3822ntf    nn318438   1.972   2.261   4.152  0.2732  0.0020  0.3005
 3822ntf    sn218439   2.127   2.239   4.143  0.2233 -0.1561 -0.2408
 3822ntf    cn118440   2.191   2.392   4.217 -0.0669 -0.2116  0.1258
 3822ntf    fn418441   1.738   2.005   4.316 -0.1448 -0.1421  0.0664
 3822ntf    fn418442   1.796   2.038   4.116  0.3724  0.5073 -0.1296
 3822ntf    fn418443   1.940   1.981   4.251 -0.1220 -0.2293 -0.2927
 3822ntf    on518444   1.758   2.308   4.283  0.0071 -0.2304  0.4693
 3822ntf    on518445   1.946   2.212   4.401 -0.3135  0.2791  0.3215
 3822ntf    on518446   2.182   2.254   4.011 -0.0006  0.6286 -0.2497
 3822ntf    on518447   2.177   2.138   4.233  0.2579  0.2277  0.1724
 3822ntf    fn418448   2.168   2.502   4.146 -0.4631 -0.1068  0.4114
 3822ntf    fn418449   2.149   2.415   4.340  0.3934 -0.0198  0.2491
 3822ntf    fn418450   2.322   2.394   4.228 -0.0571 -0.0575 -0.0089
 3823ntf    cn118451   6.125   2.343   4.583  0.0758 -0.3480  0.1616
 3823ntf    sn218452   6.114   2.166   4.624  0.1896 -0.4421 -0.2134
 3823ntf    nn318453   6.171   2.153   4.769 -0.2893 -0.9081 -0.0644
 3823ntf    sn218454   6.094   2.172   4.905  0.2467 -0.0626  0.1350
 3823ntf    cn118455   6.070   2.002   4.966  0.5365 -0.1969 -0.1187
 3823ntf    fn418456   6.058   2.380   4.476  0.2529  0.3034  0.2685
 3823ntf    fn418457   6.083   2.424   4.679 -0.1670  0.0327 -0.2622
 3823ntf    fn418458   6.252   2.378   4.567 -0.1970  0.2264 -0.7914
 3823ntf    on518459   5.974   2.146   4.595  0.0349  0.4663 -0.1239
 3823ntf    on518460   6.203   2.111   4.524 -0.0502 -0.4386 -0.4309
 3823ntf    on518461   5.960   2.224   4.896  0.0901 -0.3363  0.8115
 3823ntf    on518462   6.174   2.242   5.002 -0.0545 -0.0575  0.3814
 3823ntf    fn418463   6.028   2.010   5.091 -0.1017 -0.3261 -0.3203
 3823ntf    fn418464   5.981   1.933   4.897 -0.3372  0.0333  0.7526
 3823ntf    fn418465   6.181   1.930   4.966  0.1784 -0.7553 -0.3790
 3824ntf    cn118466   6.968   3.617   3.448  0.2047 -0.1135 -0.6229
 3824ntf    sn218467   7.133   3.672   3.500 -0.0191  0.0123 -0.0377
 3824ntf    nn318468   7.130   3.824   3.462  0.3986 -0.2996 -1.3589
 3824ntf    sn218469   7.243   3.931   3.479 -0.1849  0.1446 -0.1574
 3824ntf    cn118470   7.152   4.075   3.543  0.0810  0.2500 -0.0137
 3824ntf    fn418471   6.946   3.598   3.319  0.2067 -0.0587 -0.6313
 3824ntf    fn418472   6.923   3.504   3.499 -0.1068  0.0142 -0.6085
 3824ntf    fn418473   6.880   3.711   3.483  0.5490  0.0880 -0.2885
 3824ntf    on518474   7.120   3.651   3.642 -1.2923  0.0157 -0.1401
 3824ntf    on518475   7.219   3.590   3.417 -0.2309 -0.2021 -0.0468
 3824ntf    on518476   7.295   3.975   3.351  0.4328 -1.1441 -0.3630
 3824ntf    on518477   7.337   3.902   3.584 -0.1910  0.2563 -0.1210
 3824ntf    fn418478   7.223   4.184   3.564  0.0517  0.3807 -0.5867
 3824ntf    fn418479   7.060   4.116   3.457  0.1529 -0.5712 -0.4908
 3824ntf    fn418480   7.088   4.047   3.655 -0.3487  0.5483 -0.1832
 3825ntf    cn118481   0.052   5.429   0.472 -0.1722  0.0295  0.0225
 3825ntf    sn218482  -0.111   5.491   0.421 -0.1099  0.0263 -0.1839
 3825ntf    nn318483  -0.150   5.357   0.348  0.2844  0.1627 -0.6456
 3825ntf    sn218484  -0.281   5.272   0.357  0.2238  0.2736 -0.4933
 3825ntf    cn118485  -0.246   5.173   0.505  0.0518  0.1042 -0.5651
 3825ntf    fn418486   0.036   5.320   0.544 -0.6190  0.2689  0.2923
 3825ntf    fn418487   0.131   5.398   0.371  0.1498  0.2194  0.2147
 3825ntf    fn418488   0.117   5.519   0.545  0.0540  0.1022 -0.2642
 3825ntf    on518489  -0.175   5.518   0.548 -0.0692 -0.0590 -0.1454
 3825ntf    on518490  -0.078   5.597   0.329 -0.3106  0.2851  0.0369
 3825ntf    on518491  -0.297   5.176   0.252  0.4003 -0.1359 -0.1492
 3825ntf    on518492  -0.400   5.346   0.392  0.2277  0.2147 -0.3513
 3825ntf    fn418493  -0.352   5.100   0.536  0.0538  0.2610 -0.1741
 3825ntf    fn418494  -0.148   5.085   0.495  0.1166  0.1064 -0.0041
 3825ntf    fn418495  -0.223   5.246   0.613  0.0396 -0.4569 -0.1763
 3826ntf    cn118496   2.038   5.921   6.232  0.3527  0.0273 -0.1275
 3826ntf    sn218497   2.026   5.818   6.381  0.0862  0.1581 -0.0591
 3826ntf    nn318498   2.105   5.692   6.332 -0.0655 -0.0025  0.1040
 3826ntf    sn218499   2.258   5.660   6.351  0.0902  0.6091 -0.0985
 3826ntf    cn118500   2.313   5.641   6.179 -0.1495  0.2774 -0.1394
 3826ntf    fn418501   2.017   6.049   6.256  0.2623  0.1097 -0.6372
 3826ntf    fn418502   2.160   5.918   6.179  0.2845  0.3723 -0.3042
 3826ntf    fn418503   1.954   5.886   6.137  0.3172  0.1982 -0.1585
 3826ntf    on518504   2.086   5.894   6.488  0.5991  0.2592 -0.4175
 3826ntf    on518505   1.888   5.782   6.404  0.2242 -0.4147 -0.1131
 3826ntf    on518506   2.271   5.528   6.407  0.0668  0.4965 -0.3603
 3826ntf    on518507   2.340   5.766   6.405  0.7531  0.3512 -0.5827
 3826ntf    fn418508   2.227   5.558   6.122  0.1192 -0.0459 -0.0762
 3826ntf    fn418509   2.300   5.755   6.112  0.0057  0.6992  0.5323
 3826ntf    fn418510   2.438   5.604   6.158 -0.0872  0.3515  0.1011
 3827ntf    cn118511   4.799   5.169   5.460  0.1250  0.1957  0.4719
 3827ntf    sn218512   4.773   5.333   5.387  0.1941  0.0837  0.1924
 3827ntf    nn318513   4.914   5.402   5.393 -0.1634  0.8641 -0.1939
 3827ntf    sn218514   5.031   5.395   5.290 -0.0619  0.0181 -0.0250
 3827ntf    cn118515   4.995   5.543   5.191  0.0671  0.1966  0.1941
 3827ntf    fn418516   4.867   5.178   5.573  0.3540  0.4431  0.3149
 3827ntf    fn418517   4.684   5.111   5.490  0.0593  0.0359 -0.0661
 3827ntf    fn418518   4.869   5.088   5.382 -0.0673  0.3510  0.1371
 3827ntf    on518519   4.720   5.295   5.258  0.2077  0.3064  0.1210
 3827ntf    on518520   4.686   5.395   5.484  0.1374  0.4514 -0.0934
 3827ntf    on518521   5.027   5.277   5.206 -0.0998  0.1610 -0.2258
 3827ntf    on518522   5.157   5.421   5.356  0.3890 -0.7440 -0.5635
 3827ntf    fn418523   5.080   5.566   5.092 -0.0994  0.4950  0.1199
 3827ntf    fn418524   4.873   5.538   5.141  0.3472 -0.2945 -0.4594
 3827ntf    fn418525   5.001   5.654   5.263  0.4869  0.3007  0.0042
 3828ntf    cn118526   3.619   3.993   6.002  0.0845 -0.1399  0.0493
 3828ntf    sn218527   3.764   4.045   5.905  0.0586 -0.0474  0.0598
 3828ntf    nn318528   3.871   3.997   6.009  0.2273  0.2375  0.0190
 3828ntf    sn218529   3.950   3.862   6.027 -0.1200  0.0298 -0.0084
 3828ntf    cn118530   3.904   3.798   6.191  0.0316  0.1753  0.0907
 3828ntf    fn418531   3.515   3.965   5.926 -0.0508  0.2955  0.0713
 3828ntf    fn418532   3.626   3.876   6.063 -0.3675 -0.4117 -0.4186
 3828ntf    fn418533   3.580   4.081   6.093 -0.1708 -0.1399 -0.0593
 3828ntf    on518534   3.750   3.980   5.777 -0.6111  0.5783 -0.1958
 3828ntf    on518535   3.746   4.188   5.894 -0.5845 -0.1777 -0.6650
 3828ntf    on518536   4.091   3.885   6.047 -0.0087 -0.5250 -0.1455
 3828ntf    on518537   3.914   3.752   5.940  0.1779  0.0185 -0.1183
 3828ntf    fn418538   3.975   3.694   6.230 -0.0559 -0.3705 -1.1474
 3828ntf    fn418539   3.905   3.891   6.285 -0.2485  0.5329 -0.2537
 3828ntf    fn418540   3.782   3.747   6.191  0.2298 -0.3052  0.1132
 3829ntf    cn118541   6.164   4.274   6.437 -0.4245  0.0808 -0.1784
 3829ntf    sn218542   6.161   4.264   6.255 -0.0970 -0.2934 -0.1630
 3829ntf    nn318543   6.043   4.161   6.239 -0.3333 -0.1152  0.4040
 3829ntf    sn218544   5.970   4.108   6.111 -0.0469  0.0964  0.1507
 3829ntf    cn118545   6.040   3.942   6.089 -0.2245  0.0158  0.1906
 3829ntf    fn418546   6.095   4.179   6.498 -0.2938 -0.0076 -0.1677
 3829ntf    fn418547   6.291   4.276   6.471 -0.1717  0.4017 -1.1016
 3829ntf    fn418548   6.111   4.388   6.477 -0.3621  0.1454 -0.2808
 3829ntf    on518549   6.123   4.395   6.211 -0.2958 -0.2820  0.0431
 3829ntf    on518550   6.291   4.210   6.224 -0.3925 -0.9851 -0.2174
 3829ntf    on518551   5.990   4.187   5.992 -0.5212  0.9536  0.6269
 3829ntf    on518552   5.831   4.083   6.140 -0.0096  0.3317  0.5351
 3829ntf    fn418553   6.014   3.867   6.195 -0.0167 -0.1795  0.1050
 3829ntf    fn418554   5.978   3.882   5.988  0.1190 -0.1071  0.0498
 3829ntf    fn418555   6.172   3.942   6.075 -0.2659 -0.3308 -0.2148
 3830ntf    cn118556   0.400   3.683   3.192  0.2927  0.1759  0.2350
 3830ntf    sn218557   0.412   3.502   3.205  0.0893  0.1218 -0.3020
 3830ntf    nn318558   0.464   3.468   3.060 -0.1538  0.4996 -0.4786
 3830ntf    sn218559   0.609   3.489   3.005  0.1588 -0.0250  0.1265
 3830ntf    cn118560   0.593   3.623   2.882 -0.1332 -0.2165 -0.0449
 3830ntf    fn418561   0.354   3.742   3.301 -0.5444  0.1090 -0.0707
 3830ntf    fn418562   0.520   3.731   3.165  0.2631  0.1046 -0.0267
 3830ntf    fn418563   0.325   3.724   3.091 -0.0343 -0.0586  0.3808
 3830ntf    on518564   0.498   3.497   3.320 -0.1343  0.6404 -0.1102
 3830ntf    on518565   0.283   3.443   3.228  0.1610  0.0201 -0.1603
 3830ntf    on518566   0.637   3.379   2.916  0.3135  0.2424 -0.1613
 3830ntf    on518567   0.714   3.527   3.096 -0.1660  0.6252  0.2386
 3830ntf    fn418568   0.577   3.743   2.936  0.0702 -0.3190  0.2480
 3830ntf    fn418569   0.701   3.629   2.806 -0.1192  0.9751  0.0571
 3830ntf    fn418570   0.489   3.596   2.806 -0.0879  0.0056 -0.1840
 3831ntf    cn118571   1.184   4.279   4.937  0.1530 -0.2205 -0.3975
 3831ntf    sn218572   1.124   4.150   5.049  0.0897  0.1328 -0.0220
 3831ntf    nn318573   1.104   4.232   5.181 -0.0595  0.1301 -0.0431
 3831ntf    sn218574   0.981   4.312   5.236 -0.0711 -0.0154  0.1461
 3831ntf    cn118575   0.924   4.205   5.372  0.0298 -0.5342 -0.2179
 3831ntf    fn418576   1.104   4.384   4.937 -0.0997 -0.4097  0.2882
 3831ntf    fn418577   1.304   4.325   4.969  0.2795  0.0163 -1.1935
 3831ntf    fn418578   1.194   4.227   4.816  0.4818 -0.3498 -0.3155
 3831ntf    on518579   1.008   4.093   4.985  0.1598  0.0016 -0.0326
 3831ntf    on518580   1.238   4.062   5.062 -0.0802 -0.1038 -0.1379
 3831ntf    on518581   0.877   4.336   5.138  0.1543  0.1479 -0.0533
 3831ntf    on518582   1.021   4.432   5.306 -0.0182 -0.0390  0.1573
 3831ntf    fn418583   0.800   4.241   5.401  0.1507  0.1161 -0.4840
 3831ntf    fn418584   0.918   4.083   5.322  0.2586 -0.6756  0.0960
 3831ntf    fn418585   1.000   4.209   5.480 -0.1077  0.0403 -0.1384
 3832ntf    cn118586   6.170   3.903   2.291  0.2119 -0.1097  0.0217
 3832ntf    sn218587   6.271   3.760   2.244  0.1905 -0.0575 -0.1836
 3832ntf    nn318588   6.203   3.719   2.108 -0.3249  0.1875 -0.0040
 3832ntf    sn218589   6.248   3.750   1.960 -0.1817  0.0829  0.0165
 3832ntf    cn118590   6.086   3.768   1.880  0.0729  0.3024 -0.4529
 3832ntf    fn418591   6.187   4.006   2.209  0.3338 -0.1334  0.0176
 3832ntf    fn418592   6.040   3.880   2.302  0.1606  0.2373  0.1685
 3832ntf    fn418593   6.207   3.942   2.412  0.1103  0.5841 -0.1680
 3832ntf    on518594   6.405   3.812   2.236  0.0546  0.3203 -0.0206
 3832ntf    on518595   6.239   3.664   2.346  0.1821  0.1472  0.0066
 3832ntf    on518596   6.310   3.645   1.883 -0.8393 -0.1677 -0.1814
 3832ntf    on518597   6.305   3.880   1.933 -0.1917  0.1032  0.0934
 3832ntf    fn418598   6.086   3.798   1.751  0.0290 -0.3872 -0.6156
 3832ntf    fn418599   6.019   3.655   1.896  0.3317  0.0920 -0.8263
 3832ntf    fn418600   6.015   3.864   1.938  0.4762  0.1600  0.2782
 3833ntf    cn118601   3.084   1.370   7.153 -0.1839 -0.0562  0.3459
 3833ntf    sn218602   3.264   1.343   7.147 -0.2065 -0.0711 -0.2926
 3833ntf    nn318603   3.277   1.195   7.095  1.0878 -0.1036  0.0765
 3833ntf    sn218604   3.288   1.134   6.951  0.0903 -0.0276 -0.0416
 3833ntf    cn118605   3.468   1.134   6.927  0.0872  0.4020 -0.0707
 3833ntf    fn418606   3.055   1.491   7.197 -0.1652  0.2068 -0.3502
 3833ntf    fn418607   3.040   1.367   7.029  0.4265 -0.4885  0.1318
 3833ntf    fn418608   3.033   1.266   7.217  0.5131 -0.4514  0.2780
 3833ntf    on518609   3.303   1.445   7.052  0.1050 -0.1971 -0.3034
 3833ntf    on518610   3.311   1.362   7.282  0.0757  0.2507 -0.4329
 3833ntf    on518611   3.236   1.215   6.843  0.3978  0.1327 -0.0717
 3833ntf    on518612   3.255   0.994   6.949 -0.1163  0.0246 -0.4481
 3833ntf    fn418613   3.523   1.254   6.917 -0.3538  0.5820 -0.4081
 3833ntf    fn418614   3.530   1.077   7.029  0.0461  0.4568 -0.0151
 3833ntf    fn418615   3.499   1.069   6.816  0.0631  0.1649  0.0617
 3834ntf    cn118616   4.576   5.457   0.837 -0.2250  0.3101  0.0051
 3834ntf    sn218617   4.457   5.565   0.752 -0.4410  0.0313 -0.0495
 3834ntf    nn318618   4.344   5.456   0.747  0.0669 -0.5006 -0.0127
 3834ntf    sn218619   4.203   5.443   0.814 -0.0667  0.3219 -0.1200
 3834ntf    cn118620   4.190   5.262   0.807 -0.2389  0.3272  0.0535
 3834ntf    fn418621   4.531   5.398   0.947  0.6311 -0.5109 -0.0710
 3834ntf    fn418622   4.605   5.353   0.762 -0.3971  0.5012 -0.3284
 3834ntf    fn418623   4.693   5.513   0.864  0.1943 -0.3410 -0.4468
 3834ntf    on518624   4.432   5.671   0.846  0.1151  0.0929  0.0319
 3834ntf    on518625   4.513   5.608   0.626 -0.2582  0.2140  0.0929
 3834ntf    on518626   4.086   5.483   0.738 -0.1583 -0.1360 -0.2209
 3834ntf    on518627   4.199   5.469   0.956 -0.2923 -0.1137 -0.0432
 3834ntf    fn418628   4.180   5.223   0.681  0.1199  0.0950  0.0951
 3834ntf    fn418629   4.296   5.208   0.866 -0.0833 -0.1057 -0.6134
 3834ntf    fn418630   4.085   5.217   0.875  0.0554 -0.0796  0.2456
 3835ntf    cn118631   2.018   1.752   5.692 -0.0201  0.2830 -0.2173
 3835ntf    sn218632   2.135   1.687   5.569 -0.1255 -0.2651 -0.0300
 3835ntf    nn318633   2.037   1.631   5.460 -0.0165 -0.0085 -0.2604
 3835ntf    sn218634   1.967   1.490   5.454 -0.1271  0.0422 -0.1542
 3835ntf    cn118635   2.107   1.383   5.411 -0.3647 -0.2082 -0.3044
 3835ntf    fn418636   1.975   1.652   5.769  0.1403 -0.2453 -0.8059
 3835ntf    fn418637   2.060   1.851   5.769 -0.0158  0.3007 -0.2421
 3835ntf    fn418638   1.911   1.797   5.629 -0.5901 -0.1115  0.4587
 3835ntf    on518639   2.206   1.803   5.523  0.0272 -0.2838  0.1574
 3835ntf    on518640   2.214   1.590   5.642  0.2126  0.2335  0.2688
 3835ntf    on518641   1.882   1.468   5.340  0.0933 -0.7877 -0.1650
 3835ntf    on518642   1.913   1.436   5.576 -0.0718  0.2549 -0.0336
 3835ntf    fn418643   2.198   1.385   5.507 -0.2724  0.2596 -0.3985
 3835ntf    fn418644   2.074   1.257   5.386  0.0634 -0.4766  0.4740
 3835ntf    fn418645   2.171   1.430   5.305 -0.1609 -0.1692 -0.1647
 3836ntf    cn118646   0.635   2.789   1.948  0.0186 -0.1770 -0.1221
 3836ntf    sn218647   0.762   2.663   1.981  0.3640  0.1139 -0.3459
 3836ntf    nn318648   0.662   2.544   1.997  0.2705  0.2492  0.0705
 3836ntf    sn218649   0.585   2.495   2.125  0.0834 -0.3115 -0.2517
 3836ntf    cn118650   0.703   2.396   2.222  0.0631  0.0323  0.1269
 3836ntf    fn418651   0.578   2.777   1.829  0.0743 -0.1133 -0.1550
 3836ntf    fn418652   0.537   2.786   2.037 -0.2157 -0.8430 -0.3883
 3836ntf    fn418653   0.686   2.910   1.946  0.1762 -0.2445 -0.1957
 3836ntf    on518654   0.845   2.657   1.862  0.1754 -0.0185 -0.4710
 3836ntf    on518655   0.828   2.709   2.100 -0.1556  0.3122 -0.1330
 3836ntf    on518656   0.476   2.405   2.096 -0.2219 -0.1727  0.4281
 3836ntf    on518657   0.549   2.601   2.216  0.6697 -0.2562 -0.0776
 3836ntf    fn418658   0.652   2.356   2.337 -0.1193  0.1295  0.0797
 3836ntf    fn418659   0.752   2.296   2.152  0.0158  0.2853 -0.2690
 3836ntf    fn418660   0.804   2.472   2.262  0.2119  0.0473 -0.2719
 3837ntf    cn118661   0.068   0.260   4.269 -0.2208 -0.0394  0.0820
 3837ntf    sn218662   0.245   0.227   4.290 -0.1568  0.2491 -0.0024
 3837ntf    nn318663   0.278   0.324   4.410  0.2280 -0.0118  0.1017
 3837ntf    sn218664   0.413   0.390   4.458  0.2338  0.0886 -0.0511
 3837ntf    cn118665   0.475   0.292   4.598 -0.0968 -0.1934 -0.0997
 3837ntf    fn418666  -0.000   0.239   4.381 -0.0033 -0.9147  0.0561
 3837ntf    fn418667   0.043   0.387   4.242  0.6852  0.0472 -0.3778
 3837ntf    fn418668   0.014   0.190   4.171  0.1065  0.2255 -0.2922
 3837ntf    on518669   0.241   0.086   4.319  0.0155  0.3044  0.2991
 3837ntf    on518670   0.292   0.266   4.159 -0.3563  0.2136 -0.0851
 3837ntf    on518671   0.398   0.515   4.527 -0.1624 -0.0243  0.0757
 3837ntf    on518672   0.515   0.380   4.357  0.0498 -0.2657 -0.2043
 3837ntf    fn418673   0.397   0.304   4.704  0.1345 -0.4592  0.1029
 3837ntf    fn418674   0.473   0.162   4.572  0.0477 -0.2457  0.1461
 3837ntf    fn418675   0.600   0.314   4.635 -0.1133  0.0170 -0.1720
 3838ntf    cn118676   4.536   6.183   4.218 -0.0545 -0.1782  0.2315
 3838ntf    sn218677   4.399   6.290   4.167  0.1754 -0.0329 -0.0866
 3838ntf    nn318678   4.328   6.196   4.063 -0.7451  0.8336 -0.2624
 3838ntf    sn218679   4.347   6.176   3.909 -0.0238  0.1215 -0.0898
 3838ntf    cn118680   4.310   6.343   3.848  0.2824  0.2036 -0.0536
 3838ntf    fn418681   4.636   6.181   4.131 -0.2992 -0.2088 -0.0500
 3838ntf    fn418682   4.594   6.219   4.332 -0.1234  0.0755  0.1861
 3838ntf    fn418683   4.483   6.062   4.229  0.1227 -0.2875 -0.1023
 3838ntf    on518684   4.319   6.313   4.285 -0.1744  0.5031 -0.4226
 3838ntf    on518685   4.479   6.394   4.107  0.3790 -0.4042 -0.4648
 3838ntf    on518686   4.251   6.091   3.843  0.1008  0.1190 -0.2708
 3838ntf    on518687   4.487   6.165   3.876 -0.0742 -0.4034 -0.1294
 3838ntf    fn418688   4.261   6.348   3.725 -0.2758 -0.6439  0.1248
 3838ntf    fn418689   4.220   6.407   3.922  0.4203 -0.0979  0.3751
 3838ntf    fn418690   4.426   6.407   3.846  0.2613  0.2584  0.4309
 3839ntf    cn118691   1.207   6.004   3.301 -0.0086 -0.0289 -0.3846
 3839ntf    sn218692   1.357   6.009   3.404 -0.3141  0.2026  0.0549
 3839ntf    nn318693   1.463   6.050   3.295  0.0819  0.4519  0.5278
 3839ntf    sn218694   1.575   5.971   3.218 -0.4019  0.0987  0.1826
 3839ntf    cn118695   1.719   6.075   3.256 -0.2805 -0.0172  0.0407
 3839ntf    fn418696   1.188   6.119   3.239  0.0753  0.0587 -0.2502
 3839ntf    fn418697   1.211   5.905   3.215 -0.0877 -0.4040  0.0385
 3839ntf    fn418698   1.101   5.979   3.375  0.6415  0.3403  0.6997
 3839ntf    on518699   1.331   6.116   3.497 -0.7126 -0.1172  0.3170
 3839ntf    on518700   1.374   5.875   3.456  0.3616  0.1562 -0.2612
 3839ntf    on518701   1.568   5.973   3.074  0.1921  0.7463  0.1619
 3839ntf    on518702   1.608   5.842   3.274  0.4890  0.3184  0.1612
 3839ntf    fn418703   1.691   6.203   3.239 -0.0094  0.0703  0.2446
 3839ntf    fn418704   1.756   6.068   3.383 -0.1314  0.3476  0.0184
 3839ntf    fn418705   1.823   6.037   3.184  0.0532 -0.2297  0.6248
 3840ntf    cn118706   4.060   3.915   5.039  0.7125 -0.0065  0.1780
 3840ntf    sn218707   4.159   3.957   4.893  0.3773  0.1116 -0.0169
 3840ntf    nn318708   4.227   3.818   4.862  0.2996  0.0270  0.1931
 3840ntf    sn218709   4.311   3.785   4.734  0.0042  0.0793 -0.0146
 3840ntf    cn118710   4.233   3.627   4.689  0.0628  0.0016  0.1556
 3840ntf    fn418711   4.027   4.024   5.106 -0.0520  0.0573 -0.2928
 3840ntf    fn418712   3.950   3.848   5.010  0.3767  0.6729 -0.1327
 3840ntf    fn418713   4.126   3.828   5.114  0.1782 -0.3914  0.2092
 3840ntf    on518714   4.063   4.003   4.796 -0.2140 -0.8424  0.1023
 3840ntf    on518715   4.252   4.052   4.949 -0.0680  0.3818  0.2612
 3840ntf    on518716   4.447   3.748   4.765  0.1685  0.2230 -0.5600
 3840ntf    on518717   4.286   3.869   4.619 -0.8731  0.1615  0.2315
 3840ntf    fn418718   4.247   3.539   4.787  0.2700  0.0589  0.1789
 3840ntf    fn418719   4.104   3.638   4.666  0.1019  0.1629  0.0160
 3840ntf    fn418720   4.295   3.569   4.587  0.0013 -0.3078  0.2925
 3841ntf    cn118721   4.594   0.545   1.714 -0.3112  0.0070  0.2696
 3841ntf    sn218722   4.763   0.573   1.774 -0.2544  0.2184  0.0127
 3841ntf    nn318723   4.772   0.474   1.896 -0.0055  0.2186 -0.0045
 3841ntf    sn218724   4.884   0.376   1.945 -0.2625 -0.2614 -0.3605
 3841ntf    cn118725   4.990   0.494   2.034 -0.3273 -0.1951 -0.3717
 3841ntf    fn418726   4.570   0.609   1.601 -0.1227  0.2005  0.3404
 3841ntf    fn418727   4.578   0.418   1.681 -0.1711  0.2241 -0.6436
 3841ntf    fn418728   4.497   0.568   1.801 -0.5686  0.3130 -0.0971
 3841ntf    on518729   4.848   0.529   1.666 -0.0868 -0.3593  0.3741
 3841ntf    on518730   4.758   0.711   1.816  0.3902  0.2893 -0.1438
 3841ntf    on518731   4.961   0.310   1.843 -0.1332  0.0060 -0.4373
 3841ntf    on518732   4.824   0.294   2.048 -0.0269 -0.2637 -0.2248
 3841ntf    fn418733   4.920   0.529   2.141 -0.1699 -0.5077 -0.1644
 3841ntf    fn418734   5.106   0.442   2.071 -0.3391 -0.0143 -0.0802
 3841ntf    fn418735   5.017   0.608   1.972 -0.3235 -0.1370 -0.2625
 3842ntf    cn118736   5.418   2.754   6.099 -0.3991 -0.1326 -0.4653
 3842ntf    sn218737   5.385   2.852   5.949 -0.0758  0.2638 -0.2817
 3842ntf    nn318738   5.440   2.759   5.836  0.4216 -0.1675  0.3096
 3842ntf    sn218739   5.394   2.613   5.801 -0.2548  0.0354  0.3382
 3842ntf    cn118740   5.391   2.636   5.620 -0.2126  0.6590  0.4151
 3842ntf    fn418741   5.544   2.715   6.100 -0.3510  0.0264  0.2668
 3842ntf    fn418742   5.394   2.825   6.208  0.3067 -0.4492 -0.1007
 3842ntf    fn418743   5.350   2.641   6.100 -0.1673 -0.2713 -0.3389
 3842ntf    on518744   5.243   2.880   5.943 -0.1203  0.2118  0.3888
 3842ntf    on518745   5.469   2.967   5.967  0.0919 -0.0139  0.7796
 3842ntf    on518746   5.259   2.575   5.834 -0.4370  0.3246 -0.0665
 3842ntf    on518747   5.497   2.514   5.822  0.0239  0.2985  0.2218
 3842ntf    fn418748   5.501   2.687   5.568 -0.1893  0.0506 -0.1372
 3842ntf    fn418749   5.352   2.525   5.560  0.3055  0.3390  0.6626
 3842ntf    fn418750   5.298   2.729   5.605 -0.3473  0.3946 -0.4016
 3843ntf    cn118751   0.576   6.299   3.189  0.3985  0.3172  0.3176
 3843ntf    sn218752   0.655   6.449   3.125 -0.2222  0.3689 -0.3352
 3843ntf    nn318753   0.785   6.431   3.212 -0.0441  0.5897 -0.5517
 3843ntf    sn218754   0.933   6.415   3.163  0.0107 -0.2330 -0.1318
 3843ntf    cn118755   0.925   6.237   3.125 -0.2398 -0.2051 -0.2111
 3843ntf    fn418756   0.457   6.286   3.135  0.5134 -0.2105  0.1887
 3843ntf    fn418757   0.653   6.197   3.155 -0.1809  0.1783 -0.5947
 3843ntf    fn418758   0.568   6.285   3.321  0.1341  0.2272  0.2914
 3843ntf    on518759   0.679   6.421   2.986  0.2986  0.0829 -0.1899
 3843ntf    on518760   0.568   6.557   3.165 -0.6262 -0.2214  0.3858
 3843ntf    on518761   1.024   6.434   3.273 -0.3109 -0.3573  0.1575
 3843ntf    on518762   0.963   6.475   3.036  0.1848  0.0418  0.0375
 3843ntf    fn418763   0.885   6.173   3.233 -0.3109  0.4217  0.1420
 3843ntf    fn418764   0.841   6.205   3.028 -0.0893 -0.3180 -0.3054
 3843ntf    fn418765   1.044   6.193   3.086  0.1054  0.2092  0.3466
 3844ntf    cn118766   4.268   6.749   5.802 -0.3311 -0.3534  0.2442
 3844ntf    sn218767   4.359   6.607   5.735  0.0126  0.0185 -0.0867
 3844ntf    nn318768   4.246   6.499   5.747  0.0943 -0.0660 -0.0827
 3844ntf    sn218769   4.152   6.439   5.636 -0.2037 -0.1119  0.1914
 3844ntf    cn118770   4.003   6.407   5.735  0.0365  0.1578  0.6455
 3844ntf    fn418771   4.154   6.776   5.740 -0.1371 -0.1195 -0.0169
 3844ntf    fn418772   4.228   6.732   5.927 -0.3119 -0.6892  0.2053
 3844ntf    fn418773   4.334   6.864   5.801 -0.7051 -0.1352  0.4400
 3844ntf    on518774   4.389   6.650   5.601 -0.2160  0.4596  0.0017
 3844ntf    on518775   4.464   6.570   5.826  0.4433 -0.2555 -0.6928
 3844ntf    on518776   4.187   6.305   5.594 -0.0763  0.1253 -0.4748
 3844ntf    on518777   4.111   6.533   5.534 -0.1027 -0.2235  0.0472
 3844ntf    fn418778   3.899   6.377   5.659  0.3679 -0.5263  0.4558
 3844ntf    fn418779   4.025   6.308   5.820  0.6859 -0.1246  0.1625
 3844ntf    fn418780   3.964   6.507   5.811 -0.4711  0.2970  0.2114
 3845ntf    cn118781   6.120   4.047   0.112 -0.1731  0.2878  0.3628
 3845ntf    sn218782   6.125   4.182  -0.010  0.2541  0.0464  0.1115
 3845ntf    nn318783   6.263   4.246   0.028  0.0716  0.4308  0.1290
 3845ntf    sn218784   6.362   4.322  -0.069  0.2520  0.1518  0.0928
 3845ntf    cn118785   6.280   4.484  -0.088  0.0047  0.0507  0.2888
 3845ntf    fn418786   6.144   4.093   0.234  0.2763  0.2038  0.3104
 3845ntf    fn418787   6.004   3.985   0.113 -0.1299  0.1988 -0.1098
 3845ntf    fn418788   6.212   3.954   0.092 -0.2648  0.4334 -0.8153
 3845ntf    on518789   6.123   4.108  -0.133  0.1656  0.3628 -0.0785
 3845ntf    on518790   6.009   4.260   0.023 -0.3197 -0.7300 -0.0460
 3845ntf    on518791   6.377   4.274  -0.204 -0.0928  0.6377 -0.1214
 3845ntf    on518792   6.485   4.353  -0.002  0.3556  0.8243 -0.4017
 3845ntf    fn418793   6.268   4.556   0.022  0.1380  0.6099 -0.0603
 3845ntf    fn418794   6.352   4.564  -0.164 -0.2615 -0.0162 -0.0330
 3845ntf    fn418795   6.160   4.472  -0.142 -0.0977 -0.9132  0.6967
 3846ntf    cn118796   1.691   0.248   1.022  0.4235 -0.3393 -0.1462
 3846ntf    sn218797   1.639   0.344   0.877 -0.0135 -0.3027  0.0331
 3846ntf    nn318798   1.540   0.444   0.945  0.5474  0.2331  0.0700
 3846ntf    sn218799   1.507   0.596   0.924 -0.2430  0.0410 -0.1433
 3846ntf    cn118800   1.615   0.664   1.054 -0.1103 -0.1697 -0.1420
 3846ntf    fn418801   1.807   0.187   1.004  0.4709 -0.3169  0.0838
 3846ntf    fn418802   1.703   0.327   1.127  0.3863 -0.1272 -0.3019
 3846ntf    fn418803   1.599   0.163   1.065  0.0613 -0.0018 -0.2445
 3846ntf    on518804   1.757   0.404   0.821 -0.3788  0.5667  0.1860
 3846ntf    on518805   1.571   0.241   0.801  0.0727 -0.0890 -0.3358
 3846ntf    on518806   1.370   0.613   0.964 -0.2193 -0.4434  0.1496
 3846ntf    on518807   1.545   0.653   0.796  0.2239 -0.3394 -0.1760
 3846ntf    fn418808   1.548   0.750   1.130 -0.0565 -0.2682  0.0165
 3846ntf    fn418809   1.661   0.582   1.146 -0.1414  0.3126  0.3095
 3846ntf    fn418810   1.715   0.725   0.993  0.3327 -1.0268 -0.2843
 3847ntf    cn118811   2.203   6.041   2.825  0.6973 -0.1596  0.4911
 3847ntf    sn218812   2.155   5.892   2.732  0.2843  0.0465  0.3729
 3847ntf    nn318813   2.245   5.915   2.606  0.0689 -0.4311  0.1310
 3847ntf    sn218814   2.204   5.977   2.467  0.1553 -0.2939  0.1668
 3847ntf    cn118815   2.157   5.826   2.376  0.2315  0.0057 -0.3718
 3847ntf    fn418816   2.333   6.054   2.849  0.8050  0.0764 -0.1906
 3847ntf    fn418817   2.156   6.150   2.767 -0.5323 -1.0343 -0.2078
 3847ntf    fn418818   2.143   6.049   2.942 -0.1661  1.0111 -0.0152
 3847ntf    on518819   2.205   5.785   2.815  0.2470 -0.4593 -0.2417
 3847ntf    on518820   2.012   5.903   2.717  0.2828 -0.5400 -0.0708
 3847ntf    on518821   2.312   6.033   2.390 -0.3007  0.3506 -0.0078
 3847ntf    on518822   2.085   6.058   2.468  0.5824  0.3460 -0.3531
 3847ntf    fn418823   2.185   5.845   2.248  0.5248 -0.3769 -0.3633
 3847ntf    fn418824   2.216   5.716   2.420 -0.2073 -0.0689  0.0457
 3847ntf    fn418825   2.026   5.811   2.380  0.2077  0.2299 -0.2348
 3848ntf    cn118826   4.972   2.871   0.210 -0.0756 -0.0466 -0.1812
 3848ntf    sn218827   5.052   2.976   0.084  0.0061 -0.1385 -0.2055
 3848ntf    nn318828   4.966   3.106   0.103  0.4199  0.1432 -0.2662
 3848ntf    sn218829   5.003   3.245   0.164 -0.0167  0.1259  0.0377
 3848ntf    cn118830   5.048   3.341   0.017  0.0017  0.5383  0.3096
 3848ntf    fn418831   4.844   2.847   0.184 -0.1568  0.0442  0.1332
 3848ntf    fn418832   5.030   2.753   0.209  0.1481  0.0535  0.5272
 3848ntf    fn418833   4.973   2.920   0.333  0.0571 -0.3772 -0.0492
 3848ntf    on518834   5.191   2.978   0.121 -0.0146  0.0863 -0.1456
 3848ntf    on518835   5.013   2.913  -0.040  0.3956 -0.0702 -0.3626
 3848ntf    on518836   5.123   3.248   0.244  0.2676  0.6561 -0.4032
 3848ntf    on518837   4.887   3.318   0.210  0.3466  0.2453  0.7881
 3848ntf    fn418838   5.157   3.288  -0.036 -0.2605 -0.1529  0.4577
 3848ntf    fn418839   4.955   3.337  -0.076  0.5771 -0.7023 -0.2376
 3848ntf    fn418840   5.072   3.468   0.048  0.4139  0.4649  0.3013
 3849ntf    cn118841   3.408   2.983   6.144 -0.2243  0.0952 -0.1079
 3849ntf    sn218842   3.524   2.845   6.168 -0.0463  0.2123 -0.2890
 3849ntf    nn318843   3.555   2.861   6.321 -0.4996  0.0993 -0.1841
 3849ntf    sn218844   3.491   2.786   6.443 -0.0863  0.2336  0.1177
 3849ntf    cn118845   3.611   2.652   6.468  0.2856  0.5529  0.0516
 3849ntf    fn418846   3.468   3.101   6.153  0.3827 -0.1954 -0.2562
 3849ntf    fn418847   3.342   2.985   6.029 -0.4880 -0.1494  0.0384
 3849ntf    fn418848   3.315   2.987   6.238  0.0469  0.5860  0.1458
 3849ntf    on518849   3.448   2.728   6.132 -0.1770  0.1482  0.1982
 3849ntf    on518850   3.634   2.885   6.084  0.4615  0.3882  0.4573
 3849ntf    on518851   3.358   2.733   6.422 -0.0100  0.0308  0.1463
 3849ntf    on518852   3.502   2.858   6.567  0.0488 -0.1633  0.3399
 3849ntf    fn418853   3.600   2.573   6.361  0.1109  0.1480  0.3644
 3849ntf    fn418854   3.736   2.692   6.482  0.4740 -0.1062  0.3045
 3849ntf    fn418855   3.585   2.573   6.571 -0.1048  0.3429 -0.2027
 3850ntf    cn118856   2.127   3.771   4.916  0.3832 -0.1603  0.2209
 3850ntf    sn218857   2.030   3.686   5.044  0.0439  0.3611  0.3155
 3850ntf    nn318858   1.989   3.555   4.968 -0.1186  0.2728  0.5531
 3850ntf    sn218859   1.861   3.518   4.885  0.1163  0.3111  0.1697
 3850ntf    cn118860   1.765   3.441   5.020 -0.2009 -0.0553 -0.2581
 3850ntf    fn418861   2.243   3.708   4.912  0.3668 -0.1992  0.3425
 3850ntf    fn418862   2.076   3.771   4.795  0.5345 -0.1846  0.1568
 3850ntf    fn418863   2.145   3.898   4.951  0.1679 -0.0416 -0.0927
 3850ntf    on518864   2.130   3.659   5.145  0.3957  0.0621 -0.1106
 3850ntf    on518865   1.923   3.776   5.080 -0.3846  0.0406 -0.1516
 3850ntf    on518866   1.877   3.417   4.783 -0.0302 -0.0768  0.5273
 3850ntf    on518867   1.784   3.629   4.835 -0.4719 -0.2250 -0.1251
 3850ntf    fn418868   1.823   3.329   5.061  0.2968  0.1407 -0.4119
 3850ntf    fn418869   1.741   3.521   5.123  0.4326  0.4494 -0.4924
 3850ntf    fn418870   1.642   3.415   4.980 -0.3357  0.1781  0.0028
 3851ntf    cn118871   4.369   5.045   0.166 -0.2858 -0.0448  0.2306
 3851ntf    sn218872   4.537   5.001   0.223 -0.2034  0.2076  0.1840
 3851ntf    nn318873   4.618   5.086   0.119 -0.4674  0.1212 -0.0941
 3851ntf    sn218874   4.657   5.033  -0.024 -0.1842 -0.0481  0.0471
 3851ntf    cn118875   4.819   4.956   0.009 -0.3422 -0.4652 -0.1515
 3851ntf    fn418876   4.265   4.997   0.231  0.0484 -0.0171  0.7979
 3851ntf    fn418877   4.351   5.175   0.175  0.3697  0.0607  0.0908
 3851ntf    fn418878   4.347   5.024   0.038  0.0313 -0.4510  0.2399
 3851ntf    on518879   4.545   5.054   0.356  0.5259 -1.1258  0.6867
 3851ntf    on518880   4.537   4.857   0.213 -0.8466  0.1835  0.4901
 3851ntf    on518881   4.689   5.141  -0.113 -0.0454 -0.2458 -0.1447
 3851ntf    on518882   4.584   4.918  -0.071 -0.7695  0.1844  0.3813
 3851ntf    fn418883   4.875   4.888  -0.090 -0.1518  0.3137 -0.5802
 3851ntf    fn418884   4.909   5.046   0.044 -0.2632 -0.4528 -0.3853
 3851ntf    fn418885   4.815   4.878   0.116 -0.5168 -0.2351  0.0116
 3852ntf    cn118886   2.745   0.703   3.233 -0.1916  0.1447 -0.0709
 3852ntf    sn218887   2.757   0.715   3.052 -0.1334  0.1848 -0.0644
 3852ntf    nn318888   2.797   0.866   3.046  0.4142  0.0222 -0.6146
 3852ntf    sn218889   2.715   0.989   2.991 -0.0261  0.0124  0.0208
 3852ntf    cn118890   2.622   1.032   3.142  0.0132 -0.3549  0.1517
 3852ntf    fn418891   2.857   0.731   3.298 -0.6581 -0.3745  0.9780
 3852ntf    fn418892   2.661   0.795   3.277 -0.3781 -0.2869  0.4808
 3852ntf    fn418893   2.712   0.580   3.267 -0.4853  0.2181 -0.0881
 3852ntf    on518894   2.865   0.621   3.031 -0.1280  0.1968 -0.0920
 3852ntf    on518895   2.628   0.684   2.996 -0.2419  0.3098  0.1189
 3852ntf    on518896   2.617   0.969   2.888  0.8034  0.0602 -0.7902
 3852ntf    on518897   2.807   1.099   2.974 -0.2705  0.2257  0.0756
 3852ntf    fn418898   2.555   1.143   3.119 -0.1179 -0.4830 -0.0956
 3852ntf    fn418899   2.529   0.943   3.173 -0.0420 -0.4585 -0.2988
 3852ntf    fn418900   2.700   1.053   3.247  0.2013  0.7465 -0.2010
 3853ntf    cn118901   6.984   3.141   6.878 -0.1771  0.3017 -0.2522
 3853ntf    sn218902   7.051   2.978   6.835 -0.2308  0.2570 -0.1686
 3853ntf    nn318903   7.198   3.020   6.802 -0.0796  0.1737  0.3963
 3853ntf    sn218904   7.331   3.005   6.884  0.0776  0.1740  0.1415
 3853ntf    cn118905   7.417   3.153   6.821 -0.0487  0.2257  0.0917
 3853ntf    fn418906   6.852   3.133   6.894 -0.1795 -0.2168 -0.5175
 3853ntf    fn418907   7.031   3.196   6.989 -0.1710 -0.5626  0.1819
 3853ntf    fn418908   7.008   3.224   6.778  0.3968  0.2316 -0.1718
 3853ntf    on518909   7.037   2.897   6.954 -0.1233  0.0532 -0.2929
 3853ntf    on518910   6.977   2.938   6.717 -0.2003  0.6277 -0.3129
 3853ntf    on518911   7.406   2.891   6.838 -0.1394  0.2708 -0.4521
 3853ntf    on518912   7.321   3.032   7.026 -0.4111  0.4033  0.0642
 3853ntf    fn418913   7.348   3.261   6.854 -0.4372 -0.0785  0.2907
 3853ntf    fn418914   7.539   3.174   6.866 -0.0390 -0.3128  0.3218
 3853ntf    fn418915   7.427   3.149   6.689 -0.3176  0.1032  0.0737
 3854ntf    cn118916   4.654   0.120   3.718 -0.1244  0.0680  0.0115
 3854ntf    sn218917   4.754   0.152   3.867  0.0351  0.1227 -0.1068
 3854ntf    nn318918   4.640   0.208   3.960  0.0813  0.4059 -0.2210
 3854ntf    sn218919   4.618   0.357   4.005 -0.1433  0.3318 -0.0850
 3854ntf    cn118920   4.443   0.342   4.053 -0.2280  0.3523 -0.3834
 3854ntf    fn418921   4.545   0.051   3.745  0.0318 -0.0015  0.4740
 3854ntf    fn418922   4.614   0.237   3.671  0.3986  0.1372 -0.2704
 3854ntf    fn418923   4.718   0.056   3.622 -0.1246  0.1710 -0.0572
 3854ntf    on518924   4.798   0.019   3.901 -0.2626 -0.0651 -0.4526
 3854ntf    on518925   4.855   0.247   3.827  0.0705  0.0958 -0.0814
 3854ntf    on518926   4.618   0.458   3.902  0.5225  0.3747 -0.0480
 3854ntf    on518927   4.682   0.387   4.130 -0.2384  0.3250 -0.0344
 3854ntf    fn418928   4.390   0.442   4.122 -0.4714  0.0335 -0.1025
 3854ntf    fn418929   4.369   0.327   3.945 -0.6915  0.4469 -0.0832
 3854ntf    fn418930   4.424   0.241   4.135  0.6196  0.2329 -0.3183
 3855ntf    cn118931   2.531   4.332   3.795  0.0270  0.0167 -0.4772
 3855ntf    sn218932   2.427   4.475   3.838  0.5623  0.2332  0.1186
 3855ntf    nn318933   2.506   4.553   3.949  0.8048  0.3063 -0.1042
 3855ntf    sn218934   2.450   4.636   4.070  0.3666 -0.1053 -0.0212
 3855ntf    cn118935   2.511   4.528   4.203 -0.0619  0.0746  0.3203
 3855ntf    fn418936   2.533   4.244   3.894 -0.5830  0.2003 -0.2953
 3855ntf    fn418937   2.498   4.264   3.687  0.0594 -0.2975 -0.2882
 3855ntf    fn418938   2.654   4.372   3.768  0.1920 -0.4319 -0.3920
 3855ntf    on518939   2.417   4.547   3.713 -0.0678 -0.0647 -0.0086
 3855ntf    on518940   2.309   4.406   3.884  0.4792  0.2081 -0.1321
 3855ntf    on518941   2.309   4.638   4.101  0.2267  0.1284 -0.6595
 3855ntf    on518942   2.527   4.757   4.083 -0.3848  0.3966 -0.1890
 3855ntf    fn418943   2.495   4.581   4.324 -0.6730  0.2570  0.1643
 3855ntf    fn418944   2.449   4.411   4.209 -0.1136  0.0990  0.2489
 3855ntf    fn418945   2.637   4.490   4.196 -0.0658  0.0709  0.2761
 3856ntf    cn118946   3.150   2.965   3.128  0.0618  0.2436 -0.1422
 3856ntf    sn218947   3.201   3.075   3.264 -0.0121 -0.0680  0.1394
 3856ntf    nn318948   3.242   2.979   3.381  0.1532 -0.1972 -0.0252
 3856ntf    sn218949   3.340   3.006   3.501 -0.0044 -0.0742  0.0751
 3856ntf    cn118950   3.434   2.851   3.499 -0.4295 -0.3295 -0.2721
 3856ntf    fn418951   3.219   2.852   3.129 -0.1333  0.1229 -0.3811
 3856ntf    fn418952   3.023   2.932   3.145  0.1554 -0.0946 -0.0897
 3856ntf    fn418953   3.170   3.023   3.011 -0.0515  0.0517 -0.2576
 3856ntf    on518954   3.314   3.146   3.209  0.0557  0.0953  0.4877
 3856ntf    on518955   3.079   3.150   3.285  0.1355  0.3829 -0.5975
 3856ntf    on518956   3.273   3.012   3.629 -0.6010  0.7895 -0.2676
 3856ntf    on518957   3.438   3.108   3.475  0.1179 -0.0804  0.5026
 3856ntf    fn418958   3.358   2.742   3.508 -0.6150 -0.1728  0.0918
 3856ntf    fn418959   3.491   2.844   3.380 -0.1624 -0.1025 -0.1567
 3856ntf    fn418960   3.530   2.851   3.590 -0.4040 -0.3411 -0.2988
 3857ntf    cn118961   0.051   1.530   3.392 -0.0899 -0.0692  0.2337
 3857ntf    sn218962  -0.047   1.607   3.259 -0.0259 -0.0645  0.1893
 3857ntf    nn318963   0.046   1.729   3.226 -0.1584  0.0659  0.2997
 3857ntf    sn218964   0.172   1.736   3.133 -0.3238  0.0091  0.0722
 3857ntf    cn118965   0.081   1.772   2.979 -0.0528  0.3814 -0.0029
 3857ntf    fn418966  -0.019   1.451   3.472 -0.4664 -0.1094 -0.1326
 3857ntf    fn418967   0.153   1.459   3.346 -0.3358  0.2458 -0.8348
 3857ntf    fn418968   0.113   1.625   3.459  0.4930  0.0410 -0.4547
 3857ntf    on518969  -0.049   1.502   3.160  0.0936  0.1146 -0.0020
 3857ntf    on518970  -0.173   1.644   3.318 -0.1028 -0.5994  0.3625
 3857ntf    on518971   0.253   1.620   3.107  0.3200  0.6175 -0.6764
 3857ntf    on518972   0.253   1.854   3.148 -0.1952 -0.0771  0.0526
 3857ntf    fn418973   0.007   1.881   2.993 -0.2264  0.2607  0.0265
 3857ntf    fn418974   0.154   1.776   2.869 -0.0798  0.1868 -0.0284
 3857ntf    fn418975  -0.009   1.678   2.954 -0.0077  0.3775 -0.1505
 3858ntf    cn118976   4.821   3.678   0.033 -0.3653 -0.1310  0.0421
 3858ntf    sn218977   4.843   3.755   0.196 -0.0625  0.0660 -0.0914
 3858ntf    nn318978   4.691   3.786   0.221 -0.1074 -0.1855 -0.0523
 3858ntf    sn218979   4.609   3.757   0.352 -0.0051  0.3181  0.1235
 3858ntf    cn118980   4.453   3.838   0.304 -0.0827  0.1538  0.0989
 3858ntf    fn418981   4.927   3.616  -0.016  0.1162  0.4773  0.3073
 3858ntf    fn418982   4.720   3.592   0.036 -0.3200 -0.2049 -0.4141
 3858ntf    fn418983   4.777   3.763  -0.058 -0.3619  0.1518  0.3054
 3858ntf    on518984   4.908   3.652   0.271 -0.0305  0.3852  0.3233
 3858ntf    on518985   4.922   3.869   0.157  0.5494 -0.2441  0.2353
 3858ntf    on518986   4.646   3.838   0.465 -0.3082  0.5124  0.0853
 3858ntf    on518987   4.573   3.620   0.377 -0.0316  0.3345  0.1769
 3858ntf    fn418988   4.476   3.968   0.288  0.5193  0.0206 -0.1621
 3858ntf    fn418989   4.398   3.795   0.192 -0.6134  1.0026  0.0233
 3858ntf    fn418990   4.352   3.831   0.389 -0.1755 -0.0057 -0.0237
 3859ntf    cn118991   4.577   0.264   6.924  0.2987 -0.2020  0.0669
 3859ntf    sn218992   4.565   0.295   7.102 -0.0572 -0.1426  0.0341
 3859ntf    nn318993   4.414   0.337   7.105 -0.0106  0.0740 -0.5792
 3859ntf    sn218994   4.284   0.251   7.126  0.0718  0.0519 -0.1622
 3859ntf    cn118995   4.162   0.354   7.039  0.0439  0.0216 -0.1590
 3859ntf    fn418996   4.558   0.377   6.857 -0.1863 -0.1182  0.3406
 3859ntf    fn418997   4.687   0.200   6.889 -0.1203 -0.4538 -0.8135
 3859ntf    fn418998   4.486   0.185   6.869 -0.1311 -0.1105  0.6402
 3859ntf    on518999   4.595   0.171   7.169  0.4385 -0.2592 -0.3986
 3859ntf    on519000   4.650   0.409   7.126  0.2697 -0.3435 -0.1689
 3859ntf    on519001   4.236   0.251   7.262 -0.3707 -0.1568 -0.3161
 3859ntf    on519002   4.276   0.135   7.040 -0.0175 -0.2572  0.2587
 3859ntf    fn419003   4.177   0.340   6.909  0.1762  0.1526 -0.1589
 3859ntf    fn419004   4.038   0.327   7.076  0.1040 -0.3207 -0.2036
 3859ntf    fn419005   4.187   0.479   7.075  0.2545 -0.0731  0.0301
 3860ntf    cn119006   2.651   5.581   5.629  0.1806 -0.0191 -0.2540
 3860ntf    sn219007   2.811   5.512   5.682  0.0685 -0.1814 -0.1249
 3860ntf    nn319008   2.879   5.509   5.540 -0.7406 -0.1492 -0.5227
 3860ntf    sn219009   2.903   5.383   5.451  0.1274 -0.1298 -0.3213
 3860ntf    cn119010   2.937   5.466   5.292  0.0626  0.0297 -0.2518
 3860ntf    fn419011   2.643   5.680   5.541 -0.0330  0.0792 -0.1255
 3860ntf    fn419012   2.585   5.483   5.571 -0.3198  0.1935 -0.0521
 3860ntf    fn419013   2.570   5.621   5.726  0.8277  0.4236  0.1198
 3860ntf    on519014   2.872   5.608   5.770 -0.1665  0.0462 -0.2076
 3860ntf    on519015   2.769   5.384   5.732  0.0525  0.1006  0.5929
 3860ntf    on519016   2.788   5.310   5.405 -0.4071  0.2295  0.4307
 3860ntf    on519017   3.022   5.302   5.467 -0.3287 -0.8323 -0.4370
 3860ntf    fn419018   3.051   5.533   5.295  0.0242  0.0832  0.1642
 3860ntf    fn419019   2.942   5.379   5.193  0.1665  0.4115 -0.5818
 3860ntf    fn419020   2.839   5.551   5.267  0.3546  0.5312  0.2960
 3861ntf    cn119021   2.138   6.573   5.649 -0.3048  0.0227 -0.3202
 3861ntf    sn219022   2.035   6.580   5.799  0.1583  0.1745 -0.0082
 3861ntf    nn319023   1.914   6.675   5.767  0.3497  0.5581  0.3921
 3861ntf    sn219024   1.762   6.636   5.757  0.4688  0.0951  0.3412
 3861ntf    cn119025   1.674   6.793   5.730  0.2979  0.0328  0.5233
 3861ntf    fn419026   2.206   6.460   5.638  0.3441  0.3760  0.0079
 3861ntf    fn419027   2.073   6.599   5.536  0.1691  0.1463 -0.5676
 3861ntf    fn419028   2.227   6.670   5.659 -0.4308  0.1203 -0.1498
 3861ntf    on519029   2.007   6.439   5.807  0.6503  0.0992  0.4068
 3861ntf    on519030   2.122   6.638   5.898 -0.4195  0.4049  0.3689
 3861ntf    on519031   1.706   6.595   5.883 -0.0402 -0.6597 -0.1272
 3861ntf    on519032   1.726   6.552   5.646  0.2822  0.4478  0.1318
 3861ntf    fn419033   1.544   6.779   5.749  0.1732 -0.1477 -0.3976
 3861ntf    fn419034   1.712   6.889   5.812  0.1761  0.0402  0.5707
 3861ntf    fn419035   1.686   6.843   5.607  0.7850 -0.4322  0.3793
 3862ntf    cn119036   2.694   2.212   5.247 -0.0601 -0.2937 -0.2837
 3862ntf    sn219037   2.792   2.096   5.147  0.2612 -0.1252 -0.1680
 3862ntf    nn319038   2.693   2.068   5.028  0.0469  0.1986 -0.0692
 3862ntf    sn219039   2.569   1.972   5.022  0.0037  0.2329  0.2952
 3862ntf    cn119040   2.655   1.822   4.966 -0.5213  0.1788 -0.3796
 3862ntf    fn419041   2.754   2.251   5.359  0.0175  0.0475 -0.4447
 3862ntf    fn419042   2.669   2.324   5.183 -0.0116  0.1491  0.4545
 3862ntf    fn419043   2.573   2.170   5.281 -0.2899  0.3301 -0.3251
 3862ntf    on519044   2.900   2.186   5.117  0.1086 -0.1242 -0.7357
 3862ntf    on519045   2.823   1.982   5.229  0.1462  0.0936  0.1809
 3862ntf    on519046   2.479   1.987   4.910  0.6175  0.0077 -0.2340
 3862ntf    on519047   2.504   1.949   5.149  0.0788 -0.4164  0.2161
 3862ntf    fn419048   2.573   1.732   4.915 -0.5320 -0.2198  0.3383
 3862ntf    fn419049   2.740   1.853   4.869  0.1437  0.1391  0.1843
 3862ntf    fn419050   2.724   1.772   5.067 -0.8172 -0.1203 -0.3275
 3863ntf    cn119051   3.480   5.794   5.649 -0.0794 -0.1617  0.1142
 3863ntf    sn219052   3.365   5.916   5.720 -0.0360 -0.0541 -0.0021
 3863ntf    nn319053   3.461   5.976   5.829 -0.1421 -0.1925  0.1684
 3863ntf    sn219054   3.425   6.074   5.946  0.0259  0.0397  0.0262
 3863ntf    cn119055   3.585   6.149   5.990 -0.0044  0.4166 -0.4929
 3863ntf    fn419056   3.428   5.718   5.555 -0.1576  0.2148 -0.1479
 3863ntf    fn419057   3.587   5.852   5.597 -0.1469 -0.1246  0.0173
 3863ntf    fn419058   3.537   5.713   5.737 -0.1813 -0.2210  0.1247
 3863ntf    on519059   3.340   6.010   5.613  0.3285  0.1582  0.0961
 3863ntf    on519060   3.249   5.848   5.772  0.0187  0.3653  0.6709
 3863ntf    on519061   3.381   6.002   6.062  0.1335 -0.3733 -0.1876
 3863ntf    on519062   3.347   6.193   5.920  0.4056  0.2418 -0.1932
 3863ntf    fn419063   3.591   6.204   6.110 -0.1801 -0.3650 -0.1192
 3863ntf    fn419064   3.678   6.055   5.993 -0.0449  0.3824 -0.2834
 3863ntf    fn419065   3.627   6.238   5.901  0.1204  0.6354 -0.2123
 3864ntf    cn119066   2.638   3.175   4.243 -0.1329  0.0433  0.0154
 3864ntf    sn219067   2.593   3.015   4.168  0.2143  0.0218 -0.1481
 3864ntf    nn319068   2.460   3.048   4.092  0.1303 -0.5411 -0.2447
 3864ntf    sn219069   2.311   3.022   4.135  0.1078  0.2759  0.1804
 3864ntf    cn119070   2.240   3.022   3.968  0.1095 -0.0084  0.1799
 3864ntf    fn419071   2.715   3.160   4.350 -0.1258  0.4122  0.0645
 3864ntf    fn419072   2.701   3.257   4.161 -0.7648 -0.2552 -0.7806
 3864ntf    fn419073   2.529   3.239   4.282 -0.1778  0.2055 -0.3774
 3864ntf    on519074   2.704   2.994   4.079  0.3398  0.1131 -0.0154
 3864ntf    on519075   2.580   2.918   4.274 -0.1083  0.1146 -0.1030
 3864ntf    on519076   2.244   3.131   4.202  0.1867  0.3290  0.1741
 3864ntf    on519077   2.290   2.886   4.176 -0.2884  0.1651 -0.3801
 3864ntf    fn419078   2.280   2.923   3.890 -0.7959  0.0570 -0.3744
 3864ntf    fn419079   2.109   3.006   3.968  0.1333 -0.2187  0.0080
 3864ntf    fn419080   2.261   3.135   3.903  0.0932 -0.1791 -0.1221
 3865ntf    cn119081   3.677   1.430   1.793  0.3586  0.1450 -0.0753
 3865ntf    sn219082   3.764   1.537   1.675  0.2566  0.0432 -0.2424
 3865ntf    nn319083   3.742   1.678   1.740  0.0606  0.0644 -0.3527
 3865ntf    sn219084   3.770   1.821   1.680  0.3583  0.1218 -0.0778
 3865ntf    cn119085   3.933   1.869   1.745  0.2968 -0.2494  0.3613
 3865ntf    fn419086   3.713   1.304   1.774  0.0269  0.0177  0.1272
 3865ntf    fn419087   3.700   1.456   1.921 -0.3150 -0.3657  0.1559
 3865ntf    fn419088   3.547   1.438   1.773  0.3627 -0.3989 -0.3328
 3865ntf    on519089   3.900   1.490   1.683  0.3016  0.2136 -0.0035
 3865ntf    on519090   3.690   1.515   1.552 -0.4159  0.2738  0.1113
 3865ntf    on519091   3.685   1.922   1.738 -0.2844 -0.6420  0.3417
 3865ntf    on519092   3.796   1.820   1.538  0.2480 -0.0490 -0.0970
 3865ntf    fn419093   3.952   1.998   1.719  0.2298 -0.2609  0.2553
 3865ntf    fn419094   3.937   1.854   1.876 -0.3182  0.3705  0.4606
 3865ntf    fn419095   4.028   1.796   1.689 -0.1594 -0.3919 -0.2458
 3866ntf    cn119096   4.140   0.560   4.446 -0.5212  0.1459  0.4023
 3866ntf    sn219097   4.085   0.430   4.561  0.0117 -0.4362  0.0074
 3866ntf    nn319098   4.089   0.301   4.471 -0.3094 -0.4792  0.0544
 3866ntf    sn219099   3.971   0.208   4.426 -0.3622 -0.2693 -0.2422
 3866ntf    cn119100   4.007   0.210   4.248  0.0418 -0.2242 -0.1608
 3866ntf    fn419101   4.254   0.530   4.386 -0.5572 -0.5691  0.6768
 3866ntf    fn419102   4.053   0.570   4.347 -0.0010 -0.2101 -0.1018
 3866ntf    fn419103   4.151   0.676   4.508  0.0024  0.2680  0.0893
 3866ntf    on519104   4.184   0.425   4.666 -0.0171  0.0698  0.0613
 3866ntf    on519105   3.951   0.471   4.593 -0.1938 -0.9889 -0.1382
 3866ntf    on519106   3.835   0.256   4.427 -0.3382 -0.2043 -0.0313
 3866ntf    on519107   3.999   0.072   4.466  0.3766 -0.1372 -0.2995
 3866ntf    fn419108   4.120   0.149   4.214  0.1892  0.1230 -0.2978
 3866ntf    fn419109   3.908   0.154   4.181  0.0962 -0.6035  0.0734
 3866ntf    fn419110   4.014   0.334   4.201  0.1688 -0.2077 -0.0998
 3867ntf    cn119111   3.872   4.197   6.291 -0.4034 -0.1187  0.0374
 3867ntf    sn219112   3.852   4.365   6.357  0.1082 -0.1410  0.2524
 3867ntf    nn319113   3.730   4.417   6.273  0.1530 -0.1587  0.1769
 3867ntf    sn219114   3.679   4.562   6.243  0.0827 -0.1923  0.1314
 3867ntf    cn119115   3.678   4.549   6.061  0.0478 -0.0199  0.1183
 3867ntf    fn419116   3.757   4.130   6.290 -0.3790 -0.1586 -0.4466
 3867ntf    fn419117   3.930   4.207   6.173 -0.1176  0.1869  0.2017
 3867ntf    fn419118   3.951   4.133   6.375  0.0724  0.1441 -0.2031
 3867ntf    on519119   3.831   4.341   6.498 -0.0994  0.0344  0.2529
 3867ntf    on519120   3.979   4.425   6.326  0.3831 -0.5747  0.5417
 3867ntf    on519121   3.755   4.678   6.282 -0.0070 -0.0702 -0.0524
 3867ntf    on519122   3.541   4.568   6.285  0.1868 -0.2331  0.4795
 3867ntf    fn419123   3.793   4.505   6.013 -0.1784 -0.1652 -0.2940
 3867ntf    fn419124   3.586   4.462   6.022 -0.0979 -0.1725  0.7829
 3867ntf    fn419125   3.650   4.659   5.992  0.1001  0.1025  0.2912
 3868ntf    cn119126   3.713   2.110   2.941  0.1399  0.1896  0.0096
 3868ntf    sn219127   3.801   2.054   3.090 -0.1681  0.0514  0.1399
 3868ntf    nn319128   3.891   1.942   3.027 -0.0459  0.0396  0.3320
 3868ntf    sn219129   4.035   1.961   2.968 -0.1523 -0.1743 -0.0018
 3868ntf    cn119130   4.032   1.825   2.848  0.4701 -0.0179 -0.2032
 3868ntf    fn419131   3.602   2.175   2.973 -0.0188 -0.1295  0.1146
 3868ntf    fn419132   3.781   2.182   2.854  0.3475 -0.1634 -0.1232
 3868ntf    fn419133   3.681   2.005   2.868 -0.1037 -0.0963  0.5183
 3868ntf    on519134   3.866   2.172   3.141 -1.0032  0.1897  0.9151
 3868ntf    on519135   3.695   1.990   3.165 -0.1690 -0.6888 -0.4831
 3868ntf    on519136   4.145   1.926   3.055 -0.0493 -0.0341 -0.0748
 3868ntf    on519137   4.049   2.082   2.891 -0.7933 -0.5512 -0.7145
 3868ntf    fn419138   4.137   1.817   2.768  0.3916  0.2263 -0.3289
 3868ntf    fn419139   4.012   1.709   2.909  0.1913  0.3240  0.3700
 3868ntf    fn419140   3.930   1.830   2.764  0.3266 -0.7848 -0.0901
 3869ntf    cn119141   5.579   5.441   5.681 -0.0767 -0.1142 -0.1680
 3869ntf    sn219142   5.616   5.272   5.736 -0.1347 -0.0530  0.0619
 3869ntf    nn319143   5.750   5.233   5.664  0.0402  0.4679  0.0965
 3869ntf    sn219144   5.891   5.196   5.721  0.0525  0.2270 -0.0868
 3869ntf    cn119145   5.922   5.063   5.600  0.0510  0.1569 -0.0099
 3869ntf    fn419146   5.527   5.435   5.560  0.4267  0.0772 -0.3960
 3869ntf    fn419147   5.478   5.480   5.758  0.1603 -0.5899  0.3903
 3869ntf    fn419148   5.680   5.525   5.689 -0.0952 -0.0995 -0.0851
 3869ntf    on519149   5.625   5.287   5.879  0.6570 -0.6606  0.0844
 3869ntf    on519150   5.509   5.188   5.688  0.3386 -0.3535 -0.4719
 3869ntf    on519151   5.893   5.117   5.842  0.3634  0.0547 -0.2045
 3869ntf    on519152   5.999   5.287   5.692  0.0437  0.2814  0.0486
 3869ntf    fn419153   5.825   4.974   5.602 -0.0634  0.2791 -0.0303
 3869ntf    fn419154   5.928   5.105   5.475  0.2348 -0.2394 -0.1360
 3869ntf    fn419155   6.033   4.995   5.625 -0.0881 -0.0342  0.0895
 3870ntf    cn119156   6.024   3.066   6.477 -0.0896 -0.0627 -0.1279
 3870ntf    sn219157   6.205   3.067   6.498 -0.0670  0.0896 -0.3236
 3870ntf    nn319158   6.217   2.971   6.622  0.1959  0.1003 -0.3405
 3870ntf    sn219159   6.336   2.979   6.725  0.0344  0.1376 -0.1547
 3870ntf    cn119160   6.260   2.890   6.864 -0.1726 -0.0807 -0.4062
 3870ntf    fn419161   5.994   3.107   6.355 -0.2942  0.1029 -0.0203
 3870ntf    fn419162   5.967   2.949   6.500 -0.1120  0.1267  0.7977
 3870ntf    fn419163   5.959   3.150   6.555  0.3151  0.1455 -0.0118
 3870ntf    on519164   6.256   3.011   6.375  0.1896 -1.1262  0.3146
 3870ntf    on519165   6.242   3.204   6.523  0.0237  0.1406 -0.7340
 3870ntf    on519166   6.356   3.112   6.778 -0.1428  0.0357  0.1693
 3870ntf    on519167   6.447   2.897   6.683  0.1527 -0.0435  0.5143
 3870ntf    fn419168   6.336   2.884   6.972 -0.4576 -0.9805 -0.2477
 3870ntf    fn419169   6.147   2.943   6.906 -0.3755 -0.5067 -0.4165
 3870ntf    fn419170   6.241   2.763   6.833  0.1439 -0.2872  0.2428
 3871ntf    cn119171   5.784   0.593   1.406 -0.0047  0.2335  0.0482
 3871ntf    sn219172   5.741   0.562   1.580  0.1336 -0.0385  0.0347
 3871ntf    nn319173   5.735   0.707   1.641  0.4224  0.0489 -0.1413
 3871ntf    sn219174   5.626   0.768   1.736  0.0397 -0.2044 -0.4146
 3871ntf    cn119175   5.504   0.833   1.617 -0.2932 -0.2192 -0.0843
 3871ntf    fn419176   5.674   0.620   1.336  0.0441 -0.4747 -0.3072
 3871ntf    fn419177   5.868   0.693   1.386  0.0415  0.2785  0.4644
 3871ntf    fn419178   5.840   0.491   1.344  0.1440  0.2676  0.1268
 3871ntf    on519179   5.616   0.491   1.574  0.3186 -0.3522 -0.1009
 3871ntf    on519180   5.858   0.492   1.627 -0.2128 -0.4257  0.3339
 3871ntf    on519181   5.676   0.884   1.806  0.2541 -0.3694 -0.2930
 3871ntf    on519182   5.554   0.670   1.814 -0.1441  0.3930  0.1727
 3871ntf    fn419183   5.465   0.744   1.527  0.1755 -0.6037  0.0838
 3871ntf    fn419184   5.394   0.876   1.676 -0.3503 -0.8867  0.3111
 3871ntf    fn419185   5.554   0.927   1.539  0.0412 -0.4423 -0.1441
 3872ntf    cn119186   6.928   0.086   5.240  0.1755  0.0933 -0.1569
 3872ntf    sn219187   6.802   0.217   5.238 -0.0901 -0.1556  0.0098
 3872ntf    nn319188   6.680   0.120   5.222  0.1116 -0.4666  0.3436
 3872ntf    sn219189   6.565   0.082   5.322 -0.1581  0.0595  0.2351
 3872ntf    cn119190   6.443   0.210   5.280 -0.2665  0.0262  0.4453
 3872ntf    fn419191   6.955   0.035   5.121  0.4572  0.4576 -0.2503
 3872ntf    fn419192   7.044   0.127   5.288  0.3560 -0.2227 -0.3205
 3872ntf    fn419193   6.894  -0.018   5.315 -0.2109  0.6618  0.4717
 3872ntf    on519194   6.826   0.286   5.362  0.2734  0.2007 -0.2524
 3872ntf    on519195   6.834   0.282   5.113 -0.4010 -0.1602 -0.0734
 3872ntf    on519196   6.593   0.086   5.463  0.2755  0.1859  0.1459
 3872ntf    on519197   6.500  -0.037   5.274 -0.9218  0.4364  0.3048
 3872ntf    fn419198   6.488   0.334   5.291 -0.5176  0.1486  0.1479
 3872ntf    fn419199   6.404   0.196   5.154  0.4705  0.4919  0.1551
 3872ntf    fn419200   6.337   0.202   5.358 -0.0775 -0.5586  0.6401
 3873ntf    cn119201   5.302   0.805   2.189  0.0525 -0.1863 -0.1322
 3873ntf    sn219202   5.405   0.777   2.337  0.1242 -0.2051 -0.1850
 3873ntf    nn319203   5.335   0.875   2.438  0.2427  0.2021 -0.4943
 3873ntf    sn219204   5.329   1.032   2.436 -0.3519  0.1940  0.2171
 3873ntf    cn119205   5.424   1.073   2.586  0.2039 -0.2264 -0.0154
 3873ntf    fn419206   5.356   0.745   2.084 -0.4835  0.4314 -0.7643
 3873ntf    fn419207   5.177   0.763   2.192 -0.1653  0.4618 -0.1392
 3873ntf    fn419208   5.291   0.930   2.150 -0.0113 -0.2070 -0.1804
 3873ntf    on519209   5.387   0.637   2.365  0.6382 -0.4041 -0.8365
 3873ntf    on519210   5.537   0.822   2.303  0.1171  0.0132  0.0699
 3873ntf    on519211   5.195   1.072   2.472 -0.3954 -0.0286  0.3041
 3873ntf    on519212   5.405   1.098   2.333 -0.3806 -0.1501 -0.0279
 3873ntf    fn419213   5.544   1.018   2.593  0.4104  0.2437  0.1946
 3873ntf    fn419214   5.441   1.204   2.587 -0.9174 -0.0716  0.2107
 3873ntf    fn419215   5.371   1.039   2.703 -0.0395 -0.0075 -0.0621
 3874ntf    cn119216   2.954   3.559   2.478 -0.0761 -0.0481 -0.2046
 3874ntf    sn219217   3.003   3.412   2.574  0.1178  0.2236  0.1130
 3874ntf    nn319218   3.159   3.430   2.580  0.1109  0.1434  0.6030
 3874ntf    sn219219   3.269   3.350   2.502 -0.2627  0.0740  0.1383
 3874ntf    cn119220   3.254   3.188   2.583  0.0866  0.0163  0.0919
 3874ntf    fn419221   3.017   3.670   2.512 -0.2735  0.0111 -0.0326
 3874ntf    fn419222   2.986   3.539   2.352 -0.0316  0.0978 -0.2168
 3874ntf    fn419223   2.824   3.581   2.493 -0.1893 -0.5584 -0.3948
 3874ntf    on519224   2.940   3.427   2.703 -0.6560  0.0909 -0.2424
 3874ntf    on519225   2.952   3.304   2.495  0.1136 -0.2072  0.6964
 3874ntf    on519226   3.404   3.380   2.542 -0.2697  0.3411 -0.0380
 3874ntf    on519227   3.252   3.325   2.361  0.1643 -0.2951  0.1475
 3874ntf    fn419228   3.150   3.116   2.544  0.3448 -0.4284  0.2095
 3874ntf    fn419229   3.361   3.110   2.583  0.2790  0.2807  0.3942
 3874ntf    fn419230   3.239   3.210   2.713 -0.2332 -0.5326  0.1553
 3875ntf    cn119231   0.616   5.268   1.906  0.1576 -0.0018 -0.4409
 3875ntf    sn219232   0.717   5.207   2.044 -0.2488 -0.0495 -0.1612
 3875ntf    nn319233   0.613   5.155   2.150 -0.1721  0.3924  0.1347
 3875ntf    sn219234   0.531   5.022   2.131  0.4037  0.0814 -0.2246
 3875ntf    cn119235   0.584   4.929   2.278  0.1868  0.2014 -0.0683
 3875ntf    fn419236   0.554   5.175   1.836 -0.5170 -0.0574  0.2143
 3875ntf    fn419237   0.526   5.350   1.961  0.0229 -0.1379 -0.4570
 3875ntf    fn419238   0.685   5.346   1.825 -0.4679  0.6122 -0.3939
 3875ntf    on519239   0.795   5.100   1.986  0.2817  0.2579 -0.0161
 3875ntf    on519240   0.787   5.324   2.090 -0.2482 -0.4220  0.8135
 3875ntf    on519241   0.558   4.934   2.020  0.3806 -0.0215 -0.1489
 3875ntf    on519242   0.391   5.053   2.147  0.3069 -0.0804 -0.7539
 3875ntf    fn419243   0.711   4.953   2.306  0.4143 -0.5494 -0.4239
 3875ntf    fn419244   0.513   4.969   2.382  0.4555  0.5475 -0.0129
 3875ntf    fn419245   0.567   4.799   2.260 -0.2632  0.2334  0.1379
 3876ntf    cn119246   2.674   6.448   2.885 -0.2205  0.0658 -0.4448
 3876ntf    sn219247   2.855   6.436   2.883 -0.1979  0.3736 -0.2302
 3876ntf    nn319248   2.866   6.314   2.785 -0.5362 -0.1301  0.3508
 3876ntf    sn219249   2.914   6.306   2.635 -0.1790 -0.1652  0.4652
 3876ntf    cn119250   3.093   6.286   2.656 -0.0242  0.4652 -0.2123
 3876ntf    fn419251   2.645   6.557   2.954 -0.4487  0.0386 -0.4956
 3876ntf    fn419252   2.616   6.463   2.766  0.0060  0.5623 -0.4934
 3876ntf    fn419253   2.623   6.339   2.941 -0.2378  0.1007 -0.3936
 3876ntf    on519254   2.892   6.564   2.829  0.2494  0.2758 -0.1636
 3876ntf    on519255   2.897   6.406   3.017 -0.9950  0.1728 -0.0221
 3876ntf    on519256   2.885   6.430   2.568  0.5007  0.1441  0.7314
 3876ntf    on519257   2.881   6.188   2.558 -0.4765  0.1863  0.0523
 3876ntf    fn419258   3.137   6.162   2.676 -0.3521  0.3618 -0.1170
 3876ntf    fn419259   3.167   6.330   2.556  0.0208  0.1457 -0.3212
 3876ntf    fn419260   3.127   6.354   2.764 -0.0089  0.0744  0.0323
 3877ntf    cn119261   1.793   5.213   1.683 -0.0423 -0.0231  0.0992
 3877ntf    sn219262   1.665   5.101   1.618 -0.0026 -0.0324  0.0361
 3877ntf    nn319263   1.620   5.194   1.500 -0.4548 -0.4379 -0.1108
 3877ntf    sn219264   1.595   5.136   1.356 -0.1950  0.1606 -0.3987
 3877ntf    cn119265   1.755   5.175   1.278  0.0749 -0.2861 -0.0768
 3877ntf    fn419266   1.746   5.317   1.750 -0.2184  0.1048 -0.2192
 3877ntf    fn419267   1.870   5.149   1.769  0.0647  0.0365  0.0471
 3877ntf    fn419268   1.868   5.267   1.588 -0.0079 -0.0146  0.1313
 3877ntf    on519269   1.724   4.973   1.585  0.0673 -0.0064  0.0590
 3877ntf    on519270   1.564   5.097   1.721 -0.0547  0.7483  0.0240
 3877ntf    on519271   1.503   5.229   1.296 -0.4236 -0.1160 -0.4771
 3877ntf    on519272   1.563   4.996   1.345 -0.1416  0.1071  0.1116
 3877ntf    fn419273   1.771   5.102   1.169 -0.7128 -0.7103  0.0775
 3877ntf    fn419274   1.774   5.303   1.252 -0.0163 -0.2676 -0.0530
 3877ntf    fn419275   1.853   5.142   1.360  0.0396 -0.1804  0.0079
 3878ntf    cn119276   5.503   6.664   4.635  0.3234 -0.2439  0.1367
 3878ntf    sn219277   5.506   6.699   4.813  0.1493 -0.4371  0.1773
 3878ntf    nn319278   5.602   6.823   4.813 -0.1112 -0.2364  0.0179
 3878ntf    sn219279   5.587   6.964   4.880  0.2409 -0.0736 -0.2419
 3878ntf    cn119280   5.760   7.023   4.884  0.3225 -0.3261  0.0374
 3878ntf    fn419281   5.430   6.754   4.571  0.2623 -0.5781 -0.2646
 3878ntf    fn419282   5.624   6.668   4.580  0.5494  0.2857  0.6618
 3878ntf    fn419283   5.454   6.546   4.601 -0.2053  0.0254 -0.0388
 3878ntf    on519284   5.367   6.725   4.843  0.2220 -0.3952  0.4860
 3878ntf    on519285   5.567   6.588   4.882  0.2357 -0.8597 -0.5685
 3878ntf    on519286   5.546   6.960   5.018 -0.2945  0.0745 -0.3964
 3878ntf    on519287   5.525   7.061   4.793  0.0375  0.1694  0.1707
 3878ntf    fn419288   5.766   7.150   4.919  0.2624 -0.4248  0.4098
 3878ntf    fn419289   5.838   6.957   4.967 -0.4097 -0.9523  0.2492
 3878ntf    fn419290   5.818   7.024   4.765  0.2700 -0.0873  0.0136
 3879ntf    cn119291   1.100   1.359   1.966  0.1165  0.1595 -0.0440
 3879ntf    sn219292   1.031   1.507   2.046  0.0145 -0.0376  0.2343
 3879ntf    nn319293   1.147   1.606   2.010  0.3083 -0.4296  0.0840
 3879ntf    sn219294   1.270   1.640   2.101  0.0739 -0.1051  0.2863
 3879ntf    cn119295   1.391   1.720   1.991 -0.2074 -0.1108 -0.0282
 3879ntf    fn419296   1.125   1.387   1.840  0.1327  0.6743  0.0739
 3879ntf    fn419297   1.213   1.315   2.020  0.1439 -0.1492 -0.3483
 3879ntf    fn419298   1.011   1.261   1.974  0.0800  0.2001  0.0576
 3879ntf    on519299   0.912   1.548   1.976  0.1528 -0.1729 -0.0805
 3879ntf    on519300   1.021   1.474   2.186 -0.5250  0.0359  0.2154
 3879ntf    on519301   1.340   1.520   2.139  0.0746 -0.1936  0.0125
 3879ntf    on519302   1.243   1.740   2.201 -0.2079  0.0385  0.0701
 3879ntf    fn419303   1.500   1.750   2.060 -0.1139 -0.0243 -0.2118
 3879ntf    fn419304   1.428   1.644   1.889 -0.0117  0.2638 -0.2429
 3879ntf    fn419305   1.346   1.834   1.939 -0.3234  0.1246  0.5806
 3880ntf    cn119306   7.028   5.977   7.153 -0.3524  0.3422 -0.0308
 3880ntf    sn219307   7.206   5.961   7.186 -0.3881 -0.1774 -0.0799
 3880ntf    nn319308   7.273   6.012   7.054 -0.0935 -0.1338  0.0858
 3880ntf    sn219309   7.325   5.935   6.927 -0.1968 -0.1975  0.0825
 3880ntf    cn119310   7.279   6.048   6.792  0.0529 -0.5244 -0.2775
 3880ntf    fn419311   6.957   5.902   7.236 -0.2999 -0.2514 -0.5179
 3880ntf    fn419312   6.986   6.102   7.155 -0.1394  0.4130  0.0173
 3880ntf    fn419313   6.991   5.937   7.033  0.1629 -0.2674  0.0105
 3880ntf    on519314   7.239   6.057   7.289  0.0595 -0.6902  0.2601
 3880ntf    on519315   7.236   5.826   7.226 -0.0858 -0.1891 -0.3511
 3880ntf    on519316   7.263   5.813   6.884  0.4754 -0.4260 -0.2416
 3880ntf    on519317   7.468   5.940   6.917 -0.1529 -0.1977  0.6677
 3880ntf    fn419318   7.147   6.063   6.786  0.0724 -0.5090 -0.7248
 3880ntf    fn419319   7.329   6.170   6.806 -0.6190 -0.2266 -0.4163
 3880ntf    fn419320   7.308   6.000   6.672 -0.0444 -0.0652 -0.4866
 3881ntf    cn119321   0.227   7.180   2.292  0.1611 -0.2860  0.1079
 3881ntf    sn219322   0.316   7.066   2.181  0.4180 -0.1783  0.2027
 3881ntf    nn319323   0.210   6.964   2.128  0.5183 -0.6003  0.7979
 3881ntf    sn219324   0.219   6.816   2.075 -0.2210 -0.3208 -0.1550
 3881ntf    cn119325   0.181   6.717   2.222  0.2083 -0.0202  0.1623
 3881ntf    fn419326   0.144   7.113   2.372 -0.5119  0.4246  0.0157
 3881ntf    fn419327   0.306   7.250   2.372  0.2596  0.1304 -0.3537
 3881ntf    fn419328   0.154   7.269   2.227 -0.0603 -0.3462  0.2713
 3881ntf    on519329   0.367   7.145   2.072  1.1171 -0.4986  0.2950
 3881ntf    on519330   0.421   7.005   2.259  0.1148 -0.2719  0.5442
 3881ntf    on519331   0.352   6.776   2.037 -0.2941 -0.1835 -0.5558
 3881ntf    on519332   0.120   6.778   1.978 -0.4803  0.0885 -0.0538
 3881ntf    fn419333   0.263   6.738   2.324  0.1099 -0.1086  0.2594
 3881ntf    fn419334   0.059   6.732   2.270  0.1787  0.1193  0.0424
 3881ntf    fn419335   0.184   6.587   2.196  0.1223 -0.1060  0.5606
 3882ntf    cn119336   4.905   6.844   1.301 -0.2404 -0.2069  0.3070
 3882ntf    sn219337   5.051   6.916   1.220 -0.3388  0.0078  0.3173
 3882ntf    nn319338   5.003   7.035   1.130  0.7556 -0.1208 -0.4546
 3882ntf    sn219339   4.951   7.023   0.982  0.2158 -0.4245 -0.2422
 3882ntf    cn119340   5.107   7.051   0.892  0.1188 -0.2445 -0.3551
 3882ntf    fn419341   4.939   6.745   1.382  0.2558 -0.0939  0.2392
 3882ntf    fn419342   4.836   6.931   1.373 -0.0203  0.1041  0.1452
 3882ntf    fn419343   4.823   6.795   1.210  0.1139  0.4046 -0.3546
 3882ntf    on519344   5.115   6.965   1.339  0.2014  0.1991 -0.0510
 3882ntf    on519345   5.125   6.811   1.154 -0.1395  0.3168  0.0472
 3882ntf    on519346   4.863   7.134   0.953  0.3042 -0.3085 -0.0725
 3882ntf    on519347   4.904   6.895   0.936  0.1762 -0.3671 -0.3602
 3882ntf    fn419348   5.162   7.171   0.899 -0.2169 -0.0740 -0.5923
 3882ntf    fn419349   5.200   6.965   0.931  0.0720 -0.0752  0.1312
 3882ntf    fn419350   5.093   7.035   0.761 -0.2864 -0.1735 -0.3229
 3883ntf    cn119351   7.134   3.190   1.364 -0.6038 -0.2304 -0.3469
 3883ntf    sn219352   7.188   3.094   1.220  0.1971 -0.2077 -0.0652
 3883ntf    nn319353   7.088   3.148   1.112  0.3586 -0.2357 -0.2305
 3883ntf    sn219354   7.056   3.088   0.970 -0.0292 -0.1197 -0.1937
 3883ntf    cn119355   6.935   2.961   1.019 -0.0073 -0.0316  0.0906
 3883ntf    fn419356   7.066   3.120   1.454 -0.2939  0.3290  0.3296
 3883ntf    fn419357   7.237   3.246   1.425 -0.5987  0.4140 -0.9427
 3883ntf    fn419358   7.054   3.289   1.330 -0.3558  0.1260  0.0977
 3883ntf    on519359   7.322   3.137   1.189  0.0619  0.3033  0.0610
 3883ntf    on519360   7.167   2.958   1.263  0.3745 -0.2104  0.0118
 3883ntf    on519361   7.162   3.011   0.910 -0.0190 -0.6277  0.4558
 3883ntf    on519362   6.973   3.172   0.888  0.1141  0.4925  0.2853
 3883ntf    fn419363   6.988   2.845   1.054  0.2098 -0.0470 -0.2820
 3883ntf    fn419364   6.863   3.001   1.123 -0.6885 -0.0212 -0.3802
 3883ntf    fn419365   6.849   2.936   0.921  0.5181  0.0075 -0.3855
 3884ntf    cn119366   6.852   5.171   0.866  0.1152 -0.4278  0.2523
 3884ntf    sn219367   6.763   5.175   1.025  0.1029  0.3553  0.2295
 3884ntf    nn319368   6.861   5.082   1.104 -0.3256 -0.2875  0.0096
 3884ntf    sn219369   6.967   5.113   1.215 -0.3907 -0.4206  0.1093
 3884ntf    cn119370   6.933   4.973   1.326 -0.2920 -0.5229  0.0100
 3884ntf    fn419371   6.878   5.049   0.823  0.1382 -0.1834 -0.4555
 3884ntf    fn419372   6.772   5.221   0.773 -0.0418  0.1553  0.6962
 3884ntf    fn419373   6.968   5.235   0.862  0.0602 -0.3278  0.2443
 3884ntf    on519374   6.755   5.315   1.059  0.1479  0.4389 -0.0927
 3884ntf    on519375   6.641   5.104   0.998  0.2946  0.2587 -0.4162
 3884ntf    on519376   6.949   5.231   1.296  0.3218 -0.0854 -0.2151
 3884ntf    on519377   7.098   5.080   1.165 -0.3438  0.2500 -0.2311
 3884ntf    fn419378   7.029   4.958   1.416  0.1153 -0.7171 -0.4492
 3884ntf    fn419379   6.814   4.993   1.380 -0.3151 -0.7221  0.0349
 3884ntf    fn419380   6.920   4.861   1.256 -0.4007 -0.3534 -0.2418
 3885ntf    cn119381   0.910   2.918   4.687 -0.1021  0.3044 -0.1775
 3885ntf    sn219382   1.019   3.058   4.726 -0.0649  0.3735 -0.5287
 3885ntf    nn319383   1.071   3.011   4.866  0.0982  0.0992 -0.6813
 3885ntf    sn219384   1.185   2.908   4.900  0.1186  0.2822 -0.1845
 3885ntf    cn119385   1.324   3.019   4.939  0.1930  0.2114 -0.2490
 3885ntf    fn419386   0.973   2.803   4.674  0.5134  0.6371 -0.1420
 3885ntf    fn419387   0.817   2.907   4.781 -0.1116 -0.4824 -0.2706
 3885ntf    fn419388   0.846   2.928   4.571 -0.1733 -0.3490 -0.1981
 3885ntf    on519389   1.120   3.061   4.623 -0.0389 -0.3126 -0.5272
 3885ntf    on519390   0.937   3.177   4.733 -0.3788  0.1396 -0.2158
 3885ntf    on519391   1.232   2.832   4.787  0.4660  0.0870  0.0893
 3885ntf    on519392   1.164   2.836   5.023 -0.6217  0.3045 -0.2896
 3885ntf    fn419393   1.379   3.070   4.830 -0.1067  0.3284 -0.3461
 3885ntf    fn419394   1.290   3.127   5.007 -0.5728  0.0497 -0.3595
 3885ntf    fn419395   1.422   2.966   5.010 -0.1515 -0.6267 -0.3869
 3886ntf    cn119396   0.858   5.432   2.744  0.6045 -0.0688  0.5611
 3886ntf    sn219397   0.806   5.606   2.744  0.0785 -0.2202 -0.1074
 3886ntf    nn319398   0.920   5.663   2.837  0.1648 -0.0007 -0.3458
 3886ntf    sn219399   1.070   5.698   2.806  0.1534  0.2463 -0.1254
 3886ntf    cn119400   1.059   5.878   2.821 -0.0742  0.2501 -0.3388
 3886ntf    fn419401   0.939   5.407   2.643  0.0214  0.3775 -0.0204
 3886ntf    fn419402   0.918   5.398   2.858  0.4259 -0.3538  0.5729
 3886ntf    fn419403   0.751   5.354   2.738  0.5227  0.1037 -0.3998
 3886ntf    on519404   0.803   5.648   2.606  0.1031  0.0469 -0.0269
 3886ntf    on519405   0.683   5.603   2.819 -0.0091  0.2678 -0.2331
 3886ntf    on519406   1.113   5.676   2.670  0.1880  0.1817 -0.1041
 3886ntf    on519407   1.164   5.671   2.912  0.4856 -0.1482 -0.5166
 3886ntf    fn419408   0.985   5.933   2.725  0.0060 -0.0480 -0.5719
 3886ntf    fn419409   1.007   5.920   2.935  0.5421 -0.0927  0.0720
 3886ntf    fn419410   1.179   5.934   2.810  0.3154 -0.5853 -0.3693
 3887ntf    cn119411   0.189   6.803   6.723  0.0769 -0.2424 -0.6687
 3887ntf    sn219412   0.284   6.917   6.618  0.0324 -0.0892 -0.5440
 3887ntf    nn319413   0.395   6.816   6.571 -0.0851 -0.2783 -0.4165
 3887ntf    sn219414   0.527   6.768   6.642 -0.0807 -0.0934 -0.3006
 3887ntf    cn119415   0.640   6.892   6.573  0.1167 -0.0046  0.1786
 3887ntf    fn419416   0.265   6.739   6.809  0.0127  0.0754 -0.3713
 3887ntf    fn419417   0.088   6.863   6.786  0.3094 -0.2984 -0.2392
 3887ntf    fn419418   0.134   6.704   6.655 -0.0156 -0.5655 -0.1259
 3887ntf    on519419   0.199   6.954   6.507 -0.0866  0.4886 -0.2635
 3887ntf    on519420   0.323   7.023   6.708 -0.0627 -0.5194  0.0080
 3887ntf    on519421   0.581   6.652   6.577 -0.5161 -0.2708 -0.3482
 3887ntf    on519422   0.538   6.782   6.785  0.1274 -0.5569 -0.2702
 3887ntf    fn419423   0.652   6.882   6.441 -0.3786 -0.0069  0.1338
 3887ntf    fn419424   0.606   7.016   6.606 -0.1691 -0.0417  0.0216
 3887ntf    fn419425   0.763   6.871   6.619  0.0726 -0.3409  0.1410
 3888ntf    cn119426   3.619   2.168   6.668 -0.3978  0.4863  0.1759
 3888ntf    sn219427   3.529   2.120   6.818 -0.1854  0.1443  0.1938
 3888ntf    nn319428   3.422   2.235   6.818 -0.0224  0.2966  0.1041
 3888ntf    sn219429   3.281   2.243   6.749  0.0089 -0.5136 -0.0678
 3888ntf    cn119430   3.183   2.160   6.878 -0.1310 -0.0210  0.1449
 3888ntf    fn419431   3.540   2.147   6.564  0.2465  0.2940 -0.2808
 3888ntf    fn419432   3.654   2.295   6.656  0.4047  0.3047  0.5272
 3888ntf    fn419433   3.722   2.087   6.647 -0.7710  0.0732 -0.0653
 3888ntf    on519434   3.476   1.988   6.794 -0.4428  0.2795  0.0231
 3888ntf    on519435   3.625   2.142   6.924  0.2050  0.7100 -0.2709
 3888ntf    on519436   3.266   2.162   6.631 -0.1070 -0.5056 -0.0578
 3888ntf    on519437   3.226   2.376   6.742 -0.2014 -0.5775  0.3052
 3888ntf    fn419438   3.224   2.038   6.905 -0.2575 -0.1724 -0.3321
 3888ntf    fn419439   3.181   2.220   6.996  1.0154  0.0217  0.1533
 3888ntf    fn419440   3.058   2.156   6.835  0.0213 -0.1927 -0.2909
 3889ntf    cn119441   1.271   6.637   5.853 -0.1337  0.4323  0.3566
 3889ntf    sn219442   1.138   6.581   5.964 -0.1984 -0.2268 -0.0493
 3889ntf    nn319443   1.193   6.661   6.087  0.2016 -0.4079 -0.1109
 3889ntf    sn219444   1.284   6.606   6.203  0.3731  0.3653  0.1217
 3889ntf    cn119445   1.242   6.731   6.329  0.4343 -0.0500  0.5549
 3889ntf    fn419446   1.390   6.636   5.911  0.0591 -0.1641 -0.0379
 3889ntf    fn419447   1.274   6.574   5.736 -0.6057  0.0312  0.5550
 3889ntf    fn419448   1.247   6.762   5.818 -0.1259  0.3149 -0.0763
 3889ntf    on519449   1.017   6.641   5.913  0.0732  0.3056 -0.0689
 3889ntf    on519450   1.149   6.437   5.973 -0.3081 -0.2235  0.1421
 3889ntf    on519451   1.426   6.622   6.188  0.3852  0.3595  0.2267
 3889ntf    on519452   1.233   6.484   6.261 -0.1392  0.6525  0.2880
 3889ntf    fn419453   1.244   6.854   6.282  0.7359  0.0955  0.9482
 3889ntf    fn419454   1.119   6.719   6.378  0.2653  0.2787  0.2141
 3889ntf    fn419455   1.326   6.721   6.431  0.7869  0.0152  0.2735
 3890ntf    cn119456   5.870   3.399   0.348  0.0853 -0.0559  0.2474
 3890ntf    sn219457   5.893   3.219   0.367  0.2038 -0.1007 -0.3084
 3890ntf    nn319458   6.048   3.213   0.390  0.1939 -0.2058 -0.2709
 3890ntf    sn219459   6.125   3.157   0.515 -0.0897  0.2538  0.1145
 3890ntf    cn119460   6.172   3.001   0.433 -0.2662  0.3148 -0.1058
 3890ntf    fn419461   5.741   3.421   0.327  0.1769  0.2635  0.0233
 3890ntf    fn419462   5.895   3.468   0.458  0.0368 -0.5760  0.5884
 3890ntf    fn419463   5.933   3.452   0.244 -0.1877 -0.1028  0.0563
 3890ntf    on519464   5.799   3.182   0.469  0.0341  0.0602 -0.4045
 3890ntf    on519465   5.852   3.177   0.235  0.2868  0.1472 -0.4139
 3890ntf    on519466   6.050   3.107   0.627  0.0951 -0.0654  0.0970
 3890ntf    on519467   6.246   3.232   0.535 -0.0749  0.3131 -0.1832
 3890ntf    fn419468   6.238   2.916   0.511 -0.1232  0.0477 -0.5152
 3890ntf    fn419469   6.066   2.929   0.400 -0.1577  0.4016 -0.6555
 3890ntf    fn419470   6.248   3.016   0.326 -0.1222  0.0400 -0.0442
 3891ntf    cn119471   6.917   0.317   7.064 -0.2516  0.1564  0.2866
 3891ntf    sn219472   7.094   0.279   7.046 -0.2347  0.3133  0.1160
 3891ntf    nn319473   7.158   0.415   7.002 -0.2236  0.2264 -0.1372
 3891ntf    sn219474   7.202   0.477   6.864  0.1625  0.1658 -0.0436
 3891ntf    cn119475   7.061   0.589   6.840  0.0354  0.0817  0.2984
 3891ntf    fn419476   6.908   0.426   7.138  0.2541  0.3179  0.1120
 3891ntf    fn419477   6.850   0.342   6.952 -0.2266 -0.5947  0.0975
 3891ntf    fn419478   6.848   0.221   7.123  0.1824 -0.3258  0.0146
 3891ntf    on519479   7.141   0.247   7.179  0.4445  0.0497 -0.1865
 3891ntf    on519480   7.095   0.172   6.949 -0.7034  0.0881  0.3560
 3891ntf    on519481   7.210   0.398   6.743 -0.3285  0.2159 -0.1100
 3891ntf    on519482   7.311   0.566   6.892  0.0555  0.2381  0.1459
 3891ntf    fn419483   7.030   0.674   6.937 -0.5360  0.0443  0.1524
 3891ntf    fn419484   7.066   0.651   6.723 -0.0958 -0.4987 -0.0143
 3891ntf    fn419485   6.953   0.515   6.825  0.0598  0.1277 -0.1123
 3892ntf    cn119486   5.353   6.823   6.091 -0.1357 -0.1259  0.0451
 3892ntf    sn219487   5.374   6.831   5.910  0.3032 -0.1167  0.0932
 3892ntf    nn319488   5.522   6.882   5.913  0.1116  0.4259  0.4850
 3892ntf    sn219489   5.592   6.985   5.817  0.1396 -0.1241 -0.0878
 3892ntf    cn119490   5.590   7.133   5.922  0.1180  0.0628 -0.3535
 3892ntf    fn419491   5.370   6.940   6.151 -0.1055  0.1032 -0.4016
 3892ntf    fn419492   5.239   6.768   6.129  0.0986 -0.2480  0.5745
 3892ntf    fn419493   5.441   6.750   6.157  0.2492  0.2275 -0.0686
 3892ntf    on519494   5.359   6.694   5.867 -0.3990 -0.1976  0.5567
 3892ntf    on519495   5.269   6.921   5.868  0.8368  0.3034 -0.3363
 3892ntf    on519496   5.511   7.020   5.703 -0.0047 -0.5467 -0.1191
 3892ntf    on519497   5.733   6.964   5.795  0.1964 -0.2360  0.3654
 3892ntf    fn419498   5.465   7.168   5.946  0.0952 -0.1364 -0.1752
 3892ntf    fn419499   5.653   7.132   6.038  0.0268 -0.1886 -0.3057
 3892ntf    fn419500   5.638   7.235   5.852 -0.3921  0.2667 -0.4136
 3893ntf    cn119501   5.409   6.790   4.276  0.0676  0.0137 -0.3588
 3893ntf    sn219502   5.481   6.902   4.152  0.2491 -0.3243 -0.5622
 3893ntf    nn319503   5.349   6.977   4.112  0.2669  0.1510  0.2516
 3893ntf    sn219504   5.284   7.095   4.193 -0.0594  0.0991  0.0688
 3893ntf    cn119505   5.385   7.230   4.124 -0.2470  0.2624  0.1114
 3893ntf    fn419506   5.321   6.708   4.221  0.3168 -0.5988  0.1391
 3893ntf    fn419507   5.500   6.714   4.335 -0.3755 -0.2215  0.0266
 3893ntf    fn419508   5.347   6.851   4.375  0.1485  0.2101 -0.4273
 3893ntf    on519509   5.581   6.978   4.222 -0.5620  0.0621  0.2035
 3893ntf    on519510   5.522   6.813   4.046  0.3928 -0.0483 -0.7415
 3893ntf    on519511   5.307   7.089   4.336 -0.4578  0.5072  0.1519
 3893ntf    on519512   5.152   7.135   4.151  0.0408  0.0604 -0.2865
 3893ntf    fn419513   5.354   7.354   4.156 -0.4494  0.0877  0.6124
 3893ntf    fn419514   5.515   7.218   4.144 -0.2049  0.1933 -0.2108
 3893ntf    fn419515   5.366   7.237   3.994 -0.5634  0.0894  0.1470
 3894ntf    cn119516   4.911   5.025   1.999 -0.3231  0.0554 -0.5594
 3894ntf    sn219517   5.040   5.071   2.118 -0.3197 -0.1074 -0.4995
 3894ntf    nn319518   5.143   4.959   2.077  0.2424  0.4266 -0.5579
 3894ntf    sn219519   5.297   4.977   2.051  0.3713  0.0829 -0.0458
 3894ntf    cn119520   5.291   4.984   1.870 -0.0944 -0.1089 -0.0407
 3894ntf    fn419521   4.955   5.031   1.875  0.1004 -0.7067 -0.4540
 3894ntf    fn419522   4.868   4.901   2.018 -0.2089  0.0712 -0.1886
 3894ntf    fn419523   4.806   5.105   2.011 -0.1670  0.1673  0.0955
 3894ntf    on519524   5.074   5.209   2.097  0.0531 -0.0224  0.5961
 3894ntf    on519525   4.968   5.047   2.241 -0.0427  0.2538 -0.2626
 3894ntf    on519526   5.372   4.858   2.080 -0.2848 -0.2958  0.1133
 3894ntf    on519527   5.355   5.104   2.087  0.0069  0.0327  0.7458
 3894ntf    fn419528   5.414   5.010   1.827  0.2111 -0.1554  0.7814
 3894ntf    fn419529   5.264   4.868   1.813 -0.0924 -0.0663 -0.1289
 3894ntf    fn419530   5.206   5.071   1.818 -0.7212 -0.3688  0.5331
 3895ntf    cn119531   3.156   6.507   3.686  0.1457 -0.2170  0.0545
 3895ntf    sn219532   3.121   6.615   3.827 -0.1653  0.2537 -0.3792
 3895ntf    nn319533   3.263   6.668   3.865 -0.0923 -0.0893 -0.1628
 3895ntf    sn219534   3.307   6.810   3.917  0.2677 -0.2116 -0.1305
 3895ntf    cn119535   3.305   6.910   3.765  0.0202 -0.0583 -0.0281
 3895ntf    fn419536   3.246   6.417   3.722 -0.2186 -0.5400  0.1635
 3895ntf    fn419537   3.057   6.433   3.638  0.1454 -0.4277  0.3790
 3895ntf    fn419538   3.210   6.573   3.585  0.1041 -0.2453  0.0134
 3895ntf    on519539   3.033   6.722   3.786  0.1870  0.5639 -0.3280
 3895ntf    on519540   3.069   6.524   3.927 -0.2497  0.5302 -0.1684
 3895ntf    on519541   3.445   6.810   3.958  0.1972  0.4318  0.1256
 3895ntf    on519542   3.211   6.869   4.007  0.7880  0.5420 -0.0549
 3895ntf    fn419543   3.339   7.034   3.793  0.2628 -0.1849  0.2500
 3895ntf    fn419544   3.397   6.866   3.680 -0.1428 -0.4842  0.0103
 3895ntf    fn419545   3.188   6.914   3.704  0.0066  0.0180  0.0032
 3896ntf    cn119546   0.829   0.172   2.385  0.0145 -0.2613  0.1112
 3896ntf    sn219547   1.003   0.209   2.351  0.0205  0.0178  0.4392
 3896ntf    nn319548   1.019   0.357   2.399  0.2989  0.0267  0.3226
 3896ntf    sn219549   1.013   0.484   2.307  0.0266  0.0079  0.3146
 3896ntf    cn119550   0.923   0.589   2.426  0.0378 -0.0579  0.3809
 3896ntf    fn419551   0.797   0.052   2.337  0.0056 -0.1145 -0.2518
 3896ntf    fn419552   0.805   0.174   2.515 -0.0461 -0.7867  0.1119
 3896ntf    fn419553   0.745   0.248   2.317  0.2666 -0.0717  0.0149
 3896ntf    on519554   1.072   0.117   2.438  0.6814  0.1055  0.0145
 3896ntf    on519555   1.012   0.196   2.207  0.1117 -0.3687  0.4775
 3896ntf    on519556   0.927   0.477   2.191 -0.2937  0.3130  0.5304
 3896ntf    on519557   1.136   0.557   2.290 -0.1108  0.1643 -0.0421
 3896ntf    fn419558   0.795   0.557   2.420  0.1185 -0.3431  0.1115
 3896ntf    fn419559   0.965   0.570   2.550  0.1774  0.3055  0.3909
 3896ntf    fn419560   0.937   0.717   2.396 -0.0183 -0.1168  0.1031
 3897ntf    cn119561   2.645   1.487   4.067 -0.1867  0.1676 -0.2847
 3897ntf    sn219562   2.514   1.400   3.977 -0.2668  0.0790 -0.0821
 3897ntf    nn319563   2.495   1.514   3.870  0.1900 -0.0068 -0.2564
 3897ntf    sn219564   2.555   1.542   3.728  0.2457 -0.4114 -0.3157
 3897ntf    cn119565   2.496   1.406   3.623  0.3850 -0.6699 -0.0606
 3897ntf    fn419566   2.679   1.412   4.170  0.3131  0.4340 -0.2511
 3897ntf    fn419567   2.756   1.487   3.995 -0.0966 -0.2740 -0.1474
 3897ntf    fn419568   2.620   1.613   4.099 -0.4473  0.1048 -0.2398
 3897ntf    on519569   2.572   1.279   3.926  0.0854  0.0750  0.3253
 3897ntf    on519570   2.400   1.391   4.066 -0.6239  0.4128 -0.4979
 3897ntf    on519571   2.698   1.528   3.732  0.2501 -0.2774  0.0225
 3897ntf    on519572   2.498   1.658   3.664  0.3796 -0.1921 -0.0420
 3897ntf    fn419573   2.376   1.442   3.580  0.4095  0.1791  0.5447
 3897ntf    fn419574   2.563   1.382   3.512  0.3378 -0.7770 -0.0659
 3897ntf    fn419575   2.477   1.292   3.687  0.0510 -0.3985  0.3353
 3898ntf    cn119576   1.171   3.621   5.409 -0.4300  0.2101 -0.3290
 3898ntf    sn219577   1.199   3.454   5.476 -0.0205  0.3987 -0.0213
 3898ntf    nn319578   1.224   3.484   5.628 -0.0468  0.1814  0.0259
 3898ntf    sn219579   1.134   3.484   5.757 -0.0139  0.2709  0.0496
 3898ntf    cn119580   1.158   3.313   5.815 -0.0282  0.3074  0.1625
 3898ntf    fn419581   1.069   3.693   5.454 -0.1072  0.6399 -0.2737
 3898ntf    fn419582   1.277   3.698   5.432 -0.2062 -0.1735 -0.0711
 3898ntf    fn419583   1.154   3.619   5.278  0.1090  0.1362 -0.4010
 3898ntf    on519584   1.075   3.384   5.453  0.2646 -0.1936  0.2426
 3898ntf    on519585   1.322   3.410   5.414 -0.0724  0.4107 -0.1318
 3898ntf    on519586   0.993   3.492   5.729 -0.0755 -0.2637  0.1910
 3898ntf    on519587   1.194   3.565   5.860  0.2738 -0.0021  0.0998
 3898ntf    fn419588   1.115   3.228   5.723  0.3326  0.4194 -0.1114
 3898ntf    fn419589   1.282   3.281   5.847  0.0209 -0.0695 -0.3850
 3898ntf    fn419590   1.083   3.283   5.919 -0.0402  0.0605  0.0847
 3899ntf    cn119591   2.438   6.833   4.624 -0.1056 -0.4889 -0.3071
 3899ntf    sn219592   2.407   6.678   4.534 -0.2827 -0.6357  0.0039
 3899ntf    nn319593   2.252   6.665   4.552 -0.3591 -0.0514 -0.2280
 3899ntf    sn219594   2.145   6.706   4.444 -0.3412 -0.1869 -0.2975
 3899ntf    cn119595   2.136   6.553   4.346  0.1729 -0.2360 -0.2693
 3899ntf    fn419596   2.564   6.856   4.654 -0.2545 -0.0030 -0.0418
 3899ntf    fn419597   2.402   6.940   4.555  0.2301 -0.1682  0.0138
 3899ntf    fn419598   2.381   6.843   4.743 -0.0897 -0.1768 -0.3249
 3899ntf    on519599   2.472   6.694   4.406  0.1572 -0.1888  0.2821
 3899ntf    on519600   2.474   6.591   4.628 -0.1920 -0.2742  0.2739
 3899ntf    on519601   2.188   6.812   4.356  0.2393 -0.0797  0.1056
 3899ntf    on519602   2.013   6.715   4.502 -0.2265 -0.1730 -0.0366
 3899ntf    fn419603   2.046   6.549   4.249 -0.1076 -0.0990 -0.0160
 3899ntf    fn419604   2.246   6.545   4.273  0.1422 -0.0788 -0.3327
 3899ntf    fn419605   2.120   6.440   4.411  0.1157 -0.1362 -0.1101
 3900ntf    cn119606   0.614   6.913   3.660  0.1269  0.0025  0.2462
 3900ntf    sn219607   0.578   6.892   3.837  0.0364 -0.3224  0.1913
 3900ntf    nn319608   0.564   7.043   3.878 -0.4637 -0.3206  0.0193
 3900ntf    sn219609   0.499   7.105   4.007 -0.0166  0.0084  0.0868
 3900ntf    cn119610   0.339   7.155   3.937  0.0218 -0.1849 -0.1381
 3900ntf    fn419611   0.704   7.005   3.631 -0.0216 -0.1261 -0.6710
 3900ntf    fn419612   0.658   6.798   3.610 -0.0323 -0.0352  0.1913
 3900ntf    fn419613   0.506   6.934   3.586  0.2607 -0.2565 -0.0276
 3900ntf    on519614   0.456   6.816   3.830 -0.3871  0.4026 -0.4648
 3900ntf    on519615   0.699   6.834   3.890  0.3913  0.2249 -0.0124
 3900ntf    on519616   0.569   7.226   4.042  0.4013 -0.0635 -0.4875
 3900ntf    on519617   0.482   7.011   4.115  0.1495 -0.3011 -0.1519
 3900ntf    fn419618   0.255   7.197   4.030  0.3454 -0.1523  0.1410
 3900ntf    fn419619   0.356   7.258   3.857  0.0758  0.0247  0.1421
 3900ntf    fn419620   0.283   7.059   3.865 -0.1340 -0.5776  0.4953
 3901ntf    cn119621   0.218   6.283   1.389  0.0823 -0.2165  0.2953
 3901ntf    sn219622   0.093   6.206   1.281  0.1736  0.0728 -0.0179
 3901ntf    nn319623   0.167   6.225   1.144 -0.0389  0.1490 -0.1223
 3901ntf    sn219624   0.173   6.136   1.015 -0.2856  0.0306 -0.0528
 3901ntf    cn119625   0.342   6.071   1.026 -0.2363  0.2071  0.2209
 3901ntf    fn419626   0.187   6.280   1.518  0.0220  0.0286  0.2877
 3901ntf    fn419627   0.342   6.238   1.381  0.3161  0.4444  0.0764
 3901ntf    fn419628   0.228   6.411   1.359  0.1055 -0.1467  0.5978
 3901ntf    on519629   0.087   6.073   1.335  0.6277 -0.1030 -0.4009
 3901ntf    on519630  -0.019   6.295   1.304  0.1588  0.0860 -0.1426
 3901ntf    on519631   0.170   6.222   0.899 -0.4438  0.4265  0.2439
 3901ntf    on519632   0.092   6.017   1.010  0.2813 -0.3338 -0.6497
 3901ntf    fn419633   0.442   6.154   0.998 -0.2759  0.1765 -0.0143
 3901ntf    fn419634   0.365   6.029   1.149 -0.2485 -0.0119  0.1475
 3901ntf    fn419635   0.368   5.969   0.946 -0.8630  0.2281 -0.0076
 3902ntf    cn119636   2.553   1.406   2.420 -0.0934 -0.0034 -0.2949
 3902ntf    sn219637   2.695   1.354   2.319  0.1569 -0.0533  0.0767
 3902ntf    nn319638   2.812   1.359   2.423  0.5656 -0.3628 -0.3660
 3902ntf    sn219639   2.900   1.250   2.493  0.3385 -0.3128  0.0005
 3902ntf    cn119640   3.059   1.259   2.405  0.2111  0.2401 -0.1727
 3902ntf    fn419641   2.438   1.416   2.356  0.0732  0.1920 -0.5655
 3902ntf    fn419642   2.535   1.309   2.509  0.3985 -0.4225 -0.6425
 3902ntf    fn419643   2.569   1.518   2.489 -0.0013 -0.1664 -0.0505
 3902ntf    on519644   2.656   1.225   2.268 -0.3045  0.1346 -0.0579
 3902ntf    on519645   2.691   1.465   2.226 -0.3129 -0.3173 -0.2261
 3902ntf    on519646   2.854   1.114   2.476 -0.5457  0.0161 -0.2612
 3902ntf    on519647   2.931   1.298   2.625 -0.5807  0.0362  0.0961
 3902ntf    fn419648   3.110   1.381   2.406  0.4499  0.1404 -0.2196
 3902ntf    fn419649   3.144   1.175   2.460  0.1688 -0.0165 -0.4975
 3902ntf    fn419650   3.051   1.229   2.276  0.3850 -0.1384 -0.0947
 3903ntf    cn119651   2.165   2.377   3.456  0.0866  0.0081  0.2390
 3903ntf    sn219652   1.996   2.443   3.474  0.0111  0.0441 -0.5561
 3903ntf    nn319653   1.988   2.546   3.356 -0.3541  0.3695 -0.2495
 3903ntf    sn219654   1.866   2.587   3.266 -0.3612  0.2615 -0.2881
 3903ntf    cn119655   1.818   2.734   3.361  0.0737  0.0194  0.3136
 3903ntf    fn419656   2.177   2.305   3.346  0.3854  0.3680  0.0369
 3903ntf    fn419657   2.252   2.476   3.456 -0.5072  0.5544 -0.7849
 3903ntf    fn419658   2.203   2.307   3.562 -0.0762 -0.4590 -0.0081
 3903ntf    on519659   1.905   2.332   3.471 -0.0610  0.0610  0.4391
 3903ntf    on519660   2.003   2.507   3.603  0.1279 -0.2459 -0.4176
 3903ntf    on519661   1.751   2.500   3.259  0.1111 -0.3992 -0.0408
 3903ntf    on519662   1.916   2.646   3.145 -0.3069  0.4748 -0.1613
 3903ntf    fn419663   1.791   2.703   3.487  0.4001 -0.3113  0.3030
 3903ntf    fn419664   1.907   2.832   3.356  0.4013 -0.2728  0.3415
 3903ntf    fn419665   1.705   2.784   3.314  0.2453  0.1539  0.0411
 3904ntf    cn119666   1.375   2.331   2.121 -0.2690  0.0418  0.1461
 3904ntf    sn219667   1.271   2.406   2.249 -0.2741  0.2705  0.0076
 3904ntf    nn319668   1.139   2.323   2.239  0.0669 -0.2416 -0.2819
 3904ntf    sn219669   1.099   2.212   2.342  0.2732  0.0645  0.1293
 3904ntf    cn119670   1.041   2.303   2.488 -0.2256  0.0065 -0.0317
 3904ntf    fn419671   1.326   2.345   1.999  0.1619 -0.1620 -0.0548
 3904ntf    fn419672   1.495   2.387   2.128 -0.2121 -0.1014  0.3340
 3904ntf    fn419673   1.402   2.203   2.142  0.1897  0.0291 -0.4885
 3904ntf    on519674   1.337   2.396   2.377  0.2390 -0.5179 -0.3079
 3904ntf    on519675   1.256   2.539   2.194 -0.2188  0.3847  0.2642
 3904ntf    on519676   1.206   2.128   2.390  0.5301  0.2332 -0.1416
 3904ntf    on519677   0.982   2.144   2.292  0.0514  0.2372  0.4092
 3904ntf    fn419678   1.004   2.228   2.590  0.1044  0.2419  0.2628
 3904ntf    fn419679   1.143   2.372   2.536 -0.3280 -0.0824  0.3198
 3904ntf    fn419680   0.946   2.390   2.458 -0.0634  0.0739 -0.3528
 3905ntf    cn119681   3.504   2.444   2.879 -0.1447 -0.2653  0.1564
 3905ntf    sn219682   3.429   2.539   2.744 -0.1375 -0.0701  0.2890
 3905ntf    nn319683   3.500   2.678   2.762 -0.5289  0.1897 -0.1297
 3905ntf    sn219684   3.456   2.818   2.707 -0.1796  0.3347 -0.0438
 3905ntf    cn119685   3.389   2.883   2.864 -0.0381 -0.4834  0.3606
 3905ntf    fn419686   3.497   2.515   2.991  0.2486 -0.2595  0.1790
 3905ntf    fn419687   3.439   2.330   2.892  0.0761 -0.4304 -0.1660
 3905ntf    fn419688   3.628   2.407   2.852  0.0487  0.4706  0.0093
 3905ntf    on519689   3.475   2.466   2.628 -0.4857 -0.1119  0.1760
 3905ntf    on519690   3.288   2.536   2.774 -0.0911 -0.0107  0.5125
 3905ntf    on519691   3.347   2.818   2.613  0.0773 -0.0421 -0.3443
 3905ntf    on519692   3.569   2.904   2.683  0.0891  0.0829  0.3188
 3905ntf    fn419693   3.348   3.009   2.866 -0.3912 -0.5982  0.4618
 3905ntf    fn419694   3.285   2.810   2.902 -0.5644 -0.0397 -0.1942
 3905ntf    fn419695   3.482   2.877   2.958  0.2178  0.0278  0.1405
 3906ntf    cn119696   4.024   7.002   2.628  0.4426  0.3275 -0.1006
 3906ntf    sn219697   4.012   6.922   2.465  0.2103 -0.0675  0.1084
 3906ntf    nn319698   3.909   7.020   2.397  0.0992 -0.0836  0.2528
 3906ntf    sn219699   3.756   7.025   2.431  0.0781 -0.0595  0.1509
 3906ntf    cn119700   3.698   6.922   2.293  0.0711  0.0124  0.0994
 3906ntf    fn419701   4.127   6.953   2.695  0.3058  0.0635 -0.0774
 3906ntf    fn419702   4.030   7.134   2.629  0.4137  0.3388 -0.9469
 3906ntf    fn419703   3.919   6.965   2.699  0.9632 -0.6126  0.2002
 3906ntf    on519704   4.144   6.937   2.409  0.1137  0.3837 -0.0024
 3906ntf    on519705   3.963   6.791   2.498  0.7420 -0.1590  0.5503
 3906ntf    on519706   3.705   7.157   2.402  0.4880  0.0636 -0.0174
 3906ntf    on519707   3.718   6.957   2.552 -0.0735  0.2920  0.3033
 3906ntf    fn419708   3.756   6.803   2.283 -0.1160 -0.0653 -0.0939
 3906ntf    fn419709   3.566   6.909   2.303  0.1026 -0.0878  0.4129
 3906ntf    fn419710   3.713   6.992   2.182 -0.2003  0.2554  0.2132
 3907ntf    cn119711   3.287   3.623   6.259 -0.1746 -0.1477 -0.1156
 3907ntf    sn219712   3.350   3.457   6.298  0.3197  0.1250  0.2587
 3907ntf    nn319713   3.498   3.471   6.248  0.2524  0.1817  0.0761
 3907ntf    sn219714   3.629   3.405   6.302  0.2140 -0.0150 -0.0674
 3907ntf    cn119715   3.706   3.351   6.146 -0.0740  0.1303 -0.2609
 3907ntf    fn419716   3.351   3.716   6.327 -0.2576 -0.3130  0.1937
 3907ntf    fn419717   3.291   3.657   6.132 -0.3034 -0.5265 -0.2216
 3907ntf    fn419718   3.159   3.636   6.291 -0.0361 -0.0679  0.4257
 3907ntf    on519719   3.335   3.460   6.442 -0.3244  0.7868  0.1819
 3907ntf    on519720   3.265   3.367   6.223  0.5386  0.1117  0.0275
 3907ntf    on519721   3.612   3.288   6.384  0.4131 -0.3982 -0.5679
 3907ntf    on519722   3.727   3.501   6.348  0.0972 -0.1087  0.3790
 3907ntf    fn419723   3.752   3.452   6.075 -0.2133  0.6283  0.3418
 3907ntf    fn419724   3.803   3.263   6.166 -0.3641 -0.1476 -0.0652
 3907ntf    fn419725   3.615   3.292   6.072 -0.4124  0.3393 -0.0166
 3908ntf    cn119726   5.465   2.302   3.746  0.0177 -0.4769  0.0861
 3908ntf    sn219727   5.563   2.211   3.869  0.0408  0.1799  0.5563
 3908ntf    nn319728   5.649   2.335   3.916  0.5241  0.1517 -0.2341
 3908ntf    sn219729   5.707   2.372   4.057 -0.1037  0.0404  0.0607
 3908ntf    cn119730   5.577   2.493   4.094 -0.2657 -0.0793 -0.1147
 3908ntf    fn419731   5.529   2.340   3.636  0.0947 -0.0955  0.2605
 3908ntf    fn419732   5.362   2.232   3.702 -0.1766 -0.1697  0.0495
 3908ntf    fn419733   5.409   2.409   3.801  0.3642 -0.3521  0.1989
 3908ntf    on519734   5.467   2.154   3.960 -0.1372 -0.1445  0.1684
 3908ntf    on519735   5.639   2.114   3.795  0.1342  0.9464 -0.3689
 3908ntf    on519736   5.832   2.445   4.056 -0.0279 -0.0867  0.1587
 3908ntf    on519737   5.700   2.266   4.154  0.0270 -0.0047  0.0211
 3908ntf    fn419738   5.596   2.553   4.210 -0.4715 -0.3157  0.0418
 3908ntf    fn419739   5.574   2.594   4.008  0.0482 -0.2658 -0.3460
 3908ntf    fn419740   5.455   2.442   4.102 -0.2621 -0.0868 -0.1106
 3909ntf    cn119741   0.981   0.458   2.900  0.0154 -0.1546 -0.0280
 3909ntf    sn219742   0.931   0.599   3.004 -0.2386 -0.1864 -0.1052
 3909ntf    nn319743   0.917   0.530   3.145  0.1532  0.4621  0.2607
 3909ntf    sn219744   1.026   0.498   3.253 -0.1205  0.0296  0.4095
 3909ntf    cn119745   1.024   0.316   3.238  0.1152  0.0985 -0.4950
 3909ntf    fn419746   1.110   0.440   2.924  0.0234  0.4721  0.4420
 3909ntf    fn419747   0.909   0.351   2.930 -0.0177 -0.0850  0.1478
 3909ntf    fn419748   0.969   0.484   2.771 -0.4133 -0.0855  0.0221
 3909ntf    on519749   1.038   0.696   3.001 -0.5449  0.1561 -0.0359
 3909ntf    on519750   0.801   0.636   2.955 -0.7207 -0.0489  1.2324
 3909ntf    on519751   0.981   0.527   3.387 -0.1831  0.3068  0.3297
 3909ntf    on519752   1.164   0.528   3.223 -0.0697 -0.4068  0.1944
 3909ntf    fn419753   0.907   0.261   3.265 -0.1450  0.5395 -0.7013
 3909ntf    fn419754   1.049   0.276   3.114 -0.5105 -0.2653 -0.5090
 3909ntf    fn419755   1.110   0.265   3.325 -0.3047  0.5255  0.1807
 3910ntf    cn119756   0.433   1.248   2.350 -0.4619  0.0468  0.4343
 3910ntf    sn219757   0.586   1.346   2.360 -0.2126 -0.2452 -0.3794
 3910ntf    nn319758   0.659   1.281   2.483  0.3829  0.2569 -0.4625
 3910ntf    sn219759   0.763   1.163   2.489 -0.2037 -0.2265  0.4478
 3910ntf    cn119760   0.678   1.045   2.598 -0.1521 -0.5918  0.0944
 3910ntf    fn419761   0.442   1.117   2.338 -0.0351  0.0973  0.1423
 3910ntf    fn419762   0.364   1.266   2.461  0.0061 -0.5152  0.8250
 3910ntf    fn419763   0.363   1.288   2.245  0.0458  0.8713  0.3994
 3910ntf    on519764   0.643   1.327   2.229  0.2178 -0.8023 -0.1136
 3910ntf    on519765   0.543   1.478   2.399  0.1648 -0.0950 -0.4631
 3910ntf    on519766   0.883   1.208   2.554  0.2194  0.3162 -0.6827
 3910ntf    on519767   0.779   1.086   2.368  0.4572  0.6072 -0.0034
 3910ntf    fn419768   0.742   0.931   2.615 -0.4339 -0.8122 -0.3094
 3910ntf    fn419769   0.656   1.086   2.722 -0.6141 -0.3670 -0.0560
 3910ntf    fn419770   0.558   1.008   2.555 -0.4145 -0.0200  0.3238
 3911ntf    cn119771   5.423   6.780   3.319 -0.4666  0.2239 -0.2229
 3911ntf    sn219772   5.384   6.951   3.271  0.3380  0.3866 -0.3087
 3911ntf    nn319773   5.481   6.976   3.150 -0.2495  0.2301 -0.8186
 3911ntf    sn219774   5.630   6.933   3.125 -0.0458  0.3564  0.1141
 3911ntf    cn119775   5.699   7.086   3.056  0.0545  0.1733 -0.1936
 3911ntf    fn419776   5.410   6.703   3.213  0.0822  0.1110 -0.2117
 3911ntf    fn419777   5.547   6.775   3.365 -0.3169  0.2245 -0.6217
 3911ntf    fn419778   5.345   6.745   3.420  0.2376  0.0144  0.2495
 3911ntf    on519779   5.248   6.943   3.223  0.2137 -0.5139  0.1800
 3911ntf    on519780   5.404   7.036   3.386  0.5805  0.1221 -0.1565
 3911ntf    on519781   5.632   6.842   3.013 -0.0966 -0.0653  0.4556
 3911ntf    on519782   5.711   6.907   3.241  0.2654  0.1248 -0.1553
 3911ntf    fn419783   5.666   7.112   2.931 -0.2779 -0.0827 -0.1580
 3911ntf    fn419784   5.667   7.190   3.131  0.1685  0.2460 -0.2443
 3911ntf    fn419785   5.832   7.082   3.054  0.0663  0.1028  0.4196
 3912ntf    cn119786   3.525   5.397   3.751 -0.2152 -0.0592 -0.0933
 3912ntf    sn219787   3.476   5.364   3.923  0.3656 -0.2264  0.0415
 3912ntf    nn319788   3.608   5.419   3.988  0.0950 -0.2320  0.5987
 3912ntf    sn219789   3.629   5.557   4.060  0.1511  0.1331 -0.1099
 3912ntf    cn119790   3.651   5.483   4.224  0.3779  0.2974 -0.0658
 3912ntf    fn419791   3.575   5.520   3.739  0.0972 -0.1911 -0.1656
 3912ntf    fn419792   3.622   5.317   3.710 -0.1007  0.4524 -0.8474
 3912ntf    fn419793   3.424   5.377   3.668 -0.2107  0.6872 -0.2887
 3912ntf    on519794   3.352   5.437   3.936  0.1732 -0.5063 -0.2050
 3912ntf    on519795   3.472   5.220   3.932 -0.5790 -0.2220 -0.2477
 3912ntf    on519796   3.520   5.649   4.080  0.0138  0.0045 -0.2601
 3912ntf    on519797   3.757   5.618   4.031  0.0725  0.1152 -0.5007
 3912ntf    fn419798   3.566   5.385   4.252  0.1134  0.6730  0.4902
 3912ntf    fn419799   3.774   5.442   4.246  0.2727  0.0988  0.1609
 3912ntf    fn419800   3.631   5.566   4.326 -0.0110  0.4236 -0.2421
 3913ntf    cn119801   2.630   0.020   4.538  0.3578  0.2719  0.7139
 3913ntf    sn219802   2.586   0.094   4.377  0.4624 -0.3077  0.4168
 3913ntf    nn319803   2.515   0.223   4.432 -0.1794 -0.6837  0.4865
 3913ntf    sn219804   2.397   0.314   4.382  0.3641 -0.2673 -0.0628
 3913ntf    cn119805   2.268   0.259   4.498  0.2274  0.0989 -0.0409
 3913ntf    fn419806   2.653  -0.110   4.525  0.3166  0.3646 -0.4119
 3913ntf    fn419807   2.737   0.076   4.592  0.7006  0.0741  0.2458
 3913ntf    fn419808   2.527   0.035   4.620 -0.3160 -0.2135 -0.0284
 3913ntf    on519809   2.710   0.119   4.309  0.5612 -0.1476  0.6523
 3913ntf    on519810   2.497   0.000   4.313  0.2890  0.1805 -0.0598
 3913ntf    on519811   2.349   0.287   4.249  0.7974 -0.5583 -0.1635
 3913ntf    on519812   2.407   0.454   4.413  0.3018 -0.2698 -0.0323
 3913ntf    fn419813   2.145   0.286   4.456 -0.0513 -0.2593  0.5326
 3913ntf    fn419814   2.289   0.132   4.527  0.2076  0.1429  0.1680
 3913ntf    fn419815   2.275   0.323   4.614  0.2234 -0.2277  0.1404
 3914ntf    cn119816   3.773   3.626   4.954 -0.4344 -0.2144  0.1292
 3914ntf    sn219817   3.627   3.735   4.959 -0.1805  0.1323  0.0393
 3914ntf    nn319818   3.566   3.688   5.096  0.1283 -0.1031  0.0985
 3914ntf    sn219819   3.416   3.691   5.143  0.0896  0.2161 -0.0424
 3914ntf    cn119820   3.368   3.517   5.115 -0.1079  0.2560  0.0451
 3914ntf    fn419821   3.741   3.499   4.940 -0.1633 -0.2791  0.0925
 3914ntf    fn419822   3.856   3.656   4.856 -0.1693  0.2746  0.4977
 3914ntf    fn419823   3.844   3.633   5.066  0.1186 -0.3364 -0.2146
 3914ntf    on519824   3.684   3.867   4.967  0.1193 -0.0025  0.1394
 3914ntf    on519825   3.557   3.699   4.839 -0.1001  0.2615 -0.0456
 3914ntf    on519826   3.327   3.766   5.057 -0.0836 -0.1005 -0.1407
 3914ntf    on519827   3.398   3.707   5.285  0.1217  0.5695 -0.0779
 3914ntf    fn419828   3.377   3.490   4.986  0.5778  0.0399  0.1324
 3914ntf    fn419829   3.455   3.427   5.159 -0.5124 -0.2298 -0.1454
 3914ntf    fn419830   3.247   3.487   5.159 -0.2037  0.2513 -0.2184
 3915ntf    cn119831   3.077   1.863   4.368 -0.4170  0.2997 -0.2211
 3915ntf    sn219832   3.099   1.806   4.539  0.1649  0.4058 -0.2598
 3915ntf    nn319833   3.249   1.850   4.555  0.2898 -0.0758 -0.0819
 3915ntf    sn219834   3.297   1.993   4.600 -0.2462  0.0697  0.0392
 3915ntf    cn119835   3.344   1.954   4.772 -0.1757  0.0769  0.0222
 3915ntf    fn419836   2.947   1.867   4.341 -0.4700  0.0719 -0.0042
 3915ntf    fn419837   3.124   1.986   4.358 -0.7314  0.4857  0.4995
 3915ntf    fn419838   3.140   1.780   4.286 -0.6608 -0.1559  0.0490
 3915ntf    on519839   2.997   1.865   4.622  0.0742 -0.3019  0.1362
 3915ntf    on519840   3.085   1.664   4.517 -0.0624  0.5387 -1.0127
 3915ntf    on519841   3.208   2.106   4.605 -0.0586  0.2076  0.2954
 3915ntf    on519842   3.424   2.017   4.535 -0.4611 -0.2645 -0.5119
 3915ntf    fn419843   3.250   1.879   4.827  0.4664 -0.6370  0.1519
 3915ntf    fn419844   3.455   1.883   4.786 -0.1585  0.1709  0.3568
 3915ntf    fn419845   3.359   2.058   4.852  0.4517  0.1181 -0.1464
 3916ntf    cn119846   2.526   5.263   3.662 -0.1324  0.1800  0.3718
 3916ntf    sn219847   2.683   5.346   3.626 -0.1915 -0.0054 -0.3273
 3916ntf    nn319848   2.742   5.255   3.513 -0.0255 -0.3296  0.0185
 3916ntf    sn219849   2.706   5.255   3.360 -0.0514  0.0503  0.0232
 3916ntf    cn119850   2.832   5.365   3.289  0.1223 -0.1265  0.0550
 3916ntf    fn419851   2.439   5.262   3.562  0.1885 -0.1957  0.0959
 3916ntf    fn419852   2.540   5.139   3.707  0.1668  0.0781 -0.0021
 3916ntf    fn419853   2.469   5.327   3.763 -0.4498  0.0106  0.3036
 3916ntf    on519854   2.643   5.473   3.569 -0.0902  0.2672  0.1982
 3916ntf    on519855   2.756   5.348   3.750  0.0662 -0.4999 -0.4708
 3916ntf    on519856   2.584   5.318   3.316 -0.2616 -0.5630 -0.2961
 3916ntf    on519857   2.731   5.125   3.302 -0.5753 -0.1892  0.3218
 3916ntf    fn419858   2.814   5.382   3.159  0.2589 -0.1817  0.0292
 3916ntf    fn419859   2.827   5.485   3.344 -0.6277 -0.2055  0.1813
 3916ntf    fn419860   2.955   5.326   3.315  0.2036  0.2803  0.2777
 3917ntf    cn119861   5.351   5.016   0.753 -0.4561 -0.3389 -0.0329
 3917ntf    sn219862   5.211   5.124   0.798 -0.2039  0.0036 -0.0635
 3917ntf    nn319863   5.260   5.255   0.727 -0.1814 -0.1223 -0.2814
 3917ntf    sn219864   5.230   5.404   0.767  0.0499 -0.1879  0.1432
 3917ntf    cn119865   5.379   5.444   0.862  0.0920 -0.0049  0.0009
 3917ntf    fn419866   5.459   5.076   0.800 -0.3408 -0.2811 -0.3686
 3917ntf    fn419867   5.344   4.898   0.811 -0.0013 -0.1248  0.4605
 3917ntf    fn419868   5.355   4.992   0.623 -0.4210  0.6100 -0.2128
 3917ntf    on519869   5.091   5.055   0.755 -0.4871 -0.2246  1.0663
 3917ntf    on519870   5.234   5.136   0.939  0.2597 -0.1221 -0.1250
 3917ntf    on519871   5.117   5.428   0.852 -0.0657 -0.4620  0.0703
 3917ntf    on519872   5.246   5.491   0.653 -0.0707  0.3806  0.5571
 3917ntf    fn419873   5.362   5.560   0.923  0.5005  0.1533 -0.1786
 3917ntf    fn419874   5.411   5.354   0.954 -0.1385  0.3042  0.3843
 3917ntf    fn419875   5.487   5.463   0.788  0.0961  0.1291  0.0424
 3918ntf    cn119876   1.816   4.150   1.881  0.4776  0.0894  0.2656
 3918ntf    sn219877   1.806   4.313   1.802  0.2414  0.0576  0.2295
 3918ntf    nn319878   1.689   4.379   1.885  0.2654  0.5933 -0.1565
 3918ntf    sn219879   1.692   4.510   1.971 -0.2918  0.2721  0.3599
 3918ntf    cn119880   1.523   4.515   2.037 -0.3519  0.0230  0.2258
 3918ntf    fn419881   1.852   4.163   2.007  0.4704  0.1585  0.2604
 3918ntf    fn419882   1.703   4.081   1.875  0.4275  0.1952 -0.0049
 3918ntf    fn419883   1.903   4.071   1.821  0.1124 -0.2244  0.1415
 3918ntf    on519884   1.934   4.373   1.831  0.3884 -0.0977 -0.0953
 3918ntf    on519885   1.772   4.282   1.665  0.5195  0.1757  0.1329
 3918ntf    on519886   1.713   4.631   1.896  1.0796 -0.1776 -0.0177
 3918ntf    on519887   1.770   4.496   2.091 -0.3981  0.4414  0.4485
 3918ntf    fn419888   1.435   4.524   1.938  0.1365 -0.0026 -0.2154
 3918ntf    fn419889   1.492   4.408   2.107 -0.1811 -0.1602  0.0249
 3918ntf    fn419890   1.505   4.618   2.117  0.1147  0.5252 -0.3044
 3919ntf    cn119891   1.595   6.015   4.692  0.2278  0.0225  0.0505
 3919ntf    sn219892   1.633   5.840   4.663  0.4358  0.0856 -0.0602
 3919ntf    nn319893   1.503   5.789   4.592 -0.0593  0.6467  0.4355
 3919ntf    sn219894   1.473   5.806   4.438  0.2764 -0.1437  0.2820
 3919ntf    cn119895   1.300   5.857   4.461  0.2733  0.3043 -0.6987
 3919ntf    fn419896   1.509   6.028   4.792  0.5738  0.4170  0.3008
 3919ntf    fn419897   1.702   6.087   4.722 -0.1397  0.7369 -0.3133
 3919ntf    fn419898   1.535   6.074   4.589  0.0064 -0.0024  0.1641
 3919ntf    on519899   1.761   5.835   4.597  0.4994 -0.5504  0.1049
 3919ntf    on519900   1.637   5.788   4.797 -0.2335  0.0109 -0.0662
 3919ntf    on519901   1.451   5.686   4.361 -0.5133 -0.0506  0.3492
 3919ntf    on519902   1.529   5.925   4.380  0.1930  0.0788  0.6545
 3919ntf    fn419903   1.284   5.929   4.571  0.0457 -0.6854 -0.0704
 3919ntf    fn419904   1.250   5.932   4.365 -0.1461  0.3468 -0.4498
 3919ntf    fn419905   1.220   5.752   4.474  0.2317  0.4547  0.3604
 3920ntf    cn119906   3.076   1.204   3.236  0.0071 -0.0826  0.2089
 3920ntf    sn219907   3.211   1.306   3.302 -0.1315  0.0837  0.2368
 3920ntf    nn319908   3.175   1.316   3.454 -0.0862  0.5124  0.2205
 3920ntf    sn219909   3.192   1.197   3.555 -0.2670  0.4689  0.1986
 3920ntf    cn119910   3.361   1.232   3.610  0.0420 -0.2267 -0.2868
 3920ntf    fn419911   3.072   1.076   3.271  0.3710 -0.2044 -0.1857
 3920ntf    fn419912   2.955   1.250   3.261 -0.1350 -0.1262 -0.3736
 3920ntf    fn419913   3.072   1.210   3.104  0.6251 -0.6003  0.1625
 3920ntf    on519914   3.332   1.238   3.262 -0.2077 -0.1600  0.4222
 3920ntf    on519915   3.189   1.433   3.238 -0.5424 -0.0244  0.1639
 3920ntf    on519916   3.209   1.064   3.501  0.8698  0.8436 -0.4056
 3920ntf    on519917   3.115   1.223   3.674 -0.1816  0.1223  0.3293
 3920ntf    fn419918   3.391   1.361   3.598  0.3126 -0.2530  0.0717
 3920ntf    fn419919   3.383   1.194   3.735  0.2216 -0.3211 -0.3474
 3920ntf    fn419920   3.446   1.169   3.531  0.6261  0.2182 -0.0215
 3921ntf    cn119921   5.762   5.170   6.924  0.2190  0.1499 -0.3798
 3921ntf    sn219922   5.881   5.070   7.020  0.0903 -0.2500 -0.6338
 3921ntf    nn319923   5.970   5.007   6.907  0.1630 -0.2086 -0.5988
 3921ntf    sn219924   6.067   4.884   6.917  0.0002 -0.3055 -0.2052
 3921ntf    cn119925   6.225   4.969   6.891  0.0665 -0.3156  0.1672
 3921ntf    fn419926   5.696   5.097   6.836  0.6738 -0.5874 -0.1261
 3921ntf    fn419927   5.673   5.227   7.003  0.1467 -0.6457  0.1300
 3921ntf    fn419928   5.818   5.266   6.852 -0.0259  0.0299 -0.7292
 3921ntf    on519929   5.939   5.178   7.095 -0.1026 -0.6912  0.1538
 3921ntf    on519930   5.793   4.978   7.089 -0.4450  0.3941 -0.4436
 3921ntf    on519931   6.047   4.792   6.807 -0.6143 -0.3413 -0.0670
 3921ntf    on519932   6.075   4.831   7.051  0.1005 -0.3171 -0.2160
 3921ntf    fn419933   6.261   5.056   6.985 -0.4299  0.5677 -0.4469
 3921ntf    fn419934   6.327   4.886   6.878  0.1670 -0.1650 -0.0088
 3921ntf    fn419935   6.215   5.024   6.771 -0.1049  0.3615  0.4879
 3922ntf    cn119936   3.463   6.818   0.648  0.0429 -0.5077 -0.1537
 3922ntf    sn219937   3.493   6.665   0.740  0.1067 -0.2400  0.2723
 3922ntf    nn319938   3.582   6.723   0.856  0.0424  0.4650 -0.0284
 3922ntf    sn219939   3.711   6.669   0.927  0.0271  0.3408 -0.0944
 3922ntf    cn119940   3.657   6.670   1.100  0.2778 -0.3837 -0.0076
 3922ntf    fn419941   3.398   6.907   0.721 -0.1229 -0.2226 -0.6404
 3922ntf    fn419942   3.581   6.872   0.624 -0.3015 -0.0040 -0.7590
 3922ntf    fn419943   3.398   6.803   0.533  0.1983  0.1046 -0.3283
 3922ntf    on519944   3.366   6.609   0.781  0.0983 -0.5105 -0.1179
 3922ntf    on519945   3.562   6.580   0.647  0.0977  0.5557 -0.4670
 3922ntf    on519946   3.818   6.766   0.930  0.7847 -0.4828 -0.2114
 3922ntf    on519947   3.750   6.532   0.902  0.2323  0.4069 -0.1446
 3922ntf    fn419948   3.613   6.788   1.142  0.2726 -0.3602 -0.0786
 3922ntf    fn419949   3.551   6.594   1.124 -0.1519  0.1797 -0.1050
 3922ntf    fn419950   3.753   6.633   1.183  0.4204 -0.0861 -0.0379
 3923ntf    cn119951   5.766   3.386   4.212  0.1823 -0.0432  0.1485
 3923ntf    sn219952   5.832   3.243   4.303  0.1139 -0.2051 -0.0552
 3923ntf    nn319953   5.702   3.178   4.361 -0.0680  0.0125 -0.2168
 3923ntf    sn219954   5.656   3.181   4.511  0.2386 -0.2102 -0.1176
 3923ntf    cn119955   5.753   3.038   4.567  0.3788 -0.0324  0.0955
 3923ntf    fn419956   5.740   3.488   4.292 -0.1021  0.4013 -0.5058
 3923ntf    fn419957   5.866   3.434   4.141 -0.1509 -0.0588 -0.3364
 3923ntf    fn419958   5.667   3.365   4.127  0.3918 -0.1356 -0.0755
 3923ntf    on519959   5.898   3.161   4.204 -0.0356 -0.6017  0.1725
 3923ntf    on519960   5.927   3.300   4.395  0.2283 -0.0713 -0.2558
 3923ntf    on519961   5.515   3.155   4.523  0.1630  0.3759  0.3457
 3923ntf    on519962   5.716   3.288   4.587 -0.0591 -0.3053  0.2610
 3923ntf    fn419963   5.734   2.934   4.489  0.0803  0.2490 -0.2127
 3923ntf    fn419964   5.883   3.062   4.565  0.4413 -0.3582  0.1833
 3923ntf    fn419965   5.727   2.995   4.690  0.0226 -0.3255 -0.0832
 3924ntf    cn119966   6.615   5.148   3.062  0.0166  0.0142 -0.3610
 3924ntf    sn219967   6.525   5.189   2.910 -0.2728 -0.4612 -0.3213
 3924ntf    nn319968   6.557   5.055   2.835 -0.3322 -0.2649 -0.7017
 3924ntf    sn219969   6.490   4.914   2.825 -0.1760 -0.4097  0.1659
 3924ntf    cn119970   6.636   4.805   2.823  0.0719 -0.0776 -0.0236
 3924ntf    fn419971   6.569   5.033   3.107  0.8754 -0.2352 -0.1122
 3924ntf    fn419972   6.746   5.154   3.048  0.0641  0.6572  0.2611
 3924ntf    fn419973   6.603   5.235   3.161  0.0513  0.0008 -0.3449
 3924ntf    on519974   6.394   5.205   2.968  0.0749  0.2266  0.2910
 3924ntf    on519975   6.597   5.299   2.848 -0.6824  0.0371  0.0813
 3924ntf    on519976   6.439   4.892   2.691 -0.2886  0.0389  0.1360
 3924ntf    on519977   6.416   4.864   2.938 -0.1552 -0.4452  0.1634
 3924ntf    fn419978   6.701   4.799   2.938  0.0918  0.3306 -0.0122
 3924ntf    fn419979   6.612   4.679   2.792 -0.3020 -0.1277  0.4381
 3924ntf    fn419980   6.717   4.858   2.734  0.2549 -0.2073  0.0639
 3925ntf    cn119981   2.369   3.230   1.274  0.1562 -0.1428 -0.2928
 3925ntf    sn219982   2.246   3.270   1.146 -0.1539  0.2119  0.1114
 3925ntf    nn319983   2.289   3.169   1.034  0.1473  0.0920  0.3338
 3925ntf    sn219984   2.215   3.040   0.984  0.0022  0.1738  0.3368
 3925ntf    cn119985   2.293   3.023   0.820  0.0777  0.0241  0.3885
 3925ntf    fn419986   2.492   3.270   1.245  0.1087  0.1131 -0.1471
 3925ntf    fn419987   2.334   3.287   1.389  0.0632 -0.0850 -0.3488
 3925ntf    fn419988   2.366   3.099   1.294  0.2223 -0.1153 -0.0993
 3925ntf    on519989   2.117   3.244   1.204 -0.1539 -0.5770 -0.2232
 3925ntf    on519990   2.280   3.405   1.109  0.2272 -0.0588 -0.5431
 3925ntf    on519991   2.077   3.054   0.947  0.0804  0.4577  0.1449
 3925ntf    on519992   2.261   2.922   1.054 -0.6371 -0.1437  0.2231
 3925ntf    fn419993   2.425   3.018   0.822  0.1059  0.4015 -0.3453
 3925ntf    fn419994   2.242   2.916   0.760  0.0270  0.1697  0.1732
 3925ntf    fn419995   2.266   3.134   0.755  0.7504  0.1211  0.2692
 3926ntf    cn119996   0.631   3.646   0.179 -0.1024  0.0758  0.0051
 3926ntf    sn219997   0.526   3.759   0.082 -0.2319  0.0126  0.0721
 3926ntf    nn319998   0.434   3.651   0.014 -0.0193  0.0605 -0.2961
 3926ntf    sn219999   0.278   3.636   0.027 -0.0015 -0.0439 -0.1961
 3926ntf    cn120000   0.252   3.475  -0.054 -0.0692 -0.2044  0.1432
 3926ntf    fn420001   0.707   3.559   0.115 -0.1342  0.0847 -0.0455
 3926ntf    fn420002   0.718   3.704   0.259  0.0117  0.8084 -0.6286
 3926ntf    fn420003   0.562   3.574   0.265  0.0921 -0.1197 -0.0020
 3926ntf    on520004   0.465   3.849   0.177  0.2651 -0.0166  0.4241
 3926ntf    on520005   0.620   3.810  -0.014 -0.0664  0.1279  0.2949
 3926ntf    on520006   0.206   3.724  -0.061  0.2300 -0.0901 -0.4344
 3926ntf    on520007   0.214   3.611   0.154  0.3770 -0.0047  0.0030
 3926ntf    fn420008   0.313   3.369  -0.004 -0.1057 -0.0720  0.4739
 3926ntf    fn420009   0.125   3.440  -0.050 -0.1683  0.1732  0.3966
 3926ntf    fn420010   0.276   3.480  -0.184  0.4887  0.4338  0.2641
 3927ntf    cn120011   0.054   6.845   5.069 -0.3706 -0.0326  0.3552
 3927ntf    sn220012  -0.041   6.727   4.969  0.0696  0.2032 -0.3459
 3927ntf    nn320013   0.079   6.677   4.880  0.5330 -0.3206  0.5640
 3927ntf    sn220014   0.098   6.709   4.728  0.1715  0.1508  0.6148
 3927ntf    cn120015  -0.051   6.643   4.649  0.1076  0.5075  0.4403
 3927ntf    fn420016   0.165   6.790   5.118  0.1558  0.2199 -0.5259
 3927ntf    fn420017   0.095   6.944   4.991 -0.0427 -0.2902  0.1968
 3927ntf    fn420018  -0.010   6.904   5.169 -0.2708  0.1392  0.3185
 3927ntf    on520019  -0.083   6.633   5.069  0.0600  0.3896 -0.1736
 3927ntf    on520020  -0.146   6.807   4.912  0.3499  0.5887 -0.3263
 3927ntf    on520021   0.207   6.637   4.666 -0.4920  0.1069 -0.5230
 3927ntf    on520022   0.096   6.851   4.700 -0.3252  0.1079  0.4231
 3927ntf    fn420023  -0.126   6.591   4.744 -0.0853  0.5977  0.3390
 3927ntf    fn420024  -0.122   6.735   4.584 -0.3045 -0.1992 -0.1181
 3927ntf    fn420025  -0.019   6.555   4.556 -0.4476  0.3491  0.3916
 3928ntf    cn120026   0.751   2.017   4.606  0.3889  0.0975  0.0032
 3928ntf    sn220027   0.747   1.851   4.680  0.3728  0.1257  0.0668
 3928ntf    nn320028   0.851   1.869   4.796  0.0649 -0.0440  0.3734
 3928ntf    sn220029   0.828   1.842   4.949  0.0673  0.0554  0.3917
 3928ntf    cn120030   0.780   2.010   4.998 -0.1452  0.1087  0.0045
 3928ntf    fn420031   0.678   2.025   4.496  0.1129  0.2287  0.1936
 3928ntf    fn420032   0.708   2.111   4.689 -0.4218 -0.0165 -0.2772
 3928ntf    fn420033   0.874   2.050   4.569  0.3238 -0.0500 -0.3438
 3928ntf    on520034   0.608   1.834   4.715  0.5256 -0.3898  0.4428
 3928ntf    on520035   0.804   1.780   4.568 -0.2140  0.0549 -0.1890
 3928ntf    on520036   0.951   1.831   5.023  0.1076  0.1629  0.3412
 3928ntf    on520037   0.725   1.748   4.985  0.2025 -0.5230 -0.6633
 3928ntf    fn420038   0.740   2.014   5.124  0.1648 -0.1388  0.1122
 3928ntf    fn420039   0.874   2.101   4.979 -0.6049  0.5297 -0.2853
 3928ntf    fn420040   0.676   2.048   4.926 -0.1810 -0.5616 -0.3050
 3929ntf    cn120041   4.711   0.054   5.618 -0.1997  0.1368  0.2007
 3929ntf    sn220042   4.815   0.154   5.507 -0.0421  0.1828  0.3898
 3929ntf    nn320043   4.955   0.083   5.518 -0.4046 -0.4766  0.8174
 3929ntf    sn220044   4.999  -0.052   5.451  0.0633  0.0357  0.0793
 3929ntf    cn120045   5.032  -0.153   5.598  0.4987 -0.0045 -0.0458
 3929ntf    fn420046   4.738  -0.076   5.616  0.1662  0.2146 -0.4420
 3929ntf    fn420047   4.721   0.097   5.742  0.0292  0.2974  0.1289
 3929ntf    fn420048   4.584   0.068   5.585 -0.1439  0.4561  0.1242
 3929ntf    on520049   4.735   0.140   5.388 -0.0391  0.1277  0.3946
 3929ntf    on520050   4.811   0.286   5.565 -0.0661  0.2217  0.2992
 3929ntf    on520051   5.131  -0.039   5.396 -0.0028  0.9299  0.1193
 3929ntf    on520052   4.901  -0.132   5.381  0.0010 -0.1837  0.4149
 3929ntf    fn420053   5.073  -0.272   5.559  0.0671 -0.0229 -0.4424
 3929ntf    fn420054   5.124  -0.099   5.677  0.3280 -0.0136  0.1598
 3929ntf    fn420055   4.923  -0.173   5.670  0.4941 -0.2866 -0.1310
 3930ntf    cn120056   5.544   5.653   4.453 -0.4200  0.1714 -0.1294
 3930ntf    sn220057   5.506   5.730   4.293 -0.1221 -0.0409 -0.3035
 3930ntf    nn320058   5.533   5.613   4.191  0.2168 -0.0607 -0.1921
 3930ntf    sn220059   5.659   5.599   4.098  0.1457 -0.1307 -0.2778
 3930ntf    cn120060   5.608   5.720   3.972  0.2360  0.4543  0.2442
 3930ntf    fn420061   5.670   5.613   4.464 -0.6122 -0.3077  0.4018
 3930ntf    fn420062   5.528   5.734   4.557 -0.1100 -0.5823  0.5124
 3930ntf    fn420063   5.473   5.543   4.467 -0.2094  0.1044  0.4284
 3930ntf    on520064   5.367   5.769   4.294 -0.0719  0.1307  0.3086
 3930ntf    on520065   5.597   5.841   4.287 -0.3538  0.2098  0.6651
 3930ntf    on520066   5.645   5.472   4.032 -0.1604 -0.1568 -0.1703
 3930ntf    on520067   5.784   5.640   4.156 -0.1945  0.4105  0.0899
 3930ntf    fn420068   5.476   5.720   3.961  0.2129 -0.0344  0.5166
 3930ntf    fn420069   5.642   5.844   4.007  0.0415  0.6134 -0.1335
 3930ntf    fn420070   5.669   5.704   3.856  0.0188  0.6680  0.1007
 3931ntf    cn120071   5.553   2.073   1.249 -0.3022 -0.2053  0.0757
 3931ntf    sn220072   5.410   2.168   1.311 -0.1213  0.1701 -0.0840
 3931ntf    nn320073   5.306   2.139   1.197  0.2772  0.3005 -0.4840
 3931ntf    sn220074   5.157   2.097   1.218  0.3433  0.1742 -0.2695
 3931ntf    cn120075   5.165   1.916   1.231 -0.2752  0.1393 -0.3207
 3931ntf    fn420076   5.528   1.943   1.256 -0.0761 -0.2539 -0.0119
 3931ntf    fn420077   5.563   2.096   1.120 -0.1080 -0.0757  0.1139
 3931ntf    fn420078   5.668   2.085   1.313 -0.7068 -0.3657  0.8558
 3931ntf    on520079   5.395   2.104   1.439  0.2624 -0.3621 -0.2981
 3931ntf    on520080   5.451   2.306   1.304 -0.5149  0.3090  0.3594
 3931ntf    on520081   5.096   2.116   1.088 -0.0555  1.3069  0.0737
 3931ntf    on520082   5.096   2.148   1.338  0.3091 -0.6837  0.0901
 3931ntf    fn420083   5.050   1.854   1.209  0.1837 -0.6639 -0.5242
 3931ntf    fn420084   5.248   1.871   1.138 -0.2634 -0.6143  0.0479
 3931ntf    fn420085   5.210   1.875   1.349  0.4988  0.2583 -0.5691
 3932ntf    cn120086   5.020   4.254   5.692 -0.2128 -0.0297  0.1736
 3932ntf    sn220087   5.105   4.097   5.723 -0.2461 -0.1271 -0.2201
 3932ntf    nn320088   5.070   4.071   5.874 -0.0054 -0.4317 -0.2136
 3932ntf    sn220089   4.956   3.990   5.946 -0.0958 -0.2382 -0.1381
 3932ntf    cn120090   4.845   4.120   6.006 -0.3884 -0.4491 -0.2222
 3932ntf    fn420091   5.073   4.349   5.768  0.4074 -0.3234  0.1119
 3932ntf    fn420092   5.045   4.291   5.567 -0.0347 -0.4563  0.0831
 3932ntf    fn420093   4.889   4.247   5.708 -0.1410 -0.4201  0.6032
 3932ntf    on520094   5.046   4.004   5.630 -0.1371 -0.2038 -0.2134
 3932ntf    on520095   5.245   4.132   5.712 -0.3259  0.3770  0.3361
 3932ntf    on520096   5.006   3.935   6.070 -0.6240 -0.0514  0.1584
 3932ntf    on520097   4.861   3.919   5.863  0.4094 -0.7089 -0.3219
 3932ntf    fn420098   4.738   4.080   6.073 -0.4442 -0.2304 -0.1780
 3932ntf    fn420099   4.905   4.200   6.092 -0.6701 -0.2117 -0.2442
 3932ntf    fn420100   4.795   4.192   5.906 -0.5277  0.3204  0.3890
 3933ntf    cn120101   1.001   2.803   3.668 -0.4124 -0.3209  0.0214
 3933ntf    sn220102   0.954   2.807   3.492 -0.1936  0.2958 -0.0221
 3933ntf    nn320103   0.817   2.877   3.524 -0.1774  0.2812  0.0788
 3933ntf    sn220104   0.674   2.814   3.540 -0.1668  0.2017 -0.1343
 3933ntf    cn120105   0.582   2.934   3.439  0.0744  0.3077 -0.2286
 3933ntf    fn420106   0.993   2.920   3.729  0.2107 -0.3425  0.1530
 3933ntf    fn420107   0.915   2.729   3.736 -0.6074 -0.4100 -0.3193
 3933ntf    fn420108   1.119   2.750   3.697 -0.0141  0.3387 -0.3706
 3933ntf    on520109   1.054   2.893   3.432 -0.2896  0.4257  0.0024
 3933ntf    on520110   0.951   2.667   3.460 -0.0641  0.2084  0.3473
 3933ntf    on520111   0.621   2.827   3.674 -0.0127 -0.1894 -0.0328
 3933ntf    on520112   0.647   2.693   3.467  0.3466  0.1775 -0.2899
 3933ntf    fn420113   0.459   2.895   3.409  0.1211 -0.1198  0.1273
 3933ntf    fn420114   0.573   3.048   3.505 -0.1742 -0.0550  0.3726
 3933ntf    fn420115   0.652   2.957   3.328  0.5097 -0.4569 -0.1231
 3934ntf    cn120116   2.708   3.496   1.218  0.2343  0.0285  0.3861
 3934ntf    sn220117   2.861   3.593   1.239  0.2811 -0.0024  0.1947
 3934ntf    nn320118   2.799   3.704   1.331 -0.1482  0.0514 -0.1536
 3934ntf    sn220119   2.778   3.856   1.297 -0.1178  0.0596 -0.1363
 3934ntf    cn120120   2.932   3.921   1.369 -0.2521  0.0953  0.1199
 3934ntf    fn420121   2.675   3.445   1.335 -0.0153 -0.2784  0.1840
 3934ntf    fn420122   2.605   3.555   1.158  0.4895  0.0041 -0.0835
 3934ntf    fn420123   2.728   3.388   1.145  0.0981  0.1984  0.0943
 3934ntf    on520124   2.943   3.499   1.311 -0.3421 -0.5903  0.1531
 3934ntf    on520125   2.894   3.625   1.102 -0.1336  0.0478  0.1048
 3934ntf    on520126   2.678   3.915   1.382  0.2242 -0.1434  0.4090
 3934ntf    on520127   2.773   3.891   1.157 -0.3081 -0.0274 -0.1509
 3934ntf    fn420128   3.036   3.849   1.331 -0.6220 -0.4156  0.0672
 3934ntf    fn420129   2.962   4.047   1.339 -0.0338  0.0323  0.0728
 3934ntf    fn420130   2.929   3.911   1.501  0.6569 -0.2268  0.1251
 3935ntf    cn120131   6.832   3.417   0.003  0.1800 -0.2730 -0.0832
 3935ntf    sn220132   6.708   3.358   0.122  0.0105 -0.0970 -0.1716
 3935ntf    nn320133   6.684   3.212   0.070  0.7332 -0.0607 -0.6203
 3935ntf    sn220134   6.574   3.171  -0.034  0.0490 -0.2654  0.1734
 3935ntf    cn120135   6.437   3.170   0.085 -0.1881 -0.3258 -0.1001
 3935ntf    fn420136   6.941   3.343   0.014  0.1524 -0.2322  0.4547
 3935ntf    fn420137   6.789   3.405  -0.122  0.6426  0.2568 -0.3020
 3935ntf    fn420138   6.872   3.544   0.004 -0.0489 -0.2022 -0.0372
 3935ntf    on520139   6.782   3.355   0.245  0.2331  0.2291 -0.2923
 3935ntf    on520140   6.605   3.460   0.116  0.4814  0.4118  0.2494
 3935ntf    on520141   6.586   3.033  -0.075  0.1303 -0.0784 -0.4374
 3935ntf    on520142   6.535   3.262  -0.139  0.2993 -0.2149  0.1234
 3935ntf    fn420143   6.321   3.162   0.022 -0.3013 -0.0369  0.0685
 3935ntf    fn420144   6.436   3.071   0.172 -0.2243 -0.2569 -0.0214
 3935ntf    fn420145   6.426   3.288   0.145 -0.0935 -0.3743  0.0115
 3936ntf    cn120146   0.577   2.755   4.795  0.4132 -0.1537  0.2580
 3936ntf    sn220147   0.560   2.695   4.966 -0.4380  0.0659  0.2537
 3936ntf    nn320148   0.507   2.551   4.934 -0.0911  0.0785 -0.4042
 3936ntf    sn220149   0.556   2.410   4.982  0.3504  0.3103 -0.1668
 3936ntf    cn120150   0.623   2.331   4.833  0.0718 -0.4596  0.1085
 3936ntf    fn420151   0.676   2.709   4.719  0.2232 -0.1907  0.0297
 3936ntf    fn420152   0.470   2.734   4.721  0.5449 -0.0248  0.0293
 3936ntf    fn420153   0.597   2.885   4.799 -0.1806 -0.0669  0.3859
 3936ntf    on520154   0.693   2.709   5.021 -0.1534 -0.2592 -0.3373
 3936ntf    on520155   0.457   2.777   5.024  0.1266  0.8411  0.1835
 3936ntf    on520156   0.453   2.324   5.035  0.4845  0.3449  0.1545
 3936ntf    on520157   0.672   2.413   5.068  0.4077 -0.3010 -0.2178
 3936ntf    fn420158   0.664   2.431   4.756 -0.3506 -0.0705  0.3805
 3936ntf    fn420159   0.727   2.254   4.859  0.1706 -0.2090  0.4663
 3936ntf    fn420160   0.536   2.258   4.765  0.0755 -0.2002 -0.1809
 3937ntf    cn120161   4.356   4.248   1.350  0.0459  0.0112  0.4239
 3937ntf    sn220162   4.508   4.202   1.439  0.1300 -0.2935  0.1253
 3937ntf    nn320163   4.465   4.228   1.588 -0.0347  0.2791 -0.0207
 3937ntf    sn220164   4.485   4.362   1.667  0.1122  0.2042  0.0693
 3937ntf    cn120165   4.645   4.327   1.747  0.0774 -0.0585  0.0235
 3937ntf    fn420166   4.259   4.166   1.386 -0.2783  0.1868 -0.0518
 3937ntf    fn420167   4.320   4.374   1.369  0.1030  0.0919  0.0012
 3937ntf    fn420168   4.367   4.231   1.219  0.0264  0.3037  0.3830
 3937ntf    on520169   4.520   4.060   1.417  0.2748 -0.2281 -0.2209
 3937ntf    on520170   4.614   4.288   1.395  0.1274 -0.4009 -0.0906
 3937ntf    on520171   4.392   4.374   1.776  0.3735 -0.2144  0.3386
 3937ntf    on520172   4.518   4.480   1.589 -0.5607  0.1238 -0.3436
 3937ntf    fn420173   4.661   4.412   1.847 -0.0334  0.3805 -0.3284
 3937ntf    fn420174   4.654   4.211   1.809 -0.4785 -0.0967  0.0435
 3937ntf    fn420175   4.754   4.329   1.673  0.2486 -0.1535  0.2748
 3938ntf    cn120176   4.160   1.765   5.549  0.1567  0.1775 -0.1566
 3938ntf    sn220177   4.302   1.816   5.650 -0.1875  0.0440  0.3990
 3938ntf    nn320178   4.252   1.952   5.708  0.9056  0.4878  0.3197
 3938ntf    sn220179   4.219   1.991   5.857  0.0574  0.0415  0.2569
 3938ntf    cn120180   4.204   2.170   5.830  0.0015  0.0815  0.5540
 3938ntf    fn420181   4.186   1.650   5.489 -0.0396 -0.1797  0.4267
 3938ntf    fn420182   4.050   1.743   5.620  0.3601 -0.2753  0.0246
 3938ntf    fn420183   4.122   1.855   5.460  0.2016 -0.1838 -0.5422
 3938ntf    on520184   4.323   1.709   5.745 -0.0242  0.1717  0.5061
 3938ntf    on520185   4.403   1.837   5.550 -0.2886  0.4220  0.3755
 3938ntf    on520186   4.329   1.978   5.950  0.4688  0.6727 -0.1350
 3938ntf    on520187   4.089   1.942   5.895 -0.0695  0.1886  0.0114
 3938ntf    fn420188   4.104   2.197   5.747  0.3192  0.5099  0.3088
 3938ntf    fn420189   4.188   2.238   5.943 -0.2489  0.5429  0.2483
 3938ntf    fn420190   4.312   2.226   5.779 -0.3219 -0.3777 -0.6674
 3939ntf    cn120191   5.948   2.701   3.603 -0.2831 -0.0621 -0.0667
 3939ntf    sn220192   6.031   2.730   3.762 -0.1311  0.4392 -0.2349
 3939ntf    nn320193   6.119   2.857   3.738  0.0070  0.4345  0.2290
 3939ntf    sn220194   6.270   2.866   3.696 -0.1371 -0.2470 -0.4561
 3939ntf    cn120195   6.262   2.973   3.549  0.3051  0.1915 -0.1611
 3939ntf    fn420196   5.911   2.814   3.546  0.0789 -0.0869 -0.3564
 3939ntf    fn420197   6.033   2.649   3.515  0.1136 -0.1829  0.3836
 3939ntf    fn420198   5.848   2.614   3.616  0.1338 -0.5188  0.1191
 3939ntf    on520199   5.919   2.758   3.848  0.1122  0.0206  0.2228
 3939ntf    on520200   6.105   2.609   3.791 -0.3877  0.3460  0.0389
 3939ntf    on520201   6.330   2.746   3.643 -0.0055 -0.4198  0.0810
 3939ntf    on520202   6.338   2.945   3.795 -0.2000 -0.0999 -0.5299
 3939ntf    fn420203   6.372   2.984   3.476  0.0683 -0.0698 -0.5587
 3939ntf    fn420204   6.164   2.942   3.466  0.1946  0.2393 -0.0497
 3939ntf    fn420205   6.248   3.099   3.588 -0.1056  0.0848  0.0354
 3940ntf    cn120206   2.865   7.036   5.196  0.2578 -0.1335  0.1513
 3940ntf    sn220207   2.791   7.052   5.361  0.2271  0.0421  0.1205
 3940ntf    nn320208   2.855   7.192   5.392 -0.2934  0.4173 -0.4490
 3940ntf    sn220209   2.807   7.308   5.486 -0.2231  0.1204 -0.0408
 3940ntf    cn120210   2.775   7.437   5.362 -0.3359  0.0752 -0.0587
 3940ntf    fn420211   2.861   6.913   5.149  0.0916  0.0050 -0.2004
 3940ntf    fn420212   2.822   7.121   5.104  0.0853  0.1126  0.4576
 3940ntf    fn420213   2.996   7.054   5.203  0.2313 -0.0325  0.4190
 3940ntf    on520214   2.649   7.060   5.333  0.1973  0.5207  0.3878
 3940ntf    on520215   2.843   6.943   5.439 -0.0636 -0.3707 -0.2606
 3940ntf    on520216   2.911   7.363   5.570 -0.1075 -0.3664  0.1399
 3940ntf    on520217   2.686   7.283   5.559 -0.3312  0.3787 -0.1300
 3940ntf    fn420218   2.713   7.391   5.254 -0.3783 -0.2490  0.1046
 3940ntf    fn420219   2.710   7.545   5.402 -0.3127 -0.2487  0.8713
 3940ntf    fn420220   2.887   7.486   5.311 -0.1519 -0.5050 -0.2172
 3941ntf    cn120221   4.678   4.102   6.547  0.0141  0.2535 -0.0009
 3941ntf    sn220222   4.531   3.998   6.569  0.1690 -0.0428 -0.3551
 3941ntf    nn320223   4.597   3.871   6.633  0.0170  0.2455  0.3775
 3941ntf    sn220224   4.536   3.776   6.742 -0.0082 -0.1569  0.0141
 3941ntf    cn120225   4.599   3.857   6.892 -0.5544  0.2368  0.0371
 3941ntf    fn420226   4.757   4.089   6.652 -0.5789 -0.0114  0.4183
 3941ntf    fn420227   4.754   4.065   6.445 -0.1026 -0.0647  0.0249
 3941ntf    fn420228   4.662   4.233   6.537 -0.5130  0.1520 -0.5782
 3941ntf    on520229   4.459   4.076   6.666  0.5721  0.3017 -0.3309
 3941ntf    on520230   4.470   3.974   6.440 -0.4953  0.6172 -0.1673
 3941ntf    on520231   4.604   3.649   6.742  0.0857 -0.1072  0.2765
 3941ntf    on520232   4.393   3.774   6.759  0.0388  0.6965  0.5817
 3941ntf    fn420233   4.731   3.862   6.903 -0.5497  0.2799 -0.0422
 3941ntf    fn420234   4.559   3.982   6.909 -0.4046  0.2647  0.1884
 3941ntf    fn420235   4.559   3.793   7.001 -0.0196 -0.0627  0.0654
 3942ntf    cn120236   0.902   7.065   0.210 -0.0426 -0.4394 -0.1153
 3942ntf    sn220237   0.798   7.012   0.349  0.1061 -0.0242  0.1555
 3942ntf    nn320238   0.666   6.982   0.270  0.1418  0.0067  0.0846
 3942ntf    sn220239   0.542   7.078   0.263  0.0845 -0.0477  0.3603
 3942ntf    cn120240   0.467   7.055   0.427 -0.2642  0.0956  0.2213
 3942ntf    fn420241   1.026   7.094   0.244 -0.3854  0.2403  0.5974
 3942ntf    fn420242   0.909   6.965   0.124  0.0472 -0.1030 -0.5012
 3942ntf    fn420243   0.854   7.167   0.140 -0.0111 -0.1006  0.3567
 3942ntf    on520244   0.862   6.890   0.392 -0.1882 -0.2899 -0.1544
 3942ntf    on520245   0.794   7.122   0.442 -0.6339  0.1497 -0.0728
 3942ntf    on520246   0.438   7.027   0.178 -0.1008  0.3713  0.3343
 3942ntf    on520247   0.581   7.217   0.259 -0.5650  0.1261 -0.0651
 3942ntf    fn420248   0.543   7.103   0.524  0.5891  0.2553 -0.5114
 3942ntf    fn420249   0.351   7.117   0.445 -0.3325  0.1749 -0.4724
 3942ntf    fn420250   0.442   6.927   0.446 -0.4156  0.0932  0.0163
 3943ntf    cn120251   0.565   2.126   1.067 -0.2225  0.0241  0.2087
 3943ntf    sn220252   0.460   2.146   0.919 -0.0640  0.0351  0.0970
 3943ntf    nn320253   0.321   2.130   0.989 -0.1841 -0.0456 -0.1592
 3943ntf    sn220254   0.221   2.242   1.036  0.1305  0.0674  0.2450
 3943ntf    cn120255   0.093   2.218   0.910  0.1473  0.2427  0.1941
 3943ntf    fn420256   0.693   2.149   1.041 -0.1472 -0.3890  0.2073
 3943ntf    fn420257   0.546   2.208   1.168  0.2626  0.1989  0.1629
 3943ntf    fn420258   0.570   2.006   1.122  0.3497  0.1678  0.4753
 3943ntf    on520259   0.500   2.274   0.866  0.1093 -0.2460 -0.4644
 3943ntf    on520260   0.506   2.033   0.842 -0.2325  0.2085 -0.2576
 3943ntf    on520261   0.260   2.381   1.032 -0.3855  0.2047 -0.0867
 3943ntf    on520262   0.151   2.200   1.155  0.1853 -0.4972  0.0814
 3943ntf    fn420263  -0.021   2.280   0.936 -0.0505  0.3768 -0.9201
 3943ntf    fn420264   0.139   2.260   0.793  0.3095 -0.4887 -0.0081
 3943ntf    fn420265   0.056   2.094   0.884 -0.5964  0.4749  0.1277
 3944ntf    cn120266   5.784   3.193   4.950  0.0101  0.0421  0.2415
 3944ntf    sn220267   5.943   3.169   5.035  0.0271  0.2533  0.2715
 3944ntf    nn320268   5.899   3.199   5.182 -0.9351 -0.3554  0.1209
 3944ntf    sn220269   5.888   3.340   5.252  0.0548 -0.3770  0.3357
 3944ntf    cn120270   5.710   3.323   5.285 -0.0478  0.0612  0.0052
 3944ntf    fn420271   5.686   3.114   4.990 -0.6825  0.7489 -0.0257
 3944ntf    fn420272   5.748   3.319   4.973  0.1610  0.0503  0.4375
 3944ntf    fn420273   5.802   3.164   4.822 -0.4688 -0.2513  0.2384
 3944ntf    on520274   5.978   3.031   5.010 -0.1186  0.1617  0.5660
 3944ntf    on520275   6.032   3.263   4.972  0.2436  0.1756  0.4603
 3944ntf    on520276   5.903   3.453   5.164 -0.1956 -0.6962 -0.1271
 3944ntf    on520277   5.942   3.343   5.385  0.0324 -0.2933  0.3426
 3944ntf    fn420278   5.641   3.322   5.172 -0.0967 -0.1800  0.0370
 3944ntf    fn420279   5.680   3.214   5.353 -0.0355 -0.2006 -0.4096
 3944ntf    fn420280   5.655   3.420   5.357 -0.1017  0.0180  0.0229
 3945ntf    cn120281   4.171   3.111   4.056 -0.1355  0.2182  0.2980
 3945ntf    sn220282   4.002   3.140   3.997  0.0809  0.2395 -0.3154
 3945ntf    nn320283   3.976   3.284   4.054 -0.1041  0.0101  0.1839
 3945ntf    sn220284   3.887   3.395   3.987  0.0057  0.1742  0.3116
 3945ntf    cn120285   4.021   3.486   3.904  0.0709 -0.0918  0.1231
 3945ntf    fn420286   4.225   3.007   3.992  0.7312  0.8746 -0.0628
 3945ntf    fn420287   4.256   3.208   4.026 -0.2959  0.4205  0.4969
 3945ntf    fn420288   4.183   3.088   4.186  0.3496 -0.0936  0.2047
 3945ntf    on520289   4.019   3.130   3.854  0.1886 -0.5715 -0.2523
 3945ntf    on520290   3.924   3.036   4.060  0.4368  0.0163 -0.2378
 3945ntf    on520291   3.833   3.481   4.089 -0.1080  0.2313  0.2038
 3945ntf    on520292   3.798   3.348   3.884  0.5208  0.2240 -0.1622
 3945ntf    fn420293   4.061   3.433   3.790  0.6666  0.0683  0.2512
 3945ntf    fn420294   3.980   3.607   3.869  0.2085 -0.1634 -0.2848
 3945ntf    fn420295   4.135   3.488   3.971 -0.0486  0.0348  0.3252
 3946ntf    cn120296   7.044   1.880   1.171 -0.0882 -0.0822 -0.1534
 3946ntf    sn220297   6.931   1.755   1.240 -0.1027 -0.1362 -0.2745
 3946ntf    nn320298   6.828   1.737   1.123  0.3055 -0.1188 -0.6393
 3946ntf    sn220299   6.697   1.817   1.089  0.3500  0.1262 -0.2407
 3946ntf    cn120300   6.566   1.713   1.159  0.1071  0.3723 -0.3260
 3946ntf    fn420301   6.995   2.003   1.169 -1.0686 -0.4674 -0.4370
 3946ntf    fn420302   7.160   1.892   1.234 -0.2219  0.2877  0.0249
 3946ntf    fn420303   7.073   1.858   1.044  0.4195  0.1505 -0.0791
 3946ntf    on520304   7.013   1.638   1.257  0.2822  0.2574  0.6858
 3946ntf    on520305   6.873   1.812   1.359 -0.3623 -1.0620  0.0487
 3946ntf    on520306   6.662   1.812   0.949 -0.2330 -0.1592 -0.0862
 3946ntf    on520307   6.690   1.945   1.155  0.5720 -0.0292  0.0830
 3946ntf    fn420308   6.580   1.704   1.290  0.0984 -0.3647 -0.3720
 3946ntf    fn420309   6.439   1.745   1.137  0.0429  0.3530  0.0096
 3946ntf    fn420310   6.575   1.593   1.105 -0.3192  0.2154 -0.0592
 3947ntf    cn120311   6.723   7.120   0.307 -0.2803 -0.0465 -0.2710
 3947ntf    sn220312   6.722   7.238   0.444 -0.1418 -0.1838 -0.1506
 3947ntf    nn320313   6.844   7.327   0.401 -0.6806  0.5220 -0.2464
 3947ntf    sn220314   6.906   7.447   0.480 -0.0607 -0.0528  0.1517
 3947ntf    cn120315   7.020   7.359   0.592 -0.0018 -0.3187 -0.1160
 3947ntf    fn420316   6.678   7.165   0.191 -0.0645 -0.0121 -0.3422
 3947ntf    fn420317   6.840   7.060   0.286 -0.3012 -0.1902  0.0247
 3947ntf    fn420318   6.642   7.022   0.343 -0.2804  0.1327  0.2204
 3947ntf    on520319   6.595   7.307   0.444  0.1162  0.3004 -0.7966
 3947ntf    on520320   6.751   7.154   0.557 -0.3757  0.4279  0.3722
 3947ntf    on520321   6.822   7.523   0.570  0.8156  0.6785  0.3737
 3947ntf    on520322   6.987   7.528   0.392 -0.0769  0.3967  0.5457
 3947ntf    fn420323   7.080   7.258   0.531  0.6107 -0.2394  0.3439
 3947ntf    fn420324   7.113   7.439   0.641 -0.4334 -0.0052  0.2010
 3947ntf    fn420325   6.956   7.315   0.699 -0.3987 -0.0403 -0.2344
 3948ntf    cn120326   1.210   3.091   3.964 -0.0555 -0.0395  0.1945
 3948ntf    sn220327   1.348   3.012   3.875  0.0092  0.1671  0.1121
 3948ntf    nn320328   1.467   3.099   3.928 -0.2027  0.1530  0.6121
 3948ntf    sn220329   1.614   3.118   3.875 -0.3809 -0.1503 -0.0024
 3948ntf    cn120330   1.607   3.272   3.778  0.1849  0.0605  0.2870
 3948ntf    fn420331   1.087   3.079   3.917  0.0220 -0.1149  0.0078
 3948ntf    fn420332   1.210   3.034   4.083  0.3901 -0.4417  0.0097
 3948ntf    fn420333   1.239   3.217   3.988 -0.0268 -0.0373  0.1488
 3948ntf    on520334   1.341   2.879   3.928  0.0026  0.2225  0.2498
 3948ntf    on520335   1.310   3.033   3.737 -0.0403  0.1518  0.1238
 3948ntf    on520336   1.666   3.017   3.788  0.2652  0.2136 -0.0476
 3948ntf    on520337   1.703   3.147   3.985 -0.2156 -0.2290 -0.1166
 3948ntf    fn420338   1.731   3.301   3.741  0.1539  0.3522  0.4058
 3948ntf    fn420339   1.534   3.260   3.669  0.6766  0.4978 -0.0938
 3948ntf    fn420340   1.562   3.374   3.849  0.3590  0.2733  0.0912
 3949ntf    cn120341   4.098   1.264   0.890 -0.1680 -0.1726 -0.3130
 3949ntf    sn220342   4.265   1.333   0.916 -0.3100  0.0553 -0.0026
 3949ntf    nn320343   4.355   1.262   0.809 -0.3730 -0.1303  0.0650
 3949ntf    sn220344   4.432   1.127   0.823  0.0083  0.1186  0.3914
 3949ntf    cn120345   4.345   1.037   0.691  0.2976 -0.5396  0.6455
 3949ntf    fn420346   4.108   1.132   0.897 -0.2113 -0.1451  0.2720
 3949ntf    fn420347   4.017   1.314   0.981 -0.0895 -0.1223 -0.2706
 3949ntf    fn420348   4.049   1.290   0.770 -0.1375 -0.5012 -0.3977
 3949ntf    on520349   4.245   1.471   0.881 -0.7778 -0.0541 -0.1867
 3949ntf    on520350   4.302   1.307   1.053  0.2206 -0.6824 -0.2797
 3949ntf    on520351   4.407   1.048   0.941 -0.3385 -0.1327  0.1533
 3949ntf    on520352   4.569   1.132   0.777 -0.2000 -0.3395 -0.3033
 3949ntf    fn420353   4.390   0.915   0.662 -0.1921 -0.6644  0.4034
 3949ntf    fn420354   4.214   1.028   0.705  0.2112 -0.0265  0.1741
 3949ntf    fn420355   4.361   1.099   0.575 -0.3117 -0.0218  0.8381
 3950ntf    cn120356   4.784   2.735   5.645  0.2929 -0.1822 -0.2098
 3950ntf    sn220357   4.622   2.813   5.673  0.2576 -0.3321  0.0071
 3950ntf    nn320358   4.559   2.766   5.537  0.3900 -0.3864 -0.0355
 3950ntf    sn220359   4.590   2.826   5.395  0.1105  0.0518  0.0876
 3950ntf    cn120360   4.426   2.865   5.328  0.2206  0.0575 -0.1813
 3950ntf    fn420361   4.818   2.747   5.518  0.0824 -0.2251 -0.2709
 3950ntf    fn420362   4.880   2.792   5.716  0.0661 -0.1367  0.0615
 3950ntf    fn420363   4.782   2.606   5.673 -0.2584  0.0474  0.8521
 3950ntf    on520364   4.575   2.742   5.789 -0.5537 -0.1514 -0.2091
 3950ntf    on520365   4.638   2.955   5.693 -0.1137 -0.2568 -0.2224
 3950ntf    on520366   4.629   2.718   5.308  0.3570  0.2128 -0.0032
 3950ntf    on520367   4.674   2.944   5.396  0.3445 -0.1166  0.7547
 3950ntf    fn420368   4.343   2.762   5.330  0.0060  0.2337 -0.0063
 3950ntf    fn420369   4.372   2.965   5.397 -0.0356 -0.2523  0.0699
 3950ntf    fn420370   4.433   2.911   5.204 -0.5524  0.0080 -0.2479
 3951ntf    cn120371   6.262   2.120   5.588  0.1974  0.0996  0.1080
 3951ntf    sn220372   6.442   2.145   5.586  0.2589 -0.3583 -0.0439
 3951ntf    nn320373   6.448   2.301   5.582 -0.0457 -0.3408  0.1430
 3951ntf    sn220374   6.473   2.403   5.699 -0.3351 -0.0357 -0.0590
 3951ntf    cn120375   6.615   2.492   5.629  0.1763 -0.3035  0.6336
 3951ntf    fn420376   6.202   2.208   5.667  0.0546  0.1453 -0.0522
 3951ntf    fn420377   6.220   2.135   5.463  0.3218 -0.6805 -0.0299
 3951ntf    fn420378   6.228   1.995   5.614 -0.2323  0.2103  0.0864
 3951ntf    on520379   6.494   2.077   5.703 -0.2019  0.4285  0.6242
 3951ntf    on520380   6.475   2.089   5.457  0.1346  0.8555 -0.6124
 3951ntf    on520381   6.538   2.354   5.818  0.4072 -0.1796 -0.5204
 3951ntf    on520382   6.360   2.491   5.716  0.1393  0.5165  0.2808
 3951ntf    fn420383   6.707   2.411   5.578 -0.0956 -0.1185 -0.1608
 3951ntf    fn420384   6.579   2.564   5.524 -0.1858 -0.3391  0.7305
 3951ntf    fn420385   6.670   2.573   5.718  0.1080 -0.3092  0.6809
 3952ntf    cn120386   6.556   2.770   1.287 -0.2882 -0.0077  0.1701
 3952ntf    sn220387   6.560   2.631   1.404  0.1956 -0.2142 -0.0898
 3952ntf    nn320388   6.507   2.707   1.531  0.2008 -0.0641 -0.1783
 3952ntf    sn220389   6.364   2.765   1.559 -0.0069 -0.6251 -0.0676
 3952ntf    cn120390   6.330   2.705   1.727 -0.4260 -0.1552  0.0211
 3952ntf    fn420391   6.619   2.875   1.336 -0.0640 -0.1596  0.2044
 3952ntf    fn420392   6.606   2.739   1.169  0.0055 -0.1565  0.3330
 3952ntf    fn420393   6.433   2.814   1.263 -0.3432 -0.1787  0.1320
 3952ntf    on520394   6.472   2.525   1.360 -0.2046  0.0208  0.1410
 3952ntf    on520395   6.699   2.601   1.424  0.1923 -0.0147  0.2370
 3952ntf    on520396   6.261   2.711   1.474 -0.3641 -0.5236  0.2995
 3952ntf    on520397   6.367   2.909   1.570  0.3549 -0.6404  0.0611
 3952ntf    fn420398   6.428   2.739   1.809 -0.3100 -0.2277 -0.0853
 3952ntf    fn420399   6.215   2.754   1.769 -0.0420  0.4794  0.3492
 3952ntf    fn420400   6.323   2.573   1.724 -0.5383 -0.1439 -0.2844
 3953ntf    cn120401   3.349   0.837   1.202  0.0511  0.2507 -0.2739
 3953ntf    sn220402   3.387   0.737   1.349 -0.1170  0.0721 -0.3522
 3953ntf    nn320403   3.319   0.598   1.321 -0.0428 -0.0269 -0.0475
 3953ntf    sn220404   3.391   0.490   1.234  0.1109 -0.0524  0.1108
 3953ntf    cn120405   3.471   0.382   1.357  0.0808 -0.1662  0.0312
 3953ntf    fn420406   3.224   0.878   1.188  0.0056  0.2399  0.0762
 3953ntf    fn420407   3.419   0.949   1.197  0.2379  0.1491  0.0260
 3953ntf    fn420408   3.390   0.776   1.092  0.0694 -0.0050 -0.1267
 3953ntf    on520409   3.528   0.746   1.374 -0.2007  0.0600  0.1515
 3953ntf    on520410   3.307   0.810   1.445  0.1836  0.3627 -0.3223
 3953ntf    on520411   3.498   0.533   1.148  0.1373  0.0270  0.1836
 3953ntf    on520412   3.294   0.399   1.179  0.7116 -0.4358 -0.3325
 3953ntf    fn420413   3.381   0.327   1.437  0.1750 -0.1734  0.1329
 3953ntf    fn420414   3.549   0.288   1.307  0.0465 -0.0909 -0.1676
 3953ntf    fn420415   3.549   0.447   1.442  0.0936  0.0119 -0.1163
 3954ntf    cn120416   4.354   1.197   3.227 -0.0223 -0.4944  0.2623
 3954ntf    sn220417   4.505   1.293   3.259 -0.2498  0.0085 -0.1518
 3954ntf    nn320418   4.522   1.377   3.127  0.5946  0.2864  0.1273
 3954ntf    sn220419   4.489   1.526   3.090  0.1212  0.1619  0.0413
 3954ntf    cn120420   4.385   1.489   2.946  0.3656  0.1363 -0.1285
 3954ntf    fn420421   4.271   1.267   3.151  0.3267 -0.1913  0.1602
 3954ntf    fn420422   4.381   1.079   3.175  0.1932 -0.4850  0.3495
 3954ntf    fn420423   4.281   1.179   3.336 -0.1554 -0.8353  0.1185
 3954ntf    on520424   4.471   1.369   3.377  0.1512 -0.4791  0.2842
 3954ntf    on520425   4.609   1.195   3.277 -0.5812 -0.3321 -0.0751
 3954ntf    on520426   4.605   1.603   3.053 -0.2634  0.5928 -0.2726
 3954ntf    on520427   4.389   1.586   3.175  0.4955  0.1518  0.4971
 3954ntf    fn420428   4.337   1.600   2.894  0.1863  0.0981 -0.0447
 3954ntf    fn420429   4.450   1.415   2.857  0.2368 -0.3591  0.1874
 3954ntf    fn420430   4.285   1.411   2.983  0.4748  0.1422  0.1819
 3955ntf    cn120431   6.855   6.795   6.671  0.3190  0.2244  0.1708
 3955ntf    sn220432   6.723   6.690   6.604  0.2230  0.5847 -0.2093
 3955ntf    nn320433   6.811   6.578   6.540  0.0949  0.4713 -0.1866
 3955ntf    sn220434   6.813   6.508   6.399  0.3744 -0.3457  0.2142
 3955ntf    cn120435   6.845   6.335   6.444 -0.0656 -0.4306  0.2032
 3955ntf    fn420436   6.800   6.875   6.761  0.7332  0.6511  0.0545
 3955ntf    fn420437   6.944   6.715   6.729  0.3314 -0.2619 -0.5086
 3955ntf    fn420438   6.925   6.871   6.588  0.1984  0.2621  0.1025
 3955ntf    on520439   6.655   6.640   6.721  0.3836  0.6611 -0.0827
 3955ntf    on520440   6.638   6.763   6.513  0.2172  0.4633 -0.3018
 3955ntf    on520441   6.930   6.548   6.326 -0.2585  0.1101 -0.5678
 3955ntf    on520442   6.687   6.492   6.331  0.0575  0.3949  0.6123
 3955ntf    fn420443   6.935   6.331   6.541  0.0467  0.0717  0.1194
 3955ntf    fn420444   6.736   6.269   6.482 -0.2720 -0.0074  0.3474
 3955ntf    fn420445   6.890   6.266   6.340  0.3980  0.7632 -0.3984
 3956ntf    cn120446   1.350   4.135   3.231  0.0506 -0.2850 -0.0181
 3956ntf    sn220447   1.371   4.276   3.343 -0.0019 -0.2363 -0.0706
 3956ntf    nn320448   1.236   4.355   3.326 -0.0626 -0.3418 -0.0786
 3956ntf    sn220449   1.095   4.321   3.385 -0.1677 -0.0563 -0.1632
 3956ntf    cn120450   1.107   4.404   3.547 -0.5388 -0.2656 -0.0265
 3956ntf    fn420451   1.471   4.082   3.218  0.1012 -0.1585 -0.0680
 3956ntf    fn420452   1.275   4.040   3.285 -0.1291 -0.0509  0.1442
 3956ntf    fn420453   1.312   4.163   3.107 -0.5314 -0.0215  0.2166
 3956ntf    on520454   1.389   4.210   3.470 -0.2162 -0.1752 -0.0065
 3956ntf    on520455   1.481   4.350   3.287 -0.2431  0.1461 -0.0482
 3956ntf    on520456   1.063   4.185   3.418 -0.4542 -0.0306 -0.3360
 3956ntf    on520457   0.992   4.401   3.324  0.2323  0.4213 -0.2208
 3956ntf    fn420458   1.200   4.348   3.623 -0.1188  0.0215 -0.3207
 3956ntf    fn420459   1.146   4.530   3.530 -0.7183 -0.1878  0.1335
 3956ntf    fn420460   0.992   4.402   3.613 -0.4209  0.2343  0.2007
 3957ntf    cn120461   4.233   1.986   4.755 -0.0683 -0.1366 -0.3094
 3957ntf    sn220462   4.407   2.030   4.725  0.0391 -0.1490  0.2859
 3957ntf    nn320463   4.390   2.186   4.713  0.4789 -0.1455 -0.2855
 3957ntf    sn220464   4.354   2.271   4.586  0.2835  0.1510 -0.0328
 3957ntf    cn120465   4.512   2.291   4.497  0.2326 -0.2017 -0.2030
 3957ntf    fn420466   4.160   1.978   4.645 -0.1413  0.1019 -0.2775
 3957ntf    fn420467   4.213   1.869   4.815  0.1386 -0.1189 -0.2077
 3957ntf    fn420468   4.189   2.076   4.841  0.6036 -0.1769  0.0831
 3957ntf    on520469   4.480   1.980   4.839  0.3974  0.3805  0.2934
 3957ntf    on520470   4.452   1.966   4.605  0.0731 -0.3783  0.4202
 3957ntf    on520471   4.332   2.407   4.630 -0.2446  0.0050  0.1511
 3957ntf    on520472   4.259   2.216   4.493  0.2551  0.6766 -0.3204
 3957ntf    fn420473   4.576   2.179   4.468  0.3995 -0.1425 -0.0678
 3957ntf    fn420474   4.496   2.351   4.380 -0.8407  0.0166  0.0397
 3957ntf    fn420475   4.599   2.366   4.562 -0.5027  0.1835  0.3566
 3958ntf    cn120476   4.029   4.529   0.536  0.5359 -0.2469  0.0665
 3958ntf    sn220477   3.991   4.574   0.364  0.0986 -0.0523  0.2134
 3958ntf    nn320478   3.966   4.435   0.297  0.1312 -0.1154  0.3302
 3958ntf    sn220479   4.044   4.363   0.181  0.1038  0.4299 -0.0301
 3958ntf    cn120480   3.917   4.255   0.107  0.3837  0.0116  0.0998
 3958ntf    fn420481   4.149   4.474   0.542  0.4326 -0.5121 -0.2863
 3958ntf    fn420482   4.044   4.636   0.613  0.0439 -0.2072  0.1105
 3958ntf    fn420483   3.948   4.449   0.603 -0.1470  0.2294 -0.1737
 3958ntf    on520484   3.867   4.649   0.367  0.3239  0.3238  0.0816
 3958ntf    on520485   4.112   4.645   0.333  0.1170 -0.2529 -0.1769
 3958ntf    on520486   4.148   4.272   0.223 -0.4406 -0.1406  0.1008
 3958ntf    on520487   4.074   4.455   0.074  0.4150 -0.2302 -0.5157
 3958ntf    fn420488   3.858   4.175   0.195 -0.4564  0.2509 -0.2464
 3958ntf    fn420489   3.818   4.316   0.045  0.1947 -0.6087 -0.2242
 3958ntf    fn420490   3.975   4.181   0.014  0.2208  0.1291 -0.0934
 3959ntf    cn120491   2.408   6.865   3.364 -0.3435 -0.0043  0.1956
 3959ntf    sn220492   2.586   6.902   3.366 -0.2729 -0.3078 -0.1908
 3959ntf    nn320493   2.628   6.804   3.481 -0.5669 -0.3945 -0.1572
 3959ntf    sn220494   2.687   6.659   3.465  0.7197  0.1511 -0.3920
 3959ntf    cn120495   2.868   6.680   3.457  0.7430  0.0311 -0.1699
 3959ntf    fn420496   2.348   6.928   3.464 -0.4605  0.1212  0.0467
 3959ntf    fn420497   2.357   6.918   3.254 -0.6751 -0.7973 -0.0418
 3959ntf    fn420498   2.374   6.737   3.370 -0.0405 -0.0883  0.1218
 3959ntf    on520499   2.635   6.870   3.234 -0.3585  0.1895 -0.3441
 3959ntf    on520500   2.592   7.039   3.411  0.3339 -0.3613 -0.1025
 3959ntf    on520501   2.648   6.582   3.350  0.2492  0.1397 -0.2260
 3959ntf    on520502   2.670   6.581   3.584  0.3063  0.6230 -0.1379
 3959ntf    fn420503   2.916   6.696   3.335  0.3176  0.2082 -0.3174
 3959ntf    fn420504   2.914   6.781   3.529  0.5519 -0.0136  0.0161
 3959ntf    fn420505   2.940   6.582   3.509  0.6587 -0.1996 -0.4881
 3960ntf    cn120506   5.890   4.160   3.229 -0.2302 -0.0587  0.2937
 3960ntf    sn220507   5.943   3.995   3.281  0.1548 -0.0651 -0.1101
 3960ntf    nn320508   5.887   3.924   3.152 -0.0929 -0.1123  0.0229
 3960ntf    sn220509   5.913   3.772   3.124  0.0043 -0.0776 -0.0735
 3960ntf    cn120510   5.817   3.765   2.970 -0.4650  0.3104  0.1985
 3960ntf    fn420511   5.930   4.246   3.322 -0.6210  0.3495  0.0904
 3960ntf    fn420512   5.931   4.201   3.110  0.4135 -0.2185  0.4560
 3960ntf    fn420513   5.758   4.167   3.227 -0.2493 -0.5166 -0.1512
 3960ntf    on520514   6.086   3.993   3.306  0.0942 -0.2595  0.2345
 3960ntf    on520515   5.860   3.969   3.396  0.0779  0.3450 -0.0746
 3960ntf    on520516   5.848   3.681   3.215 -0.2548  0.4881  0.3153
 3960ntf    on520517   6.048   3.753   3.078  0.2430  0.9800  0.1707
 3960ntf    fn420518   5.863   3.826   2.862 -0.3635  0.4261  0.3064
 3960ntf    fn420519   5.811   3.641   2.923  0.3498  0.2352  0.2790
 3960ntf    fn420520   5.694   3.808   2.993 -0.7698 -0.2745 -0.2913
 3961ntf    cn120521   4.628   4.190   2.721 -0.0276 -0.1251  0.1875
 3961ntf    sn220522   4.795   4.121   2.741  0.0696 -0.0195 -0.2560
 3961ntf    nn320523   4.755   3.971   2.761 -0.5149  0.2085  0.3014
 3961ntf    sn220524   4.820   3.868   2.861  0.1516  0.5367  0.2125
 3961ntf    cn120525   4.723   3.908   3.010  0.0910  0.1678  0.2717
 3961ntf    fn420526   4.555   4.134   2.816  0.2204 -0.1717  0.3512
 3961ntf    fn420527   4.627   4.321   2.739 -0.4008 -0.1280  0.1796
 3961ntf    fn420528   4.581   4.166   2.600 -0.3678  0.1566  0.2640
 3961ntf    on520529   4.858   4.151   2.614  0.4698  0.0929 -0.0312
 3961ntf    on520530   4.835   4.198   2.856 -0.3911 -0.2173  0.0369
 3961ntf    on520531   4.955   3.902   2.899  0.3807 -0.2132  0.0792
 3961ntf    on520532   4.794   3.728   2.839  0.1187  0.5501  0.1653
 3961ntf    fn420533   4.725   4.037   3.039  0.0909  0.0285  0.8919
 3961ntf    fn420534   4.599   3.865   2.991  0.1203  0.1554  0.1010
 3961ntf    fn420535   4.766   3.840   3.115  0.0358  0.3133  0.3886
 3962ntf    cn120536   5.607   3.242   6.526 -0.3269  0.0217  0.0890
 3962ntf    sn220537   5.568   3.099   6.422  0.3252 -0.0635 -0.0403
 3962ntf    nn320538   5.440   3.049   6.498  0.2240  0.4770  0.1515
 3962ntf    sn220539   5.288   3.077   6.470  0.1630  0.3057  0.3097
 3962ntf    cn120540   5.225   2.985   6.614 -0.0063  0.1221  0.1208
 3962ntf    fn420541   5.518   3.340   6.513 -0.3621 -0.0595 -0.2897
 3962ntf    fn420542   5.609   3.226   6.658 -0.0352  0.5965  0.1596
 3962ntf    fn420543   5.728   3.290   6.507 -0.3067 -0.2001 -0.3353
 3962ntf    on520544   5.537   3.162   6.296  0.5944  0.3042  0.0773
 3962ntf    on520545   5.680   3.009   6.434  0.1604 -0.2358  0.2230
 3962ntf    on520546   5.232   3.004   6.359  0.1029  0.1223  0.4582
 3962ntf    on520547   5.242   3.211   6.494 -0.3066  0.2056 -0.0204
 3962ntf    fn420548   5.094   2.981   6.599 -0.0127 -0.0052  0.2135
 3962ntf    fn420549   5.273   2.862   6.615  0.2747  0.2308  0.0591
 3962ntf    fn420550   5.258   3.033   6.733  0.6906 -0.0467 -0.0001
 3963ntf    cn120551   1.724   0.547   5.971 -0.0357 -0.0083 -0.2002
 3963ntf    sn220552   1.677   0.717   5.926  0.0038  0.0844  0.1042
 3963ntf    nn320553   1.816   0.774   5.881 -0.2844  0.5707 -0.1684
 3963ntf    sn220554   1.930   0.830   5.973 -0.0357 -0.2247  0.0114
 3963ntf    cn120555   2.079   0.780   5.881  0.0218 -0.0341 -0.0003
 3963ntf    fn420556   1.621   0.493   6.034 -0.3520  0.7275 -0.0716
 3963ntf    fn420557   1.744   0.464   5.870 -0.0511 -0.1526 -0.0851
 3963ntf    fn420558   1.823   0.531   6.057 -0.3138  0.4475  0.2063
 3963ntf    on520559   1.589   0.694   5.813  0.6208  0.1718 -0.3975
 3963ntf    on520560   1.622   0.773   6.046  0.6819 -0.0538  0.4847
 3963ntf    on520561   1.939   0.781   6.108  0.0011  0.1135  0.1333
 3963ntf    on520562   1.940   0.974   5.964  0.0488 -0.2416 -0.1687
 3963ntf    fn420563   2.071   0.655   5.837 -0.1256 -0.0732  0.1356
 3963ntf    fn420564   2.087   0.848   5.768 -0.6039 -0.1948 -0.1468
 3963ntf    fn420565   2.185   0.801   5.957 -0.0534  0.2250  0.0335
 3964ntf    cn120566   3.219   2.509   0.683 -0.3803  0.2696  0.2124
 3964ntf    sn220567   3.268   2.460   0.851  0.2551  0.1187 -0.0136
 3964ntf    nn320568   3.313   2.598   0.911  0.2835  0.1410 -0.0878
 3964ntf    sn220569   3.235   2.697   1.004 -0.1941 -0.3142  0.0036
 3964ntf    cn120570   3.299   2.648   1.167 -0.3367  0.0823  0.1797
 3964ntf    fn420571   3.093   2.551   0.680 -0.3357  0.3598 -0.5755
 3964ntf    fn420572   3.286   2.618   0.651  0.0678 -0.1150 -0.1746
 3964ntf    fn420573   3.246   2.421   0.588 -0.1274  0.2108  0.3385
 3964ntf    on520574   3.152   2.411   0.922  0.0866  0.2259 -0.2157
 3964ntf    on520575   3.381   2.373   0.830  0.2333  0.2081 -0.5129
 3964ntf    on520576   3.094   2.671   1.013 -0.2310 -0.1397 -0.0737
 3964ntf    on520577   3.274   2.834   0.979 -0.2805 -0.2400  0.2745
 3964ntf    fn420578   3.430   2.636   1.148 -0.3505  0.2236 -0.0039
 3964ntf    fn420579   3.288   2.744   1.258  0.9888  0.3242  0.1131
 3964ntf    fn420580   3.249   2.539   1.223 -0.3488  0.0038  0.0150
 3965ntf    cn120581   3.018   2.745   6.214  0.4707 -0.0849 -0.0713
 3965ntf    sn220582   2.878   2.700   6.108  0.0564 -0.1363  0.4908
 3965ntf    nn320583   2.751   2.716   6.198 -0.4941 -0.0239 -0.3035
 3965ntf    sn220584   2.647   2.614   6.256  0.1049 -0.3226  0.2434
 3965ntf    cn120585   2.572   2.547   6.105  0.1052  0.4015 -0.0837
 3965ntf    fn420586   3.132   2.752   6.146  0.4430  0.2478 -0.0873
 3965ntf    fn420587   3.002   2.870   6.255 -0.0007 -0.0608 -0.3335
 3965ntf    fn420588   3.046   2.669   6.319  0.0268 -0.2538 -0.0760
 3965ntf    on520589   2.882   2.800   6.004 -0.2675 -0.5662  0.0606
 3965ntf    on520590   2.913   2.567   6.063 -0.1496  0.1300 -0.4694
 3965ntf    on520591   2.531   2.675   6.316  0.0592 -0.3599  0.1930
 3965ntf    on520592   2.707   2.502   6.325  0.2610 -0.4084 -0.0316
 3965ntf    fn420593   2.653   2.477   6.028 -0.0609 -0.2577  0.3278
 3965ntf    fn420594   2.476   2.459   6.130  0.0619  0.4956  0.0846
 3965ntf    fn420595   2.518   2.636   6.024 -0.2456  0.0903 -0.1985
 3966ntf    cn120596   1.957   2.814   4.459 -0.2901  0.0479 -0.0393
 3966ntf    sn220597   1.864   2.928   4.566  0.1104  0.0509  0.3106
 3966ntf    nn320598   1.845   2.838   4.693 -0.9294  0.2354  0.2977
 3966ntf    sn220599   1.914   2.856   4.833 -0.1732 -0.2101 -0.0135
 3966ntf    cn120600   2.063   2.752   4.815 -0.2408 -0.2768 -0.1960
 3966ntf    fn420601   1.900   2.695   4.458  0.0231 -0.1069  0.1839
 3966ntf    fn420602   1.970   2.848   4.332  0.0388  0.3348  0.0685
 3966ntf    fn420603   2.079   2.793   4.505 -0.2415 -0.2732 -0.3179
 3966ntf    on520604   1.950   3.043   4.579 -0.0888  0.2670 -0.2329
 3966ntf    on520605   1.745   2.952   4.487  0.0976  0.0694  0.3360
 3966ntf    on520606   1.835   2.792   4.935  0.1318 -0.2972  0.1709
 3966ntf    on520607   1.958   2.991   4.857 -0.8305 -0.1432  0.8775
 3966ntf    fn420608   2.035   2.625   4.790  0.5552 -0.3843 -0.5596
 3966ntf    fn420609   2.140   2.785   4.713 -0.4511 -0.1290 -0.3079
 3966ntf    fn420610   2.144   2.744   4.920 -0.4269 -0.6322 -0.0768
 3967ntf    cn120611   1.788   2.176   5.533  0.3079 -0.0124  0.1493
 3967ntf    sn220612   1.940   2.184   5.434  0.0054 -0.1444 -0.3326
 3967ntf    nn320613   1.991   2.327   5.477  0.1543 -0.2207 -0.2521
 3967ntf    sn220614   2.141   2.366   5.497 -0.0280  0.1717  0.3713
 3967ntf    cn120615   2.174   2.312   5.667  0.1019 -0.1119  0.2581
 3967ntf    fn420616   1.801   2.246   5.644  0.0056  0.3080 -0.0141
 3967ntf    fn420617   1.685   2.224   5.464  0.5440  0.1663 -0.0800
 3967ntf    fn420618   1.760   2.050   5.562  0.7285 -0.2153 -0.3076
 3967ntf    on520619   2.024   2.078   5.483 -0.0400 -0.0816 -0.1179
 3967ntf    on520620   1.892   2.174   5.298  0.8598 -0.1116 -0.6436
 3967ntf    on520621   2.155   2.510   5.494  0.1976  0.1421 -0.1437
 3967ntf    on520622   2.235   2.289   5.419 -0.6258 -0.6194  0.4251
 3967ntf    fn420623   2.303   2.309   5.697  0.1845 -0.0110 -0.0854
 3967ntf    fn420624   2.120   2.394   5.756 -0.6526 -0.4178  0.0880
 3967ntf    fn420625   2.128   2.192   5.697 -0.4720  0.0820  0.1654
 3968ntf    cn120626   5.984   5.678   1.375 -0.0702  0.1112  0.2071
 3968ntf    sn220627   5.849   5.651   1.256  0.3343 -0.2583 -0.1735
 3968ntf    nn320628   5.926   5.570   1.146  0.3074 -0.2783 -0.1774
 3968ntf    sn220629   5.933   5.417   1.113  0.0942 -0.2795 -0.2129
 3968ntf    cn120630   5.790   5.418   1.000 -0.0549 -0.2475 -0.0242
 3968ntf    fn420631   6.040   5.561   1.403 -0.0218  0.1500  0.2707
 3968ntf    fn420632   6.083   5.760   1.344 -0.2075  0.1685 -0.0825
 3968ntf    fn420633   5.936   5.723   1.490  0.0357  0.2402  0.2008
 3968ntf    on520634   5.751   5.582   1.336 -0.4202  0.7663 -0.1911
 3968ntf    on520635   5.813   5.785   1.216 -0.6836 -0.4543  0.0769
 3968ntf    on520636   5.890   5.325   1.215 -0.1086  0.2324  0.1630
 3968ntf    on520637   6.058   5.388   1.047  0.0221  0.0066 -0.4796
 3968ntf    fn420638   5.741   5.298   0.973 -0.0407 -0.1537 -0.4679
 3968ntf    fn420639   5.685   5.484   1.048 -0.1701 -0.1274 -0.4411
 3968ntf    fn420640   5.821   5.480   0.887  0.0303 -0.1727  0.0398
 3969ntf    cn120641   3.247   7.164   2.600  0.0438  0.1432  0.1080
 3969ntf    sn220642   3.208   7.021   2.495 -0.1084  0.1852  0.1067
 3969ntf    nn320643   3.298   6.916   2.569 -0.0690  0.1480  0.0072
 3969ntf    sn220644   3.276   6.799   2.672  0.2329  0.1601  0.0859
 3969ntf    cn120645   3.240   6.666   2.552 -0.0360  0.1605  0.1651
 3969ntf    fn420646   3.210   7.283   2.555  0.3494  0.0841 -0.3068
 3969ntf    fn420647   3.186   7.158   2.717  0.1086 -0.1312  0.1284
 3969ntf    fn420648   3.376   7.171   2.630  0.1345 -0.0200 -0.2416
 3969ntf    on520649   3.066   6.998   2.506 -0.1179  0.0254 -0.3302
 3969ntf    on520650   3.255   7.073   2.369 -0.4898 -0.4723 -0.3140
 3969ntf    on520651   3.165   6.812   2.764 -0.5602 -0.2445 -0.7930
 3969ntf    on520652   3.398   6.753   2.732  0.1549  0.2202  0.2901
 3969ntf    fn420653   3.232   6.549   2.613  0.8559  0.2684  0.5039
 3969ntf    fn420654   3.131   6.680   2.478  0.0953  0.3362  0.0062
 3969ntf    fn420655   3.336   6.655   2.462 -0.0838 -0.0766  0.1425
 3970ntf    cn120656   1.109   6.142   5.514  0.0553 -0.1220 -0.1332
 3970ntf    sn220657   1.066   6.033   5.375  0.0187 -0.1322 -0.1137
 3970ntf    nn320658   0.911   6.030   5.398  0.0279 -0.2311 -0.0669
 3970ntf    sn220659   0.827   5.937   5.494  0.1935 -0.1018  0.2052
 3970ntf    cn120660   0.748   6.056   5.607 -0.0353 -0.0066 -0.0516
 3970ntf    fn420661   1.059   6.264   5.507 -0.0161 -0.1520 -0.1603
 3970ntf    fn420662   1.069   6.099   5.633 -0.1699  0.3199 -0.0469
 3970ntf    fn420663   1.240   6.154   5.520  0.0371 -0.2252  0.5385
 3970ntf    on520664   1.113   6.113   5.264 -0.4487  0.3500  0.0317
 3970ntf    on520665   1.135   5.907   5.391  0.8424  0.3728  0.3567
 3970ntf    on520666   0.896   5.843   5.578  0.2618  0.0279  0.2943
 3970ntf    on520667   0.723   5.878   5.413 -0.0447  0.0653  0.3849
 3970ntf    fn420668   0.669   6.000   5.697 -0.1848 -0.1251 -0.2538
 3970ntf    fn420669   0.833   6.138   5.667 -0.2167  0.1906 -0.0643
 3970ntf    fn420670   0.662   6.133   5.543 -0.3836  0.0023  0.4265
 3971ntf    cn120671   5.055   4.174   1.726  0.2410 -0.2806 -0.2172
 3971ntf    sn220672   5.113   4.093   1.878 -0.3089 -0.0929  0.0945
 3971ntf    nn320673   5.004   3.980   1.887  0.1288 -0.5601 -0.3945
 3971ntf    sn220674   4.989   3.886   2.012 -0.0456 -0.1465 -0.1014
 3971ntf    cn120675   4.864   3.959   2.121 -0.1180  0.2152 -0.4252
 3971ntf    fn420676   5.026   4.301   1.750  0.3240 -0.3382  0.1973
 3971ntf    fn420677   5.139   4.166   1.624  0.3891  0.0136 -0.1191
 3971ntf    fn420678   4.940   4.121   1.687  0.0120  0.2131 -0.2136
 3971ntf    on520679   5.242   4.040   1.842 -0.1404  0.1102  0.3994
 3971ntf    on520680   5.112   4.198   1.976 -0.1239 -0.4384  0.4695
 3971ntf    on520681   5.107   3.860   2.092 -0.1499  1.0714  0.4735
 3971ntf    on520682   4.922   3.767   1.965 -0.6361  0.0868  0.1545
 3971ntf    fn420683   4.741   3.966   2.072 -0.4812  0.1329  0.4516
 3971ntf    fn420684   4.845   3.886   2.230  0.3566  0.1341 -0.3959
 3971ntf    fn420685   4.900   4.078   2.168  0.4292 -0.1820  0.1757
 3972ntf    cn120686   5.589   2.353   7.021  0.5327  0.4120  0.4806
 3972ntf    sn220687   5.766   2.385   6.996  0.5783 -0.0483  0.1819
 3972ntf    nn320688   5.833   2.291   7.101 -0.2938 -0.7817  0.0957
 3972ntf    sn220689   5.868   2.343   7.245 -0.2330 -0.1350 -0.1478
 3972ntf    cn120690   6.034   2.411   7.217 -0.3090 -0.0977 -0.4989
 3972ntf    fn420691   5.545   2.356   7.145 -0.3873  0.0152  0.1743
 3972ntf    fn420692   5.528   2.448   6.952  0.7119 -0.0773 -0.3603
 3972ntf    fn420693   5.556   2.240   6.959 -0.1896  0.5194  0.6645
 3972ntf    on520694   5.785   2.335   6.862  0.0020  0.2465 -0.0171
 3972ntf    on520695   5.778   2.529   7.006 -0.7396  0.1117 -0.2780
 3972ntf    on520696   5.888   2.227   7.330 -0.1177 -0.0446 -0.0508
 3972ntf    on520697   5.786   2.447   7.301  0.5449  0.2820  0.2496
 3972ntf    fn420698   6.089   2.454   7.329  0.1935 -0.2030 -0.7009
 3972ntf    fn420699   6.119   2.319   7.174 -0.0459  0.0247 -0.2400
 3972ntf    fn420700   6.045   2.514   7.134 -0.7418  0.4058  0.0641
 3973ntf    cn120701   6.414   3.465   3.361 -0.1352 -0.1988  0.4402
 3973ntf    sn220702   6.311   3.451   3.212  0.2714  0.0372  0.1326
 3973ntf    nn320703   6.362   3.313   3.156  0.5327  0.0819  0.2609
 3973ntf    sn220704   6.426   3.279   3.017 -0.0542  0.1454 -0.0259
 3973ntf    cn120705   6.603   3.297   3.054 -0.0000 -0.1511 -0.1400
 3973ntf    fn420706   6.363   3.562   3.436 -0.1539 -0.0874  0.2825
 3973ntf    fn420707   6.413   3.355   3.435  0.2662 -0.3379  0.2388
 3973ntf    fn420708   6.540   3.497   3.335 -0.2208 -0.3213 -0.1336
 3973ntf    on520709   6.178   3.437   3.268  0.3443  0.7158  0.4772
 3973ntf    on520710   6.339   3.569   3.136 -0.2130  0.0429 -0.0387
 3973ntf    on520711   6.394   3.373   2.912 -0.4937  0.2819  0.2274
 3973ntf    on520712   6.407   3.140   2.985  0.1105  0.1927 -0.3357
 3973ntf    fn420713   6.653   3.214   3.144  0.2078  0.2293  0.0957
 3973ntf    fn420714   6.684   3.293   2.949 -0.1235 -0.1437 -0.2366
 3973ntf    fn420715   6.630   3.415   3.107  0.1324 -0.0697 -0.3879
 3974ntf    cn120716   6.955   3.837   7.086  0.1537 -0.3061 -0.1020
 3974ntf    sn220717   6.995   4.015   7.084  0.0401 -0.2747  0.3553
 3974ntf    nn320718   6.996   4.044   6.930  0.3843  0.1189  0.4301
 3974ntf    sn220719   7.051   4.166   6.848 -0.0490 -0.1333 -0.2439
 3974ntf    cn120720   6.895   4.253   6.812 -0.0477 -0.1312 -0.2445
 3974ntf    fn420721   6.850   3.813   7.010 -0.1287 -0.0225  0.1950
 3974ntf    fn420722   7.052   3.771   7.025  0.1685  0.0311 -0.4435
 3974ntf    fn420723   6.929   3.779   7.202 -0.3168  0.0053 -0.0505
 3974ntf    on520724   6.880   4.073   7.149 -0.0749  0.1057 -0.1872
 3974ntf    on520725   7.121   4.012   7.155 -0.0309 -0.2392  0.4825
 3974ntf    on520726   7.099   4.130   6.717 -0.6050  0.1186 -0.5168
 3974ntf    on520727   7.122   4.273   6.914  0.0356 -0.3846  0.0780
 3974ntf    fn420728   6.911   4.362   6.738  0.0240 -0.2879 -0.4618
 3974ntf    fn420729   6.809   4.168   6.758  0.3416 -0.5234 -0.2620
 3974ntf    fn420730   6.840   4.285   6.927  0.1219  0.1192 -0.2319
 3975ntf    cn120731   4.850   1.742   1.461  0.1803 -0.0175  0.3037
 3975ntf    sn220732   4.697   1.648   1.490 -0.0626  0.1522 -0.4135
 3975ntf    nn320733   4.613   1.761   1.559 -0.3294 -0.3827  0.1433
 3975ntf    sn220734   4.490   1.741   1.654 -0.4430  0.1388  0.1057
 3975ntf    cn120735   4.571   1.779   1.813  0.2905  0.2167 -0.2821
 3975ntf    fn420736   4.832   1.854   1.394 -0.2727 -0.2840 -0.0274
 3975ntf    fn420737   4.906   1.777   1.576  0.1837  0.4277  0.1681
 3975ntf    fn420738   4.950   1.685   1.396  0.2751  0.5474 -0.0499
 3975ntf    on520739   4.653   1.611   1.358  0.1567 -0.2583 -0.3720
 3975ntf    on520740   4.738   1.541   1.577  0.2450  0.6271  0.0309
 3975ntf    on520741   4.457   1.603   1.676  0.0388  0.0438  0.2350
 3975ntf    on520742   4.387   1.841   1.634 -0.0407  0.5690  0.1756
 3975ntf    fn420743   4.592   1.908   1.833 -0.1306  0.2329  0.0663
 3975ntf    fn420744   4.502   1.733   1.916  0.0251  0.9272 -0.1336
 3975ntf    fn420745   4.687   1.718   1.826  0.2148  0.2667  0.7179
 3976ntf    cn120746   5.056   6.805   2.059  0.0895  0.4474 -0.3386
 3976ntf    sn220747   5.116   6.950   2.152 -0.0630 -0.0453  0.5373
 3976ntf    nn320748   4.993   6.980   2.244 -0.1944 -0.0685  0.3691
 3976ntf    sn220749   4.966   7.119   2.311 -0.1009 -0.0661  0.4033
 3976ntf    cn120750   4.812   7.166   2.226  0.0762 -0.3175 -0.0590
 3976ntf    fn420751   4.947   6.835   1.991 -0.2924 -0.0273  0.0571
 3976ntf    fn420752   5.145   6.759   1.973  0.4849  0.1918  0.2025
 3976ntf    fn420753   5.026   6.704   2.139 -0.0399  0.3035 -0.5676
 3976ntf    on520754   5.232   6.909   2.228  0.1270 -0.0085  0.2693
 3976ntf    on520755   5.134   7.054   2.054  0.0128 -0.0617  0.5338
 3976ntf    on520756   5.069   7.218   2.293  0.2169 -0.5189 -0.3009
 3976ntf    on520757   4.922   7.105   2.447  0.5119  0.0316  0.6145
 3976ntf    fn420758   4.837   7.172   2.096  0.2000 -0.3931 -0.0391
 3976ntf    fn420759   4.717   7.075   2.238 -0.1588 -0.0129  0.4166
 3976ntf    fn420760   4.766   7.286   2.259  0.1640 -0.0896 -0.7514
 3977ntf    cn120761   4.955   0.372   6.744  0.0974  0.1702 -0.1419
 3977ntf    sn220762   4.973   0.206   6.672 -0.0116  0.0561  0.0956
 3977ntf    nn320763   5.129   0.209   6.657 -0.0004 -0.0374  0.1830
 3977ntf    sn220764   5.215   0.119   6.561  0.1679  0.2594  0.0540
 3977ntf    cn120765   5.283   0.238   6.442 -0.2984  0.2220 -0.2520
 3977ntf    fn420766   5.008   0.461   6.661  0.3528 -0.0152 -0.1795
 3977ntf    fn420767   4.827   0.407   6.748 -0.0816 -0.4872 -0.0414
 3977ntf    fn420768   5.014   0.389   6.861 -0.0028  0.5181 -0.1419
 3977ntf    on520769   4.923   0.120   6.777  0.6904 -0.0665  0.3377
 3977ntf    on520770   4.901   0.212   6.548 -1.0606 -0.1487  0.6827
 3977ntf    on520771   5.142   0.024   6.480  0.1227  0.1363  0.2361
 3977ntf    on520772   5.331   0.066   6.628 -0.2944  0.0148  0.6727
 3977ntf    fn420773   5.187   0.315   6.393 -0.3699  0.3682  0.1107
 3977ntf    fn420774   5.374   0.317   6.496 -0.2177  0.4840 -0.7669
 3977ntf    fn420775   5.347   0.183   6.341 -0.2217 -0.3735  0.1170
 3978ntf    cn120776   0.025   6.339   2.701  0.3287  0.1245 -0.0579
 3978ntf    sn220777  -0.008   6.234   2.556 -0.1833  0.0939  0.0829
 3978ntf    nn320778   0.083   6.110   2.589 -0.0808  0.2230  0.2885
 3978ntf    sn220779   0.034   5.972   2.644  0.0220 -0.0608 -0.3311
 3978ntf    cn120780   0.167   5.930   2.760 -0.0110 -0.1071 -0.3097
 3978ntf    fn420781   0.153   6.370   2.720  0.4388 -0.3794  0.0277
 3978ntf    fn420782  -0.043   6.452   2.699  0.1840  0.0397  0.1794
 3978ntf    fn420783  -0.018   6.280   2.811 -0.4724 -0.0972 -0.4865
 3978ntf    on520784  -0.152   6.226   2.551 -0.1635  0.0663 -0.4492
 3978ntf    on520785   0.051   6.312   2.450  0.2846  0.1034  0.3483
 3978ntf    on520786   0.053   5.864   2.550 -0.0595 -0.1818 -0.2106
 3978ntf    on520787  -0.081   5.968   2.731  0.0032  0.4555 -0.3341
 3978ntf    fn420788   0.281   5.913   2.696  0.4270  0.1358  0.3940
 3978ntf    fn420789   0.193   6.026   2.848 -0.3217 -0.2197 -0.0940
 3978ntf    fn420790   0.150   5.815   2.822  0.6345 -0.0215  0.0347
 3979ntf    cn120791   0.350   4.156   5.329 -0.1773  0.3169 -0.2052
 3979ntf    sn220792   0.318   4.128   5.153 -0.0217 -0.1094 -0.1686
 3979ntf    nn320793   0.190   4.219   5.136  0.3446  0.3441 -0.5285
 3979ntf    sn220794   0.053   4.184   5.068  0.3453 -0.2805 -0.2125
 3979ntf    cn120795  -0.048   4.161   5.217  0.4203 -0.1299 -0.1383
 3979ntf    fn420796   0.377   4.283   5.356  0.2227  0.2073 -0.0683
 3979ntf    fn420797   0.249   4.114   5.403  0.0596  0.5145  0.2357
 3979ntf    fn420798   0.452   4.081   5.369 -0.2177  0.1706 -0.3792
 3979ntf    on520799   0.439   4.178   5.093 -0.0551 -0.0642 -0.1990
 3979ntf    on520800   0.291   3.987   5.143  0.5375 -0.1839 -0.6421
 3979ntf    on520801   0.026   4.060   5.000 -0.4606 -0.1425 -0.1445
 3979ntf    on520802  -0.005   4.303   5.012  1.0443  0.1839  0.0380
 3979ntf    fn420803  -0.021   4.042   5.269  0.2863 -0.1225 -0.0504
 3979ntf    fn420804  -0.020   4.243   5.317  0.4792 -0.1159 -0.1662
 3979ntf    fn420805  -0.179   4.164   5.200  0.3888  0.0561  0.1357
 3980ntf    cn120806   2.662   1.866   2.972  0.2788 -0.5165  0.1745
 3980ntf    sn220807   2.483   1.886   2.953  0.2939 -0.5375  0.0091
 3980ntf    nn320808   2.434   1.872   3.101  0.3296  0.0242  0.0761
 3980ntf    sn220809   2.321   1.944   3.183  0.1996 -0.0735 -0.0164
 3980ntf    cn120810   2.430   2.068   3.259  0.0647  0.2054 -0.2774
 3980ntf    fn420811   2.710   1.948   3.065 -0.6807  0.5729 -0.2668
 3980ntf    fn420812   2.685   1.740   3.004 -0.0360 -0.5182  0.3985
 3980ntf    fn420813   2.727   1.897   2.861 -0.1083 -0.4057 -0.0193
 3980ntf    on520814   2.458   2.017   2.897 -0.1276 -0.6032  0.0407
 3980ntf    on520815   2.448   1.769   2.877  0.2729 -0.3114 -0.3305
 3980ntf    on520816   2.277   1.869   3.298 -0.1730  0.6159  0.2973
 3980ntf    on520817   2.223   2.020   3.109 -0.0911  0.0715  0.5115
 3980ntf    fn420818   2.480   2.016   3.369 -0.0637 -0.1917 -0.4061
 3980ntf    fn420819   2.536   2.103   3.188  0.0449 -0.3722 -0.5997
 3980ntf    fn420820   2.374   2.182   3.295 -0.5921 -0.0226 -0.5522
 3981ntf    cn120821   0.976   5.982   0.201  0.4020 -0.2678  0.2357
 3981ntf    sn220822   0.861   6.070   0.091  0.3109 -0.1389  0.4338
 3981ntf    nn320823   0.721   6.028   0.147  0.0219  0.2821  0.0304
 3981ntf    sn220824   0.584   6.039   0.070  0.1690 -0.1264 -0.2898
 3981ntf    cn120825   0.555   5.862   0.041 -0.2082 -0.1502  0.2174
 3981ntf    fn420826   0.952   6.013   0.327  0.1887 -0.6955  0.3018
 3981ntf    fn420827   0.962   5.851   0.192 -0.4752 -0.1607 -0.0444
 3981ntf    fn420828   1.104   6.011   0.178  0.2967 -0.3863 -0.5187
 3981ntf    on520829   0.891   6.207   0.120  0.4630 -0.0743 -0.0072
 3981ntf    on520830   0.879   6.030  -0.047 -0.5536  0.1849  0.2241
 3981ntf    on520831   0.581   6.096  -0.063  0.0591 -0.1127 -0.2813
 3981ntf    on520832   0.470   6.075   0.150  0.2956 -0.0104 -0.1622
 3981ntf    fn420833   0.533   5.793   0.151 -0.4644  0.0242  0.2752
 3981ntf    fn420834   0.439   5.852  -0.021 -0.0546 -0.0874 -0.0844
 3981ntf    fn420835   0.645   5.808  -0.041  0.0571  0.3888  0.1478
 3982ntf    cn120836   5.771   2.685   1.303  0.1092 -0.1830  0.0505
 3982ntf    sn220837   5.892   2.566   1.237  0.1071 -0.1358 -0.0381
 3982ntf    nn320838   5.989   2.661   1.160  0.3668 -0.1328  0.2913
 3982ntf    sn220839   6.026   2.684   1.009  0.0202 -0.3803  0.1692
 3982ntf    cn120840   6.208   2.672   1.009  0.0431 -0.0602 -0.1465
 3982ntf    fn420841   5.703   2.745   1.206  0.5989 -0.1136 -0.2529
 3982ntf    fn420842   5.685   2.621   1.381  0.0591 -0.5390 -0.2954
 3982ntf    fn420843   5.832   2.781   1.371  0.2183  0.0211 -0.3363
 3982ntf    on520844   5.954   2.502   1.350 -0.3402 -0.5628 -0.0290
 3982ntf    on520845   5.817   2.483   1.147  0.3079 -0.9077  0.4959
 3982ntf    on520846   6.007   2.820   0.967  1.2318 -0.3009 -0.1688
 3982ntf    on520847   5.988   2.580   0.917 -0.3502 -0.1627  0.0757
 3982ntf    fn420848   6.252   2.725   1.122  0.3631 -0.1339 -0.2362
 3982ntf    fn420849   6.258   2.550   1.006  0.0019 -0.0954  0.4475
 3982ntf    fn420850   6.266   2.734   0.908  0.1803 -0.2095 -0.1585
 3983ntf    cn120851   3.927   5.584   1.559  0.3046  0.1386 -0.4799
 3983ntf    sn220852   3.804   5.714   1.531  0.0302  0.0506  0.3072
 3983ntf    nn320853   3.818   5.788   1.669 -0.4188  0.6400  0.0438
 3983ntf    sn220854   3.763   5.749   1.810 -0.1151 -0.1783 -0.0603
 3983ntf    cn120855   3.732   5.918   1.869  0.1556 -0.1342 -0.0433
 3983ntf    fn420856   3.936   5.501   1.456  0.2914 -0.3820 -0.0690
 3983ntf    fn420857   4.049   5.629   1.585  0.3316 -0.1512 -0.1019
 3983ntf    fn420858   3.896   5.506   1.661  0.3251  0.5991 -0.1188
 3983ntf    on520859   3.862   5.790   1.423 -0.4617  0.1894  0.1344
 3983ntf    on520860   3.672   5.661   1.506  0.0646  0.1422 -0.0681
 3983ntf    on520861   3.874   5.704   1.890 -0.1283 -0.3211 -0.1216
 3983ntf    on520862   3.640   5.673   1.813 -0.3105  0.1443  0.2266
 3983ntf    fn420863   3.734   5.926   2.001  0.2668  0.4548 -0.0780
 3983ntf    fn420864   3.823   6.003   1.824 -0.1900  0.1728 -0.1666
 3983ntf    fn420865   3.614   5.974   1.848 -0.0379 -0.4974  0.0642
 3984ntf    cn120866   6.278   0.514   3.206  0.2415  0.1428 -0.0983
 3984ntf    sn220867   6.377   0.650   3.277  0.1628  0.1257  0.0461
 3984ntf    nn320868   6.484   0.677   3.166  0.2670  0.5487  0.2503
 3984ntf    sn220869   6.487   0.787   3.054 -0.1886  0.1373 -0.1685
 3984ntf    cn120870   6.608   0.899   3.131 -0.1550  0.2311 -0.3545
 3984ntf    fn420871   6.343   0.403   3.175 -0.3538 -0.1882 -0.1733
 3984ntf    fn420872   6.187   0.484   3.297  0.6146  0.0087  0.2346
 3984ntf    fn420873   6.211   0.557   3.100 -0.7562  0.1767  0.5320
 3984ntf    on520874   6.279   0.753   3.303  0.0115 -0.0684  0.2517
 3984ntf    on520875   6.433   0.591   3.396 -0.0980 -0.3483 -0.0634
 3984ntf    on520876   6.374   0.874   3.031 -0.3298 -0.1069 -0.4088
 3984ntf    on520877   6.555   0.751   2.931  0.4196  0.2849  0.1199
 3984ntf    fn420878   6.630   1.001   3.050  0.1097  0.1096 -0.4379
 3984ntf    fn420879   6.581   0.947   3.251  0.1101  0.2552 -0.3043
 3984ntf    fn420880   6.723   0.836   3.150 -0.5179 -0.1088  0.7835
 3985ntf    cn120881   0.100   3.450   6.543  0.2825 -0.2693 -0.0875
 3985ntf    sn220882   0.040   3.583   6.435 -0.1783 -0.0619  0.4244
 3985ntf    nn320883   0.148   3.587   6.321 -0.8199  0.0250 -0.1885
 3985ntf    sn220884   0.183   3.492   6.201  0.3085  0.0566  0.1078
 3985ntf    cn120885   0.127   3.613   6.077 -0.1299 -0.0756  0.1746
 3985ntf    fn420886   0.090   3.332   6.484  0.4228 -0.2182 -0.2169
 3985ntf    fn420887   0.228   3.466   6.575  0.1462 -0.2513  0.4491
 3985ntf    fn420888   0.039   3.443   6.660  0.3974  0.1183 -0.0021
 3985ntf    on520889  -0.085   3.527   6.389 -0.1840  0.4648 -0.2208
 3985ntf    on520890   0.043   3.702   6.518 -0.1848  0.1113  0.1779
 3985ntf    on520891   0.094   3.382   6.174 -0.3468  0.6956 -0.3766
 3985ntf    on520892   0.324   3.481   6.175  0.2156 -0.0360 -0.3680
 3985ntf    fn420893   0.010   3.665   6.107 -0.1274  0.0820 -0.0841
 3985ntf    fn420894   0.207   3.718   6.063 -0.5466  0.2712  0.3718
 3985ntf    fn420895   0.121   3.556   5.958 -0.1802  0.3160 -0.0139
 3986ntf    cn120896   4.425   2.217   6.230  0.2531  0.1476  0.1610
 3986ntf    sn220897   4.508   2.376   6.263  0.3193  0.1803 -0.1621
 3986ntf    nn320898   4.408   2.422   6.374 -0.2625 -0.4643 -0.4063
 3986ntf    sn220899   4.282   2.515   6.367  0.0515  0.0136  0.1691
 3986ntf    cn120900   4.376   2.668   6.393  0.0775  0.0079  0.1078
 3986ntf    fn420901   4.417   2.145   6.340  0.6652 -0.0847  0.0396
 3986ntf    fn420902   4.303   2.229   6.180  0.1819 -0.4602  0.1890
 3986ntf    fn420903   4.503   2.153   6.145 -0.4217 -0.2084 -0.2024
 3986ntf    on520904   4.637   2.343   6.319  0.3014  0.5989  0.1226
 3986ntf    on520905   4.515   2.447   6.138  0.9735 -0.4216 -0.4786
 3986ntf    on520906   4.190   2.505   6.478  0.3003  0.0794  0.3822
 3986ntf    on520907   4.220   2.534   6.239  0.3354  0.5640  0.1109
 3986ntf    fn420908   4.439   2.661   6.509  0.3582 -0.3053 -0.0601
 3986ntf    fn420909   4.462   2.697   6.296 -0.0790  0.1295  0.0056
 3986ntf    fn420910   4.294   2.772   6.397  0.0844  0.0176  0.0069
 3987ntf    cn120911   6.157   1.215   3.130  0.2494  0.1954  0.3015
 3987ntf    sn220912   6.138   1.299   3.291 -0.1536  0.2676  0.2166
 3987ntf    nn320913   5.986   1.341   3.286 -0.3234 -0.3980 -0.5628
 3987ntf    sn220914   5.917   1.457   3.206 -0.2333  0.1115  0.0871
 3987ntf    cn120915   5.803   1.364   3.099  0.0359  0.2053 -0.2805
 3987ntf    fn420916   6.189   1.300   3.033 -0.0029  0.0418  0.0827
 3987ntf    fn420917   6.258   1.131   3.122  0.0416 -0.0190 -0.1080
 3987ntf    fn420918   6.050   1.148   3.091 -0.0077  0.4480  0.5563
 3987ntf    on520919   6.164   1.191   3.382 -0.0438 -0.0890 -0.2302
 3987ntf    on520920   6.233   1.407   3.290  0.2603 -0.0927 -0.4591
 3987ntf    on520921   5.999   1.530   3.112 -0.3471  0.4203  0.2259
 3987ntf    on520922   5.818   1.533   3.278 -0.3076  0.0493  0.0508
 3987ntf    fn420923   5.852   1.245   3.070 -0.0647  0.1432 -0.1945
 3987ntf    fn420924   5.691   1.333   3.161  0.2113  0.3916  0.1347
 3987ntf    fn420925   5.764   1.426   2.988 -0.4830  0.1497 -0.1293
 3988ntf    cn120926   6.516   1.480   5.367  0.3051  0.0423 -0.5495
 3988ntf    sn220927   6.617   1.392   5.490  0.0713  0.2381 -0.2124
 3988ntf    nn320928   6.515   1.279   5.529  0.3701  0.0336 -0.0177
 3988ntf    sn220929   6.474   1.264   5.680 -0.2065 -0.0022 -0.1755
 3988ntf    cn120930   6.636   1.226   5.752 -0.2719  0.4272  0.1985
 3988ntf    fn420931   6.421   1.547   5.431  0.3559  0.0013 -0.4293
 3988ntf    fn420932   6.591   1.568   5.303  0.6114  0.1069 -0.1025
 3988ntf    fn420933   6.459   1.401   5.278 -0.2193 -0.0955 -0.0953
 3988ntf    on520934   6.726   1.343   5.409 -0.0511 -0.1548 -0.1455
 3988ntf    on520935   6.644   1.497   5.584  0.2428  0.2446 -0.2699
 3988ntf    on520936   6.398   1.142   5.699  0.4306 -0.1867  1.3365
 3988ntf    on520937   6.421   1.379   5.749  0.3460  0.3535 -0.3389
 3988ntf    fn420938   6.698   1.329   5.808 -0.6433  0.4217  0.6211
 3988ntf    fn420939   6.620   1.138   5.849  0.3157  0.3643  0.2416
 3988ntf    fn420940   6.718   1.172   5.663  0.0234  0.0057  0.7263
 3989ntf    cn120941   5.741   4.369   2.480  0.3304 -0.1202  0.0236
 3989ntf    sn220942   5.750   4.378   2.299  0.1457  0.1166  0.0256
 3989ntf    nn320943   5.904   4.391   2.274  0.1633  0.7905  0.4730
 3989ntf    sn220944   6.012   4.281   2.243 -0.4716  0.3058 -0.0329
 3989ntf    cn120945   6.020   4.301   2.062 -0.0214  0.0658 -0.0409
 3989ntf    fn420946   5.620   4.333   2.520  0.5108 -0.6151  0.1299
 3989ntf    fn420947   5.832   4.292   2.537  0.1368 -0.0213  0.4702
 3989ntf    fn420948   5.760   4.487   2.538  0.1857 -0.1244  0.0824
 3989ntf    on520949   5.684   4.258   2.253 -0.4265  0.1661  0.6919
 3989ntf    on520950   5.684   4.501   2.264 -0.0333 -0.1429 -0.5653
 3989ntf    on520951   5.974   4.143   2.262  0.5903  0.0259  0.1138
 3989ntf    on520952   6.140   4.329   2.288 -0.0875 -0.3715 -0.3968
 3989ntf    fn420953   6.078   4.415   2.030  0.1684  0.1888  0.7268
 3989ntf    fn420954   6.089   4.204   2.005 -0.3157 -0.0267 -0.2417
 3989ntf    fn420955   5.899   4.299   2.009 -0.0523  0.2568  0.0219
 3990ntf    cn120956   3.599   3.717   3.234 -0.3549 -0.0143  0.1789
 3990ntf    sn220957   3.541   3.885   3.272 -0.1317  0.1598 -0.2402
 3990ntf    nn320958   3.605   3.902   3.415 -0.3927  0.0483 -0.1093
 3990ntf    sn220959   3.549   3.890   3.561  0.0809  0.1214  0.0784
 3990ntf    cn120960   3.701   3.858   3.655 -0.0583  0.1276  0.3067
 3990ntf    fn420961   3.547   3.673   3.120 -0.3497  0.5125 -0.0294
 3990ntf    fn420962   3.731   3.713   3.223 -0.3473 -0.1011  0.2999
 3990ntf    fn420963   3.566   3.629   3.327 -0.0406 -0.5608 -0.2198
 3990ntf    on520964   3.612   3.972   3.182  0.5148 -0.6310 -0.5086
 3990ntf    on520965   3.398   3.869   3.271 -0.1518  0.3084  0.0664
 3990ntf    on520966   3.471   3.771   3.580  0.2020 -0.0269 -0.3500
 3990ntf    on520967   3.500   4.013   3.619 -0.1245  0.0888 -0.0242
 3990ntf    fn420968   3.680   3.852   3.785  0.0458  0.3051  0.3331
 3990ntf    fn420969   3.760   3.744   3.623 -0.1726  0.2547 -0.3722
 3990ntf    fn420970   3.793   3.952   3.634  0.3950 -0.3390  0.1814
 3991ntf    cn120971   0.210   5.826   5.962  0.0208  0.1931 -0.2342
 3991ntf    sn220972   0.364   5.739   6.005 -0.1225  0.0151 -0.0820
 3991ntf    nn320973   0.366   5.761   6.160 -0.3171 -0.7601  0.0324
 3991ntf    sn220974   0.411   5.673   6.282 -0.0912  0.0108  0.5127
 3991ntf    cn120975   0.244   5.611   6.318  0.0205 -0.5775  0.0374
 3991ntf    fn420976   0.226   5.955   5.988 -0.0805  0.0794  0.3998
 3991ntf    fn420977   0.170   5.822   5.836  0.4630 -0.3695 -0.3631
 3991ntf    fn420978   0.115   5.780   6.041 -0.1599  0.0621 -0.5280
 3991ntf    on520979   0.356   5.603   5.959 -0.3028  0.0140 -0.0478
 3991ntf    on520980   0.475   5.809   5.946 -0.5011  0.1263 -0.6667
 3991ntf    on520981   0.444   5.753   6.398 -0.5370  0.4877  0.3143
 3991ntf    on520982   0.502   5.563   6.259 -0.5476 -0.3567  0.4545
 3991ntf    fn420983   0.164   5.708   6.359  0.3225 -0.4691  0.3727
 3991ntf    fn420984   0.184   5.549   6.217  0.5438 -0.3223 -0.4382
 3991ntf    fn420985   0.244   5.527   6.420  0.1586  0.1150  0.6186
 3992ntf    cn120986   3.566   3.670   0.168  0.0888 -0.2996 -0.1194
 3992ntf    sn220987   3.480   3.666   0.008 -0.0726  0.1409 -0.0455
 3992ntf    nn320988   3.470   3.818  -0.029  0.0549  0.1385 -0.0910
 3992ntf    sn220989   3.544   3.897  -0.142  0.0998  0.5746  0.2393
 3992ntf    cn120990   3.682   3.959  -0.041  0.3323  0.2367  0.1322
 3992ntf    fn420991   3.487   3.730   0.256  0.2980  0.0720 -0.1807
 3992ntf    fn420992   3.596   3.552   0.219 -0.1460 -0.3195 -0.0290
 3992ntf    fn420993   3.672   3.750   0.167  0.0303 -0.2167  0.2118
 3992ntf    on520994   3.557   3.583  -0.081 -0.0600 -0.4523  0.5125
 3992ntf    on520995   3.353   3.617   0.054  0.1872  0.0269  0.5555
 3992ntf    on520996   3.474   4.019  -0.175 -0.0630  0.5922  0.6416
 3992ntf    on520997   3.600   3.824  -0.253 -0.4424  0.3249  0.1297
 3992ntf    fn420998   3.635   4.028   0.062 -0.4897  0.0958 -0.1423
 3992ntf    fn420999   3.762   3.869   0.013 -0.2929 -0.1266  0.4676
 3992ntf    fn421000   3.759   4.041  -0.110  0.0350  0.0836 -0.3891
 3993ntf    cn121001   2.379   2.707   5.205 -0.0589  0.0161 -0.0702
 3993ntf    sn221002   2.491   2.841   5.153 -0.0404 -0.0742 -0.2656
 3993ntf    nn321003   2.621   2.755   5.170  0.2549  0.4794  0.3105
 3993ntf    sn221004   2.680   2.654   5.065 -0.1037  0.0350  0.5364
 3993ntf    cn121005   2.794   2.766   4.979 -0.2728 -0.3356 -0.1806
 3993ntf    fn421006   2.415   2.669   5.326  0.3159 -0.1189 -0.2242
 3993ntf    fn421007   2.256   2.755   5.221 -0.2288 -0.4118 -0.0947
 3993ntf    fn421008   2.381   2.610   5.115  0.1140  0.1705 -0.2333
 3993ntf    on521009   2.457   2.877   5.018  0.2847 -0.2463 -0.3941
 3993ntf    on521010   2.464   2.944   5.250 -0.5520 -0.6598  0.2273
 3993ntf    on521011   2.596   2.600   4.961  0.2520  0.3571  0.0798
 3993ntf    on521012   2.763   2.556   5.131 -0.3700 -0.5831 -0.0284
 3993ntf    fn421013   2.737   2.874   4.928 -0.1899 -0.3953 -0.4019
 3993ntf    fn421014   2.896   2.805   5.054 -0.1677 -0.5427 -0.2133
 3993ntf    fn421015   2.848   2.704   4.875  0.2046  0.2762 -0.3072
 3994ntf    cn121016   1.802   4.821   5.749 -0.1437 -0.1849  0.4681
 3994ntf    sn221017   1.940   4.777   5.639 -0.0807  0.0966  0.4335
 3994ntf    nn321018   1.886   4.648   5.568 -0.6558  0.4359  0.2471
 3994ntf    sn221019   1.898   4.598   5.419 -0.2756  0.2119  0.3498
 3994ntf    cn121020   1.727   4.640   5.373 -0.3336 -0.2753  0.1172
 3994ntf    fn421021   1.792   4.948   5.784  0.6468  0.1489 -0.4776
 3994ntf    fn421022   1.690   4.793   5.684  0.0311  0.1161  0.0314
 3994ntf    fn421023   1.799   4.746   5.857 -0.1508 -0.5655  0.2064
 3994ntf    on521024   1.954   4.889   5.550  0.0178 -0.4793 -0.2841
 3994ntf    on521025   2.046   4.748   5.732  0.1877 -0.1162  0.0634
 3994ntf    on521026   1.904   4.454   5.424 -0.3065  0.2106  0.3583
 3994ntf    on521027   1.979   4.680   5.333  0.5040 -0.5056  0.3935
 3994ntf    fn421028   1.706   4.770   5.385  0.3200 -0.1566  0.0235
 3994ntf    fn421029   1.702   4.612   5.246  0.2395  0.7455 -0.2278
 3994ntf    fn421030   1.637   4.568   5.439 -0.4455 -0.0468  0.2130
 3995ntf    cn121031   2.044   6.615   4.970 -0.1971 -0.0113 -0.0839
 3995ntf    sn221032   1.928   6.533   5.083 -0.0484 -0.1337 -0.0199
 3995ntf    nn321033   1.935   6.381   5.042 -0.2712 -0.2515  0.3643
 3995ntf    sn221034   1.863   6.302   4.928  0.0237 -0.3158  0.2213
 3995ntf    cn121035   1.704   6.257   5.004 -0.2798 -0.0596 -0.2521
 3995ntf    fn421036   2.160   6.551   4.970 -0.0423  0.2714 -0.0860
 3995ntf    fn421037   2.008   6.597   4.844 -0.7578  0.1030  0.0600
 3995ntf    fn421038   2.073   6.743   4.984  0.0806 -0.0618 -0.1917
 3995ntf    on521039   1.988   6.553   5.213  0.0503 -0.1908 -0.0565
 3995ntf    on521040   1.808   6.607   5.054  0.5921  0.7145 -0.5470
 3995ntf    on521041   1.925   6.174   4.903  0.2512 -0.1873  0.1223
 3995ntf    on521042   1.832   6.378   4.809  0.2914 -0.0433  0.3264
 3995ntf    fn421043   1.618   6.200   4.922 -0.1455  0.2028 -0.5788
 3995ntf    fn421044   1.716   6.180   5.111 -0.2914 -0.1892 -0.3443
 3995ntf    fn421045   1.637   6.365   5.043  0.1417  0.0571  0.1700
 3996ntf    cn121046   6.584   0.524   2.538  0.0539 -0.0545  0.5352
 3996ntf    sn221047   6.513   0.422   2.406  0.3267  0.3041  0.1074
 3996ntf    nn321048   6.611   0.449   2.286  0.2222  0.3275  0.0279
 3996ntf    sn221049   6.593   0.568   2.185 -0.5062  0.0696 -0.1539
 3996ntf    cn121050   6.508   0.481   2.050  0.0718  0.1027 -0.5387
 3996ntf    fn421051   6.701   0.481   2.584  0.1017 -0.3787  0.1194
 3996ntf    fn421052   6.605   0.651   2.505 -0.2844  0.0472  0.7121
 3996ntf    fn421053   6.495   0.538   2.634 -0.2301  0.8704  0.1539
 3996ntf    on521054   6.542   0.288   2.451  0.3122  0.3074  0.1264
 3996ntf    on521055   6.377   0.467   2.392  0.3742  0.3604 -0.1737
 3996ntf    on521056   6.723   0.596   2.129 -0.4673  0.0669 -0.0662
 3996ntf    on521057   6.497   0.672   2.216 -0.4653  0.1002 -0.1308
 3996ntf    fn421058   6.505   0.559   1.943  0.4013 -0.0879 -0.6880
 3996ntf    fn421059   6.562   0.366   2.013 -0.3317 -0.1050 -0.4843
 3996ntf    fn421060   6.386   0.448   2.087  0.1075  0.3195 -0.2185
 3997ntf    cn121061   2.862   3.219   1.593  0.0564  0.3494 -0.1117
 3997ntf    sn221062   2.970   3.209   1.739 -0.0841  0.2084 -0.0175
 3997ntf    nn321063   2.922   3.347   1.798 -0.0242  0.1384  0.1968
 3997ntf    sn221064   2.958   3.389   1.945  0.0478 -0.3089  0.3095
 3997ntf    cn121065   3.096   3.500   1.905 -0.4008 -0.0283 -0.4956
 3997ntf    fn421066   2.903   3.311   1.507 -0.0781  0.7571  0.2504
 3997ntf    fn421067   2.860   3.105   1.526  0.1115  0.4589 -0.3002
 3997ntf    fn421068   2.739   3.246   1.634  0.0259  0.1816 -0.0914
 3997ntf    on521069   2.930   3.087   1.804  0.5990 -0.2377 -0.4347
 3997ntf    on521070   3.100   3.219   1.679 -0.0034  0.2522  0.1628
 3997ntf    on521071   3.029   3.298   2.030 -0.0881 -1.0858 -0.3933
 3997ntf    on521072   2.857   3.473   2.005 -0.3097 -0.2445 -0.3714
 3997ntf    fn421073   3.190   3.445   1.831 -0.2435 -0.0311 -0.2963
 3997ntf    fn421074   3.052   3.603   1.835 -0.6148  0.0720 -0.2150
 3997ntf    fn421075   3.155   3.547   2.014 -0.2431 -0.4865 -0.3846
 3998ntf    cn121076   4.550   2.738   1.058 -0.0260 -0.1993 -0.0001
 3998ntf    sn221077   4.700   2.839   1.071 -0.0423 -0.1738 -0.0065
 3998ntf    nn321078   4.796   2.749   1.157  0.1610 -0.1316 -0.1900
 3998ntf    sn221079   4.794   2.732   1.313 -0.2568 -0.1067 -0.1936
 3998ntf    cn121080   4.927   2.846   1.360 -0.3776 -0.1746  0.3251
 3998ntf    fn421081   4.466   2.777   0.963 -0.0679  0.5881  0.3512
 3998ntf    fn421082   4.572   2.609   1.041  0.1706 -0.1570 -0.0580
 3998ntf    fn421083   4.486   2.750   1.173  0.0671  0.6538 -0.0286
 3998ntf    on521084   4.743   2.857   0.935 -0.2902  0.2923 -0.0257
 3998ntf    on521085   4.649   2.958   1.135 -0.4359 -0.4070  0.1131
 3998ntf    on521086   4.847   2.607   1.359 -0.4523 -0.0100  0.3025
 3998ntf    on521087   4.678   2.776   1.388  0.2055  0.2859  0.2946
 3998ntf    fn421088   4.891   2.968   1.321  0.1477 -0.0898  0.0815
 3998ntf    fn421089   4.962   2.854   1.487  0.1470 -0.5233  0.2084
 3998ntf    fn421090   5.042   2.818   1.301 -0.1105  0.9623  0.2841
 3999ntf    cn121091   6.282   0.007   4.404  0.2876 -0.5945  0.6536
 3999ntf    sn221092   6.444   0.083   4.374 -0.1104  0.0531  0.0892
 3999ntf    nn321093   6.493   0.126   4.517  0.0661 -0.4709  0.1883
 3999ntf    sn221094   6.410   0.180   4.638  0.2563 -0.2040  0.2020
 3999ntf    cn121095   6.550   0.234   4.740  0.3028 -0.0956  0.0798
 3999ntf    fn421096   6.197   0.084   4.471  0.0566 -0.3488  0.0935
 3999ntf    fn421097   6.226  -0.024   4.288  0.2531  0.1739  0.4593
 3999ntf    fn421098   6.287  -0.108   4.469  0.8480 -0.8744  0.1280
 3999ntf    on521099   6.526  -0.022   4.318  0.2115  0.4084 -0.1093
 3999ntf    on521100   6.417   0.196   4.290 -0.3222  0.1360  0.2682
 3999ntf    on521101   6.338   0.081   4.716  0.1037 -0.5008 -0.3109
 3999ntf    on521102   6.340   0.302   4.609  0.0749 -0.3508  0.0181
 3999ntf    fn421103   6.611   0.130   4.794 -0.1326 -0.4047 -0.0165
 3999ntf    fn421104   6.633   0.313   4.674 -0.0751 -0.0556 -0.3514
 3999ntf    fn421105   6.510   0.301   4.847 -0.1641 -0.1463 -0.0603
 4000ntf    cn121106   2.017   3.335   6.474 -0.4095  0.2289 -0.1573
 4000ntf    sn221107   2.156   3.219   6.458 -0.5934  0.0296 -0.3143
 4000ntf    nn321108   2.256   3.309   6.378  0.5300 -0.9401 -0.0318
 4000ntf    sn221109   2.373   3.395   6.438  0.1248 -0.2440 -0.2300
 4000ntf    cn121110   2.518   3.303   6.377  0.0196 -0.3864 -0.2663
 4000ntf    fn421111   1.947   3.337   6.362 -0.2711  0.3125 -0.2427
 4000ntf    fn421112   1.950   3.288   6.579 -0.1255 -0.0291 -0.0901
 4000ntf    fn421113   2.058   3.457   6.503  0.0526  0.0570 -0.0787
 4000ntf    on521114   2.191   3.172   6.590 -0.6258 -0.2218 -0.3942
 4000ntf    on521115   2.100   3.116   6.374 -0.3454 -0.5324  0.1978
 4000ntf    on521116   2.396   3.378   6.579 -0.0761 -0.1181 -0.1805
 4000ntf    on521117   2.387   3.529   6.385  0.1468 -0.0615  0.2355
 4000ntf    fn421118   2.509   3.176   6.411  0.7817 -0.3892 -0.0560
 4000ntf    fn421119   2.539   3.300   6.247  1.0617  0.6409 -0.1408
 4000ntf    fn421120   2.628   3.348   6.435  0.0479  0.0612 -0.6652
 4001ntf    cn121121   4.756   1.696   3.391 -0.2326 -0.0544  0.0079
 4001ntf    sn221122   4.893   1.665   3.507 -0.1154  0.1086 -0.0873
 4001ntf    nn321123   4.943   1.811   3.535 -0.1130  0.0796  0.0573
 4001ntf    sn221124   5.063   1.881   3.463  0.0163 -0.0832  0.1149
 4001ntf    cn121125   5.200   1.846   3.577 -0.0762 -0.2761  0.1672
 4001ntf    fn421126   4.794   1.767   3.286  0.4186 -0.1254  0.1907
 4001ntf    fn421127   4.691   1.587   3.354 -0.2692 -0.0181 -0.0357
 4001ntf    fn421128   4.671   1.766   3.463  0.5383  0.5737  0.3245
 4001ntf    on521129   4.822   1.612   3.620 -0.1938  0.4850  0.0403
 4001ntf    on521130   4.988   1.569   3.455 -0.3204 -0.0347 -0.2010
 4001ntf    on521131   5.059   2.025   3.462 -0.0787 -0.0856 -0.4392
 4001ntf    on521132   5.096   1.821   3.336 -0.0081  0.6306 -0.2332
 4001ntf    fn421133   5.199   1.724   3.629 -0.0061 -0.2210  0.2996
 4001ntf    fn421134   5.318   1.867   3.520 -0.1344 -0.1006  0.1101
 4001ntf    fn421135   5.202   1.931   3.679 -0.0530  0.1522 -0.1885
 4002ntf    cn121136   4.777   5.960   5.064 -0.0300 -0.0456  0.1053
 4002ntf    sn221137   4.718   6.048   4.917 -0.0040 -0.0600  0.0861
 4002ntf    nn321138   4.690   5.939   4.807 -0.1092  0.6382 -0.5859
 4002ntf    sn221139   4.558   5.864   4.766 -0.0868  0.2663  0.0148
 4002ntf    cn121140   4.499   5.954   4.620 -0.5826  0.5157  0.3696
 4002ntf    fn421141   4.740   6.018   5.177  0.1585  0.0293  0.1290
 4002ntf    fn421142   4.737   5.835   5.086  0.5506 -0.1886  0.3836
 4002ntf    fn421143   4.908   5.941   5.064 -0.0287 -0.0361  0.0440
 4002ntf    on521144   4.598   6.117   4.957 -0.1873 -0.5123  0.3256
 4002ntf    on521145   4.829   6.129   4.874  0.1250 -0.1793  0.1915
 4002ntf    on521146   4.453   5.869   4.865  0.2972 -0.1406  0.4494
 4002ntf    on521147   4.584   5.733   4.712 -0.0022  0.2591  0.0724
 4002ntf    fn421148   4.447   6.073   4.647 -0.7303  0.5913 -0.2309
 4002ntf    fn421149   4.592   5.982   4.530 -0.2932 -0.2477  0.4292
 4002ntf    fn421150   4.405   5.888   4.554  0.1392 -0.0386 -0.1109
 4003ntf    cn121151   1.970   3.836   2.092 -0.1058 -0.0465 -0.3131
 4003ntf    sn221152   2.138   3.902   2.104 -0.0564 -0.1480 -0.4515
 4003ntf    nn321153   2.207   3.805   2.207 -0.7208 -0.4166 -0.2548
 4003ntf    sn221154   2.221   3.815   2.363  0.1642  0.0355 -0.3545
 4003ntf    cn121155   2.379   3.903   2.376  0.0066  0.2365  0.2292
 4003ntf    fn421156   1.981   3.706   2.069  0.2949  0.0026 -0.3934
 4003ntf    fn421157   1.896   3.844   2.202 -0.3525 -0.3851 -0.4522
 4003ntf    fn421158   1.890   3.879   1.996 -0.3000 -0.1943 -0.2211
 4003ntf    on521159   2.201   3.893   1.974  0.5825  0.4193 -0.1878
 4003ntf    on521160   2.111   4.035   2.153 -0.1100 -0.0990 -0.6140
 4003ntf    on521161   2.243   3.686   2.424  0.0137  0.2662  0.1907
 4003ntf    on521162   2.121   3.901   2.421  0.3587 -0.0343  0.0932
 4003ntf    fn421163   2.390   4.013   2.303  0.1194  0.0639 -0.0171
 4003ntf    fn421164   2.394   3.936   2.504  0.2967  0.0387  0.2455
 4003ntf    fn421165   2.485   3.832   2.343  0.1138  0.6221 -0.2750
 4004ntf    cn121166   2.091   5.797   5.805  0.4481  0.3989 -0.3824
 4004ntf    sn221167   1.959   5.917   5.771 -0.1000 -0.0431  0.1752
 4004ntf    nn321168   1.838   5.818   5.782 -0.0616 -0.1195 -0.0990
 4004ntf    sn221169   1.767   5.740   5.666 -0.3978 -0.0399  0.0527
 4004ntf    cn121170   1.645   5.639   5.756 -0.3864  0.2330  0.3730
 4004ntf    fn421171   2.129   5.735   5.694 -0.0543  0.6524 -0.7013
 4004ntf    fn421172   2.201   5.850   5.857  0.2186  0.0307  0.4824
 4004ntf    fn421173   2.052   5.703   5.889  0.4710  0.5886 -0.1577
 4004ntf    on521174   1.969   6.006   5.885  0.0479 -0.0474  0.1652
 4004ntf    on521175   1.992   5.969   5.641  0.3715 -0.6401  0.0524
 4004ntf    on521176   1.851   5.644   5.598  0.0011  0.2546  0.1274
 4004ntf    on521177   1.689   5.824   5.579 -0.1702 -0.6455 -0.7529
 4004ntf    fn421178   1.706   5.559   5.842  0.1082  0.4295  0.2129
 4004ntf    fn421179   1.554   5.712   5.817 -0.4894  0.1598  0.3075
 4004ntf    fn421180   1.577   5.548   5.688  0.2794  0.1846 -0.2521
 4005ntf    cn121181   6.262   0.248   1.645 -0.1081  0.0167 -0.1174
 4005ntf    sn221182   6.323   0.079   1.618 -0.1192  0.0343 -0.2531
 4005ntf    nn321183   6.235   0.014   1.730  0.0167 -0.2816 -0.3287
 4005ntf    sn221184   6.091  -0.049   1.726 -0.0636 -0.1275  0.1226
 4005ntf    cn121185   6.133  -0.225   1.711 -0.3407 -0.1900  0.0804
 4005ntf    fn421186   6.299   0.333   1.550 -0.2422  0.0589 -0.1314
 4005ntf    fn421187   6.132   0.259   1.666  0.0277  0.4354  0.5324
 4005ntf    fn421188   6.306   0.302   1.757 -0.0970 -0.2632  0.0147
 4005ntf    on521189   6.292   0.050   1.480  0.4504 -0.1828 -0.3414
 4005ntf    on521190   6.464   0.095   1.648 -0.1270 -0.3414 -0.0082
 4005ntf    on521191   6.019  -0.014   1.607 -0.4246  0.6157  0.5513
 4005ntf    on521192   6.024  -0.038   1.854  0.7009  0.2630  0.5009
 4005ntf    fn421193   6.027  -0.302   1.696 -0.0612 -0.5851  0.1130
 4005ntf    fn421194   6.215  -0.249   1.610 -0.4454  0.0282 -0.0560
 4005ntf    fn421195   6.192  -0.279   1.817  0.0320  0.2150  0.0807
 4006ntf    cn121196   6.487   3.001   4.994 -0.1249  0.0486 -0.1533
 4006ntf    sn221197   6.538   2.962   4.823  0.0427  0.1573 -0.1291
 4006ntf    nn321198   6.434   2.851   4.785 -0.1288  0.3619 -0.2605
 4006ntf    sn221199   6.458   2.737   4.679  0.0356  0.2741 -0.1290
 4006ntf    cn121200   6.439   2.594   4.789  0.1699  0.1671 -0.2438
 4006ntf    fn421201   6.556   3.107   5.033 -0.1416 -0.0153  0.0490
 4006ntf    fn421202   6.361   3.040   4.995 -0.0861  0.1678  0.0902
 4006ntf    fn421203   6.505   2.897   5.073 -0.0863  0.5453  0.5025
 4006ntf    on521204   6.528   3.082   4.745  0.3117  0.2606 -0.0049
 4006ntf    on521205   6.672   2.910   4.829  0.1390  0.4725  0.5294
 4006ntf    on521206   6.593   2.721   4.630  0.3765  0.5696  0.6939
 4006ntf    on521207   6.354   2.729   4.580  0.0647  0.3605 -0.1676
 4006ntf    fn421208   6.499   2.607   4.906  0.1044 -0.5498 -0.1281
 4006ntf    fn421209   6.315   2.562   4.821  0.4166 -0.2322  0.3276
 4006ntf    fn421210   6.487   2.486   4.730  0.3455  0.1374 -0.0493
 4007ntf    cn121211   3.761   2.571   1.842  0.2655  0.0810  0.3678
 4007ntf    sn221212   3.580   2.581   1.846  0.2655  0.1330  0.2186
 4007ntf    nn321213   3.538   2.515   1.709 -0.0371 -0.0164  0.3818
 4007ntf    sn221214   3.428   2.560   1.607  0.2141  0.0997  0.1598
 4007ntf    cn121215   3.536   2.654   1.495  0.0874 -0.0019 -0.0490
 4007ntf    fn421216   3.817   2.652   1.754  0.2802 -0.1991  0.1191
 4007ntf    fn421217   3.814   2.600   1.960  0.2621  0.2104  0.3373
 4007ntf    fn421218   3.794   2.445   1.818 -0.3977  0.0573 -0.4408
 4007ntf    on521219   3.537   2.488   1.947  0.2374 -0.2046 -0.1000
 4007ntf    on521220   3.553   2.722   1.862 -0.2540  0.1101 -0.3919
 4007ntf    on521221   3.327   2.652   1.654 -0.1722 -0.3602  0.2404
 4007ntf    on521222   3.384   2.451   1.523  0.7584  0.1617 -0.2096
 4007ntf    fn421223   3.476   2.698   1.386  0.3168  0.0905 -0.1395
 4007ntf    fn421224   3.588   2.760   1.554  0.0198  0.1190 -0.2054
 4007ntf    fn421225   3.643   2.584   1.462 -0.0223 -0.0927 -0.2095
 4008ntf    cn121226   4.773   5.887   5.651  0.1789 -0.2321  0.2348
 4008ntf    sn221227   4.653   5.833   5.776 -0.0131 -0.1928  0.0687
 4008ntf    nn321228   4.657   5.960   5.868  0.2628 -0.2426  0.1269
 4008ntf    sn221229   4.771   6.004   5.967  0.0735 -0.0765  0.2712
 4008ntf    cn121230   4.699   5.944   6.123  0.2945 -0.0965  0.3658
 4008ntf    fn421231   4.769   5.805   5.548 -0.3054 -0.4906  0.4598
 4008ntf    fn421232   4.752   6.004   5.593  0.3419 -0.3423 -0.0486
 4008ntf    fn421233   4.896   5.897   5.698  0.2067  0.0007  0.1187
 4008ntf    on521234   4.525   5.824   5.711 -0.0292  0.2408  0.0399
 4008ntf    on521235   4.706   5.710   5.831  0.2623 -0.0531  0.1218
 4008ntf    on521236   4.776   6.147   5.980  0.0076 -0.0791  0.3320
 4008ntf    on521237   4.900   5.939   5.959  0.2460  0.3421 -0.3562
 4008ntf    fn421238   4.788   5.924   6.219  0.1487  0.0503  0.5346
 4008ntf    fn421239   4.603   6.025   6.165  0.3982  0.2945 -0.1473
 4008ntf    fn421240   4.639   5.831   6.091  0.2821  0.0490 -0.1316
 4009ntf    cn121241   2.329   5.641   0.067  0.0866  0.2892 -0.1119
 4009ntf    sn221242   2.218   5.533  -0.027 -0.2195  0.4356  0.0821
 4009ntf    nn321243   2.298   5.524  -0.161 -0.1239 -0.5438  0.1951
 4009ntf    sn221244   2.356   5.393  -0.226 -0.1021 -0.4531  0.0298
 4009ntf    cn121245   2.484   5.468  -0.331 -0.4952 -0.0433 -0.1617
 4009ntf    fn421246   2.343   5.762   0.014 -0.0819  0.3127 -0.1029
 4009ntf    fn421247   2.288   5.671   0.189 -0.0499  0.1374 -0.1215
 4009ntf    fn421248   2.451   5.589   0.073 -0.0233 -0.0005 -0.4337
 4009ntf    on521249   2.207   5.411   0.049  0.0550  0.1854 -0.2808
 4009ntf    on521250   2.105   5.623  -0.033 -0.9107 -0.4303 -0.1133
 4009ntf    on521251   2.272   5.327  -0.323  0.3445 -0.3736 -0.4116
 4009ntf    on521252   2.433   5.318  -0.131 -0.2387 -0.2422  0.3086
 4009ntf    fn421253   2.437   5.489  -0.453  0.3568 -0.0467 -0.4978
 4009ntf    fn421254   2.534   5.578  -0.276 -0.1248 -0.2978  0.0078
 4009ntf    fn421255   2.585   5.385  -0.344 -0.1054  0.4615 -0.4027
 4010ntf    cn121256   1.810   0.794   4.384 -0.0436  0.1425 -0.0433
 4010ntf    sn221257   1.737   0.660   4.285 -0.1896 -0.0307  0.2974
 4010ntf    nn321258   1.699   0.741   4.155  0.4622 -0.5656 -0.2356
 4010ntf    sn221259   1.572   0.719   4.065  0.0994  0.1327  0.0947
 4010ntf    cn121260   1.462   0.860   4.094 -0.1329 -0.0184 -0.0441
 4010ntf    fn421261   1.846   0.747   4.502  0.0465  0.8720  0.2248
 4010ntf    fn421262   1.915   0.849   4.325  0.0532 -0.1717 -0.1682
 4010ntf    fn421263   1.736   0.898   4.414 -0.1313  0.0654  0.0076
 4010ntf    on521264   1.848   0.570   4.266 -0.1832  0.0952 -0.3050
 4010ntf    on521265   1.632   0.613   4.372  0.0800 -0.6397  0.2997
 4010ntf    on521266   1.488   0.605   4.093 -0.3737  0.3796 -0.3105
 4010ntf    on521267   1.604   0.737   3.926 -0.0898  0.2593  0.0682
 4010ntf    fn421268   1.347   0.859   4.028 -0.0506 -0.0106 -0.1871
 4010ntf    fn421269   1.419   0.860   4.219 -0.3395  0.3837 -0.1126
 4010ntf    fn421270   1.525   0.974   4.070  0.4397 -0.3900 -0.3225
 4011ntf    cn121271   0.876   3.733   0.939  0.3095 -0.0727  0.1638
 4011ntf    sn221272   0.887   3.701   1.117 -0.1482 -0.1055  0.1875
 4011ntf    nn321273   0.860   3.547   1.101  0.5485 -0.1720 -0.3663
 4011ntf    sn221274   0.920   3.431   1.188  0.3529  0.2141  0.2907
 4011ntf    cn121275   1.035   3.359   1.066 -0.4355 -0.1839 -0.2269
 4011ntf    fn421276   0.968   3.667   0.870  0.5286 -0.0859  0.4664
 4011ntf    fn421277   0.759   3.696   0.888  0.2179 -0.1315  0.4157
 4011ntf    fn421278   0.882   3.863   0.917  0.0026 -0.1181 -0.2210
 4011ntf    on521279   1.021   3.737   1.156 -0.2011 -0.0614  0.3305
 4011ntf    on521280   0.778   3.774   1.178  0.0141 -0.0466  0.4066
 4011ntf    on521281   0.821   3.328   1.205  0.0953  0.4030 -0.0664
 4011ntf    on521282   1.000   3.475   1.300  0.1087  0.4626  0.3683
 4011ntf    fn421283   1.132   3.444   1.037 -0.2635 -0.4480 -0.4261
 4011ntf    fn421284   1.085   3.246   1.113 -0.1894 -0.0500 -0.1651
 4011ntf    fn421285   0.983   3.318   0.952  0.0295  0.0518 -0.5291
 4012ntf    cn121286   6.003   0.444   2.756  0.1281 -0.0809  0.0278
 4012ntf    sn221287   5.979   0.613   2.693  0.1070 -0.1162 -0.0594
 4012ntf    nn321288   5.825   0.615   2.662  0.0450 -0.0973  0.2437
 4012ntf    sn221289   5.717   0.677   2.758  0.0335  0.1868  0.0472
 4012ntf    cn121290   5.721   0.850   2.703 -0.3234  0.0380 -0.4554
 4012ntf    fn421291   5.991   0.354   2.660 -0.1366 -0.2055  0.1769
 4012ntf    fn421292   6.116   0.423   2.822  0.2343  0.6045  0.0654
 4012ntf    fn421293   5.913   0.417   2.849  0.3952  0.6326  0.4987
 4012ntf    on521294   6.030   0.703   2.794 -0.2159 -0.6200  0.5632
 4012ntf    on521295   6.056   0.603   2.572  0.1621  0.2912 -0.0588
 4012ntf    on521296   5.753   0.679   2.898 -0.1592  0.1893  0.0963
 4012ntf    on521297   5.583   0.636   2.723  0.1513 -0.4097  0.2771
 4012ntf    fn421298   5.833   0.912   2.739 -0.2058 -0.1356 -0.5212
 4012ntf    fn421299   5.705   0.860   2.572  0.0050 -0.7982 -0.5681
 4012ntf    fn421300   5.625   0.912   2.770  0.4668 -0.2478  0.9775
 4013ntf    cn121301   3.349   4.860   4.374  0.0410  0.1559 -0.1539
 4013ntf    sn221302   3.285   4.700   4.316 -0.1874  0.1329  0.1621
 4013ntf    nn321303   3.165   4.673   4.414  0.1172  0.1795  0.5520
 4013ntf    sn221304   3.012   4.707   4.406  0.1189  0.0499 -0.0591
 4013ntf    cn121305   2.959   4.534   4.395  0.3130 -0.0343  0.3189
 4013ntf    fn421306   3.430   4.918   4.287  0.3550 -0.0794 -0.0154
 4013ntf    fn421307   3.246   4.939   4.400 -0.0417  0.0962 -0.2975
 4013ntf    fn421308   3.416   4.843   4.486 -0.3403  0.5386  0.1347
 4013ntf    on521309   3.247   4.722   4.179  0.2502 -0.0041  0.0181
 4013ntf    on521310   3.397   4.611   4.340 -0.0798  0.2192 -0.0250
 4013ntf    on521311   2.968   4.769   4.283  0.5150  0.3613 -0.0467
 4013ntf    on521312   2.951   4.748   4.530  0.3459  0.2112  0.0008
 4013ntf    fn421313   2.827   4.517   4.393  0.2612  0.3832  0.2326
 4013ntf    fn421314   3.002   4.482   4.281 -0.6869 -0.0800 -0.0511
 4013ntf    fn421315   3.002   4.460   4.496 -0.0696  0.1932  0.6486
 4014ntf    cn121316   0.781   0.370   5.311 -0.2265  0.4653 -0.2971
 4014ntf    sn221317   0.892   0.502   5.370  0.0949  0.0533  0.0312
 4014ntf    nn321318   0.928   0.452   5.514  0.2914  0.0254 -0.0279
 4014ntf    sn221319   1.054   0.371   5.563  0.0107 -0.2255  0.2816
 4014ntf    cn121320   1.147   0.511   5.632 -0.2349  0.0485  0.0554
 4014ntf    fn421321   0.766   0.363   5.180  0.5034 -0.0989 -0.3601
 4014ntf    fn421322   0.816   0.251   5.357 -0.4791  0.3821 -0.3192
 4014ntf    fn421323   0.660   0.391   5.359 -0.0370  0.2185  0.3046
 4014ntf    on521324   0.997   0.517   5.273 -0.3763 -0.2732 -0.5352
 4014ntf    on521325   0.816   0.624   5.386  0.1513  0.0952 -0.0236
 4014ntf    on521326   1.132   0.326   5.450  0.0918  0.5959  0.0066
 4014ntf    on521327   1.029   0.284   5.675 -0.0547 -0.1802  0.3024
 4014ntf    fn421328   1.157   0.606   5.540  0.5225 -0.3241 -0.2553
 4014ntf    fn421329   1.086   0.563   5.737  0.1491 -0.4639  0.5299
 4014ntf    fn421330   1.272   0.480   5.662 -0.2136 -0.4604 -0.5373
 4015ntf    cn121331   4.328   6.377   1.298  0.1737  0.2465 -0.3716
 4015ntf    sn221332   4.441   6.469   1.189  0.0399  0.4432 -0.3459
 4015ntf    nn321333   4.336   6.564   1.123 -0.3171  0.3386  0.0708
 4015ntf    sn221334   4.355   6.661   1.001 -0.2190 -0.1968 -0.3449
 4015ntf    cn121335   4.257   6.588   0.867 -0.4841  0.0665 -0.2952
 4015ntf    fn421336   4.378   6.263   1.342 -0.3189  0.1972  0.0709
 4015ntf    fn421337   4.289   6.448   1.402  0.3347  0.0611 -0.1847
 4015ntf    fn421338   4.212   6.344   1.244  0.0814  0.1649 -0.1258
 4015ntf    on521339   4.533   6.530   1.282  0.2857 -0.1391 -0.1970
 4015ntf    on521340   4.497   6.367   1.104  0.4382  0.0350  0.3874
 4015ntf    on521341   4.488   6.669   0.946  0.0171 -0.8643  0.1184
 4015ntf    on521342   4.279   6.782   1.024  0.3308  0.0713  0.1073
 4015ntf    fn421343   4.134   6.635   0.878 -0.4440  0.0235  0.3399
 4015ntf    fn421344   4.309   6.631   0.753 -0.1115 -0.2106 -0.2312
 4015ntf    fn421345   4.259   6.456   0.857  0.8331  0.0385  0.0546
 4016ntf    cn121346   6.127   1.464   5.489 -0.1005 -0.0804 -0.1194
 4016ntf    sn221347   5.964   1.441   5.410 -0.1156 -0.3412 -0.0166
 4016ntf    nn321348   5.871   1.522   5.507  0.4152 -0.0343  0.2462
 4016ntf    sn221349   5.748   1.478   5.594  0.2933  0.0598  0.1225
 4016ntf    cn121350   5.806   1.529   5.759 -0.0725 -0.0137  0.2742
 4016ntf    fn421351   6.119   1.453   5.621  0.0122 -0.3717 -0.1360
 4016ntf    fn421352   6.218   1.377   5.448 -0.0966 -0.2365  0.2156
 4016ntf    fn421353   6.165   1.588   5.464  0.0239  0.0582  0.7316
 4016ntf    on521354   5.981   1.513   5.286  0.3938 -0.0149  0.2340
 4016ntf    on521355   5.948   1.298   5.402  0.6339 -0.4605  0.4417
 4016ntf    on521356   5.722   1.337   5.612  0.3184  0.0910  0.4173
 4016ntf    on521357   5.631   1.559   5.568  0.3887  0.1111 -0.1460
 4016ntf    fn421358   5.846   1.655   5.761 -0.2098  0.0283  0.4297
 4016ntf    fn421359   5.708   1.505   5.845  0.0058  0.1909  0.4205
 4016ntf    fn421360   5.908   1.451   5.790  0.0838  0.1321  0.1317
 4017ntf    cn121361   1.793   6.846   1.077  0.3608 -0.2040  0.3162
 4017ntf    sn221362   1.776   6.684   1.156  0.2025 -0.3395  0.0077
 4017ntf    nn321363   1.842   6.594   1.044  0.0497  0.0562 -0.4010
 4017ntf    sn221364   1.976   6.513   1.051 -0.2395 -0.4013 -0.1245
 4017ntf    cn121365   2.089   6.623   0.961 -0.2350  0.1042  0.4893
 4017ntf    fn421366   1.752   6.842   0.951  0.7588  0.0568  0.1765
 4017ntf    fn421367   1.726   6.947   1.131  0.2665 -0.0726 -0.0374
 4017ntf    fn421368   1.921   6.879   1.071  0.3571 -0.1499  0.5174
 4017ntf    on521369   1.848   6.702   1.280 -0.2324 -0.4840  0.2830
 4017ntf    on521370   1.633   6.666   1.160  0.1321  0.2134 -0.0215
 4017ntf    on521371   1.970   6.393   0.972  0.2662 -0.1690 -0.5134
 4017ntf    on521372   2.036   6.499   1.182 -0.1933 -0.3140 -0.1364
 4017ntf    fn421373   2.113   6.737   1.024  0.1395 -0.0001  0.5342
 4017ntf    fn421374   2.205   6.565   0.939 -0.4796 -0.3228  0.3188
 4017ntf    fn421375   2.033   6.660   0.847  0.2815 -0.4535  0.0535
 4018ntf    cn121376   2.494   0.294   1.917  0.1174  0.0701 -0.3789
 4018ntf    sn221377   2.578   0.426   2.009 -0.1859 -0.0919  0.1360
 4018ntf    nn321378   2.491   0.434   2.140 -0.0002 -0.2090  0.2668
 4018ntf    sn221379   2.347   0.495   2.151 -0.0365 -0.2237 -0.1154
 4018ntf    cn121380   2.264   0.342   2.205  0.1164 -0.2021  0.1806
 4018ntf    fn421381   2.376   0.336   1.876  0.0338  0.3871  0.1687
 4018ntf    fn421382   2.558   0.255   1.808 -0.2223 -1.0908 -0.1842
 4018ntf    fn421383   2.475   0.193   2.000 -0.7887  0.6749  0.1658
 4018ntf    on521384   2.707   0.374   2.044 -0.1873 -0.0897  0.1437
 4018ntf    on521385   2.570   0.542   1.923  0.3503 -0.3900 -0.3143
 4018ntf    on521386   2.288   0.548   2.030 -0.1987  0.0325  0.0746
 4018ntf    on521387   2.329   0.575   2.269  0.3865 -0.0166 -0.1903
 4018ntf    fn421388   2.142   0.369   2.247 -0.0710  0.0936 -0.5303
 4018ntf    fn421389   2.260   0.258   2.103 -0.1299  0.0612 -0.0291
 4018ntf    fn421390   2.328   0.282   2.303  0.0482 -0.2629  0.1880
 4019ntf    cn121391   5.411   6.078   1.669 -0.3068 -0.0454 -0.5170
 4019ntf    sn221392   5.341   6.072   1.501 -0.0869  0.1748 -0.6169
 4019ntf    nn321393   5.472   6.080   1.414  0.5100  0.6769  0.3085
 4019ntf    sn221394   5.512   6.183   1.303  0.2613  0.3164 -0.1182
 4019ntf    cn121395   5.586   6.317   1.400 -0.1908  0.6072 -0.1730
 4019ntf    fn421396   5.312   6.092   1.757 -0.1732  0.4179 -0.4369
 4019ntf    fn421397   5.468   5.962   1.694 -0.1954  0.1655  0.2432
 4019ntf    fn421398   5.494   6.181   1.682  0.2618 -0.5191 -0.3697
 4019ntf    on521399   5.283   5.941   1.495 -0.2317  0.1859  0.3330
 4019ntf    on521400   5.260   6.191   1.514  0.0206  0.1501  0.3472
 4019ntf    on521401   5.403   6.235   1.224  0.2376 -0.0650 -0.3398
 4019ntf    on521402   5.626   6.144   1.224  0.4231  0.2927  0.1230
 4019ntf    fn421403   5.634   6.420   1.332 -0.0244  0.3434 -0.4529
 4019ntf    fn421404   5.486   6.372   1.468  0.0426  0.5662  0.2051
 4019ntf    fn421405   5.679   6.281   1.487 -0.1285  0.5705 -0.2557
 4020ntf    cn121406   4.796   2.561   2.830  0.2481  0.0241 -0.5020
 4020ntf    sn221407   4.707   2.440   2.933  0.4950 -0.0147 -0.3325
 4020ntf    nn321408   4.688   2.317   2.837  0.6597  0.0443 -0.4403
 4020ntf    sn221409   4.581   2.296   2.725  0.0506  0.3120  0.0889
 4020ntf    cn121410   4.464   2.198   2.824  0.1441  0.2383  0.1264
 4020ntf    fn421411   4.712   2.605   2.738  0.1116 -0.3036 -0.5361
 4020ntf    fn421412   4.863   2.659   2.888 -0.1565 -0.1930  0.3586
 4020ntf    fn421413   4.893   2.493   2.772  0.2476 -0.3775 -0.0428
 4020ntf    on521414   4.812   2.413   3.028  0.0974 -0.1653  0.0642
 4020ntf    on521415   4.589   2.505   2.984  0.5867 -0.3997  0.3931
 4020ntf    on521416   4.635   2.205   2.627  0.7822  0.5575  0.2570
 4020ntf    on521417   4.511   2.415   2.682 -0.2247  0.0313 -0.2444
 4020ntf    fn421418   4.345   2.182   2.767  0.1866 -0.0328  0.1105
 4020ntf    fn421419   4.500   2.073   2.849  0.4361  0.4624  0.8300
 4020ntf    fn421420   4.446   2.257   2.941 -0.7755 -0.2500  0.2364
 4021ntf    cn121421   2.461   0.848   1.084  0.1442  0.2275 -0.1362
 4021ntf    sn221422   2.584   0.742   1.003  0.0106  0.0195 -0.0693
 4021ntf    nn321423   2.512   0.603   1.014 -0.1197  0.0834 -0.1167
 4021ntf    sn221424   2.470   0.499   0.904  0.1903  0.0802 -0.2337
 4021ntf    cn121425   2.293   0.534   0.879  0.2651  0.2581 -0.5070
 4021ntf    fn421426   2.460   0.830   1.215 -0.6634 -0.3992 -0.2185
 4021ntf    fn421427   2.483   0.975   1.055  0.4582  0.1326 -0.3161
 4021ntf    fn421428   2.338   0.835   1.035  0.1902  0.0799 -0.2144
 4021ntf    on521429   2.605   0.800   0.872 -0.5953  0.4438  0.0186
 4021ntf    on521430   2.696   0.747   1.093 -0.7413  0.3867  0.8595
 4021ntf    on521431   2.468   0.367   0.964  0.6957  0.4328  0.5834
 4021ntf    on521432   2.539   0.512   0.778 -0.0945 -0.4643 -0.4506
 4021ntf    fn421433   2.215   0.510   0.983  0.3656 -0.2540 -0.5462
 4021ntf    fn421434   2.278   0.661   0.844  0.6131  0.4528  0.0467
 4021ntf    fn421435   2.251   0.465   0.774 -0.0201  0.1778 -0.3407
 4022ntf    cn121436   7.135   0.556   4.482  0.2962  0.0146  0.1080
 4022ntf    sn221437   7.062   0.712   4.542  0.0334  0.0819 -0.3806
 4022ntf    nn321438   6.960   0.652   4.645 -0.0420  0.4950 -0.2131
 4022ntf    sn221439   6.935   0.701   4.792 -0.0645  0.1131 -0.0880
 4022ntf    cn121440   6.761   0.658   4.822 -0.1423  0.1757 -0.4433
 4022ntf    fn421441   7.048   0.488   4.409  0.4346  0.2583 -0.2810
 4022ntf    fn421442   7.247   0.570   4.414  0.2540 -0.2563 -0.0200
 4022ntf    fn421443   7.159   0.484   4.590  0.1837  0.1201  0.2054
 4022ntf    on521444   7.179   0.764   4.609 -0.3667 -0.2769  0.6202
 4022ntf    on521445   7.001   0.778   4.429  0.0590 -0.3913 -0.6727
 4022ntf    on521446   6.938   0.844   4.809 -0.7442  0.1355 -0.1685
 4022ntf    on521447   7.011   0.621   4.885  0.0359  0.4507  0.1223
 4022ntf    fn421448   6.747   0.529   4.797 -0.9359  0.2027 -0.1411
 4022ntf    fn421449   6.720   0.688   4.944  0.0864  0.2989 -0.3956
 4022ntf    fn421450   6.679   0.724   4.741 -0.6270  0.3264  0.1649
 4023ntf    cn121451   1.397   6.052   6.951  0.5140  0.4809 -0.3312
 4023ntf    sn221452   1.350   6.224   6.912 -0.0152  0.4079 -0.0259
 4023ntf    nn321453   1.330   6.202   6.758  0.1830 -0.1798  0.0284
 4023ntf    sn221454   1.309   6.305   6.641 -0.0681 -0.0247  0.2075
 4023ntf    cn121455   1.128   6.318   6.645 -0.0890  0.0221 -0.7114
 4023ntf    fn421456   1.503   6.012   6.883  0.4679  0.5921 -0.4708
 4023ntf    fn421457   1.415   6.024   7.079 -0.3066  0.4036 -0.2262
 4023ntf    fn421458   1.299   5.972   6.912  0.4875  0.0700  0.5677
 4023ntf    on521459   1.239   6.251   7.000 -0.2260  0.2391 -0.2398
 4023ntf    on521460   1.472   6.297   6.935  0.1836 -0.0090  0.2572
 4023ntf    on521461   1.339   6.243   6.514 -0.1236  0.2581  0.0567
 4023ntf    on521462   1.350   6.442   6.661  0.0691  0.0466 -0.5226
 4023ntf    fn421463   1.078   6.405   6.559 -0.6000  0.5678  0.1204
 4023ntf    fn421464   1.064   6.207   6.612 -0.2365 -0.0225 -0.2821
 4023ntf    fn421465   1.083   6.349   6.765  0.4906 -0.5339 -0.3475
 4024ntf    cn121466   2.519   4.305   2.681  0.0493 -0.0848 -0.1013
 4024ntf    sn221467   2.665   4.336   2.578  0.2504 -0.1861  0.1510
 4024ntf    nn321468   2.731   4.193   2.584  0.0087 -0.3361 -0.6151
 4024ntf    sn221469   2.883   4.166   2.552  0.1396 -0.5203  0.1463
 4024ntf    cn121470   2.868   4.037   2.426 -0.1431 -0.0862 -0.2693
 4024ntf    fn421471   2.441   4.211   2.630  0.1581 -0.2919  0.1095
 4024ntf    fn421472   2.550   4.264   2.803 -0.2712  0.0094  0.0122
 4024ntf    fn421473   2.448   4.416   2.691  0.4943  0.1871  0.0728
 4024ntf    on521474   2.600   4.369   2.454  0.6226  0.2592  0.0690
 4024ntf    on521475   2.731   4.440   2.654 -0.2019  0.3513 -0.1898
 4024ntf    on521476   2.945   4.091   2.658  0.1626 -0.0042  0.5029
 4024ntf    on521477   2.952   4.271   2.482 -0.4135 -0.1856  0.0932
 4024ntf    fn421478   2.796   4.074   2.321 -0.3881  0.0620 -0.0493
 4024ntf    fn421479   2.983   3.992   2.377 -0.2267  0.0397 -0.5851
 4024ntf    fn421480   2.812   3.928   2.476  0.0605 -0.0699 -0.0047
 4025ntf    cn121481   1.317   0.175   1.397  0.0689  0.4869 -0.1801
 4025ntf    sn221482   1.163   0.268   1.417 -0.1996  0.0468 -0.1778
 4025ntf    nn321483   1.214   0.412   1.377  0.6483 -0.1883  0.0377
 4025ntf    sn221484   1.270   0.525   1.469  0.5404  0.1994 -0.3664
 4025ntf    cn121485   1.111   0.604   1.506  0.4620 -0.1319  0.0125
 4025ntf    fn421486   1.404   0.192   1.495 -0.2607 -0.4165  0.2776
 4025ntf    fn421487   1.289   0.046   1.387  0.2006  0.4055  0.5091
 4025ntf    fn421488   1.377   0.206   1.283  0.7612 -0.0793  0.0195
 4025ntf    on521489   1.081   0.209   1.314 -0.1961 -0.2857  0.0117
 4025ntf    on521490   1.121   0.248   1.553  0.0680  0.3355 -0.0515
 4025ntf    on521491   1.346   0.622   1.394  0.5073  0.2667 -0.3127
 4025ntf    on521492   1.325   0.482   1.596  0.3033 -0.6393 -0.5424
 4025ntf    fn421493   1.131   0.706   1.588 -0.1123 -0.0717  0.0809
 4025ntf    fn421494   1.054   0.657   1.399  0.2108 -0.5954 -0.0869
 4025ntf    fn421495   1.019   0.532   1.569  0.2847 -0.0436 -0.1435
 4026ntf    cn121496   4.524   2.763   1.982 -0.1252  0.0324  0.0224
 4026ntf    sn221497   4.358   2.808   2.040 -0.0764  0.2316  0.0099
 4026ntf    nn321498   4.268   2.759   1.921 -0.0379 -0.2527  0.1788
 4026ntf    sn221499   4.219   2.613   1.888 -0.3229 -0.2100  0.4122
 4026ntf    cn121500   4.162   2.630   1.716  0.1585 -0.2476  0.2453
 4026ntf    fn421501   4.612   2.817   2.065 -0.0164 -0.1164  0.0043
 4026ntf    fn421502   4.552   2.633   1.986  0.1316  0.0841 -0.0778
 4026ntf    fn421503   4.558   2.814   1.865  0.6127 -0.2609  0.1054
 4026ntf    on521504   4.330   2.738   2.163  0.4200 -0.2771 -0.1641
 4026ntf    on521505   4.355   2.952   2.050  0.2104  0.2519 -0.1892
 4026ntf    on521506   4.108   2.564   1.965  0.0427 -0.0765  1.0299
 4026ntf    on521507   4.332   2.527   1.865  0.0066  0.2368  0.3418
 4026ntf    fn421508   4.264   2.638   1.633 -0.0074 -0.1119  0.0529
 4026ntf    fn421509   4.094   2.527   1.670  0.1170  0.0064 -0.2727
 4026ntf    fn421510   4.079   2.733   1.707  0.5546  0.0898  0.4210
 4027ntf    cn121511   1.217   3.434   2.715 -0.5012 -0.3499 -0.3012
 4027ntf    sn221512   1.061   3.524   2.735 -0.2470  0.1052 -0.3444
 4027ntf    nn321513   1.089   3.660   2.662  0.0020  0.1782 -0.1159
 4027ntf    sn221514   1.133   3.799   2.719  0.0199  0.1899 -0.1589
 4027ntf    cn121515   1.245   3.849   2.584  0.3459 -0.1637 -0.0222
 4027ntf    fn421516   1.264   3.439   2.591 -0.0416 -0.7794 -0.1470
 4027ntf    fn421517   1.311   3.496   2.786 -0.3077 -0.0792 -0.7839
 4027ntf    fn421518   1.225   3.312   2.765  0.0589 -0.0996  0.2417
 4027ntf    on521519   0.967   3.435   2.673 -0.2625  0.1117 -0.3304
 4027ntf    on521520   1.056   3.534   2.879  0.3460  0.2800 -0.3326
 4027ntf    on521521   1.220   3.798   2.834 -0.3572 -0.3177  0.1248
 4027ntf    on521522   1.026   3.896   2.712 -0.3053 -0.1727 -0.2125
 4027ntf    fn421523   1.295   3.970   2.603 -0.7567  0.2478  0.3439
 4027ntf    fn421524   1.345   3.764   2.567 -0.1113 -0.6978 -0.0741
 4027ntf    fn421525   1.178   3.846   2.470  0.0164  0.3553  0.1522
 4028ntf    cn121526   1.631   5.071   0.950  0.2488 -0.2814 -0.1566
 4028ntf    sn221527   1.487   5.068   0.839  0.2601  0.0705 -0.1832
 4028ntf    nn321528   1.373   5.090   0.945  0.3869 -0.2000  0.0100
 4028ntf    sn221529   1.263   4.989   0.994  0.2898  0.0041  0.2145
 4028ntf    cn121530   1.126   5.033   0.883  0.0621 -0.1925  0.4180
 4028ntf    fn421531   1.629   4.969   1.034 -0.0454  0.3210  0.5874
 4028ntf    fn421532   1.745   5.078   0.884 -0.0347 -0.1132 -0.6341
 4028ntf    fn421533   1.635   5.180   1.025 -0.0155 -0.5160  0.2030
 4028ntf    on521534   1.506   5.189   0.764 -0.2316 -0.0208 -0.4571
 4028ntf    on521535   1.498   4.947   0.762 -0.2258 -0.0750 -0.0294
 4028ntf    on521536   1.218   5.031   1.125  0.3721  0.3553  0.1320
 4028ntf    on521537   1.292   4.849   0.980 -0.1782 -0.0921  0.2105
 4028ntf    fn421538   1.068   5.147   0.918  0.2812  0.1148 -0.2028
 4028ntf    fn421539   1.161   5.034   0.756  0.0388  0.4881  0.4129
 4028ntf    fn421540   1.022   4.951   0.886 -0.2404  0.1713  0.0307
 4029ntf    cn121541   4.890   4.643   4.032  0.1832 -0.2781  0.1184
 4029ntf    sn221542   4.878   4.608   3.854 -0.0981 -0.1309  0.1070
 4029ntf    nn321543   4.778   4.726   3.826  0.0651 -0.0384 -0.0880
 4029ntf    sn221544   4.798   4.871   3.768  0.0989  0.0214  0.0718
 4029ntf    cn121545   4.777   4.832   3.591 -0.0010  0.1660  0.0510
 4029ntf    fn421546   4.946   4.761   4.053 -0.0741 -0.0892 -0.2433
 4029ntf    fn421547   4.774   4.655   4.096  0.0421  0.2345 -0.2215
 4029ntf    fn421548   4.961   4.545   4.083 -0.0729 -0.6712 -0.2695
 4029ntf    on521549   5.012   4.630   3.803 -0.2150  0.3290 -0.0133
 4029ntf    on521550   4.828   4.474   3.841 -0.6439  0.0395  0.4303
 4029ntf    on521551   4.928   4.934   3.767  0.0475  0.1293  0.2995
 4029ntf    on521552   4.680   4.950   3.791 -0.2384 -0.2179 -0.7818
 4029ntf    fn421553   4.855   4.730   3.556 -0.1696  0.1812 -0.3720
 4029ntf    fn421554   4.656   4.786   3.566  0.2720 -0.3215 -0.3954
 4029ntf    fn421555   4.797   4.933   3.509 -0.2042 -0.0948 -0.3221
 4030ntf    cn121556   6.016   1.538   4.742 -0.0375  0.0102 -0.1154
 4030ntf    sn221557   6.019   1.356   4.732 -0.2262 -0.0134  0.2411
 4030ntf    nn321558   6.165   1.336   4.678 -0.1966 -0.5268  0.5112
 4030ntf    sn221559   6.211   1.328   4.528  0.1010 -0.0302  0.5749
 4030ntf    cn121560   6.277   1.159   4.530 -0.3213 -0.2037  0.1151
 4030ntf    fn421561   6.026   1.605   4.629  0.1764  0.6831  0.2948
 4030ntf    fn421562   5.907   1.580   4.805 -0.3432 -0.5659 -0.2521
 4030ntf    fn421563   6.117   1.575   4.819 -0.1650 -0.1821  0.1453
 4030ntf    on521564   6.000   1.306   4.866 -0.3205 -0.2481  0.1408
 4030ntf    on521565   5.913   1.330   4.637  0.1653  0.0382 -0.2082
 4030ntf    on521566   6.329   1.409   4.510 -0.1593  0.2522  0.1065
 4030ntf    on521567   6.110   1.332   4.425  0.4377  0.2186  0.2520
 4030ntf    fn421568   6.305   1.117   4.408  0.1518 -0.3448  0.2707
 4030ntf    fn421569   6.386   1.145   4.603 -0.0620  0.2864 -0.1791
 4030ntf    fn421570   6.193   1.073   4.586  0.7807 -0.4653  1.4287
 4031ntf    cn121571   4.430   6.891   2.808  0.1456  0.3084  0.1767
 4031ntf    sn221572   4.586   6.798   2.806  0.1335  0.2954 -0.0728
 4031ntf    nn321573   4.578   6.720   2.942  0.4715 -0.1478 -0.3028
 4031ntf    sn221574   4.647   6.739   3.082 -0.1869  0.1048 -0.0095
 4031ntf    cn121575   4.504   6.764   3.191 -0.0303 -0.1844  0.2624
 4031ntf    fn421576   4.332   6.813   2.853 -0.0208  0.4682  0.0910
 4031ntf    fn421577   4.442   6.994   2.890  0.0989  0.2325  0.2798
 4031ntf    fn421578   4.392   6.956   2.700 -0.0753 -0.1643 -0.0340
 4031ntf    on521579   4.564   6.707   2.696 -0.0945  0.3328 -0.0596
 4031ntf    on521580   4.691   6.896   2.798  0.4204  0.0290  0.3905
 4031ntf    on521581   4.734   6.854   3.095  0.5257 -0.4192 -0.1050
 4031ntf    on521582   4.699   6.614   3.131 -0.3677  0.1837  0.3899
 4031ntf    fn421583   4.432   6.653   3.201 -0.1948 -0.1248 -0.2303
 4031ntf    fn421584   4.529   6.802   3.316  0.2408 -0.0553  0.1693
 4031ntf    fn421585   4.420   6.857   3.149 -0.0816 -0.2133  0.2994
 4032ntf    cn121586   6.961   4.718   2.687  0.6960  0.2603  0.1141
 4032ntf    sn221587   6.941   4.638   2.524 -0.1245  0.1340  0.2695
 4032ntf    nn321588   7.053   4.721   2.452 -1.0564  0.3738 -0.9319
 4032ntf    sn221589   7.146   4.672   2.336 -0.1471  0.3705 -0.2190
 4032ntf    cn121590   7.298   4.656   2.434 -0.1519  0.2001 -0.2400
 4032ntf    fn421591   6.930   4.846   2.692  0.3897  0.1699  0.5925
 4032ntf    fn421592   6.874   4.663   2.771  0.1336 -0.3524 -0.8406
 4032ntf    fn421593   7.081   4.702   2.739  0.7132  0.0907  0.0257
 4032ntf    on521594   6.968   4.498   2.544 -0.1215  0.0629 -0.2297
 4032ntf    on521595   6.808   4.675   2.483 -0.2059 -0.7216 -0.2525
 4032ntf    on521596   7.185   4.769   2.236  0.7012  0.2977  0.0339
 4032ntf    on521597   7.107   4.542   2.288  0.3000  0.2339 -0.2119
 4032ntf    fn421598   7.327   4.772   2.489  0.1876 -0.1055  0.2386
 4032ntf    fn421599   7.287   4.584   2.545  0.5848 -0.0148 -0.3046
 4032ntf    fn421600   7.407   4.617   2.370  0.5277  0.4392  0.7406
 4033ntf    cn121601   6.210   5.355   0.226 -0.0539 -0.0245  0.2358
 4033ntf    sn221602   6.201   5.449   0.382  0.1264  0.0970  0.1732
 4033ntf    nn321603   6.224   5.340   0.493 -0.3425 -0.0010  0.1733
 4033ntf    sn221604   6.123   5.223   0.522 -0.1224 -0.2424 -0.0341
 4033ntf    cn121605   6.063   5.288   0.680 -0.1282  0.0805 -0.1672
 4033ntf    fn421606   6.319   5.280   0.214 -0.4076 -0.4465 -0.3711
 4033ntf    fn421607   6.104   5.277   0.217  0.0177 -0.1568  0.5143
 4033ntf    fn421608   6.204   5.438   0.123 -0.1291  0.1506  0.3800
 4033ntf    on521609   6.316   5.536   0.368  0.0989  0.0124 -0.6473
 4033ntf    on521610   6.068   5.503   0.384  0.2071  0.3146 -0.1155
 4033ntf    on521611   6.199   5.104   0.551  0.8569  0.4383  0.2627
 4033ntf    on521612   6.004   5.207   0.441 -0.0384 -0.6844 -0.0718
 4033ntf    fn421613   5.969   5.207   0.727  0.4257 -0.0561  0.7422
 4033ntf    fn421614   6.156   5.295   0.775 -0.4682  0.0284  0.1722
 4033ntf    fn421615   6.021   5.413   0.677 -0.2500  0.0376 -0.2395
 4034ntf    cn121616   3.371   2.076   2.676  0.2259  0.0190  0.0737
 4034ntf    sn221617   3.324   2.022   2.509 -0.0789 -0.2588  0.2481
 4034ntf    nn321618   3.436   1.918   2.471  0.1148  0.1475 -0.3118
 4034ntf    sn221619   3.448   1.762   2.480  0.1000  0.1491 -0.2615
 4034ntf    cn121620   3.629   1.755   2.463  0.1682 -0.1752  0.5782
 4034ntf    fn421621   3.402   1.971   2.751  0.0225  0.0435  0.1895
 4034ntf    fn421622   3.484   2.145   2.664  0.2474  0.0023  0.1803
 4034ntf    fn421623   3.279   2.152   2.731  0.3084 -0.0164  0.2595
 4034ntf    on521624   3.191   1.967   2.519 -0.1444 -0.0948  0.2815
 4034ntf    on521625   3.338   2.135   2.420 -0.0327 -0.1198  0.4323
 4034ntf    on521626   3.390   1.698   2.364 -0.0146  0.4956 -0.3961
 4034ntf    on521627   3.416   1.703   2.608 -0.0192  0.1747 -0.2786
 4034ntf    fn421628   3.689   1.831   2.553  0.5673  0.4255 -0.1852
 4034ntf    fn421629   3.686   1.636   2.471 -0.7525 -0.6801 -0.1142
 4034ntf    fn421630   3.661   1.805   2.345 -0.1589 -0.7274  0.2484
 4035ntf    cn121631   5.858   4.619   3.368  0.0712  0.0572 -0.4765
 4035ntf    sn221632   5.893   4.693   3.205 -0.1012  0.6982 -0.2280
 4035ntf    nn321633   5.773   4.635   3.121  0.2824 -0.2591 -0.1368
 4035ntf    sn221634   5.754   4.632   2.965 -0.0402  0.1708 -0.1105
 4035ntf    cn121635   5.619   4.752   2.953 -0.1032  0.0992 -0.1205
 4035ntf    fn421636   5.968   4.607   3.440 -0.3643  0.2345  0.2267
 4035ntf    fn421637   5.774   4.692   3.439  0.2795 -0.5599  0.4160
 4035ntf    fn421638   5.809   4.497   3.360 -0.0082  0.0410  0.2137
 4035ntf    on521639   5.876   4.835   3.222 -0.4798  0.6337 -0.0606
 4035ntf    on521640   6.021   4.642   3.163 -0.5017  0.0477 -0.6859
 4035ntf    on521641   5.705   4.504   2.919 -0.0515  0.2797 -0.4046
 4035ntf    on521642   5.858   4.690   2.884 -0.3120 -0.1333 -0.6836
 4035ntf    fn421643   5.651   4.869   3.006 -0.1719  0.0439  0.0470
 4035ntf    fn421644   5.596   4.776   2.825 -0.2836  0.5953  0.0013
 4035ntf    fn421645   5.503   4.716   3.008 -0.1123 -0.2738 -0.3875
 4036ntf    cn121646   6.955   4.343   4.111  0.4855  0.3071  0.4958
 4036ntf    sn221647   6.863   4.500   4.119  0.3489  0.2538  0.0146
 4036ntf    nn321648   6.718   4.446   4.096  0.3755 -0.0316  0.5021
 4036ntf    sn221649   6.580   4.469   4.168  0.0119 -0.0255 -0.1864
 4036ntf    cn121650   6.480   4.547   4.037 -0.2108 -0.2547 -0.1538
 4036ntf    fn421651   6.915   4.273   4.216  0.3688 -0.2486  0.0874
 4036ntf    fn421652   6.933   4.281   3.996  0.1485  0.8367  0.2697
 4036ntf    fn421653   7.085   4.365   4.115  0.6506 -0.6385  0.4523
 4036ntf    on521654   6.897   4.544   4.252  0.3800  0.2804 -0.0019
 4036ntf    on521655   6.917   4.582   4.014 -0.0502  0.3914 -0.0858
 4036ntf    on521656   6.581   4.568   4.272  0.0041  0.0499 -0.2580
 4036ntf    on521657   6.507   4.347   4.192  0.3223 -0.1904 -0.0746
 4036ntf    fn421658   6.466   4.454   3.944  0.2134  0.0429 -0.5211
 4036ntf    fn421659   6.357   4.576   4.076 -0.0431  0.7509 -0.3585
 4036ntf    fn421660   6.533   4.656   3.986  0.3517 -0.3907  0.1324
 4037ntf    cn121661   6.441   1.428   0.716 -0.2542 -0.0921 -0.1106
 4037ntf    sn221662   6.575   1.352   0.812 -0.3187 -0.1752 -0.0857
 4037ntf    nn321663   6.622   1.247   0.705  0.0781 -0.1818  0.0914
 4037ntf    sn221664   6.756   1.231   0.626  0.0544 -0.0571  0.0252
 4037ntf    cn121665   6.856   1.141   0.748 -0.0995 -0.1283  0.0993
 4037ntf    fn421666   6.490   1.469   0.600  0.2339  0.2983  0.2266
 4037ntf    fn421667   6.337   1.349   0.695 -0.5462  0.3074 -0.1912
 4037ntf    fn421668   6.384   1.534   0.772  0.5174  0.1622  0.2004
 4037ntf    on521669   6.663   1.462   0.844 -0.4095 -0.0403 -0.3039
 4037ntf    on521670   6.501   1.305   0.927  0.5817 -0.9578  0.1810
 4037ntf    on521671   6.822   1.358   0.612  0.1521 -0.1507 -0.3932
 4037ntf    on521672   6.750   1.140   0.513  0.1609  0.0720 -0.0841
 4037ntf    fn421673   6.863   1.212   0.860  0.3532 -0.1540  0.0883
 4037ntf    fn421674   6.799   1.026   0.779  0.1041 -0.2017  0.2036
 4037ntf    fn421675   6.978   1.115   0.705 -0.0060  0.0133  0.2768
 4038ntf    cn121676   2.666   1.719   1.306  0.1614 -0.1755 -0.0085
 4038ntf    sn221677   2.786   1.854   1.330 -0.1438  0.1455 -0.2719
 4038ntf    nn321678   2.819   1.832   1.481 -0.0045  0.7555 -0.2116
 4038ntf    sn221679   2.824   1.936   1.599  0.1035  0.3285  0.1648
 4038ntf    cn121680   2.668   1.904   1.686  0.0647  0.3585  0.1061
 4038ntf    fn421681   2.634   1.699   1.179  0.1424  0.1528 -0.0581
 4038ntf    fn421682   2.719   1.609   1.356  0.2362 -0.0323  0.2280
 4038ntf    fn421683   2.552   1.737   1.371 -0.0518 -0.1711 -0.3793
 4038ntf    on521684   2.898   1.817   1.247 -0.1770  0.6104 -0.5279
 4038ntf    on521685   2.713   1.969   1.284  0.0145  0.3492 -0.0101
 4038ntf    on521686   2.823   2.078   1.576  0.1095  0.2586 -0.2823
 4038ntf    on521687   2.920   1.890   1.697  0.0126 -0.0899  0.0590
 4038ntf    fn421688   2.649   1.998   1.777  0.3126  0.4462  0.0689
 4038ntf    fn421689   2.567   1.904   1.601  0.2878  0.1460 -0.1589
 4038ntf    fn421690   2.655   1.787   1.745 -0.0046  0.3049 -0.0142
 4039ntf    cn121691   1.358   3.973   4.073  0.0493  0.0042 -0.1021
 4039ntf    sn221692   1.416   4.123   4.157  0.1122 -0.0091 -0.1204
 4039ntf    nn321693   1.285   4.169   4.231  0.3254  0.0668  0.2104
 4039ntf    sn221694   1.254   4.320   4.256 -0.1925  0.0329 -0.2048
 4039ntf    cn121695   1.119   4.339   4.136 -0.1971 -0.4052 -0.2701
 4039ntf    fn421696   1.455   3.908   4.010  0.2063  0.2490 -0.1126
 4039ntf    fn421697   1.302   3.886   4.155  0.0099 -0.0621 -0.1986
 4039ntf    fn421698   1.269   3.999   3.978 -0.3254  0.2479  0.3127
 4039ntf    on521699   1.513   4.070   4.250 -0.1588 -0.3539 -0.0312
 4039ntf    on521700   1.460   4.204   4.047  0.4305  0.1674  0.1370
 4039ntf    on521701   1.353   4.416   4.212  0.2456 -0.2891  0.0640
 4039ntf    on521702   1.195   4.341   4.386 -0.0555 -0.3715 -0.0768
 4039ntf    fn421703   1.145   4.286   4.018 -0.0678 -0.1412 -0.3623
 4039ntf    fn421704   1.005   4.283   4.173 -0.5557  0.6115  0.2064
 4039ntf    fn421705   1.093   4.467   4.112  0.1009 -0.3358 -0.2318
 4040ntf    cn121706   0.343   6.197   5.804  0.6186  0.3239 -0.0204
 4040ntf    sn221707   0.197   6.276   5.729  0.3080 -0.1599  0.0711
 4040ntf    nn321708   0.227   6.428   5.750 -0.4161 -0.0044 -0.0014
 4040ntf    sn221709   0.189   6.551   5.660  0.0505  0.0005 -0.1975
 4040ntf    cn121710   0.103   6.635   5.797 -0.0233 -0.7094  0.1977
 4040ntf    fn421711   0.356   6.210   5.935 -0.0677 -0.5926  0.1500
 4040ntf    fn421712   0.355   6.068   5.778  0.5617  0.3142  0.0037
 4040ntf    fn421713   0.454   6.254   5.759  0.7320  0.1525  0.0422
 4040ntf    on521714   0.208   6.227   5.594  0.0134  0.0507 -0.0296
 4040ntf    on521715   0.081   6.227   5.799  0.1906  0.5958  0.4111
 4040ntf    on521716   0.097   6.523   5.553 -0.0871 -0.3186  0.0026
 4040ntf    on521717   0.304   6.632   5.627 -0.0584  0.2220 -0.0405
 4040ntf    fn421718   0.055   6.753   5.759  0.5026 -0.6642 -0.3488
 4040ntf    fn421719   0.004   6.560   5.843 -0.5022 -0.1105  0.1575
 4040ntf    fn421720   0.186   6.656   5.898  0.0592  0.1187 -0.0369
 4041ntf    cn121721   2.353   0.133   3.499  0.0330  0.1565  0.2257
 4041ntf    sn221722   2.268   0.287   3.454 -0.5521 -0.2511 -0.0756
 4041ntf    nn321723   2.331   0.398   3.546 -0.5960 -0.1997 -0.1073
 4041ntf    sn221724   2.284   0.547   3.549  0.0889  0.0129  0.3464
 4041ntf    cn121725   2.423   0.635   3.471 -0.1603  0.1868  0.0924
 4041ntf    fn421726   2.475   0.130   3.448 -0.2118 -0.0783 -0.3536
 4041ntf    fn421727   2.379   0.118   3.628 -0.8163 -0.3341  0.3476
 4041ntf    fn421728   2.291   0.026   3.453  0.0385  0.1119  0.3215
 4041ntf    on521729   2.306   0.307   3.316  0.2692  0.0804  0.1918
 4041ntf    on521730   2.132   0.255   3.490 -0.3768 -0.2793  0.5741
 4041ntf    on521731   2.301   0.615   3.676  0.4930  0.3873  0.0954
 4041ntf    on521732   2.169   0.582   3.469 -0.0267 -0.5210  0.2808
 4041ntf    fn421733   2.451   0.571   3.359 -0.1402 -0.5941  0.5347
 4041ntf    fn421734   2.397   0.759   3.436 -0.4756  0.0674 -0.0981
 4041ntf    fn421735   2.529   0.635   3.550 -0.3715 -0.2633  0.3823
 4042ntf    cn121736   3.297   6.526   5.352  0.0237  0.0157  0.0071
 4042ntf    sn221737   3.177   6.560   5.220 -0.0404  0.0485  0.0738
 4042ntf    nn321738   3.274   6.646   5.131 -0.4749  0.7647  0.2878
 4042ntf    sn221739   3.282   6.652   4.975  0.0714 -0.3705  0.2692
 4042ntf    cn121740   3.356   6.817   4.959 -0.2956 -0.2691 -0.4447
 4042ntf    fn421741   3.237   6.489   5.464 -0.1247 -0.6258 -0.2788
 4042ntf    fn421742   3.394   6.442   5.320  0.2367  0.3012 -0.1014
 4042ntf    fn421743   3.360   6.636   5.391  0.4091 -0.1404 -0.1783
 4042ntf    on521744   3.139   6.427   5.178  0.1101 -0.3009  1.0205
 4042ntf    on521745   3.073   6.629   5.293 -0.2674 -0.2329  0.0178
 4042ntf    on521746   3.160   6.667   4.900  0.0372  0.5881  0.5067
 4042ntf    on521747   3.392   6.572   4.926  0.2268 -0.1153  0.2020
 4042ntf    fn421748   3.268   6.905   5.004  0.3300  0.0134  0.2582
 4042ntf    fn421749   3.462   6.836   5.037 -0.4362  0.0572 -0.3306
 4042ntf    fn421750   3.394   6.845   4.836 -0.5249 -0.1170 -0.4813
 4043ntf    cn121751   7.149   3.496   5.591  0.3513 -0.1148  0.1480
 4043ntf    sn221752   7.181   3.660   5.520 -0.0251 -0.1122 -0.0172
 4043ntf    nn321753   7.316   3.693   5.592 -0.0061  0.0683 -0.1343
 4043ntf    sn221754   7.463   3.667   5.545  0.0033 -0.3790  0.1313
 4043ntf    cn121755   7.489   3.828   5.463 -0.0599 -0.2166  0.4288
 4043ntf    fn421756   7.100   3.512   5.713 -0.2279 -0.0974 -0.0799
 4043ntf    fn421757   7.062   3.425   5.521  0.5415 -0.2278  0.0279
 4043ntf    fn421758   7.260   3.426   5.606  0.2579 -0.3281 -0.1314
 4043ntf    on521759   7.190   3.634   5.378  0.4460  0.0910 -0.0250
 4043ntf    on521760   7.068   3.743   5.554 -0.2393 -0.5919  0.4505
 4043ntf    on521761   7.485   3.568   5.443 -0.1662 -0.2709 -0.0106
 4043ntf    on521762   7.559   3.667   5.653 -0.0147  0.2771  0.1550
 4043ntf    fn421763   7.602   3.832   5.394 -0.2471 -0.8619  0.0755
 4043ntf    fn421764   7.391   3.837   5.375  0.3206 -0.8613 -0.0686
 4043ntf    fn421765   7.487   3.931   5.546  0.0111  0.3978 -0.3275
 4044ntf    cn121766   5.418   0.596   6.621 -0.3618 -0.1977  0.0186
 4044ntf    sn221767   5.344   0.762   6.624  0.0807  0.0028 -0.0533
 4044ntf    nn321768   5.213   0.741   6.540 -0.0083 -0.1228  0.1154
 4044ntf    sn221769   5.169   0.783   6.396 -0.2671  0.5381  0.3845
 4044ntf    cn121770   5.029   0.669   6.375  0.1247  0.0361  0.4982
 4044ntf    fn421771   5.524   0.581   6.699 -0.3320 -0.0092  0.0124
 4044ntf    fn421772   5.331   0.501   6.654 -0.2531 -0.3765 -0.2050
 4044ntf    fn421773   5.452   0.567   6.497  0.4553  0.8677 -0.0175
 4044ntf    on521774   5.318   0.793   6.763 -0.0779 -0.2213 -0.0303
 4044ntf    on521775   5.437   0.838   6.546  0.3246 -0.2755 -0.0357
 4044ntf    on521776   5.266   0.738   6.300 -0.5268 -0.1119  0.4168
 4044ntf    on521777   5.112   0.915   6.385 -0.0052  0.6239  0.0357
 4044ntf    fn421778   4.934   0.675   6.467 -0.2532 -0.0705  0.1153
 4044ntf    fn421779   4.976   0.681   6.254  0.3152  0.2260  0.4340
 4044ntf    fn421780   5.072   0.544   6.383  0.2190  0.0423  0.0894
 4045ntf    cn121781   6.800   5.102   6.024  0.2513 -0.0054 -0.2945
 4045ntf    sn221782   6.639   5.183   6.048  0.2598 -0.0979  0.0691
 4045ntf    nn321783   6.537   5.083   5.984  0.3548  0.0083 -0.2472
 4045ntf    sn221784   6.476   5.074   5.839 -0.3526 -0.0074  0.0442
 4045ntf    cn121785   6.559   4.923   5.782 -0.2105  0.1610 -0.1950
 4045ntf    fn421786   6.906   5.176   6.052  0.1547  0.1114 -0.2397
 4045ntf    fn421787   6.808   4.990   6.095 -0.2318  0.0162 -0.2041
 4045ntf    fn421788   6.830   5.065   5.900 -0.0645 -0.0186 -0.3667
 4045ntf    on521789   6.624   5.204   6.190 -0.2915 -0.2867  0.0412
 4045ntf    on521790   6.676   5.302   5.976 -0.1316 -0.1397 -0.2038
 4045ntf    on521791   6.524   5.175   5.748  0.0274 -0.2131  0.0134
 4045ntf    on521792   6.338   5.035   5.833 -0.4634  0.3093  0.4521
 4045ntf    fn421793   6.549   4.823   5.868 -0.2819  0.0757 -0.3011
 4045ntf    fn421794   6.509   4.877   5.668  0.2512 -0.2003 -0.2586
 4045ntf    fn421795   6.689   4.933   5.757 -0.1045 -0.3901  0.1141
 4046ntf    cn121796   4.732   5.762   1.185 -0.0244  0.1618 -0.1927
 4046ntf    sn221797   4.815   5.878   1.298  0.1402  0.0451 -0.1924
 4046ntf    nn321798   4.864   5.787   1.416 -0.0987  0.3751  0.1679
 4046ntf    sn221799   4.809   5.780   1.563 -0.0403  0.0638  0.1759
 4046ntf    cn121800   4.946   5.711   1.660  0.1064 -0.1405 -0.1737
 4046ntf    fn421801   4.652   5.676   1.245  0.1814  0.0636 -0.0573
 4046ntf    fn421802   4.659   5.826   1.095 -0.0259  0.5191  0.0555
 4046ntf    fn421803   4.818   5.686   1.121 -0.2384 -0.3145  0.0802
 4046ntf    on521804   4.921   5.933   1.218  0.4749  0.3123  0.4215
 4046ntf    on521805   4.709   5.968   1.338  0.3167  0.0193  0.3430
 4046ntf    on521806   4.698   5.688   1.576  0.0598 -0.0374  0.3172
 4046ntf    on521807   4.790   5.903   1.635 -0.5098  0.0272  0.1195
 4046ntf    fn421808   4.992   5.596   1.612  0.3347 -0.1413  0.0433
 4046ntf    fn421809   5.045   5.798   1.671 -0.0409 -0.0458  0.4782
 4046ntf    fn421810   4.908   5.685   1.784  0.2031 -0.1106 -0.1382
 4047ntf    cn121811   5.189   5.262   6.944  0.0179  0.1275  0.5213
 4047ntf    sn221812   5.200   5.416   6.848 -0.0434 -0.1432  0.0784
 4047ntf    nn321813   5.277   5.366   6.721  0.2909 -0.0435  0.2388
 4047ntf    sn221814   5.392   5.427   6.634  0.0530 -0.0177 -0.0595
 4047ntf    cn121815   5.526   5.346   6.726 -0.0477  0.3348  0.3963
 4047ntf    fn421816   5.127   5.276   7.060  0.3324 -0.0735  0.7154
 4047ntf    fn421817   5.125   5.166   6.880  0.0959  0.0195  0.6050
 4047ntf    fn421818   5.309   5.212   6.968  0.1249 -0.0287 -0.3304
 4047ntf    on521819   5.058   5.433   6.827  0.0572 -0.3846 -0.8242
 4047ntf    on521820   5.280   5.497   6.937  0.8257 -1.1799  0.2601
 4047ntf    on521821   5.431   5.563   6.657 -0.1359  0.0262 -0.0056
 4047ntf    on521822   5.407   5.369   6.502  0.5724 -0.2641  0.1019
 4047ntf    fn421823   5.507   5.215   6.721 -0.4209  0.3985  0.1686
 4047ntf    fn421824   5.646   5.385   6.685 -0.4319  0.4210 -0.6527
 4047ntf    fn421825   5.518   5.365   6.857  0.0614  0.1591  0.4300
 4048ntf    cn121826   5.688   6.606   6.465 -0.2920 -0.5337  0.1801
 4048ntf    sn221827   5.806   6.481   6.524  0.2804 -0.0649  0.0436
 4048ntf    nn321828   5.925   6.573   6.569  0.2559 -0.1875  0.3640
 4048ntf    sn221829   6.079   6.543   6.559  0.2334 -0.1020 -0.2432
 4048ntf    cn121830   6.115   6.595   6.388  0.0308  0.1485 -0.2113
 4048ntf    fn421831   5.660   6.693   6.560 -0.2736 -0.7210  0.3577
 4048ntf    fn421832   5.733   6.668   6.357 -0.1985 -0.0491  0.4967
 4048ntf    fn421833   5.573   6.554   6.425 -0.1971 -0.3054 -0.3985
 4048ntf    on521834   5.733   6.427   6.637  0.2575 -0.0349  0.0430
 4048ntf    on521835   5.828   6.395   6.410 -0.7482 -0.0793 -0.1565
 4048ntf    on521836   6.117   6.405   6.548  0.0943 -0.1588 -0.0135
 4048ntf    on521837   6.156   6.629   6.645  0.6681 -0.9163  0.1919
 4048ntf    fn421838   6.071   6.508   6.298 -0.2310 -0.1155  0.1631
 4048ntf    fn421839   6.066   6.714   6.361 -0.1075  0.0262 -0.5021
 4048ntf    fn421840   6.243   6.615   6.360  0.2270 -0.0937  0.4709
 4049ntf    cn121841   4.760   1.377   2.377 -0.0061  0.0967  0.3544
 4049ntf    sn221842   4.653   1.500   2.296 -0.1369 -0.0337  0.3279
 4049ntf    nn321843   4.625   1.579   2.429 -0.5603  0.2425  0.0765
 4049ntf    sn221844   4.650   1.728   2.472 -0.1138  0.1360  0.1911
 4049ntf    cn121845   4.508   1.766   2.579  0.0475  0.3049  0.3473
 4049ntf    fn421846   4.876   1.423   2.418  0.1292 -0.2691  0.3910
 4049ntf    fn421847   4.697   1.334   2.486 -0.0452  0.0202  0.3025
 4049ntf    fn421848   4.790   1.267   2.309 -0.3094  0.5524 -0.5290
 4049ntf    on521849   4.737   1.558   2.194 -0.4712 -0.3100 -0.1076
 4049ntf    on521850   4.535   1.426   2.258  0.0243 -0.1007 -0.0433
 4049ntf    on521851   4.637   1.830   2.371  0.1034  0.2653  0.2934
 4049ntf    on521852   4.757   1.731   2.569  0.0803 -0.4305  0.0002
 4049ntf    fn421853   4.473   1.891   2.606  0.3458  0.4315  0.1518
 4049ntf    fn421854   4.398   1.709   2.533  0.0426  0.4717  0.1530
 4049ntf    fn421855   4.520   1.713   2.700  0.7510  0.9863  0.5884
 4050ntf    cn121856   0.271   0.119   0.932 -0.1166 -0.1704  0.1901
 4050ntf    sn221857   0.421   0.215   0.968 -0.0750 -0.2162  0.1395
 4050ntf    nn321858   0.404   0.208   1.124  0.2425  0.1318  0.1921
 4050ntf    sn221859   0.492   0.133   1.230  0.0581 -0.0354  0.2286
 4050ntf    cn121860   0.653   0.218   1.239  0.1587 -0.1674 -0.2910
 4050ntf    fn421861   0.295  -0.010   0.950 -0.2044 -0.2107  0.0277
 4050ntf    fn421862   0.163   0.151   1.002  0.2598  0.4603  0.4928
 4050ntf    fn421863   0.238   0.129   0.804  0.2080  0.3271  0.1423
 4050ntf    on521864   0.529   0.134   0.917  0.4217  0.0536  0.7521
 4050ntf    on521865   0.406   0.345   0.907  0.0283 -0.1571  0.2399
 4050ntf    on521866   0.537   0.002   1.190 -0.4135 -0.0370 -0.3045
 4050ntf    on521867   0.441   0.148   1.364  0.1550 -0.1527  0.2788
 4050ntf    fn421868   0.645   0.347   1.266  0.7503 -0.0981 -0.4379
 4050ntf    fn421869   0.734   0.170   1.332  0.5063  0.3047 -0.3452
 4050ntf    fn421870   0.720   0.205   1.125 -0.1911 -0.1294 -0.5035
 4051ntf    cn121871   2.742   2.392   7.033 -0.0039 -0.0032  0.1101
 4051ntf    sn221872   2.642   2.482   6.911 -0.1307 -0.0459  0.1825
 4051ntf    nn321873   2.505   2.408   6.931 -0.0929 -0.1319  0.1246
 4051ntf    sn221874   2.411   2.336   6.827  0.0436  0.3585 -0.3424
 4051ntf    cn121875   2.346   2.484   6.743 -0.2749  0.4080 -0.0112
 4051ntf    fn421876   2.733   2.264   7.002 -0.5743  0.0099  0.2054
 4051ntf    fn421877   2.868   2.432   7.037 -0.1356  0.3664  0.6870
 4051ntf    fn421878   2.701   2.404   7.158  0.1140  0.3778  0.1136
 4051ntf    on521879   2.642   2.616   6.962  0.2013  0.1414 -0.3022
 4051ntf    on521880   2.719   2.451   6.792 -0.5588 -0.2664 -0.0398
 4051ntf    on521881   2.294   2.278   6.888  0.0051 -0.1833 -0.9228
 4051ntf    on521882   2.483   2.258   6.730 -0.0206 -0.7754  0.5001
 4051ntf    fn421883   2.435   2.562   6.685  0.5396 -0.1394  0.4802
 4051ntf    fn421884   2.259   2.448   6.651 -0.2693  0.4726 -0.0413
 4051ntf    fn421885   2.279   2.564   6.824  0.3953  0.0617  0.9178
 4052ntf    cn121886   1.694   5.775   1.887  0.4535 -0.2766 -0.0132
 4052ntf    sn221887   1.843   5.814   1.983  0.1189  0.2813  0.2835
 4052ntf    nn321888   1.906   5.672   1.960 -0.0142  0.2847 -0.0973
 4052ntf    sn221889   1.928   5.556   2.063  0.1057  0.0720 -0.3625
 4052ntf    cn121890   2.077   5.484   1.987 -0.1698 -0.2681 -0.5834
 4052ntf    fn421891   1.612   5.879   1.882 -0.0548 -0.6606  0.2521
 4052ntf    fn421892   1.723   5.746   1.761 -0.9540 -0.0952 -0.3960
 4052ntf    fn421893   1.628   5.677   1.947 -0.3219  0.2417 -0.0004
 4052ntf    on521894   1.916   5.920   1.919  0.2069  0.1011  0.0875
 4052ntf    on521895   1.792   5.844   2.115 -0.7729 -0.5905  0.1535
 4052ntf    on521896   1.827   5.455   2.043 -0.2413  0.3842 -0.1956
 4052ntf    on521897   1.961   5.580   2.201  0.0593 -0.2590 -0.2927
 4052ntf    fn421898   2.134   5.399   2.071 -0.7215 -0.1624 -0.1010
 4052ntf    fn421899   2.046   5.416   1.878 -0.7720 -0.7073 -0.1428
 4052ntf    fn421900   2.166   5.574   1.948  0.0477 -0.0289  0.4549
 4053ntf    cn121901   6.724   4.867   6.480 -0.0834  0.1908  0.3962
 4053ntf    sn221902   6.581   4.846   6.590 -0.1674 -0.2978  0.2001
 4053ntf    nn321903   6.507   4.729   6.515 -0.5362  0.0028  0.0904
 4053ntf    sn221904   6.503   4.574   6.540  0.2671  0.0076  0.2908
 4053ntf    cn121905   6.351   4.560   6.638 -0.0160 -0.0412 -0.1494
 4053ntf    fn421906   6.818   4.782   6.518 -0.1272 -0.1639 -0.2560
 4053ntf    fn421907   6.702   4.859   6.349  0.7365 -0.4554  0.2899
 4053ntf    fn421908   6.774   4.988   6.489  0.5356 -0.0507  0.2435
 4053ntf    on521909   6.641   4.819   6.718 -0.0984 -0.0208  0.2272
 4053ntf    on521910   6.509   4.971   6.583  0.2695 -0.0569 -0.0419
 4053ntf    on521911   6.604   4.522   6.628  0.4074  0.0399  0.1490
 4053ntf    on521912   6.474   4.506   6.416  0.3463  0.0363  0.2560
 4053ntf    fn421913   6.321   4.435   6.669  0.0425 -0.1635 -0.5900
 4053ntf    fn421914   6.343   4.630   6.750 -0.0396 -0.1976 -0.0527
 4053ntf    fn421915   6.243   4.606   6.578  0.1349  0.1978 -0.2370
 4054ntf    cn121916   3.117   0.936   2.095  0.0726 -0.0768 -0.1668
 4054ntf    sn221917   3.272   0.960   2.003  0.0568 -0.1533 -0.2121
 4054ntf    nn321918   3.325   1.084   2.083  0.1357 -0.1538 -0.2636
 4054ntf    sn221919   3.422   1.083   2.206 -0.0720 -0.3872 -0.1016
 4054ntf    cn121920   3.580   1.080   2.116 -0.1663  0.1257 -0.2891
 4054ntf    fn421921   3.034   0.849   2.040  0.1918 -0.3784  0.1346
 4054ntf    fn421922   3.130   0.902   2.222 -0.3426  0.2217 -0.0428
 4054ntf    fn421923   3.055   1.052   2.108 -0.0249 -0.1411 -0.0657
 4054ntf    on521924   3.344   0.838   2.031 -0.2077 -0.2768 -0.0725
 4054ntf    on521925   3.231   0.980   1.866  0.3462  0.6135 -0.1903
 4054ntf    on521926   3.422   0.964   2.287  0.2172 -0.7099 -0.5770
 4054ntf    on521927   3.422   1.205   2.283 -0.4246 -0.6185  0.2713
 4054ntf    fn421928   3.586   0.989   2.020  0.0016 -0.4154  0.2302
 4054ntf    fn421929   3.622   1.193   2.063  0.1934 -0.1185 -0.5252
 4054ntf    fn421930   3.677   1.049   2.200 -0.3786  0.2955  0.0224
 4055ntf    cn121931   1.436   5.201   3.680 -0.1388 -0.2233  0.3217
 4055ntf    sn221932   1.356   5.183   3.517  0.2365  0.2536  0.0834
 4055ntf    nn321933   1.265   5.060   3.552 -0.3582  0.3707 -1.0175
 4055ntf    sn221934   1.117   5.073   3.600 -0.0619 -0.2498  0.0925
 4055ntf    cn121935   1.121   4.944   3.728  0.0311 -0.1574  0.1824
 4055ntf    fn421936   1.349   5.191   3.779 -0.0069 -0.5567  0.4045
 4055ntf    fn421937   1.531   5.112   3.702  0.4278  0.3559  0.2499
 4055ntf    fn421938   1.504   5.314   3.686 -0.1317 -0.2088  0.0322
 4055ntf    on521939   1.295   5.309   3.485  0.1651  0.2257  0.1115
 4055ntf    on521940   1.462   5.143   3.427  0.1872  0.5969 -0.1298
 4055ntf    on521941   1.022   5.027   3.501  0.4861 -0.4220 -0.3549
 4055ntf    on521942   1.075   5.190   3.673 -0.7998 -0.3036 -0.2378
 4055ntf    fn421943   1.216   4.963   3.819 -0.3379  0.2763  0.4869
 4055ntf    fn421944   1.010   4.927   3.798  0.0436  0.5595  0.3849
 4055ntf    fn421945   1.153   4.824   3.683  0.3820 -0.0076  0.0309
 4056ntf    cn121946   2.013   4.168   0.323  0.3507 -0.0967 -0.3128
 4056ntf    sn221947   2.160   4.158   0.430  0.1652 -0.0809 -0.0558
 4056ntf    nn321948   2.229   4.291   0.383 -0.0435  0.1146  0.1825
 4056ntf    sn221949   2.376   4.329   0.341 -0.0855  0.2053  0.1187
 4056ntf    cn121950   2.371   4.270   0.169  0.0718  0.3622  0.0598
 4056ntf    fn421951   1.909   4.102   0.370 -0.0290  0.5830 -0.1825
 4056ntf    fn421952   1.968   4.289   0.292  0.1120 -0.0866  0.0638
 4056ntf    fn421953   2.042   4.112   0.207  0.2904  0.0544 -0.4011
 4056ntf    on521954   2.121   4.158   0.569 -0.5912  0.0007 -0.2618
 4056ntf    on521955   2.221   4.035   0.387 -0.1292 -0.2345 -0.0410
 4056ntf    on521956   2.474   4.247   0.408  0.1680  0.4417  0.0399
 4056ntf    on521957   2.395   4.472   0.334  0.0923  0.1985  0.4342
 4056ntf    fn421958   2.350   4.140   0.153  0.3750  0.3102  0.0800
 4056ntf    fn421959   2.284   4.334   0.092  0.1089 -0.1198 -0.3864
 4056ntf    fn421960   2.486   4.299   0.111  0.2779 -0.1645  0.2002
 4057ntf    cn121961   6.429   5.651   3.412  0.1010  0.1407  0.1616
 4057ntf    sn221962   6.257   5.613   3.457 -0.1371  0.5390 -0.4109
 4057ntf    nn321963   6.214   5.753   3.515 -0.3548  0.2648  0.0977
 4057ntf    sn221964   6.230   5.808   3.661 -0.4249  0.3283  0.0815
 4057ntf    cn121965   6.076   5.752   3.740 -0.3709  0.1110  0.0348
 4057ntf    fn421966   6.483   5.547   3.351 -0.5296 -0.2471  0.2559
 4057ntf    fn421967   6.438   5.751   3.326  0.6859 -0.4572 -0.4876
 4057ntf    fn421968   6.508   5.669   3.517  0.2686 -0.0563  0.0712
 4057ntf    on521969   6.195   5.579   3.331  0.2506  0.1582 -0.5001
 4057ntf    on521970   6.263   5.502   3.548 -0.2201  0.5345 -0.4107
 4057ntf    on521971   6.210   5.951   3.659  0.1965  0.4164  0.0691
 4057ntf    on521972   6.338   5.757   3.741  0.2812  0.7573 -0.5838
 4057ntf    fn421973   6.070   5.620   3.741 -0.0401  0.0940  0.3886
 4057ntf    fn421974   6.067   5.783   3.869 -0.0765 -0.6200  0.2382
 4057ntf    fn421975   5.969   5.798   3.677 -0.0680  0.3452 -0.3111
 4058ntf    cn121976   0.463   5.892   4.168 -0.3540  0.0683 -0.1916
 4058ntf    sn221977   0.624   5.860   4.247 -0.4364  0.1599  0.0139
 4058ntf    nn321978   0.703   5.991   4.215  0.0600 -0.1885 -0.1944
 4058ntf    sn221979   0.817   6.011   4.109  0.0598 -0.1767 -0.1921
 4058ntf    cn121980   0.963   5.932   4.183  0.1345 -0.1150 -0.2742
 4058ntf    fn421981   0.385   5.785   4.159  0.0956 -0.2627 -0.2241
 4058ntf    fn421982   0.384   5.985   4.218  0.2037  0.4223  0.0406
 4058ntf    fn421983   0.487   5.932   4.045  0.0550  0.2828 -0.0452
 4058ntf    on521984   0.592   5.839   4.386 -0.5895 -0.1161 -0.0615
 4058ntf    on521985   0.664   5.745   4.170 -0.2014  0.1239  0.1883
 4058ntf    on521986   0.848   6.151   4.094 -0.3909 -0.0307  0.2261
 4058ntf    on521987   0.812   5.942   3.982  0.4528 -0.5071 -0.0333
 4058ntf    fn421988   0.929   5.817   4.239 -0.0781 -0.2835 -0.7443
 4058ntf    fn421989   1.060   5.906   4.097  0.1983 -0.1517 -0.1912
 4058ntf    fn421990   1.009   6.010   4.280 -0.6573  0.1264 -0.0885
 4059ntf    cn121991   1.693   4.405   4.855  0.1209 -0.1604  0.0454
 4059ntf    sn221992   1.763   4.407   4.687 -0.3516 -0.3999 -0.1557
 4059ntf    nn321993   1.781   4.254   4.660 -0.5119 -0.4683  0.1204
 4059ntf    sn221994   1.907   4.161   4.656 -0.0442  0.1734 -0.3039
 4059ntf    cn121995   1.862   4.041   4.785  0.0835  0.0204 -0.4006
 4059ntf    fn421996   1.572   4.353   4.845  0.2029 -0.4163  0.3666
 4059ntf    fn421997   1.752   4.319   4.937  0.0480 -0.4311 -0.1857
 4059ntf    fn421998   1.661   4.520   4.913  0.2419 -0.0209 -0.1631
 4059ntf    on521999   1.653   4.458   4.609 -0.2818 -0.3779 -0.2393
 4059ntf    on522000   1.885   4.484   4.693 -0.0622 -0.8997  0.4590
 4059ntf    on522001   2.025   4.222   4.712 -0.2017  0.1274  0.0794
 4059ntf    on522002   1.929   4.088   4.534  0.6438 -0.1922  0.0285
 4059ntf    fn422003   1.736   4.005   4.772  0.0278  0.2688 -0.5573
 4059ntf    fn422004   1.942   3.935   4.788  0.1188  0.0474 -0.3992
 4059ntf    fn422005   1.879   4.092   4.906 -0.4506  0.4819 -0.5179
 4060ntf    cn122006   5.949   4.884   4.617 -0.1083  0.2480 -0.4158
 4060ntf    sn222007   6.085   4.964   4.707 -0.0919  0.1541 -0.3575
 4060ntf    nn322008   6.008   4.973   4.844  0.3990  0.5081 -0.1037
 4060ntf    sn222009   6.049   5.058   4.969  0.2798  0.2358  0.1214
 4060ntf    cn122010   6.012   4.932   5.095  0.5269  0.0138 -0.0262
 4060ntf    fn422011   5.990   4.845   4.497 -0.2878 -0.1121 -0.3611
 4060ntf    fn422012   5.897   4.777   4.675 -0.2306  0.5634  0.0544
 4060ntf    fn422013   5.847   4.964   4.592 -0.0282  0.3333 -0.4715
 4060ntf    on522014   6.187   4.863   4.690 -0.1401 -0.0458  0.4872
 4060ntf    on522015   6.101   5.085   4.630  0.4064  0.5325  0.3382
 4060ntf    on522016   5.954   5.163   4.995  0.0487  0.0951 -0.1480
 4060ntf    on522017   6.188   5.093   4.978  0.2460  0.3627  0.1564
 4060ntf    fn422018   6.057   4.996   5.203 -0.1641  0.6832 -0.1245
 4060ntf    fn422019   5.883   4.905   5.112  0.5877 -0.3770 -0.1925
 4060ntf    fn422020   6.074   4.816   5.083  0.4290 -0.0299 -0.1109
 4061ntf    cn122021   5.511   4.775   1.578  0.3685 -0.1156 -0.0843
 4061ntf    sn222022   5.629   4.751   1.442  0.3376 -0.0701 -0.1192
 4061ntf    nn322023   5.701   4.615   1.474  0.1546 -0.0470  0.4045
 4061ntf    sn222024   5.853   4.590   1.504  0.2146 -0.1664  0.0115
 4061ntf    cn122025   5.851   4.610   1.685 -0.3306 -0.0325 -0.0077
 4061ntf    fn422026   5.570   4.738   1.691 -0.0903 -0.2125  0.1263
 4061ntf    fn422027   5.468   4.900   1.583  0.1772 -0.1959  0.3517
 4061ntf    fn422028   5.408   4.692   1.564 -0.3242  0.7909 -0.4622
 4061ntf    on522029   5.543   4.751   1.326 -0.0353  0.7118  0.1484
 4061ntf    on522030   5.708   4.871   1.458  0.2053  0.0489 -0.3549
 4061ntf    on522031   5.954   4.684   1.461  0.2524 -0.0955  0.2515
 4061ntf    on522032   5.877   4.449   1.487  0.0245 -0.1330 -0.5376
 4061ntf    fn422033   5.812   4.728   1.731  0.7242  0.3734 -0.1178
 4061ntf    fn422034   5.785   4.518   1.752  0.3682 -0.4936  0.0569
 4061ntf    fn422035   5.974   4.598   1.732 -0.2640 -0.0445 -0.1814
 4062ntf    cn122036   3.431   5.460   7.162 -0.0469 -0.2277 -0.1596
 4062ntf    sn222037   3.417   5.641   7.155 -0.2762 -0.2351  0.0709
 4062ntf    nn322038   3.369   5.661   7.007 -0.3057  0.4930  0.1762
 4062ntf    sn222039   3.244   5.736   6.948 -0.4141  0.0357 -0.1851
 4062ntf    cn122040   3.129   5.596   6.947 -0.1555 -0.1847  0.3674
 4062ntf    fn422041   3.526   5.427   7.248 -0.4345  0.4613  0.5444
 4062ntf    fn422042   3.316   5.403   7.193  0.0704 -0.4930 -0.2110
 4062ntf    fn422043   3.470   5.410   7.046  0.0238 -0.2150 -0.1414
 4062ntf    on522044   3.312   5.654   7.252 -0.1577 -0.1251  0.1845
 4062ntf    on522045   3.547   5.693   7.192 -0.1685  0.0127 -0.6366
 4062ntf    on522046   3.271   5.771   6.811  0.5193  0.0951  0.0053
 4062ntf    on522047   3.195   5.838   7.037 -0.3956 -0.0535 -0.0725
 4062ntf    fn422048   3.019   5.637   6.885 -0.0763  0.0550  0.3860
 4062ntf    fn422049   3.183   5.495   6.879 -0.1146  0.3280 -0.3761
 4062ntf    fn422050   3.097   5.551   7.067 -0.0454  0.1060  0.5042
 4063ntf    cn122051   0.142   1.304   3.730  0.1223 -0.2218  0.2910
 4063ntf    sn222052   0.042   1.153   3.728 -0.0351 -0.1145  0.0110
 4063ntf    nn322053  -0.071   1.199   3.629  0.0600 -0.0176 -0.0518
 4063ntf    sn222054  -0.215   1.246   3.669  0.0891 -0.4184  0.5337
 4063ntf    cn122055  -0.284   1.080   3.697 -0.2320 -0.3348  0.2426
 4063ntf    fn422056   0.080   1.402   3.792 -0.4961 -0.3770 -0.0710
 4063ntf    fn422057   0.251   1.289   3.803  0.1370  0.3591  0.3939
 4063ntf    fn422058   0.178   1.348   3.610  0.1413  0.1234  0.4218
 4063ntf    on522059   0.120   1.047   3.668  0.1436  0.0627 -0.0689
 4063ntf    on522060   0.003   1.140   3.866  0.4381 -0.0603  0.1518
 4063ntf    on522061  -0.283   1.295   3.552  0.0370 -0.0056  0.7327
 4063ntf    on522062  -0.225   1.324   3.790  0.0668 -0.1112  0.3339
 4063ntf    fn422063  -0.258   1.012   3.586 -0.1331  0.1505 -0.0341
 4063ntf    fn422064  -0.229   1.015   3.798  0.5415 -0.0990 -0.0199
 4063ntf    fn422065  -0.415   1.085   3.712 -0.1751  0.2165  0.5774
 4064ntf    cn122066   1.079   1.479   3.046 -0.2455 -0.1077 -0.0613
 4064ntf    sn222067   0.961   1.394   2.937  0.1252 -0.0993 -0.4704
 4064ntf    nn322068   0.975   1.254   3.005  0.2440  0.2643  0.2614
 4064ntf    sn222069   0.884   1.182   3.111  0.2405  0.1073  0.1521
 4064ntf    cn122070   0.751   1.116   3.006 -0.2054  0.4058  0.5205
 4064ntf    fn422071   1.064   1.464   3.177  0.1523 -0.0096 -0.0020
 4064ntf    fn422072   1.206   1.449   3.024 -0.1792 -0.2725  0.5202
 4064ntf    fn422073   1.075   1.609   3.020 -0.3506 -0.1518 -0.2689
 4064ntf    on522074   0.836   1.460   2.964  0.3909 -0.0175  0.6052
 4064ntf    on522075   1.023   1.406   2.807  0.4403  0.0426 -0.3065
 4064ntf    on522076   0.812   1.269   3.201  0.3837 -0.0002  0.3711
 4064ntf    on522077   0.945   1.071   3.180  0.6890  0.2629  0.0082
 4064ntf    fn422078   0.652   1.059   3.072  0.4798 -0.7195  0.6095
 4064ntf    fn422079   0.695   1.210   2.932 -0.4867 -0.2827 -0.1590
 4064ntf    fn422080   0.797   1.021   2.925  0.0629  0.2602  0.8438
 4065ntf    cn122081   0.795   2.806   3.098  0.0199  0.4127  0.2736
 4065ntf    sn222082   0.820   2.745   2.929 -0.0084  0.2759  0.3189
 4065ntf    nn322083   0.974   2.771   2.908 -0.1360  0.2358 -0.7255
 4065ntf    sn222084   1.062   2.703   2.798  0.1937 -0.2704 -0.1504
 4065ntf    cn122085   0.965   2.737   2.648  0.0382  0.2408  0.0648
 4065ntf    fn422086   0.679   2.762   3.145 -0.0497  0.1767 -0.1186
 4065ntf    fn422087   0.888   2.758   3.179  0.1970  0.3609  0.0403
 4065ntf    fn422088   0.783   2.938   3.102  0.7610  0.4759  0.5125
 4065ntf    on522089   0.772   2.609   2.929  0.0023  0.2676 -0.2962
 4065ntf    on522090   0.743   2.839   2.852 -0.0165 -0.0103 -0.0250
 4065ntf    on522091   1.068   2.559   2.808 -0.0867 -0.2561  0.2674
 4065ntf    on522092   1.190   2.766   2.776  0.3038 -0.4548 -0.0465
 4065ntf    fn422093   1.047   2.720   2.546  0.2215  0.1830  0.2199
 4065ntf    fn422094   0.861   2.657   2.636 -0.2627  0.6544 -0.1092
 4065ntf    fn422095   0.917   2.860   2.639  0.2653  0.3439  0.2343
 4066ntf    cn122096   0.203   5.501   5.345 -0.1524  0.0559 -0.3281
 4066ntf    sn222097   0.382   5.532   5.347 -0.1590  0.1032 -0.4452
 4066ntf    nn322098   0.442   5.394   5.303 -0.5146 -0.2561  0.1780
 4066ntf    sn222099   0.559   5.365   5.203 -0.3217  0.5656  0.1611
 4066ntf    cn122100   0.489   5.368   5.035  0.0661 -0.5459 -0.0286
 4066ntf    fn422101   0.134   5.592   5.410 -0.0011 -0.0849  0.0319
 4066ntf    fn422102   0.154   5.492   5.222 -0.3332  0.0151 -0.2527
 4066ntf    fn422103   0.176   5.381   5.394  0.3422  0.0658 -0.0231
 4066ntf    on522104   0.404   5.636   5.249 -0.3659  0.5461 -0.0268
 4066ntf    on522105   0.408   5.563   5.486 -0.8047 -0.5313 -0.1764
 4066ntf    on522106   0.604   5.228   5.209 -0.4817  0.5243  0.4013
 4066ntf    on522107   0.668   5.460   5.211 -0.0503  0.2954 -0.2669
 4066ntf    fn422108   0.585   5.334   4.950  0.3141  0.0824 -0.0044
 4066ntf    fn422109   0.386   5.290   5.008 -0.3997  0.0492  0.0206
 4066ntf    fn422110   0.458   5.491   4.997  0.2939 -0.4082  0.2287
 4067ntf    cn122111   0.073   4.943   3.965 -0.3996  0.0038  0.3620
 4067ntf    sn222112   0.130   5.116   3.977  0.0030 -0.1023  0.0129
 4067ntf    nn322113   0.244   5.116   3.869 -0.1215 -0.0402 -0.1185
 4067ntf    sn222114   0.395   5.082   3.896 -0.1512 -0.0722  0.0102
 4067ntf    cn122115   0.445   5.241   3.968 -0.3678  0.1354 -0.2900
 4067ntf    fn422116  -0.021   4.920   4.055 -0.8754 -0.3973 -0.2337
 4067ntf    fn422117   0.020   4.920   3.846  0.4019 -0.2312  0.0462
 4067ntf    fn422118   0.170   4.855   3.985  0.1522  0.3507 -0.7232
 4067ntf    on522119   0.016   5.191   3.930 -0.4675 -0.8729 -0.1023
 4067ntf    on522120   0.164   5.129   4.117  0.5853  0.5160 -0.1847
 4067ntf    on522121   0.471   5.077   3.774 -0.1338  0.4027 -0.0014
 4067ntf    on522122   0.417   4.980   3.995  0.5961  0.0358 -0.0377
 4067ntf    fn422123   0.457   5.336   3.877  0.3420  0.3276 -0.0017
 4067ntf    fn422124   0.358   5.296   4.052 -0.1839 -0.3639  0.2408
 4067ntf    fn422125   0.567   5.238   4.021 -0.3844  0.0995 -0.2528
 4068ntf    cn122126   2.687   6.616   6.495  0.0057 -0.4572 -0.0858
 4068ntf    sn222127   2.526   6.687   6.452 -0.0312 -0.4195  0.1140
 4068ntf    nn322128   2.435   6.561   6.433  0.1491 -0.5565  0.1591
 4068ntf    sn222129   2.307   6.537   6.345  0.1293  0.1476 -0.0018
 4068ntf    cn122130   2.384   6.467   6.196 -0.0235  0.1820 -0.0971
 4068ntf    fn422131   2.775   6.706   6.537 -0.1889 -0.4483  0.3081
 4068ntf    fn422132   2.670   6.529   6.594 -0.2963 -0.1078  0.1716
 4068ntf    fn422133   2.735   6.543   6.396 -0.2728 -0.7085 -0.0386
 4068ntf    on522134   2.494   6.772   6.564 -0.0660 -0.0777 -0.1528
 4068ntf    on522135   2.558   6.752   6.327  0.4202  0.3386  0.6132
 4068ntf    on522136   2.238   6.659   6.310  0.0061  0.0802  0.0088
 4068ntf    on522137   2.225   6.430   6.395  0.6284 -0.1087  0.2841
 4068ntf    fn422138   2.295   6.400   6.125  0.3502  0.0021 -0.3988
 4068ntf    fn422139   2.432   6.558   6.113 -0.1966  0.4793  0.1278
 4068ntf    fn422140   2.483   6.385   6.228 -0.1373  0.0143 -0.1711
 4069ntf    cn122141   3.644   2.881   0.326 -0.0107 -0.1247 -0.3846
 4069ntf    sn222142   3.808   2.937   0.379 -0.2326 -0.0339  0.2250
 4069ntf    nn322143   3.870   2.932   0.234  0.1382 -0.2314  0.3883
 4069ntf    sn222144   3.946   2.812   0.167 -0.0777 -0.2746  0.2205
 4069ntf    cn122145   4.118   2.865   0.189 -0.1385  0.0886 -0.1505
 4069ntf    fn422146   3.603   2.963   0.231  0.2452  0.0013 -0.3861
 4069ntf    fn422147   3.639   2.754   0.289  0.4438 -0.3104  0.1811
 4069ntf    fn422148   3.550   2.894   0.419  0.0116 -0.1843 -0.3537
 4069ntf    on522149   3.787   3.074   0.421  0.0071  0.0068  0.2171
 4069ntf    on522150   3.855   2.839   0.473 -0.0577 -0.0448  0.1283
 4069ntf    on522151   3.933   2.818   0.023 -0.5561 -0.3379  0.2586
 4069ntf    on522152   3.935   2.680   0.224 -0.0425  0.0583  1.0102
 4069ntf    fn422153   4.150   2.966   0.110 -0.2751 -0.2580 -0.6565
 4069ntf    fn422154   4.140   2.900   0.315 -0.4118  0.4301 -0.1967
 4069ntf    fn422155   4.206   2.767   0.175 -0.0663  0.1714 -0.2753
 4070ntf    cn122156   1.510   4.937   6.023  0.1454  0.3151  0.0575
 4070ntf    sn222157   1.457   4.765   6.046  0.5106  0.1580 -0.2678
 4070ntf    nn322158   1.355   4.756   5.927 -0.2876 -0.1120  0.4277
 4070ntf    sn222159   1.278   4.628   5.877  0.1763 -0.2522  0.0608
 4070ntf    cn122160   1.109   4.692   5.855  0.2882 -0.0240 -0.1354
 4070ntf    fn422161   1.641   4.944   6.002  0.1783  0.0345  0.1710
 4070ntf    fn422162   1.451   5.007   5.927  0.2616  0.1791 -0.1143
 4070ntf    fn422163   1.486   5.002   6.135 -0.0162  0.2520  0.0596
 4070ntf    on522164   1.574   4.680   6.037  0.3633 -0.0584 -0.1484
 4070ntf    on522165   1.389   4.771   6.172  0.4664  0.0475 -0.2858
 4070ntf    on522166   1.258   4.528   5.979 -0.9168 -0.3799 -0.2669
 4070ntf    on522167   1.319   4.585   5.746  0.3502 -0.3024  0.1303
 4070ntf    fn422168   1.034   4.614   5.778 -0.2373 -0.0048  0.3575
 4070ntf    fn422169   1.042   4.717   5.966 -0.4849 -0.4210 -0.5031
 4070ntf    fn422170   1.110   4.809   5.793 -0.1118  0.0918  0.0808
 4071ntf    cn122171   1.958   1.878   0.541  0.2082  0.1434 -0.3396
 4071ntf    sn222172   1.948   2.049   0.600 -0.2455 -0.0089  0.0261
 4071ntf    nn322173   1.800   2.081   0.557 -0.4190 -0.5684  0.2081
 4071ntf    sn222174   1.740   2.190   0.461  0.1574 -0.3232  0.1239
 4071ntf    cn122175   1.628   2.276   0.575  0.1403 -0.0142 -0.1258
 4071ntf    fn422176   1.874   1.802   0.609  0.3363  0.1715 -0.1515
 4071ntf    fn422177   1.929   1.881   0.412  0.1071 -0.0274 -0.3207
 4071ntf    fn422178   2.084   1.839   0.549  0.0705 -0.2683 -0.1893
 4071ntf    on522179   1.948   2.043   0.744 -0.6322 -0.4725  0.0096
 4071ntf    on522180   2.062   2.118   0.546 -0.2462  0.0865  0.1452
 4071ntf    on522181   1.651   2.140   0.360 -0.0894  0.2361  0.0612
 4071ntf    on522182   1.825   2.302   0.432  0.4736 -0.5127  0.3106
 4071ntf    fn422183   1.531   2.203   0.628  0.4160 -0.0169  0.3772
 4071ntf    fn422184   1.703   2.325   0.672  0.3732 -0.4097 -0.1044
 4071ntf    fn422185   1.568   2.383   0.525 -0.1390 -0.1169 -0.0152
 4072ntf    cn122186   6.576   5.962   3.145 -0.3709 -0.2209 -0.3344
 4072ntf    sn222187   6.743   5.925   3.207 -0.3545 -0.0741 -0.2874
 4072ntf    nn322188   6.714   5.781   3.263  0.3704  0.1455  0.6764
 4072ntf    sn222189   6.824   5.678   3.306  0.2643 -0.1168  0.3251
 4072ntf    cn122190   6.844   5.576   3.157 -0.0350  0.2898  0.0024
 4072ntf    fn422191   6.572   6.080   3.084 -0.1415  0.1642  0.3775
 4072ntf    fn422192   6.550   5.874   3.050 -0.5218 -0.0456 -0.4562
 4072ntf    fn422193   6.479   5.957   3.235 -0.0600 -0.2876  0.0008
 4072ntf    on522194   6.825   5.936   3.088  0.4553  0.1529  0.2804
 4072ntf    on522195   6.749   6.023   3.312 -0.4661  0.2208 -0.5546
 4072ntf    on522196   6.779   5.586   3.407 -0.5797  0.0610  0.1196
 4072ntf    on522197   6.953   5.741   3.321  0.0726  0.2792  0.3121
 4072ntf    fn422198   6.843   5.654   3.050 -0.1553  0.2753 -0.0073
 4072ntf    fn422199   6.954   5.503   3.160 -0.2230  0.0176  0.3051
 4072ntf    fn422200   6.749   5.487   3.136  0.4426 -0.0793 -0.6401
 4073ntf    cn122201   6.760   3.798   1.042  0.1529 -0.6111 -0.2762
 4073ntf    sn222202   6.648   3.688   0.949 -0.2117 -0.3550 -0.1453
 4073ntf    nn322203   6.545   3.645   1.059 -0.1288 -0.5012 -0.1235
 4073ntf    sn222204   6.430   3.734   1.119  0.3170 -0.1695  0.2494
 4073ntf    cn122205   6.294   3.683   1.009  0.3003  0.3184  0.0415
 4073ntf    fn422206   6.693   3.904   1.082  0.5938 -0.4590  0.0624
 4073ntf    fn422207   6.802   3.733   1.149 -0.1608 -0.2710  0.0530
 4073ntf    fn422208   6.866   3.840   0.974  0.4044 -0.0831  0.4378
 4073ntf    on522209   6.599   3.767   0.839  0.9459 -0.0142 -0.4352
 4073ntf    on522210   6.742   3.583   0.916 -0.2954 -0.4267 -0.1529
 4073ntf    on522211   6.433   3.876   1.098 -0.2925 -0.1374  0.3676
 4073ntf    on522212   6.397   3.673   1.246 -0.4519 -0.3615 -0.0393
 4073ntf    fn422213   6.290   3.551   1.001 -0.0838  0.3041  0.4263
 4073ntf    fn422214   6.175   3.731   1.042  0.0713 -0.3602  0.2211
 4073ntf    fn422215   6.323   3.728   0.889 -0.0444 -0.1641 -0.2262
 4074ntf    cn122216   6.317   2.435   0.507 -0.0925  0.2862 -0.0931
 4074ntf    sn222217   6.389   2.276   0.456 -0.2811  0.1821 -0.0381
 4074ntf    nn322218   6.263   2.184   0.469 -0.2238  0.1983  0.6708
 4074ntf    sn222219   6.257   2.031   0.500  0.2807  0.1002  0.2909
 4074ntf    cn122220   6.217   1.961   0.337  0.2245 -0.1391  0.4074
 4074ntf    fn422221   6.227   2.486   0.424  0.1455  0.3036 -0.3408
 4074ntf    fn422222   6.259   2.423   0.625  0.2877  0.1650  0.0808
 4074ntf    fn422223   6.411   2.527   0.518  0.5100 -0.3764  0.3422
 4074ntf    on522224   6.422   2.304   0.318 -0.6385 -1.0698 -0.3909
 4074ntf    on522225   6.490   2.251   0.556 -0.1983 -0.5061 -0.2928
 4074ntf    on522226   6.133   1.994   0.564  0.1491  0.1797  0.0799
 4074ntf    on522227   6.376   1.966   0.550  0.1995 -0.0338  0.3118
 4074ntf    fn422228   6.234   1.829   0.340  0.1437 -0.1712 -0.4582
 4074ntf    fn422229   6.094   1.982   0.293  0.3485 -0.4702 -0.1065
 4074ntf    fn422230   6.297   2.012   0.246 -0.3278 -0.7650 -0.4486
 4075ntf    cn122231   4.288   1.099   4.501  0.3402  0.1039 -0.2305
 4075ntf    sn222232   4.423   1.185   4.588  0.2078  0.0231  0.0586
 4075ntf    nn322233   4.372   1.176   4.736 -0.5144  0.5465 -0.1522
 4075ntf    sn222234   4.404   1.278   4.851  0.3266 -0.1886  0.2789
 4075ntf    cn122235   4.253   1.378   4.833 -0.0769 -0.9127 -0.3998
 4075ntf    fn422236   4.248   0.990   4.565  0.1750  0.1324 -0.2850
 4075ntf    fn422237   4.185   1.180   4.486 -0.0551 -0.3938 -0.2631
 4075ntf    fn422238   4.328   1.059   4.382  0.6107 -0.5943  0.0856
 4075ntf    on522239   4.543   1.110   4.560 -0.0508 -0.4098  0.0970
 4075ntf    on522240   4.408   1.316   4.530 -0.0891  0.0870  0.2775
 4075ntf    on522241   4.511   1.373   4.834 -0.0699  0.2267  0.0972
 4075ntf    on522242   4.392   1.222   4.984  0.1329  0.4363  0.5310
 4075ntf    fn422243   4.145   1.302   4.831 -0.1301 -0.8425 -0.1817
 4075ntf    fn422244   4.233   1.463   4.932  0.4968 -0.2055 -0.8811
 4075ntf    fn422245   4.255   1.447   4.720  0.0337 -0.3545 -0.0577
 4076ntf    cn122246   3.321   0.453   1.707 -0.4835  0.0580 -0.4676
 4076ntf    sn222247   3.210   0.337   1.792  0.0219 -0.0489  0.0474
 4076ntf    nn322248   3.262   0.196   1.745  0.3225  0.0915 -0.0479
 4076ntf    sn222249   3.199   0.103   1.635  0.0298  0.1567  0.0620
 4076ntf    cn122250   3.080   0.022   1.746  0.2112 -0.0686  0.0915
 4076ntf    fn422251   3.441   0.399   1.696 -0.3289  0.3425 -0.2043
 4076ntf    fn422252   3.277   0.476   1.584  0.1425 -0.4432 -0.7921
 4076ntf    fn422253   3.337   0.571   1.764 -0.0474 -0.2368  0.0294
 4076ntf    on522254   3.245   0.355   1.931  0.2774  0.7563 -0.1135
 4076ntf    on522255   3.080   0.380   1.750  0.1001  0.4921  0.3435
 4076ntf    on522256   3.278  -0.011   1.595 -0.1366  0.0468  0.0482
 4076ntf    on522257   3.126   0.170   1.530 -0.1336 -0.6256 -0.3268
 4076ntf    fn422258   3.014   0.106   1.823  0.3261  0.1693 -0.0694
 4076ntf    fn422259   2.992  -0.053   1.681 -0.1149  0.4059 -0.0200
 4076ntf    fn422260   3.130  -0.060   1.838  0.4377  0.0842  0.1050
 4077ntf    cn122261   5.303   3.184   1.010 -0.3719  0.1820  0.3171
 4077ntf    sn222262   5.170   3.140   0.893  0.0283 -0.1312 -0.0252
 4077ntf    nn322263   5.207   2.990   0.866  0.3887 -0.1498  0.5402
 4077ntf    sn222264   5.296   2.944   0.744 -0.2305 -0.0897  0.0620
 4077ntf    cn122265   5.188   2.933   0.598  0.3275  0.0166 -0.3627
 4077ntf    fn422266   5.420   3.167   0.951 -0.6148 -0.3669 -0.0137
 4077ntf    fn422267   5.306   3.314   1.033 -0.3524  0.2542 -0.0887
 4077ntf    fn422268   5.307   3.127   1.129 -0.6963 -0.2621  0.1186
 4077ntf    on522269   5.051   3.139   0.975  0.5109  0.1212  0.6904
 4077ntf    on522270   5.185   3.237   0.788  0.6123 -0.3158 -0.1180
 4077ntf    on522271   5.357   2.815   0.763  0.7417  0.2851 -0.4448
 4077ntf    on522272   5.387   3.045   0.696 -0.2947  0.0142  0.1571
 4077ntf    fn422273   5.065   2.886   0.610  0.4586 -0.1756  0.2789
 4077ntf    fn422274   5.170   3.053   0.546  0.5581 -0.0489 -0.5907
 4077ntf    fn422275   5.238   2.853   0.506 -0.3283 -0.7332 -0.0733
 4078ntf    cn122276   1.328   6.997   2.042 -0.2172 -0.0489 -0.1740
 4078ntf    sn222277   1.457   7.027   1.917  0.1512 -0.2553  0.1560
 4078ntf    nn322278   1.449   6.905   1.818 -0.9297  0.0097 -0.0988
 4078ntf    sn222279   1.486   6.901   1.666 -0.1766 -0.0218  0.0835
 4078ntf    cn122280   1.621   6.779   1.673 -0.0490  0.1344  0.3652
 4078ntf    fn422281   1.210   6.987   1.981 -0.0747 -0.0572 -0.4501
 4078ntf    fn422282   1.329   6.882   2.108  0.0796 -0.1569 -0.3631
 4078ntf    fn422283   1.316   7.089   2.136 -0.1815  0.5890 -0.7862
 4078ntf    on522284   1.409   7.152   1.864 -0.1837 -0.2609  0.4415
 4078ntf    on522285   1.578   7.030   1.995  0.1719 -0.2590  0.1242
 4078ntf    on522286   1.554   7.018   1.617  0.2495 -0.0337  0.6374
 4078ntf    on522287   1.380   6.841   1.589 -0.0127  0.7124 -0.7276
 4078ntf    fn422288   1.576   6.665   1.722 -0.0536 -0.0998 -0.1693
 4078ntf    fn422289   1.685   6.755   1.559  0.1955  0.4957  0.4261
 4078ntf    fn422290   1.712   6.815   1.762 -0.2441  0.4820  0.4242
 4079ntf    cn122291   2.899   2.765   7.154 -0.1173  0.0112 -0.0276
 4079ntf    sn222292   3.010   2.815   7.288 -0.2110 -0.2030  0.1300
 4079ntf    nn322293   3.152   2.822   7.220 -0.3904  0.1031 -0.2117
 4079ntf    sn222294   3.272   2.916   7.259 -0.5762  0.2582 -0.0108
 4079ntf    cn122295   3.220   3.060   7.162  0.2082  0.3987 -0.2267
 4079ntf    fn422296   2.870   2.871   7.079  0.4026  0.4143  0.3378
 4079ntf    fn422297   2.948   2.672   7.074  0.1322 -0.2895  0.4713
 4079ntf    fn422298   2.786   2.715   7.201  0.1223 -0.2670  0.2559
 4079ntf    on522299   2.959   2.946   7.318  0.2729  0.1324 -0.4882
 4079ntf    on522300   3.001   2.710   7.387 -0.4528  0.2247  0.5661
 4079ntf    on522301   3.393   2.867   7.200 -0.1779  0.5589  0.5429
 4079ntf    on522302   3.285   2.961   7.396  0.0630  0.1074 -0.0182
 4079ntf    fn422303   3.319   3.129   7.107  0.1186 -0.1239 -1.0572
 4079ntf    fn422304   3.157   3.021   7.053  0.1211 -0.3688  0.0933
 4079ntf    fn422305   3.148   3.145   7.233 -0.0646 -0.0839  0.0768
 4080ntf    cn122306   5.736   6.579   2.288 -0.2366  0.1823 -0.1196
 4080ntf    sn222307   5.711   6.566   2.108  0.0465 -0.0839 -0.1419
 4080ntf    nn322308   5.635   6.429   2.106  0.0423 -0.1006  0.6243
 4080ntf    sn222309   5.698   6.286   2.115 -0.0282 -0.1525  0.3359
 4080ntf    cn122310   5.696   6.224   1.944  0.2574  0.3077  0.1640
 4080ntf    fn422311   5.847   6.515   2.323 -0.3031  0.1111 -0.0375
 4080ntf    fn422312   5.737   6.702   2.335  0.5201  0.0489  0.2326
 4080ntf    fn422313   5.650   6.514   2.365  0.2772  0.1328  0.4217
 4080ntf    on522314   5.625   6.675   2.068  0.0709  0.0367  0.1296
 4080ntf    on522315   5.846   6.559   2.060  0.1300 -0.1661  0.1022
 4080ntf    on522316   5.614   6.198   2.193 -0.1511  0.1244  0.5166
 4080ntf    on522317   5.841   6.290   2.138 -0.0067  0.5420  0.0965
 4080ntf    fn422318   5.781   6.123   1.932 -0.0698  0.1007 -0.4300
 4080ntf    fn422319   5.575   6.184   1.908  0.4183 -0.1399  0.1154
 4080ntf    fn422320   5.741   6.312   1.857  0.6963  0.1035  0.1808
 4081ntf    cn122321   5.192   2.328   6.665 -0.3443  0.2736  0.2168
 4081ntf    sn222322   5.086   2.258   6.534  0.2277  0.0456 -0.1279
 4081ntf    nn322323   5.205   2.232   6.435  0.3486 -0.0975  0.0527
 4081ntf    sn222324   5.239   2.108   6.344 -0.0386 -0.1031 -0.0885
 4081ntf    cn122325   5.381   2.040   6.436 -0.1355 -0.0062  0.1347
 4081ntf    fn422326   5.256   2.439   6.632 -0.3869  0.1290 -0.3510
 4081ntf    fn422327   5.123   2.358   6.774 -0.0364  0.1084  0.4581
 4081ntf    fn422328   5.287   2.249   6.711 -0.0405  0.3229 -0.3190
 4081ntf    on522329   5.028   2.137   6.586  0.5182 -0.0227  0.0386
 4081ntf    on522330   4.994   2.363   6.498  0.1573  0.1310  0.2900
 4081ntf    on522331   5.298   2.147   6.219 -0.3045  0.5396 -0.0182
 4081ntf    on522332   5.139   2.004   6.345  0.0115 -0.1541 -0.3872
 4081ntf    fn422333   5.422   1.938   6.362 -0.5858 -0.1567  0.0878
 4081ntf    fn422334   5.478   2.129   6.450  0.4843 -0.6977  0.2864
 4081ntf    fn422335   5.351   1.997   6.557 -0.0672 -0.2053  0.0809
 4082ntf    cn122336   1.634   3.269   6.539  0.1655  0.0430 -0.0849
 4082ntf    sn222337   1.521   3.137   6.486 -0.2435  0.2935  0.1515
 4082ntf    nn322338   1.511   3.174   6.334 -0.5381 -0.0565  0.0845
 4082ntf    sn222339   1.587   3.115   6.210 -0.1114 -0.1517  0.3887
 4082ntf    cn122340   1.465   2.988   6.162 -0.3367  0.2495 -0.1030
 4082ntf    fn422341   1.580   3.390   6.540  0.5356  0.2085  0.3799
 4082ntf    fn422342   1.683   3.268   6.662  0.6053  0.3134 -0.2555
 4082ntf    fn422343   1.728   3.276   6.447  0.0238 -0.1989 -0.2499
 4082ntf    on522344   1.586   3.014   6.524 -0.0431  0.4709  0.3838
 4082ntf    on522345   1.393   3.166   6.545 -0.4306 -0.0364 -0.0866
 4082ntf    on522346   1.705   3.034   6.225  0.0097 -0.1215 -0.3642
 4082ntf    on522347   1.581   3.202   6.095 -0.1380 -0.1675  0.3785
 4082ntf    fn422348   1.409   3.021   6.046 -0.3454  0.5981 -0.0015
 4082ntf    fn422349   1.514   2.866   6.146 -0.3092  0.2520 -0.0372
 4082ntf    fn422350   1.368   2.981   6.251  0.0155 -0.0414  0.2575
 4083ntf    cn122351   1.743   1.802   6.979 -0.1496  0.4296 -0.0806
 4083ntf    sn222352   1.671   1.674   6.872  0.2559 -0.0530  0.2267
 4083ntf    nn322353   1.526   1.732   6.867  0.2982  0.1073  0.7957
 4083ntf    sn222354   1.392   1.669   6.920 -0.1270  0.1578 -0.1920
 4083ntf    cn122355   1.274   1.763   6.819  0.0767  0.4562 -0.1548
 4083ntf    fn422356   1.693   1.798   7.102  0.5608 -0.5560  0.1794
 4083ntf    fn422357   1.870   1.778   7.006 -0.2450 -0.0311 -0.0473
 4083ntf    fn422358   1.734   1.928   6.938 -0.4408  0.2973 -0.4224
 4083ntf    on522359   1.740   1.684   6.746 -0.4828  0.1023 -0.1700
 4083ntf    on522360   1.689   1.545   6.935 -0.3421 -0.2746 -0.0539
 4083ntf    on522361   1.367   1.699   7.059 -0.1971  0.0499 -0.1802
 4083ntf    on522362   1.363   1.535   6.875 -0.0822  0.0575  0.0712
 4083ntf    fn422363   1.147   1.729   6.836  0.0821  0.8375  0.7122
 4083ntf    fn422364   1.279   1.893   6.843  0.5298  0.2947  0.6757
 4083ntf    fn422365   1.285   1.739   6.690 -0.0756 -0.7715  0.0423
 4084ntf    cn122366   1.288   2.319   6.590 -0.0549  0.2282 -0.0452
 4084ntf    sn222367   1.258   2.462   6.697 -0.1077  0.1517  0.0424
 4084ntf    nn322368   1.353   2.442   6.820 -0.1160  0.4941  0.1066
 4084ntf    sn222369   1.316   2.347   6.940 -0.1634  0.0794 -0.2367
 4084ntf    cn122370   1.446   2.222   6.923 -0.1195  0.0991 -0.0434
 4084ntf    fn422371   1.261   2.206   6.653  0.6197  0.0453 -0.0727
 4084ntf    fn422372   1.207   2.312   6.486 -0.1662 -0.2616  0.0694
 4084ntf    fn422373   1.415   2.307   6.553 -0.3040  0.0354 -0.8739
 4084ntf    on522374   1.303   2.575   6.619  0.0033  0.2635  0.2661
 4084ntf    on522375   1.117   2.459   6.723 -0.0462  0.6429  0.4486
 4084ntf    on522376   1.195   2.268   6.936 -0.3048  0.2733  0.1774
 4084ntf    on522377   1.349   2.406   7.067  0.2212 -0.0226 -0.2903
 4084ntf    fn422378   1.442   2.136   7.023  0.2313  0.3953  0.2293
 4084ntf    fn422379   1.440   2.161   6.805  0.2134 -0.1204  0.0522
 4084ntf    fn422380   1.568   2.274   6.918 -0.1233  0.0565 -0.7004
 4085ntf    cn122381   6.988   0.576   2.772  0.0114  0.1912  0.0652
 4085ntf    sn222382   7.156   0.518   2.809  0.0168  0.1220 -0.0664
 4085ntf    nn322383   7.212   0.472   2.670 -0.2825 -0.0730 -0.1242
 4085ntf    sn222384   7.139   0.358   2.591 -0.0253 -0.0959 -0.3307
 4085ntf    cn122385   7.281   0.251   2.557  0.1568 -0.0665  0.3196
 4085ntf    fn422386   6.988   0.686   2.699  0.0222 -0.1226 -0.4074
 4085ntf    fn422387   6.907   0.492   2.708  0.1985  0.4523 -0.5175
 4085ntf    fn422388   6.922   0.605   2.883 -0.2288  0.5098 -0.1602
 4085ntf    on522389   7.214   0.639   2.862  0.0107  0.0180  0.1785
 4085ntf    on522390   7.135   0.418   2.910  0.0514 -0.0561 -0.2357
 4085ntf    on522391   7.098   0.395   2.458  0.2215 -0.3669 -0.4827
 4085ntf    on522392   7.051   0.269   2.662  0.4884 -0.5779 -0.2931
 4085ntf    fn422393   7.388   0.311   2.506 -0.1009 -0.2606 -0.4609
 4085ntf    fn422394   7.331   0.189   2.663 -0.0960 -0.7507  0.0425
 4085ntf    fn422395   7.258   0.155   2.469 -0.0429  0.0539  0.2422
 4086ntf    cn122396   2.791   4.325   5.323 -0.2701  0.0409  0.1586
 4086ntf    sn222397   2.710   4.403   5.179  0.0421 -0.2677 -0.1854
 4086ntf    nn322398   2.792   4.334   5.064 -0.0558 -0.3224 -0.2221
 4086ntf    sn222399   2.749   4.318   4.913 -0.2176  0.4530 -0.2619
 4086ntf    cn122400   2.869   4.424   4.828  0.1686  0.4033  0.2167
 4086ntf    fn422401   2.921   4.348   5.325 -0.2220 -0.2564  0.5194
 4086ntf    fn422402   2.747   4.376   5.437 -0.3327 -0.0876  0.1917
 4086ntf    fn422403   2.779   4.194   5.328  0.7155 -0.0649 -0.0107
 4086ntf    on522404   2.577   4.351   5.197  0.1384 -0.4580 -0.0136
 4086ntf    on522405   2.729   4.543   5.205 -0.5599 -0.2038 -0.0674
 4086ntf    on522406   2.624   4.384   4.885 -0.2910  0.3422 -0.1945
 4086ntf    on522407   2.768   4.186   4.860 -0.3253  0.4389 -0.2669
 4086ntf    fn422408   2.849   4.410   4.698 -0.4598 -0.2044  0.3769
 4086ntf    fn422409   2.857   4.551   4.865  0.1575  0.5349 -0.2394
 4086ntf    fn422410   2.994   4.387   4.853  0.2489 -0.1679 -0.9510
 4087ntf    cn122411   2.968   5.477   4.876 -0.4015 -0.0662 -0.0298
 4087ntf    sn222412   2.958   5.410   4.707  0.0201  0.0695 -0.1120
 4087ntf    nn322413   3.112   5.397   4.680 -0.0159 -0.1268 -0.2266
 4087ntf    sn222414   3.185   5.380   4.543  0.1738  0.1615 -0.1622
 4087ntf    cn122415   3.260   5.217   4.569 -0.3216  0.0422  0.5107
 4087ntf    fn422416   2.855   5.517   4.932 -0.0686 -0.1087  0.6815
 4087ntf    fn422417   3.008   5.386   4.963  0.1297 -0.1747 -0.3790
 4087ntf    fn422418   3.055   5.577   4.883 -0.1647 -0.2373 -0.4808
 4087ntf    on522419   2.895   5.281   4.724  0.7442 -0.3234 -0.4052
 4087ntf    on522420   2.885   5.513   4.637  0.0084  0.1308 -0.0096
 4087ntf    on522421   3.306   5.459   4.535  0.2206  0.1595  0.5132
 4087ntf    on522422   3.104   5.361   4.425  0.2620 -0.3910 -0.1378
 4087ntf    fn422423   3.327   5.180   4.461  0.1547  0.8198  0.5358
 4087ntf    fn422424   3.342   5.208   4.672  0.1380 -0.4765  0.0997
 4087ntf    fn422425   3.166   5.124   4.586 -0.0607 -0.2832  0.1929
 4088ntf    cn122426   5.501   0.469   3.853  0.0507 -0.1395 -0.4209
 4088ntf    sn222427   5.636   0.581   3.899 -0.2155  0.0235 -0.0335
 4088ntf    nn322428   5.738   0.480   3.962 -0.1486  0.0193 -0.1496
 4088ntf    sn222429   5.796   0.454   4.105 -0.0163  0.1860 -0.1722
 4088ntf    cn122430   5.677   0.333   4.172  0.1782  0.1986  0.1956
 4088ntf    fn422431   5.405   0.524   3.780  0.0214 -0.2406 -0.4599
 4088ntf    fn422432   5.551   0.364   3.789  0.5736 -0.2361  0.1446
 4088ntf    fn422433   5.433   0.418   3.955  0.0114 -0.2746 -0.5131
 4088ntf    on522434   5.680   0.637   3.773 -0.3594  0.0051 -0.0921
 4088ntf    on522435   5.569   0.663   3.997  0.2285  0.3639 -0.0122
 4088ntf    on522436   5.774   0.566   4.193 -0.5199 -0.5490  0.6500
 4088ntf    on522437   5.927   0.395   4.107 -0.0461  0.1045 -0.5255
 4088ntf    fn422438   5.704   0.290   4.295 -0.5745  0.1767  0.3558
 4088ntf    fn422439   5.552   0.375   4.180 -0.1359 -0.6641 -0.0817
 4088ntf    fn422440   5.676   0.228   4.093  0.9470  0.0557  0.3609
 4089ntf    cn122441   5.009   2.297   5.290  0.0963 -0.2282 -0.1017
 4089ntf    sn222442   5.016   2.161   5.410  0.0279 -0.1887 -0.0526
 4089ntf    nn322443   4.879   2.094   5.371 -0.0359 -0.0341 -0.0981
 4089ntf    sn222444   4.844   1.961   5.295 -0.3540 -0.0629  0.0968
 4089ntf    cn122445   4.713   1.896   5.402 -0.0266 -0.4116  0.2867
 4089ntf    fn422446   5.016   2.250   5.167 -0.0587 -0.1756 -0.1304
 4089ntf    fn422447   4.894   2.361   5.290 -0.1955 -0.7458 -0.2981
 4089ntf    fn422448   5.111   2.380   5.303 -0.3214  0.2548  0.1304
 4089ntf    on522449   5.138   2.092   5.376  0.0616 -0.3156  0.3184
 4089ntf    on522450   5.010   2.237   5.533  0.4319 -0.0982 -0.0869
 4089ntf    on522451   4.943   1.856   5.298 -0.1710  0.1174  0.3942
 4089ntf    on522452   4.781   1.975   5.166 -0.0080 -0.1749 -0.0860
 4089ntf    fn422453   4.738   1.901   5.532 -0.6590  0.3196  0.3833
 4089ntf    fn422454   4.598   1.960   5.389 -0.0871 -0.5069  0.3450
 4089ntf    fn422455   4.685   1.771   5.367 -0.1178 -0.3627  0.1862
 4090ntf    cn122456   1.108   4.302   7.134 -0.1497  0.1272 -0.1051
 4090ntf    sn222457   1.024   4.261   6.978 -0.0728 -0.2842 -0.0385
 4090ntf    nn322458   1.118   4.341   6.881  0.3977 -0.1632  0.5143
 4090ntf    sn222459   1.205   4.293   6.760  0.1097 -0.1722  0.3108
 4090ntf    cn122460   1.344   4.215   6.848  0.3567 -0.0405  0.0399
 4090ntf    fn422461   1.240   4.299   7.120 -0.1067 -0.0938  0.3294
 4090ntf    fn422462   1.070   4.422   7.175 -0.7501 -0.0280 -0.1927
 4090ntf    fn422463   1.084   4.214   7.229  0.7723 -0.9241 -0.8208
 4090ntf    on522464   1.030   4.117   6.972 -0.2979 -0.2752 -0.5673
 4090ntf    on522465   0.893   4.317   6.998  0.1031  0.1279 -0.0336
 4090ntf    on522466   1.270   4.401   6.689 -0.4000  0.5831  0.9700
 4090ntf    on522467   1.156   4.184   6.679 -0.2196  0.0542  0.2013
 4090ntf    fn422468   1.451   4.218   6.770  0.2018 -0.4164 -0.1943
 4090ntf    fn422469   1.379   4.288   6.953 -0.1743 -0.1581  0.3016
 4090ntf    fn422470   1.320   4.093   6.893 -0.6275  0.1241 -0.0227
 4091ntf    cn122471   6.247   6.749   3.262 -0.1041 -0.1277 -0.1150
 4091ntf    sn222472   6.357   6.866   3.347  0.0054 -0.0549 -0.3581
 4091ntf    nn322473   6.461   6.758   3.393 -0.3545 -0.0519  0.4737
 4091ntf    sn222474   6.506   6.689   3.526 -0.0255 -0.2289  0.2730
 4091ntf    cn122475   6.619   6.825   3.566 -0.1320 -0.0208 -0.1344
 4091ntf    fn422476   6.197   6.658   3.344 -0.2401  0.2258  0.1994
 4091ntf    fn422477   6.141   6.808   3.209  0.0556  0.1669 -0.1070
 4091ntf    fn422478   6.301   6.686   3.159 -0.2305  0.1590 -0.3572
 4091ntf    on522479   6.409   6.947   3.239  0.1207  0.2534 -0.0728
 4091ntf    on522480   6.277   6.926   3.450  0.0521  0.3537 -0.5565
 4091ntf    on522481   6.589   6.572   3.513  0.3563  0.0121  0.5310
 4091ntf    on522482   6.415   6.693   3.638 -0.7352  0.9278 -0.3216
 4091ntf    fn422483   6.560   6.939   3.600  0.0686  0.0471 -0.0084
 4091ntf    fn422484   6.702   6.794   3.665 -0.2291 -0.2538 -0.1258
 4091ntf    fn422485   6.704   6.856   3.469  0.1168  0.0413  0.0999
 4092ntf    cn122486   3.390   1.584   5.385  0.2395  0.1248  0.2029
 4092ntf    sn222487   3.293   1.470   5.488  0.1140  0.0268 -0.0238
 4092ntf    nn322488   3.398   1.353   5.489  0.3691  0.2531 -0.3535
 4092ntf    sn222489   3.364   1.204   5.453 -0.0955  0.1244  0.6152
 4092ntf    cn122490   3.402   1.129   5.615 -0.0225 -0.1706  0.4611
 4092ntf    fn422491   3.311   1.673   5.327  0.3726  0.2610  0.2300
 4092ntf    fn422492   3.490   1.644   5.448  0.5903 -0.1516 -0.0890
 4092ntf    fn422493   3.443   1.522   5.281 -0.2659 -0.2476  0.1621
 4092ntf    on522494   3.287   1.547   5.610 -0.2815  0.4673 -0.3179
 4092ntf    on522495   3.173   1.445   5.411  0.1394  0.0750 -0.0789
 4092ntf    on522496   3.466   1.152   5.366 -0.3287  0.8766 -0.1201
 4092ntf    on522497   3.225   1.168   5.436  0.2051 -0.6441 -0.2490
 4092ntf    fn422498   3.332   1.176   5.716 -0.2722  0.0487  0.1900
 4092ntf    fn422499   3.404   0.997   5.618  0.3446 -0.1760  0.1664
 4092ntf    fn422500   3.528   1.161   5.641  0.0755 -0.3509  0.2229
 4093ntf    cn122501   6.398   2.953   2.122  0.0602 -0.1336 -0.0274
 4093ntf    sn222502   6.235   2.930   2.197  0.0369 -0.0235 -0.0437
 4093ntf    nn322503   6.265   2.786   2.251 -0.2979 -0.1102 -0.0834
 4093ntf    sn222504   6.185   2.653   2.228  0.0846 -0.3722  0.0907
 4093ntf    cn122505   6.127   2.633   2.399 -0.1817 -0.7134 -0.0381
 4093ntf    fn422506   6.431   2.859   2.035  0.4082 -0.1278  0.0959
 4093ntf    fn422507   6.409   3.071   2.062 -0.2130 -0.1363 -0.0816
 4093ntf    fn422508   6.493   2.956   2.214  0.1062 -0.3547 -0.0682
 4093ntf    on522509   6.217   3.021   2.308  0.3716  0.5438 -0.4510
 4093ntf    on522510   6.144   2.939   2.086 -0.2250 -0.6875  0.1121
 4093ntf    on522511   6.273   2.539   2.217  0.7747  0.1452  0.1929
 4093ntf    on522512   6.068   2.653   2.144  0.3413 -0.3286 -0.2711
 4093ntf    fn422513   6.053   2.524   2.411 -0.7419 -0.2707  0.5677
 4093ntf    fn422514   6.229   2.614   2.482 -0.2235 -0.1636  0.1385
 4093ntf    fn422515   6.056   2.733   2.447 -0.3161 -0.6520 -0.3656
 4094ntf    cn122516   3.532   6.653   0.202 -0.2198 -0.0157  0.2443
 4094ntf    sn222517   3.585   6.599   0.037 -0.0561  0.5802  0.0994
 4094ntf    nn322518   3.445   6.582  -0.033  0.0299  0.1197  0.0398
 4094ntf    sn222519   3.377   6.675  -0.140  0.2308  0.0479 -0.1519
 4094ntf    cn122520   3.448   6.606  -0.292  0.3688  0.2427 -0.1763
 4094ntf    fn422521   3.418   6.595   0.236 -0.0830 -0.2585  0.2889
 4094ntf    fn422522   3.618   6.613   0.295  0.1483  0.3060  0.0476
 4094ntf    fn422523   3.529   6.785   0.214 -0.6968  0.0002 -0.0384
 4094ntf    on522524   3.660   6.712  -0.011 -0.3086  0.9413  0.5485
 4094ntf    on522525   3.657   6.477   0.063  0.3077  0.7018 -0.3257
 4094ntf    on522526   3.410   6.815  -0.144  0.4881  0.0238  0.8146
 4094ntf    on522527   3.237   6.644  -0.149  0.3079 -0.1919 -0.5488
 4094ntf    fn422528   3.572   6.562  -0.274  0.2774  0.0699  0.0274
 4094ntf    fn422529   3.388   6.496  -0.335  1.0079 -0.2669  0.2135
 4094ntf    fn422530   3.445   6.694  -0.392 -0.3128 -0.0022 -0.3770
 4095ntf    cn122531   6.281   1.803   1.977 -0.1792 -0.0762  0.0709
 4095ntf    sn222532   6.424   1.692   1.958  0.2508  0.4964 -0.0560
 4095ntf    nn322533   6.363   1.590   1.855  0.0290  0.0421  0.5219
 4095ntf    sn222534   6.382   1.434   1.850 -0.2932  0.0178 -0.0476
 4095ntf    cn122535   6.287   1.404   1.699 -0.2830 -0.0256 -0.0455
 4095ntf    fn422536   6.243   1.864   1.866  0.2271 -0.2353 -0.1596
 4095ntf    fn422537   6.179   1.736   2.029 -0.0915 -0.1823  0.1086
 4095ntf    fn422538   6.309   1.898   2.064  0.5194 -0.2481  0.0476
 4095ntf    on522539   6.528   1.776   1.903  0.2257  0.1234 -0.6848
 4095ntf    on522540   6.439   1.640   2.092  0.1078 -0.2820 -0.3354
 4095ntf    on522541   6.307   1.364   1.951  0.1415 -0.5291 -0.1016
 4095ntf    on522542   6.517   1.396   1.815 -0.4738 -0.4204 -0.2709
 4095ntf    fn422543   6.345   1.445   1.587  0.0894 -0.3080  0.0436
 4095ntf    fn422544   6.261   1.275   1.680  0.1787 -0.1464  0.1439
 4095ntf    fn422545   6.169   1.463   1.715 -0.4578 -0.4691  0.3485
 4096ntf    cn122546   5.782   4.211   0.920 -0.1692 -0.2177 -0.0752
 4096ntf    sn222547   5.932   4.274   0.837 -0.0773 -0.5045 -0.1260
 4096ntf    nn322548   5.879   4.265   0.690  0.3012 -0.0542 -0.2882
 4096ntf    sn222549   5.808   4.377   0.605  0.1875  0.0588 -0.0449
 4096ntf    cn122550   5.686   4.270   0.523 -0.0700 -0.0913  0.5299
 4096ntf    fn422551   5.788   4.204   1.052 -0.2548  0.0033 -0.0595
 4096ntf    fn422552   5.677   4.288   0.895 -0.0502  0.0451  0.2269
 4096ntf    fn422553   5.735   4.097   0.872  0.0996 -0.3552 -0.0116
 4096ntf    on522554   5.939   4.407   0.893 -0.4173 -0.5443  0.0139
 4096ntf    on522555   6.032   4.175   0.872  0.3658  0.1285  0.4283
 4096ntf    on522556   5.889   4.422   0.494 -0.0670  0.1344 -0.2012
 4096ntf    on522557   5.736   4.475   0.681  0.3665 -0.0809  0.3081
 4096ntf    fn422558   5.636   4.334   0.418  1.0924 -0.5323 -0.3097
 4096ntf    fn422559   5.747   4.159   0.485 -0.8374 -0.5256  0.5543
 4096ntf    fn422560   5.577   4.248   0.595 -0.3495 -0.0955  0.1062
 4097ntf    cn122561   0.713   0.659   6.588  0.1558 -0.3127  0.1155
 4097ntf    sn222562   0.747   0.632   6.412 -0.2770  0.0634 -0.0280
 4097ntf    nn322563   0.809   0.489   6.425 -0.7346 -0.1155  0.1916
 4097ntf    sn222564   0.775   0.357   6.346  0.0832  0.0104 -0.3875
 4097ntf    cn122565   0.936   0.330   6.265  0.2064  0.0501 -0.1608
 4097ntf    fn422566   0.825   0.673   6.656  0.2945 -0.2707 -0.1214
 4097ntf    fn422567   0.630   0.758   6.613  0.3436 -0.1483  0.0850
 4097ntf    fn422568   0.655   0.552   6.640  0.2759 -0.3256  0.2242
 4097ntf    on522569   0.619   0.642   6.346 -0.0613  0.6433 -0.3736
 4097ntf    on522570   0.849   0.729   6.378 -0.5797  0.3933 -0.0007
 4097ntf    on522571   0.670   0.376   6.249 -0.1812  0.0130 -0.1022
 4097ntf    on522572   0.766   0.243   6.434  0.4610  0.2841  0.0130
 4097ntf    fn422573   0.992   0.435   6.208  0.9651 -0.2432  0.0379
 4097ntf    fn422574   1.026   0.276   6.345 -0.0049  0.0303  0.0637
 4097ntf    fn422575   0.929   0.239   6.169  0.5693  0.2329 -0.3598
 4098ntf    cn122576   4.563   2.122   0.124 -0.0788  0.4327  0.0513
 4098ntf    sn222577   4.668   2.258   0.182  0.0502  0.1336  0.5155
 4098ntf    nn322578   4.577   2.380   0.144 -0.0835 -0.2322 -0.3443
 4098ntf    sn222579   4.570   2.479   0.022  0.0802  0.1132 -0.0726
 4098ntf    cn122580   4.657   2.626   0.086  0.0559  0.1394 -0.0999
 4098ntf    fn422581   4.556   2.114  -0.008  0.0647 -0.2822  0.0874
 4098ntf    fn422582   4.615   2.004   0.153 -0.0120  0.4949  0.1849
 4098ntf    fn422583   4.439   2.118   0.171 -0.2186 -0.0944 -0.3443
 4098ntf    on522584   4.672   2.236   0.325  0.2681 -0.8137  0.3699
 4098ntf    on522585   4.791   2.242   0.109 -0.3032 -0.6722  0.0900
 4098ntf    on522586   4.433   2.517  -0.003  0.0674  0.1261  0.0172
 4098ntf    on522587   4.636   2.437  -0.099  0.1369 -0.9368  0.3095
 4098ntf    fn422588   4.664   2.717  -0.010 -0.2927 -0.0985 -0.3541
 4098ntf    fn422589   4.585   2.682   0.181  0.3865  0.1841  0.1244
 4098ntf    fn422590   4.782   2.614   0.127  0.0122  0.0070 -0.0065
 4099ntf    cn122591   0.222   4.927   4.817  0.2016  0.3560  0.5687
 4099ntf    sn222592   0.077   4.982   4.721  0.2870 -0.0920  0.1768
 4099ntf    nn322593   0.012   5.072   4.832 -0.1846  0.3981 -0.4961
 4099ntf    sn222594  -0.097   5.029   4.937  0.1744  0.3776 -0.1326
 4099ntf    cn122595  -0.034   5.078   5.100 -0.0292  0.4413 -0.0730
 4099ntf    fn422596   0.191   4.848   4.918 -0.0445 -0.1560  0.1023
 4099ntf    fn422597   0.301   4.850   4.743 -0.1358 -0.0950  0.6738
 4099ntf    fn422598   0.296   5.028   4.861  0.7573  0.2826 -0.1742
 4099ntf    on522599   0.133   5.054   4.609  0.3401 -0.1088  0.1921
 4099ntf    on522600   0.015   4.856   4.690  0.2686 -0.1378  0.3958
 4099ntf    on522601  -0.121   4.888   4.955 -0.0585  0.4489  0.1147
 4099ntf    on522602  -0.216   5.109   4.932  0.0410  0.1511 -0.5675
 4099ntf    fn422603  -0.101   5.028   5.202  0.0511  0.2339 -0.1222
 4099ntf    fn422604   0.094   5.047   5.118 -0.2487 -0.1805  0.4508
 4099ntf    fn422605  -0.042   5.210   5.109  0.4508  0.4941 -0.3292
 4100ntf    cn122606   0.813   6.092   0.821 -0.0887  0.4697 -0.2053
 4100ntf    sn222607   0.870   6.259   0.775 -0.0360  0.5274  0.0689
 4100ntf    nn322608   0.788   6.256   0.641 -0.0446 -0.3579  0.0830
 4100ntf    sn222609   0.685   6.358   0.581  0.1352  0.0412  0.4395
 4100ntf    cn122610   0.701   6.325   0.403  0.3302 -0.1705  0.4963
 4100ntf    fn422611   0.683   6.086   0.843  0.0925  0.4103  0.9254
 4100ntf    fn422612   0.845   6.001   0.731  0.3253  0.3338  0.0768
 4100ntf    fn422613   0.870   6.050   0.932  0.0864 -0.0797 -0.5017
 4100ntf    on522614   0.822   6.344   0.880 -0.2170  0.0140  0.4055
 4100ntf    on522615   1.012   6.245   0.755 -0.0036  0.2198  0.4925
 4100ntf    on522616   0.724   6.495   0.598 -0.8899  0.4314 -0.2196
 4100ntf    on522617   0.548   6.329   0.617 -0.1628  0.4218 -0.3570
 4100ntf    fn422618   0.826   6.323   0.359  0.1713  0.6597 -0.0098
 4100ntf    fn422619   0.649   6.207   0.373  0.2737  0.1270 -0.6400
 4100ntf    fn422620   0.641   6.414   0.326  0.0618 -0.7389  0.0344
 4101ntf    cn122621   3.540   2.650   3.870  0.3513 -0.0250  0.3150
 4101ntf    sn222622   3.378   2.604   3.938  0.2023  0.0390  0.0026
 4101ntf    nn322623   3.373   2.688   4.070  0.3037  0.3648 -0.2012
 4101ntf    sn222624   3.293   2.676   4.205  0.1895  0.2093 -0.2815
 4101ntf    cn122625   3.161   2.798   4.179 -0.2955 -0.1654  0.4203
 4101ntf    fn422626   3.637   2.644   3.960  0.1727  0.1139  0.5190
 4101ntf    fn422627   3.569   2.573   3.767  0.1967 -0.0552  0.2929
 4101ntf    fn422628   3.535   2.775   3.828 -0.4937 -0.1304  0.0800
 4101ntf    on522629   3.287   2.649   3.835 -0.4952  0.0221  0.6030
 4101ntf    on522630   3.400   2.461   3.947 -0.8515 -0.1218  0.2879
 4101ntf    on522631   3.366   2.727   4.318 -0.1169  0.0436 -0.0105
 4101ntf    on522632   3.225   2.551   4.223  0.5780 -0.0135 -0.3465
 4101ntf    fn422633   3.095   2.762   4.070  0.1277 -0.2261  0.1832
 4101ntf    fn422634   3.076   2.800   4.281 -0.3429 -0.0746  0.3792
 4101ntf    fn422635   3.200   2.924   4.165 -0.2613 -0.1551  0.6015
 4102ntf    cn122636   5.313   3.394   5.325  0.2072 -0.3031  0.0941
 4102ntf    sn222637   5.157   3.305   5.293  0.0025  0.0995 -0.0350
 4102ntf    nn322638   5.186   3.183   5.388 -0.2568 -0.1094 -0.2199
 4102ntf    sn222639   5.154   3.174   5.541 -0.1789 -0.0862 -0.2020
 4102ntf    cn122640   5.307   3.097   5.601 -0.1346  0.0737 -0.1085
 4102ntf    fn422641   5.422   3.325   5.297  0.1762 -0.3032 -0.0256
 4102ntf    fn422642   5.321   3.509   5.261 -0.1293 -0.2270  0.1824
 4102ntf    fn422643   5.330   3.431   5.451  0.5089  0.5376 -0.1885
 4102ntf    on522644   5.054   3.397   5.333  0.0491  0.2442 -0.2473
 4102ntf    on522645   5.168   3.271   5.153  0.1258  0.1782 -0.0451
 4102ntf    on522646   5.045   3.082   5.564  0.1236 -0.3813  0.0705
 4102ntf    on522647   5.152   3.301   5.610  0.1998 -0.0815 -0.1993
 4102ntf    fn422648   5.297   3.066   5.729 -0.5060 -0.6372 -0.3058
 4102ntf    fn422649   5.331   2.985   5.535  0.2674 -0.1629  0.4280
 4102ntf    fn422650   5.408   3.181   5.587 -0.3546  0.3551 -0.0164
 4103ntf    cn122651   1.169   2.284   3.939 -0.2267 -0.1719 -0.1553
 4103ntf    sn222652   1.063   2.151   3.873 -0.3679 -0.0727 -0.1300
 4103ntf    nn322653   1.127   2.133   3.731  0.4579  0.4090  0.1691
 4103ntf    sn222654   1.238   2.044   3.665  0.0494  0.1272 -0.1508
 4103ntf    cn122655   1.135   1.915   3.590 -0.1765  0.4710 -0.4367
 4103ntf    fn422656   1.184   2.384   3.853 -0.5991 -0.4337 -0.5340
 4103ntf    fn422657   1.124   2.346   4.047  0.0448  0.1297 -0.2140
 4103ntf    fn422658   1.293   2.243   3.954 -0.2458 -0.1104  0.1716
 4103ntf    on522659   1.074   2.049   3.974 -0.6304 -0.1126 -0.1429
 4103ntf    on522660   0.934   2.213   3.859 -0.3626 -0.1542 -0.5600
 4103ntf    on522661   1.326   1.968   3.751  0.4995  0.1870 -0.5538
 4103ntf    on522662   1.301   2.113   3.555 -0.2628  0.5288 -0.0807
 4103ntf    fn422663   1.204   1.809   3.551  0.0793  0.4477  0.0648
 4103ntf    fn422664   1.037   1.877   3.671  0.6368 -0.7496  0.0108
 4103ntf    fn422665   1.082   1.961   3.479 -0.1989  0.4726 -0.4254
 4104ntf    cn122666   5.187   4.002   4.019  0.1639 -0.0397 -0.2160
 4104ntf    sn222667   5.256   3.854   4.100  0.0821  0.0699  0.0546
 4104ntf    nn322668   5.358   3.807   3.990  0.1162  0.2247  0.0206
 4104ntf    sn222669   5.510   3.846   3.986  0.1635  0.0465  0.0748
 4104ntf    cn122670   5.585   3.697   4.057 -0.2198 -0.0527  0.2725
 4104ntf    fn422671   5.076   4.035   4.083  0.0653  0.2062 -0.5105
 4104ntf    fn422672   5.270   4.104   4.008  0.1246 -0.0331 -0.4515
 4104ntf    fn422673   5.151   3.967   3.897  0.0314  0.2597 -0.2631
 4104ntf    on522674   5.297   3.903   4.229  0.1424 -0.4530  0.2362
 4104ntf    on522675   5.143   3.764   4.101  0.1329  0.0082  0.1611
 4104ntf    on522676   5.541   3.956   4.074  0.3979 -0.3278  0.4632
 4104ntf    on522677   5.567   3.849   3.853 -0.4126  0.2071 -0.1746
 4104ntf    fn422678   5.519   3.666   4.167  0.0651 -0.2233  0.3966
 4104ntf    fn422679   5.580   3.589   3.980  0.5298 -0.1252  0.3143
 4104ntf    fn422680   5.712   3.713   4.089 -0.3174  0.2661  0.5130
 4105ntf    cn122681   0.006   3.468   1.638 -0.0968 -0.2872 -0.2011
 4105ntf    sn222682   0.071   3.619   1.561 -0.2470 -0.0583  0.1158
 4105ntf    nn322683  -0.034   3.725   1.608 -0.1017  0.3230 -0.4146
 4105ntf    sn222684  -0.029   3.829   1.726 -0.3984 -0.2386  0.0991
 4105ntf    cn122685   0.014   3.977   1.629  0.1208 -0.3056  0.2219
 4105ntf    fn422686  -0.115   3.434   1.594 -0.1419 -0.3259 -0.0494
 4105ntf    fn422687   0.094   3.370   1.629  0.4767  0.2152 -0.1288
 4105ntf    fn422688  -0.002   3.484   1.769  0.0100 -0.5901 -0.1556
 4105ntf    on522689   0.207   3.626   1.610 -0.2946  0.1501  0.2177
 4105ntf    on522690   0.059   3.594   1.419 -0.3803 -0.8609  0.2640
 4105ntf    on522691   0.080   3.813   1.819 -0.0515  0.0451 -0.2517
 4105ntf    on522692  -0.160   3.854   1.782 -0.1976 -0.2709  0.5861
 4105ntf    fn422693  -0.083   4.016   1.547  0.5863  0.2936 -0.0538
 4105ntf    fn422694   0.048   4.081   1.704 -0.2417  0.0708 -0.1316
 4105ntf    fn422695   0.119   3.956   1.552 -0.2575 -0.3033 -0.2980
 4106ntf    cn122696   5.120   3.231   4.640  0.0611 -0.1198 -0.0580
 4106ntf    sn222697   4.997   3.291   4.521  0.0969  0.1199  0.0249
 4106ntf    nn322698   4.888   3.341   4.623  0.1363 -0.2530  0.2497
 4106ntf    sn222699   4.766   3.266   4.688 -0.2304  0.3008  0.2024
 4106ntf    cn122700   4.653   3.406   4.715 -0.1464  0.4196 -0.0570
 4106ntf    fn422701   5.141   3.318   4.737  0.0080 -0.0377 -0.1201
 4106ntf    fn422702   5.089   3.118   4.700 -0.1746 -0.0560 -0.0589
 4106ntf    fn422703   5.228   3.220   4.565  0.1482  0.2914  0.0017
 4106ntf    on522704   5.055   3.402   4.450  0.3939  0.1147  0.2585
 4106ntf    on522705   4.950   3.173   4.453  0.3224 -0.0092  0.0936
 4106ntf    on522706   4.787   3.219   4.823  0.4453  0.3990  0.1314
 4106ntf    on522707   4.687   3.179   4.604 -0.0097 -0.0640  0.3729
 4106ntf    fn422708   4.706   3.512   4.774 -0.0707  0.4321 -0.1481
 4106ntf    fn422709   4.598   3.444   4.601  0.1136  0.4551 -0.1707
 4106ntf    fn422710   4.549   3.373   4.791 -0.1529  0.2200 -0.1541
 4107ntf    cn122711   5.923   5.920   5.403  0.2608 -0.0203 -0.3726
 4107ntf    sn222712   5.845   5.902   5.240  0.0409 -0.1785 -0.2515
 4107ntf    nn322713   5.734   6.012   5.255  0.2455  0.0235 -0.2067
 4107ntf    sn222714   5.721   6.152   5.186  0.0306  0.0831 -0.0479
 4107ntf    cn122715   5.668   6.112   5.017  0.3991 -0.5368 -0.0209
 4107ntf    fn422716   5.939   6.048   5.436 -0.3037  0.0453 -0.3384
 4107ntf    fn422717   5.850   5.880   5.506  0.1207  0.1222 -0.4169
 4107ntf    fn422718   6.041   5.862   5.413  0.2845  0.2175  1.0415
 4107ntf    on522719   5.948   5.929   5.142  0.1936 -0.3747 -0.1472
 4107ntf    on522720   5.790   5.769   5.244 -0.5405  0.0447 -0.8315
 4107ntf    on522721   5.846   6.224   5.180 -0.2991  0.6877  0.2656
 4107ntf    on522722   5.611   6.220   5.248  0.2848 -0.1053  0.6127
 4107ntf    fn422723   5.769   6.083   4.937 -0.0591 -0.0796 -0.7847
 4107ntf    fn422724   5.605   5.996   5.010 -0.4291 -0.0650 -0.6036
 4107ntf    fn422725   5.593   6.206   4.961  0.0040 -0.6782  0.2693
 4108ntf    cn122726   5.787   4.459   5.252 -0.2888 -0.4906 -0.0302
 4108ntf    sn222727   5.828   4.367   5.404  0.1440 -0.2334  0.0091
 4108ntf    nn322728   5.775   4.224   5.368 -0.1153 -0.1774  0.1647
 4108ntf    sn222729   5.642   4.155   5.414 -0.2597  0.0255  0.0521
 4108ntf    cn122730   5.693   4.080   5.571  0.2433  0.1869 -0.0308
 4108ntf    fn422731   5.656   4.463   5.234 -0.1769 -0.2956 -0.8157
 4108ntf    fn422732   5.830   4.584   5.263 -0.4949 -0.4562  0.4092
 4108ntf    fn422733   5.835   4.406   5.142 -0.1662  0.0012 -0.2187
 4108ntf    on522734   5.972   4.378   5.409  0.1221  0.1159 -0.0568
 4108ntf    on522735   5.760   4.442   5.507  0.3292 -0.1752  0.0904
 4108ntf    on522736   5.612   4.032   5.344 -0.8797  0.0220  0.3214
 4108ntf    on522737   5.531   4.241   5.444  0.5402  1.0792  0.0450
 4108ntf    fn422738   5.722   4.176   5.657 -0.3144  0.2200  0.1263
 4108ntf    fn422739   5.602   3.998   5.622  0.2837  0.0315 -0.2074
 4108ntf    fn422740   5.800   4.003   5.560 -0.0131 -0.1498 -0.1687
 4109ntf    cn122741   4.146   3.767   2.078  0.2291  0.0106  0.0280
 4109ntf    sn222742   4.137   3.591   2.124 -0.1569 -0.0070 -0.1076
 4109ntf    nn322743   4.280   3.543   2.080 -0.1989  0.0048 -0.2559
 4109ntf    sn222744   4.332   3.489   1.942 -0.0520 -0.1713 -0.1307
 4109ntf    cn122745   4.289   3.313   1.959 -0.3437 -0.0872  0.0077
 4109ntf    fn422746   4.187   3.794   1.956 -0.7217  0.3477 -0.2304
 4109ntf    fn422747   4.031   3.829   2.101  0.4566  0.4056  0.0909
 4109ntf    fn422748   4.232   3.830   2.156  0.3952  0.2793 -0.3733
 4109ntf    on522749   4.107   3.600   2.265 -0.6895 -0.4440 -0.1878
 4109ntf    on522750   4.025   3.548   2.044 -0.1211 -0.6644  0.1884
 4109ntf    on522751   4.475   3.501   1.930 -0.0358 -0.2437 -0.0122
 4109ntf    on522752   4.257   3.534   1.827 -0.1247 -0.0974 -0.0536
 4109ntf    fn422753   4.345   3.262   2.067 -0.3059 -0.4114 -0.1645
 4109ntf    fn422754   4.159   3.296   1.976 -0.2064 -0.5198  0.6686
 4109ntf    fn422755   4.335   3.236   1.862 -0.1935  0.1685 -0.1248
 4110ntf    cn122756   2.787   1.922   2.461 -0.3572 -0.4936  0.2542
 4110ntf    sn222757   2.757   2.084   2.385  0.2065 -0.3478  0.3348
 4110ntf    nn322758   2.652   2.051   2.272  0.3105  0.2243  0.0677
 4110ntf    sn222759   2.651   2.035   2.116 -0.0541 -0.2871  0.1198
 4110ntf    cn122760   2.502   2.126   2.066  0.1538  0.2856  0.5287
 4110ntf    fn422761   2.872   1.913   2.562 -0.0506 -0.2323  0.0226
 4110ntf    fn422762   2.676   1.862   2.499 -0.2400 -0.7845  0.1418
 4110ntf    fn422763   2.835   1.836   2.372  0.2241 -0.1976  0.2786
 4110ntf    on522764   2.687   2.158   2.487  0.3033 -0.0452  0.1845
 4110ntf    on522765   2.888   2.127   2.345  0.0509 -0.0907  0.0979
 4110ntf    on522766   2.629   1.900   2.071 -0.3360 -0.2315  0.0911
 4110ntf    on522767   2.753   2.113   2.051  0.0943 -0.2057  0.4445
 4110ntf    fn422768   2.526   2.255   2.082  0.0490  0.3840 -0.0886
 4110ntf    fn422769   2.474   2.116   1.937  0.4502  0.3540  0.4572
 4110ntf    fn422770   2.390   2.101   2.131 -0.1642  0.3599  0.0141
 4111ntf    cn122771   7.116   2.677   3.177 -0.1989 -0.5125 -0.5804
 4111ntf    sn222772   7.213   2.683   3.023  0.0452  0.1959 -0.4070
 4111ntf    nn322773   7.169   2.548   2.957  0.0907  0.0737 -0.1895
 4111ntf    sn222774   7.045   2.516   2.865 -0.0559  0.2145 -0.0418
 4111ntf    cn122775   7.097   2.580   2.703 -0.2925  0.2038 -0.1215
 4111ntf    fn422776   6.986   2.681   3.159 -0.4288 -0.1796  0.9568
 4111ntf    fn422777   7.137   2.563   3.241  0.0500 -0.2777 -0.2342
 4111ntf    fn422778   7.138   2.783   3.254  0.0237 -0.7250 -0.3479
 4111ntf    on522779   7.168   2.798   2.949  0.1600  0.3315 -0.2662
 4111ntf    on522780   7.350   2.682   3.067 -0.2165  0.8225  0.4430
 4111ntf    on522781   6.923   2.586   2.894 -0.0855  0.1858 -0.1002
 4111ntf    on522782   7.037   2.374   2.838  0.4966  0.1498  0.1161
 4111ntf    fn422783   7.004   2.549   2.614 -0.6632  0.1712  0.2712
 4111ntf    fn422784   7.112   2.711   2.690  0.6659  0.1576  0.3868
 4111ntf    fn422785   7.209   2.527   2.657 -0.1523  0.3702  0.0235
 4112ntf    cn122786   2.822   6.946   6.782 -0.1805 -0.2576  0.0953
 4112ntf    sn222787   2.986   7.012   6.737 -0.2045 -0.1075  0.2268
 4112ntf    nn322788   3.014   6.929   6.607  0.2136  0.6373 -0.1599
 4112ntf    sn222789   3.091   6.986   6.482  0.1712  0.0521 -0.4535
 4112ntf    cn122790   3.132   6.827   6.405  0.3342  0.1115 -0.4887
 4112ntf    fn422791   2.777   7.004   6.892 -0.5538  0.0943 -0.2399
 4112ntf    fn422792   2.726   6.959   6.693 -0.1006  0.3971  0.0997
 4112ntf    fn422793   2.829   6.817   6.810 -0.0044 -0.2321  0.1733
 4112ntf    on522794   2.972   7.155   6.723 -0.4791 -0.2456 -0.9815
 4112ntf    on522795   3.061   6.967   6.852  0.0925  0.2243  0.1669
 4112ntf    on522796   3.221   7.039   6.516  0.1206 -0.1201  0.0223
 4112ntf    on522797   3.007   7.050   6.384  0.1915  0.0212 -0.4916
 4112ntf    fn422798   3.193   6.748   6.492 -0.2808  0.7438  0.5299
 4112ntf    fn422799   3.032   6.759   6.352 -0.0570  0.3254 -0.0275
 4112ntf    fn422800   3.210   6.845   6.299  0.2049  0.1516 -0.5769
 4113ntf    cn122801   7.083   2.303   0.365  0.2817 -0.0369 -0.2917
 4113ntf    sn222802   7.132   2.295   0.540 -0.1783 -0.0909 -0.1628
 4113ntf    nn322803   7.188   2.150   0.562  0.1418  0.0187 -0.2518
 4113ntf    sn222804   7.298   2.077   0.476  0.3931  0.0279  0.0628
 4113ntf    cn122805   7.194   1.970   0.372  0.2506  0.0049  0.2283
 4113ntf    fn422806   7.037   2.422   0.329  0.1798 -0.3156 -1.1039
 4113ntf    fn422807   7.178   2.270   0.279  0.1307 -0.3691 -0.3333
 4113ntf    fn422808   6.978   2.227   0.338 -0.2939  0.3347  0.8418
 4113ntf    on522809   7.235   2.395   0.550 -0.0403 -0.2061 -0.4218
 4113ntf    on522810   7.012   2.325   0.614  0.2631  0.5222  0.3082
 4113ntf    on522811   7.363   1.978   0.559  0.4731  0.1039  0.0912
 4113ntf    on522812   7.381   2.160   0.392  0.2779  0.1693  0.0876
 4113ntf    fn422813   7.241   1.947   0.251  0.1874  0.0364  0.1979
 4113ntf    fn422814   7.185   1.852   0.431  0.1651 -0.3086 -0.4084
 4113ntf    fn422815   7.074   2.025   0.358  0.4084  0.2269 -0.2753
 4114ntf    cn122816   2.092   1.660   0.134  0.3845 -0.3846  0.5712
 4114ntf    sn222817   2.129   1.485   0.106 -0.1592 -0.3425 -0.4698
 4114ntf    nn322818   2.059   1.416   0.229  0.3335 -0.2667 -0.1431
 4114ntf    sn222819   2.100   1.294   0.319 -0.3412 -0.3183  0.0980
 4114ntf    cn122820   2.144   1.378   0.474 -0.1872 -0.0099 -0.1094
 4114ntf    fn422821   2.118   1.707   0.255  0.1991  0.5858  0.2492
 4114ntf    fn422822   2.148   1.750   0.053 -0.4924 -0.3585 -0.0197
 4114ntf    fn422823   1.965   1.691   0.116  0.5442  0.0774  0.1824
 4114ntf    on522824   2.065   1.459  -0.021  0.1280  0.3152 -0.7530
 4114ntf    on522825   2.273   1.485   0.120 -0.2235  0.0367  0.2518
 4114ntf    on522826   2.226   1.236   0.279 -0.0927 -0.1303  0.6018
 4114ntf    on522827   1.997   1.200   0.354 -0.4051 -0.3036 -0.0499
 4114ntf    fn422828   2.031   1.420   0.529 -0.2158 -0.0106 -0.1681
 4114ntf    fn422829   2.196   1.291   0.560 -0.4415 -0.2565 -0.2023
 4114ntf    fn422830   2.234   1.474   0.467 -0.0990 -0.0658  0.2269
 4115ntf    cn122831   6.285   5.255   2.204  0.4479  0.0543  0.3044
 4115ntf    sn222832   6.372   5.120   2.290 -0.1617 -0.4539  0.1298
 4115ntf    nn322833   6.518   5.176   2.284 -0.2145 -0.3093  0.1997
 4115ntf    sn222834   6.619   5.132   2.172 -0.0454  0.1672  0.1626
 4115ntf    cn122835   6.694   4.979   2.235 -0.0707  0.0667 -0.0488
 4115ntf    fn422836   6.326   5.263   2.079 -0.8170  0.3056 -0.1144
 4115ntf    fn422837   6.153   5.244   2.200  0.4693 -0.2106  0.3329
 4115ntf    fn422838   6.312   5.371   2.262  0.2492  0.1672  0.1717
 4115ntf    on522839   6.323   5.129   2.425 -0.5534 -0.0061 -0.0344
 4115ntf    on522840   6.342   4.999   2.217  0.3463 -0.4291 -0.1231
 4115ntf    on522841   6.727   5.227   2.167 -0.0548  0.1663 -0.0732
 4115ntf    on522842   6.561   5.100   2.044  0.4890  0.5453 -0.1766
 4115ntf    fn422843   6.601   4.890   2.263 -0.2965  0.3732  0.1803
 4115ntf    fn422844   6.777   4.918   2.152  0.3587  0.8681 -0.2214
 4115ntf    fn422845   6.767   5.003   2.342  0.2670 -0.3251 -0.1904
 4116ntf    cn122846   1.200   3.476   2.198 -0.2242 -0.2303 -0.3486
 4116ntf    sn222847   1.195   3.462   2.017 -0.0006 -0.5395 -0.3311
 4116ntf    nn322848   1.196   3.612   1.970  0.3548 -0.2550  0.5537
 4116ntf    sn222849   1.081   3.719   1.966  0.3904 -0.2263  0.3071
 4116ntf    cn122850   1.181   3.866   2.002  0.0667  0.1079 -0.1405
 4116ntf    fn422851   1.201   3.358   2.256 -0.0034  0.0937  0.3194
 4116ntf    fn422852   1.313   3.531   2.241 -0.3305 -0.1986 -0.1042
 4116ntf    fn422853   1.095   3.539   2.249  0.5299  0.4566  0.3975
 4116ntf    on522854   1.314   3.386   1.989 -0.0668 -0.5991 -0.4476
 4116ntf    on522855   1.073   3.397   1.977 -0.2322 -0.0186 -0.4769
 4116ntf    on522856   0.983   3.716   2.071  0.0640  0.2709  0.0225
 4116ntf    on522857   1.031   3.740   1.832 -0.1310 -0.1747  0.5086
 4116ntf    fn422858   1.263   3.888   1.900  0.3574  0.0648  0.0831
 4116ntf    fn422859   1.103   3.973   2.013  0.1984  0.1887  0.0080
 4116ntf    fn422860   1.258   3.851   2.109 -0.1578  0.2545  0.0448
 4117ntf    cn122861   7.143   6.507   3.865  0.5424  0.0604  0.1964
 4117ntf    sn222862   7.012   6.560   3.751  0.3561 -0.2529  0.2647
 4117ntf    nn322863   7.004   6.715   3.769  0.3445 -0.2260  0.0322
 4117ntf    sn222864   7.051   6.837   3.682  0.0652 -0.0253  0.1609
 4117ntf    cn122865   7.177   6.913   3.790 -0.2213 -0.0374  0.5053
 4117ntf    fn422866   7.231   6.605   3.868  0.4932  0.0954  0.5789
 4117ntf    fn422867   7.099   6.488   3.988  0.3968 -0.0758  0.1227
 4117ntf    fn422868   7.213   6.399   3.830 -0.0631 -0.2064 -0.2038
 4117ntf    on522869   7.059   6.511   3.624 -0.1786 -0.3679  0.1071
 4117ntf    on522870   6.893   6.501   3.807 -0.1760  0.6024  0.0449
 4117ntf    on522871   6.946   6.935   3.666 -0.1050 -0.3420 -0.7030
 4117ntf    on522872   7.133   6.810   3.567 -0.1935 -0.0084 -0.0283
 4117ntf    fn422873   7.259   6.831   3.852  0.3737 -0.1206 -0.3793
 4117ntf    fn422874   7.258   6.990   3.720 -0.3996 -0.1466  0.1710
 4117ntf    fn422875   7.126   6.998   3.878  0.0283  0.4249  0.2106
 4118ntf    cn122876   1.837   0.423   6.713 -0.2506  0.2193 -0.0838
 4118ntf    sn222877   1.665   0.466   6.755 -0.3527 -0.1375 -0.1381
 4118ntf    nn322878   1.632   0.368   6.873  0.1237 -0.2878 -0.1258
 4118ntf    sn222879   1.575   0.387   7.018 -0.1125 -0.0517 -0.2487
 4118ntf    cn122880   1.397   0.403   6.988 -0.1621 -0.1621 -0.0157
 4118ntf    fn422881   1.916   0.424   6.819 -0.0627  0.0735 -0.2222
 4118ntf    fn422882   1.856   0.299   6.670  0.5259  0.0102  0.8319
 4118ntf    fn422883   1.891   0.504   6.622 -0.2836  0.3640  0.0252
 4118ntf    on522884   1.676   0.607   6.782  0.1841 -0.0904 -0.5709
 4118ntf    on522885   1.590   0.422   6.640  0.0188 -0.1232 -0.3892
 4118ntf    on522886   1.620   0.509   7.080  0.0131  0.0425 -0.5270
 4118ntf    on522887   1.577   0.263   7.091 -1.0994  0.2506  0.3127
 4118ntf    fn422888   1.355   0.302   6.914 -0.1734  0.5244 -0.9607
 4118ntf    fn422889   1.316   0.397   7.093 -0.3095  0.1072 -0.1132
 4118ntf    fn422890   1.368   0.517   6.928  0.1766  0.0172  0.1584
 4119ntf    cn122891   2.417   6.559   1.206 -0.1873  0.1076 -0.1954
 4119ntf    sn222892   2.452   6.543   1.384  0.0007 -0.0462 -0.2464
 4119ntf    nn322893   2.414   6.693   1.412  0.6600  0.1533 -0.3936
 4119ntf    sn222894   2.507   6.819   1.419  0.4622  0.2938 -0.2967
 4119ntf    cn122895   2.541   6.817   1.598  0.0973 -0.6279 -0.2317
 4119ntf    fn422896   2.495   6.653   1.155 -0.0119 -0.2267 -0.5457
 4119ntf    fn422897   2.435   6.445   1.142  0.2033 -0.0156  0.1324
 4119ntf    fn422898   2.293   6.591   1.171 -0.2813  0.1567  0.1775
 4119ntf    on522899   2.350   6.453   1.431  0.1602 -0.0314  0.1292
 4119ntf    on522900   2.590   6.501   1.393  0.1455  0.3432 -0.5639
 4119ntf    on522901   2.439   6.945   1.399 -0.5020 -0.2184 -0.2754
 4119ntf    on522902   2.640   6.794   1.370  0.3532 -0.1617 -0.3641
 4119ntf    fn422903   2.599   6.929   1.640 -0.5622 -0.3938  0.0715
 4119ntf    fn422904   2.426   6.808   1.664 -0.1635  0.4905 -0.5005
 4119ntf    fn422905   2.614   6.715   1.638  0.9570  0.0430 -0.0612
 4120ntf    cn122906   4.090   5.199   6.677  0.1087  0.1111 -0.2015
 4120ntf    sn222907   4.047   5.032   6.621 -0.0515 -0.0186  0.3021
 4120ntf    nn322908   4.187   4.993   6.561 -0.2614 -0.0150 -0.1891
 4120ntf    sn222909   4.314   4.937   6.634 -0.4139  0.1177  0.1831
 4120ntf    cn122910   4.294   4.757   6.645 -0.2072  0.0860  0.0561
 4120ntf    fn422911   4.130   5.279   6.580  0.3243  0.0798 -0.1388
 4120ntf    fn422912   3.988   5.255   6.741 -0.1726 -0.5757 -0.0359
 4120ntf    fn422913   4.191   5.206   6.762  0.2720 -0.2766 -0.3653
 4120ntf    on522914   3.995   4.964   6.737  1.1514 -0.4727  0.5973
 4120ntf    on522915   3.953   5.063   6.517  0.4254 -0.3292 -0.2267
 4120ntf    on522916   4.337   4.973   6.771  0.9698  0.6148 -0.1577
 4120ntf    on522917   4.425   4.945   6.542 -0.7497 -0.1310 -0.2470
 4120ntf    fn422918   4.235   4.702   6.540 -0.0363  0.1628 -0.0799
 4120ntf    fn422919   4.406   4.688   6.654 -0.3431 -0.0837  0.4962
 4120ntf    fn422920   4.224   4.731   6.755  0.0393 -0.1898  0.1481
 4121ntf    cn122921   5.632   3.769   6.846  0.0261 -0.6392 -0.0902
 4121ntf    sn222922   5.459   3.770   6.791 -0.0884 -0.1227  0.2667
 4121ntf    nn322923   5.422   3.921   6.816 -0.2931 -0.1698  0.2486
 4121ntf    sn222924   5.408   4.046   6.723  0.2483 -0.1011  0.2511
 4121ntf    cn122925   5.234   4.036   6.670  0.3111  0.8747 -0.1545
 4121ntf    fn422926   5.642   3.778   6.978  0.4990  0.2595 -0.1765
 4121ntf    fn422927   5.700   3.658   6.821  0.5448 -0.2627 -0.3788
 4121ntf    fn422928   5.705   3.871   6.803 -0.3074 -0.1349  0.5073
 4121ntf    on522929   5.451   3.725   6.654 -0.6194  0.2783  0.1608
 4121ntf    on522930   5.387   3.692   6.887 -0.3623 -0.6206 -0.3367
 4121ntf    on522931   5.472   4.040   6.593 -0.4858 -0.7304 -0.0939
 4121ntf    on522932   5.410   4.171   6.794 -0.6116  0.0781 -0.0203
 4121ntf    fn422933   5.202   4.138   6.591 -0.0363  0.4135 -0.6176
 4121ntf    fn422934   5.201   3.927   6.602  0.1157  0.7149  0.1937
 4121ntf    fn422935   5.155   4.039   6.776 -0.1065 -0.4772 -0.4139
 4122ntf    cn122936   5.870   2.609   3.293  0.1200 -0.3759 -0.2276
 4122ntf    sn222937   5.764   2.550   3.157  0.1144 -0.5470 -0.1496
 4122ntf    nn322938   5.683   2.680   3.122  0.5267 -0.4292 -0.6945
 4122ntf    sn222939   5.601   2.697   2.990 -0.1321 -0.0079 -0.2370
 4122ntf    cn122940   5.724   2.774   2.881 -0.1470  0.1723 -0.1270
 4122ntf    fn422941   5.804   2.639   3.403  0.4023  0.3937 -0.2612
 4122ntf    fn422942   5.964   2.523   3.327  0.1124 -0.3262 -0.0847
 4122ntf    fn422943   5.925   2.726   3.265 -0.1438 -0.0724  0.5031
 4122ntf    on522944   5.863   2.517   3.056 -0.2335 -0.1127 -0.6396
 4122ntf    on522945   5.697   2.440   3.221 -0.3948  0.2011  0.6177
 4122ntf    on522946   5.498   2.798   3.005  0.0325  0.0779  0.3112
 4122ntf    on522947   5.561   2.579   2.916 -0.1977 -0.0255 -0.1735
 4122ntf    fn422948   5.798   2.686   2.816  0.7167  0.5313  0.3530
 4122ntf    fn422949   5.669   2.856   2.793  0.2494  0.0491 -0.4985
 4122ntf    fn422950   5.801   2.854   2.953  0.0342 -0.2220  0.1223
 4123ntf    cn122951   3.999   0.629   1.381  0.1154  0.3217 -0.0649
 4123ntf    sn222952   4.109   0.507   1.460 -0.3192  0.0048  0.0589
 4123ntf    nn322953   4.047   0.520   1.603 -0.2658 -0.1551  0.0967
 4123ntf    sn222954   4.097   0.600   1.729 -0.1422 -0.3064  0.1431
 4123ntf    cn122955   4.201   0.479   1.817  0.2376  0.0026  0.1252
 4123ntf    fn422956   3.976   0.727   1.467 -0.1407  0.0700  0.1576
 4123ntf    fn422957   4.052   0.683   1.273  0.1672 -0.1124 -0.2608
 4123ntf    fn422958   3.882   0.574   1.353  0.0182  0.2089  0.5413
 4123ntf    on522959   4.084   0.379   1.399 -0.1035 -0.0268  0.0355
 4123ntf    on522960   4.247   0.549   1.447 -0.1553 -0.3437  0.6592
 4123ntf    on522961   4.002   0.623   1.834 -0.1328 -0.2785  0.1458
 4123ntf    on522962   4.179   0.716   1.701 -0.5792  0.1569  0.7545
 4123ntf    fn422963   4.286   0.539   1.898 -0.1164  0.8580 -0.1258
 4123ntf    fn422964   4.124   0.400   1.891 -0.1285  0.1362 -0.1083
 4123ntf    fn422965   4.276   0.415   1.728 -0.1915 -0.3510  0.0126
 4124ntf    cn122966   4.723   6.939   1.720 -0.0422 -0.2403  0.1098
 4124ntf    sn222967   4.623   6.803   1.789 -0.0110 -0.1712  0.2930
 4124ntf    nn322968   4.676   6.783   1.935  0.2204 -0.1628  0.2117
 4124ntf    sn222969   4.643   6.666   2.034  0.0829 -0.2111  0.1103
 4124ntf    cn122970   4.614   6.767   2.182 -0.3430  0.0301 -0.1372
 4124ntf    fn422971   4.846   6.894   1.702 -0.2264 -0.7117  0.0261
 4124ntf    fn422972   4.684   6.986   1.603  0.0852 -0.5025 -0.0377
 4124ntf    fn422973   4.726   7.044   1.801  0.0952 -0.0663 -0.1217
 4124ntf    on522974   4.493   6.866   1.784  0.2803  0.4201  0.0606
 4124ntf    on522975   4.655   6.695   1.699  0.1416 -0.0885  0.2463
 4124ntf    on522976   4.762   6.593   2.073 -0.1327 -0.6082  0.0226
 4124ntf    on522977   4.515   6.606   2.007  0.0925  0.0126 -0.4453
 4124ntf    fn422978   4.554   6.687   2.268  0.4814 -0.1254  0.3059
 4124ntf    fn422979   4.721   6.821   2.238 -0.7862  0.0359  0.7292
 4124ntf    fn422980   4.526   6.863   2.158 -0.4157  0.1033  0.3992
 4125ntf    cn122981   5.982   0.416   7.076  0.5117 -0.1884 -0.4208
 4125ntf    sn222982   6.140   0.341   7.124  0.3213 -0.1774  0.2344
 4125ntf    nn322983   6.102   0.192   7.157  0.3938 -0.3053 -0.2392
 4125ntf    sn222984   6.055   0.126   7.292 -0.1630 -0.0115 -0.2863
 4125ntf    cn122985   6.142  -0.033   7.293  0.0595  0.1119  0.0923
 4125ntf    fn422986   5.914   0.349   6.984 -0.4002 -0.0040  0.1100
 4125ntf    fn422987   5.899   0.422   7.178  0.7053 -0.4638 -0.2479
 4125ntf    fn422988   5.996   0.538   7.027  0.4210  0.1779  0.4639
 4125ntf    on522989   6.209   0.349   6.997 -0.6990  0.6324 -0.2809
 4125ntf    on522990   6.188   0.429   7.227 -0.1689  0.0148  0.2971
 4125ntf    on522991   5.913   0.101   7.286 -0.1428 -0.3652  0.6507
 4125ntf    on522992   6.113   0.190   7.407 -0.1133  0.6369 -0.6624
 4125ntf    fn422993   6.268  -0.018   7.256  0.1022  0.1633  0.2605
 4125ntf    fn422994   6.146  -0.082   7.416  0.0125  0.1811  0.1214
 4125ntf    fn422995   6.087  -0.128   7.218 -0.1074  0.4272 -0.1846
 4126ntf    cn122996   2.107   3.450   3.848 -0.1326 -0.0580 -0.0282
 4126ntf    sn222997   2.063   3.622   3.887 -0.1579 -0.1096  0.1711
 4126ntf    nn322998   1.929   3.646   3.808 -0.1600 -0.4071  0.0831
 4126ntf    sn222999   1.911   3.684   3.657 -0.2458 -0.0668  0.1783
 4126ntf    cn123000   1.811   3.542   3.603 -0.2545 -0.0652  0.1904
 4126ntf    fn423001   2.045   3.371   3.933 -0.0136  0.2315  0.3279
 4126ntf    fn423002   2.096   3.416   3.720 -0.1195  0.4166 -0.1571
 4126ntf    fn423003   2.235   3.438   3.879 -0.1785 -0.3098  0.0655
 4126ntf    on523004   2.044   3.617   4.030  0.0429  0.3274  0.2150
 4126ntf    on523005   2.171   3.708   3.848 -0.0081 -0.5469 -0.3926
 4126ntf    on523006   2.025   3.680   3.569  0.2400  0.0900  0.7966
 4126ntf    on523007   1.825   3.798   3.636  0.0548  0.0453 -0.4619
 4126ntf    fn423008   1.785   3.537   3.474  0.4082 -0.0183  0.0535
 4126ntf    fn423009   1.874   3.429   3.631 -0.1667 -0.1648 -0.3998
 4126ntf    fn423010   1.691   3.537   3.658  0.0878  0.3199  0.9899
 4127ntf    cn123011   2.125   0.116   0.782 -0.0275  0.0369  0.1924
 4127ntf    sn223012   2.089   0.092   0.606 -0.2082 -0.2077  0.2623
 4127ntf    nn323013   1.954   0.013   0.614 -0.0573 -0.4653  0.2729
 4127ntf    sn223014   1.923  -0.106   0.516  0.2297 -0.2437 -0.0852
 4127ntf    cn123015   1.744  -0.118   0.540  0.2616  0.2146  0.4144
 4127ntf    fn423016   2.023   0.167   0.850 -0.2566 -0.0080 -0.1174
 4127ntf    fn423017   2.143   0.001   0.845 -0.0063 -0.1578 -0.1735
 4127ntf    fn423018   2.233   0.189   0.806 -0.1104  0.1527  0.2170
 4127ntf    on523019   2.077   0.222   0.544  0.4150 -0.3637 -0.1974
 4127ntf    on523020   2.200   0.008   0.568  0.3515  0.6011  0.0992
 4127ntf    on523021   1.974  -0.236   0.554  0.5945 -0.0203  0.1977
 4127ntf    on523022   1.947  -0.076   0.377 -0.1693 -0.1906 -0.1440
 4127ntf    fn423023   1.689   0.000   0.517 -0.1252 -0.0250  0.0716
 4127ntf    fn423024   1.687  -0.201   0.453  0.4522  0.2326  0.2721
 4127ntf    fn423025   1.717  -0.146   0.666  0.2229 -0.0681  0.3461
 4128ntf    cn123026   3.940   5.932   6.142 -0.4110 -0.0232  0.3759
 4128ntf    sn223027   3.873   5.921   6.310 -0.4394  0.2741  0.3835
 4128ntf    nn323028   3.933   5.781   6.348  0.0131  0.4105  0.1839
 4128ntf    sn223029   4.032   5.739   6.462 -0.0089  0.1799  0.1197
 4128ntf    cn123030   3.949   5.586   6.513  0.1203  0.0344 -0.1026
 4128ntf    fn423031   3.899   5.839   6.056  0.4792  0.1594 -0.2593
 4128ntf    fn423032   3.910   6.049   6.088 -0.5325 -0.1721  0.1148
 4128ntf    fn423033   4.072   5.925   6.142 -0.4247 -0.2946  0.3163
 4128ntf    on523034   3.933   6.034   6.377  0.4724  0.1476 -0.2078
 4128ntf    on523035   3.731   5.919   6.285 -0.4284 -0.3207  0.3512
 4128ntf    on523036   4.030   5.830   6.574 -0.2313  0.2610  0.0499
 4128ntf    on523037   4.164   5.696   6.421 -0.0389 -0.0305  0.2480
 4128ntf    fn423038   4.033   5.526   6.595 -0.1913  0.0440  0.2255
 4128ntf    fn423039   3.836   5.596   6.581  0.0439 -0.2697 -0.1803
 4128ntf    fn423040   3.926   5.497   6.418  0.0102 -0.5687  0.4797
 4129ntf    cn123041   5.166   4.055   1.008 -0.2746  0.0943  0.0309
 4129ntf    sn223042   5.054   3.929   0.940 -0.1305  0.1253 -0.2646
 4129ntf    nn323043   5.130   3.797   0.978 -0.1288  0.1131 -0.3109
 4129ntf    sn223044   5.238   3.726   0.889 -0.1161  0.0747 -0.2644
 4129ntf    cn123045   5.251   3.563   0.970 -0.0209  0.3234  0.2255
 4129ntf    fn423046   5.115   4.176   0.995  0.0713  0.2788  0.3564
 4129ntf    fn423047   5.198   4.039   1.136 -0.4622 -0.4074  0.0156
 4129ntf    fn423048   5.275   4.058   0.932 -0.2709 -0.2817  0.0225
 4129ntf    on523049   4.931   3.939   1.015 -0.1640  0.1561 -0.3236
 4129ntf    on523050   5.048   3.954   0.798  0.1107  0.1352 -0.2745
 4129ntf    on523051   5.374   3.772   0.906  0.1169 -0.8187  0.3716
 4129ntf    on523052   5.203   3.690   0.754  0.2037 -0.2619 -0.2583
 4129ntf    fn423053   5.136   3.498   0.969  0.1948 -0.0577  0.1964
 4129ntf    fn423054   5.343   3.489   0.911  0.2858  0.5981  0.3580
 4129ntf    fn423055   5.282   3.580   1.097  0.0282 -0.1076  0.2708
 4130ntf    cn123056   3.743   6.319   1.782  0.0484 -0.1161 -0.2254
 4130ntf    sn223057   3.611   6.432   1.729  0.0479 -0.0230 -0.0232
 4130ntf    nn323058   3.662   6.558   1.807 -0.3145 -0.0937  0.3336
 4130ntf    sn223059   3.684   6.706   1.758 -0.1506 -0.1442  0.2529
 4130ntf    cn123060   3.852   6.744   1.818 -0.0382 -0.1228 -0.0735
 4130ntf    fn423061   3.730   6.197   1.732  0.3073 -0.1752 -0.1532
 4130ntf    fn423062   3.858   6.367   1.738  0.0260  0.0114 -0.1463
 4130ntf    fn423063   3.751   6.316   1.914  0.2386 -0.6177 -0.2457
 4130ntf    on523064   3.623   6.447   1.587  0.0129  0.0208 -0.0213
 4130ntf    on523065   3.496   6.370   1.792  0.5470  0.1027  1.0429
 4130ntf    on523066   3.599   6.798   1.829 -0.5332 -0.0922 -0.2684
 4130ntf    on523067   3.707   6.712   1.616 -0.2949 -0.5931  0.2099
 4130ntf    fn423068   3.943   6.665   1.763  0.5330  0.0447  0.6184
 4130ntf    fn423069   3.898   6.866   1.795  0.0778 -0.1234  0.1486
 4130ntf    fn423070   3.861   6.721   1.948  0.1853 -0.2822 -0.1185
 4131ntf    cn123071   2.826   0.803   4.561 -0.1811 -0.1040  0.0831
 4131ntf    sn223072   2.737   0.838   4.716 -0.4019 -0.0203 -0.0618
 4131ntf    nn323073   2.781   0.716   4.804  0.1359  0.4198  0.2849
 4131ntf    sn223074   2.902   0.700   4.903  0.1427 -0.0928  0.1964
 4131ntf    cn123075   3.005   0.585   4.807  0.1263  0.0541 -0.0000
 4131ntf    fn423076   2.763   0.841   4.451 -0.0588  0.0967  0.0818
 4131ntf    fn423077   2.941   0.868   4.565 -0.3236  0.1608 -0.0719
 4131ntf    fn423078   2.854   0.675   4.546  0.5168  0.0764 -0.1699
 4131ntf    on523079   2.785   0.965   4.765 -0.0440 -0.1124 -0.1707
 4131ntf    on523080   2.597   0.838   4.679 -0.2870 -0.3163 -0.5059
 4131ntf    on523081   2.855   0.625   5.016 -0.5654  0.0246 -0.0180
 4131ntf    on523082   2.983   0.819   4.919 -0.8114  0.4637  0.9940
 4131ntf    fn423083   2.923   0.490   4.763  0.2441 -0.0330 -0.0336
 4131ntf    fn423084   3.066   0.631   4.699 -0.4270  0.4094 -0.1691
 4131ntf    fn423085   3.102   0.534   4.881 -0.2607 -0.4819  0.1468
 4132ntf    cn123086   7.182   3.118   4.382  0.2448 -0.4317 -0.0160
 4132ntf    sn223087   7.298   3.081   4.516  0.4363 -0.0089 -0.0620
 4132ntf    nn323088   7.420   3.168   4.470  0.1554  0.2815 -0.2601
 4132ntf    sn223089   7.557   3.118   4.412  0.0249 -0.0163 -0.3121
 4132ntf    cn123090   7.679   3.190   4.526  0.0316  0.4535 -0.6134
 4132ntf    fn423091   7.149   3.247   4.378  0.4334 -0.3838 -0.0345
 4132ntf    fn423092   7.231   3.096   4.261 -0.3103  0.2152 -0.3688
 4132ntf    fn423093   7.069   3.051   4.398  0.1558 -0.1780  0.4350
 4132ntf    on523094   7.234   3.132   4.635  0.2165 -0.2667 -0.0675
 4132ntf    on523095   7.319   2.939   4.506  0.3464  0.0056 -0.4577
 4132ntf    on523096   7.590   3.173   4.283 -0.3874  0.0666 -0.3824
 4132ntf    on523097   7.589   2.978   4.428  0.2591  0.0320 -0.3499
 4132ntf    fn423098   7.655   3.317   4.556 -0.7194  0.1137  0.2691
 4132ntf    fn423099   7.679   3.133   4.645  0.5462  0.4808 -0.5977
 4132ntf    fn423100   7.803   3.183   4.480  0.4629  0.5552  0.4989
 4133ntf    cn123101   3.116   0.017   6.048  0.0046 -0.2950  0.2387
 4133ntf    sn223102   3.269   0.094   5.989 -0.0835 -0.1417  0.2087
 4133ntf    nn323103   3.232   0.246   6.001  0.2551 -0.0389 -0.0327
 4133ntf    sn223104   3.266   0.352   6.111  0.0866  0.0771 -0.0918
 4133ntf    cn123105   3.346   0.470   5.998  0.3091  0.1870  0.1781
 4133ntf    fn423106   3.020   0.023   5.958  0.3784 -0.4838 -0.1751
 4133ntf    fn423107   3.140  -0.112   6.069 -0.1342 -0.4135 -0.3222
 4133ntf    fn423108   3.067   0.064   6.162  0.0399 -0.2073  0.2170
 4133ntf    on523109   3.371   0.033   6.072  0.4196  0.2755 -0.0955
 4133ntf    on523110   3.277   0.059   5.850  0.3906  0.2438  0.1358
 4133ntf    on523111   3.367   0.329   6.211 -0.1661  0.0741  0.1651
 4133ntf    on523112   3.152   0.427   6.159 -0.0105 -0.0558 -0.1161
 4133ntf    fn423113   3.414   0.569   6.054 -0.1892  0.5425  0.1563
 4133ntf    fn423114   3.433   0.401   5.926 -0.5805 -0.4369 -0.3108
 4133ntf    fn423115   3.263   0.518   5.907  0.4502  0.3634  0.1425
 4134ntf    cn123116   3.288   2.739   5.717  0.0976  0.3540  0.0837
 4134ntf    sn223117   3.351   2.656   5.568 -0.5244 -0.0954  0.0696
 4134ntf    nn323118   3.506   2.670   5.585 -0.5692 -0.2903  0.6893
 4134ntf    sn223119   3.605   2.584   5.670  0.3079 -0.3118 -0.3253
 4134ntf    cn123120   3.656   2.475   5.533 -0.3551 -0.5600 -0.3767
 4134ntf    fn423121   3.157   2.757   5.714  0.0497  0.0621  0.3372
 4134ntf    fn423122   3.319   2.678   5.831 -0.3387  0.1011  0.0661
 4134ntf    fn423123   3.343   2.855   5.748 -0.0032  0.5709 -0.5520
 4134ntf    on523124   3.298   2.523   5.587 -0.3595 -0.0991  0.5115
 4134ntf    on523125   3.303   2.726   5.451  0.0452 -0.4685 -0.3901
 4134ntf    on523126   3.539   2.502   5.769  0.0857  0.0652 -0.1599
 4134ntf    on523127   3.724   2.654   5.713  0.0570  0.2367 -0.5185
 4134ntf    fn423128   3.746   2.384   5.565 -0.0373 -0.0942  0.0742
 4134ntf    fn423129   3.553   2.404   5.491 -0.6716 -0.6886  0.5733
 4134ntf    fn423130   3.713   2.552   5.442 -0.8999 -0.5288 -0.6935
 4135ntf    cn123131   2.096   1.246   2.589 -0.0053 -0.1902  0.0908
 4135ntf    sn223132   2.209   1.105   2.570  0.2131 -0.0060  0.0210
 4135ntf    nn323133   2.259   1.120   2.422  0.0240  0.3576 -0.0060
 4135ntf    sn223134   2.187   1.084   2.287 -0.0936  0.1778  0.1051
 4135ntf    cn123135   2.233   1.220   2.176 -0.1663  0.0504 -0.0815
 4135ntf    fn423136   1.994   1.248   2.505 -0.1618  0.3881  0.2907
 4135ntf    fn423137   2.043   1.247   2.711  0.1447 -0.0539  0.1548
 4135ntf    fn423138   2.151   1.363   2.563 -0.1130 -0.1987 -0.1817
 4135ntf    on523139   2.311   1.135   2.667 -0.0629  0.2188  0.2431
 4135ntf    on523140   2.132   0.986   2.599  0.2559  0.0434  0.3329
 4135ntf    on523141   2.043   1.089   2.290 -0.1052 -0.4008  0.6158
 4135ntf    on523142   2.235   0.965   2.221 -0.0301  0.0353  0.4068
 4135ntf    fn423143   2.148   1.235   2.075 -0.2286  0.0297 -0.0321
 4135ntf    fn423144   2.240   1.334   2.242  0.1302  0.0771 -0.1591
 4135ntf    fn423145   2.353   1.207   2.121  0.2699 -0.0832  0.8916
 4136ntf    cn123146   3.738   5.158   7.152 -0.0848  0.0640  0.0446
 4136ntf    sn223147   3.774   5.064   7.303  0.0426  0.0812  0.0244
 4136ntf    nn323148   3.814   5.174   7.407  0.3928 -0.1185  0.1054
 4136ntf    sn223149   3.766   5.185   7.557  0.0644  0.0541 -0.0112
 4136ntf    cn123150   3.917   5.150   7.653  0.0291 -0.1884 -0.0447
 4136ntf    fn423151   3.707   5.079   7.050  0.0792 -0.1564  0.1639
 4136ntf    fn423152   3.637   5.236   7.185  0.0435  0.3215 -0.1601
 4136ntf    fn423153   3.844   5.229   7.118  0.1601 -0.2006  0.2459
 4136ntf    on523154   3.652   4.991   7.328  0.1915 -0.2303 -0.1579
 4136ntf    on523155   3.889   4.987   7.260 -0.0035  0.0684 -0.0740
 4136ntf    on523156   3.674   5.084   7.601 -0.4328  0.1962 -0.7143
 4136ntf    on523157   3.736   5.319   7.601 -0.0605  0.0272 -0.0137
 4136ntf    fn423158   3.976   5.036   7.623 -0.1694 -0.3245  0.0830
 4136ntf    fn423159   4.010   5.243   7.641 -0.1959  0.0107 -0.2698
 4136ntf    fn423160   3.896   5.133   7.782  0.1112 -0.5407 -0.0774
 4137ntf    cn123161   2.262   4.916   4.293  0.3101  0.0796 -0.0047
 4137ntf    sn223162   2.299   5.048   4.413 -0.1677  0.2030  0.0099
 4137ntf    nn323163   2.272   5.177   4.327  0.2435  0.4412  0.2337
 4137ntf    sn223164   2.131   5.240   4.301  0.1254  0.2023  0.2923
 4137ntf    cn123165   2.141   5.255   4.120 -0.2145 -0.0270  0.2531
 4137ntf    fn423166   2.136   4.878   4.292  0.2961  0.1325 -0.4071
 4137ntf    fn423167   2.290   4.959   4.171  0.3838  0.0330 -0.0041
 4137ntf    fn423168   2.333   4.805   4.307 -0.3570 -0.3670 -0.1825
 4137ntf    on523169   2.216   5.022   4.528  0.2040  0.3404  0.3112
 4137ntf    on523170   2.441   5.034   4.434 -0.1404  0.1711 -0.1907
 4137ntf    on523171   2.112   5.371   4.359 -0.3521  0.1622  0.2295
 4137ntf    on523172   2.023   5.145   4.314  0.3904 -0.1531 -0.0911
 4137ntf    fn423173   2.198   5.153   4.058  0.1886  0.2240  0.2087
 4137ntf    fn423174   2.027   5.281   4.058  0.0136 -0.4512 -0.3602
 4137ntf    fn423175   2.222   5.353   4.086  0.2435 -0.5473 -0.1705
 4138ntf    cn123176   3.071   5.881   1.260 -0.1829  0.0302  0.0075
 4138ntf    sn223177   3.248   5.848   1.237 -0.1128  0.3897  0.0307
 4138ntf    nn323178   3.322   5.985   1.257  0.3705  0.1008  0.2459
 4138ntf    sn223179   3.323   6.067   1.391 -0.0477  0.1196  0.2401
 4138ntf    cn123180   3.501   6.105   1.385 -0.0144 -0.0409  0.1950
 4138ntf    fn423181   3.000   5.772   1.233 -0.0690 -0.0274 -0.0551
 4138ntf    fn423182   3.045   5.924   1.382  0.1537  0.0321  0.0785
 4138ntf    fn423183   3.036   5.975   1.174 -0.3153 -0.1680 -0.1588
 4138ntf    on523184   3.276   5.753   1.342  0.2030 -0.1159 -0.5063
 4138ntf    on523185   3.253   5.804   1.100  0.1277 -0.2507  0.2451
 4138ntf    on523186   3.318   5.993   1.515  0.3703  0.0899  0.2408
 4138ntf    on523187   3.261   6.196   1.385 -1.2700 -0.4721 -0.1649
 4138ntf    fn423188   3.539   6.162   1.272  0.3006  0.1104  0.3757
 4138ntf    fn423189   3.550   6.180   1.483 -0.1185  0.2151  0.0508
 4138ntf    fn423190   3.569   5.992   1.397 -0.2752 -0.1824  0.3686
 4139ntf    cn123191   6.828   4.372   5.403  0.2362 -0.0593  0.2844
 4139ntf    sn223192   6.686   4.486   5.397  0.3726  0.0975  0.0200
 4139ntf    nn323193   6.737   4.604   5.487 -0.5384  0.5992 -0.1170
 4139ntf    sn223194   6.827   4.726   5.446  0.2681  0.1579  0.3226
 4139ntf    cn123195   6.698   4.840   5.388  0.1376  0.0142  0.3302
 4139ntf    fn423196   6.845   4.310   5.288  0.2975  0.1196  0.1973
 4139ntf    fn423197   6.942   4.432   5.431  0.1253  0.3648 -0.1549
 4139ntf    fn423198   6.817   4.272   5.490 -0.0946 -0.0402  0.2651
 4139ntf    on523199   6.669   4.514   5.257  0.2550 -0.6153 -0.1095
 4139ntf    on523200   6.577   4.411   5.455  0.2798  0.1778 -0.0507
 4139ntf    on523201   6.911   4.706   5.331 -0.1064 -0.9330  0.2306
 4139ntf    on523202   6.887   4.790   5.561  0.2603  0.1266  0.3443
 4139ntf    fn423203   6.690   4.840   5.256  0.0407  0.4029  0.3345
 4139ntf    fn423204   6.576   4.818   5.433  0.0336  0.4672  0.2776
 4139ntf    fn423205   6.740   4.962   5.416  0.9973 -0.2854  0.3715
 4140ntf    cn123206   4.128   5.029   2.159  0.1939 -0.0865  0.1773
 4140ntf    sn223207   4.299   5.074   2.116  0.0474  0.2909 -0.0102
 4140ntf    nn323208   4.276   5.070   1.961 -0.2168  0.0173  0.0353
 4140ntf    sn223209   4.224   5.188   1.871 -0.2814 -0.0400 -0.0025
 4140ntf    cn123210   4.142   5.090   1.741  0.0641 -0.1042 -0.1752
 4140ntf    fn423211   4.100   4.986   2.280 -0.6083  0.1725  0.0859
 4140ntf    fn423212   4.039   5.126   2.149  0.1747 -0.0725  0.4950
 4140ntf    fn423213   4.086   4.935   2.075  0.1644 -0.3031  0.4347
 4140ntf    on523214   4.318   5.205   2.174  0.1466  0.1107  0.3648
 4140ntf    on523215   4.386   4.968   2.159 -0.5016 -0.0183  0.3515
 4140ntf    on523216   4.337   5.248   1.805 -0.5138  0.3908 -0.0093
 4140ntf    on523217   4.123   5.270   1.931  0.0354  0.2928  0.0817
 4140ntf    fn423218   4.057   5.162   1.669  0.0975  0.1848  0.0699
 4140ntf    fn423219   4.228   5.038   1.656  0.1038  0.0836 -0.2503
 4140ntf    fn423220   4.071   4.990   1.789 -0.2289  0.1741 -0.0214
 4141ntf    cn123221   1.352   1.836   1.600 -0.1914  0.0377 -0.2170
 4141ntf    sn223222   1.494   1.948   1.576 -0.0477 -0.0408  0.2574
 4141ntf    nn323223   1.446   2.085   1.637 -0.4261  0.0098 -0.1447
 4141ntf    sn223224   1.538   2.201   1.689 -0.0962 -0.2340 -0.1835
 4141ntf    cn123225   1.587   2.139   1.853 -0.3710 -0.0618 -0.0359
 4141ntf    fn423226   1.321   1.826   1.728 -0.0523 -0.2227 -0.2043
 4141ntf    fn423227   1.252   1.897   1.537 -0.3602 -0.3227 -0.2959
 4141ntf    fn423228   1.372   1.716   1.549  0.5226 -0.1151  0.4178
 4141ntf    on523229   1.609   1.894   1.643  0.1709 -0.9621 -0.8319
 4141ntf    on523230   1.508   1.947   1.432  0.1798 -0.8860  0.2832
 4141ntf    on523231   1.469   2.322   1.726 -0.2398 -0.4517  0.2724
 4141ntf    on523232   1.665   2.212   1.622 -0.1516  0.4740 -0.1708
 4141ntf    fn423233   1.492   2.081   1.925 -0.2159 -0.0075  0.2123
 4141ntf    fn423234   1.681   2.047   1.842 -0.2190  0.0282  0.4855
 4141ntf    fn423235   1.650   2.229   1.926 -0.0362  0.0258 -0.4296
 4142ntf    cn123236   0.286   2.094   3.877  0.1188  0.0654  0.1860
 4142ntf    sn223237   0.467   2.072   3.876  0.0935 -0.1385 -0.1728
 4142ntf    nn323238   0.490   2.080   4.031 -0.0215 -0.1566 -0.1543
 4142ntf    sn223239   0.527   1.970   4.136  0.2263  0.0587 -0.0156
 4142ntf    cn123240   0.708   1.987   4.136  0.2247  0.0745  0.0653
 4142ntf    fn423241   0.233   1.996   3.948  0.2436 -0.0119  0.1732
 4142ntf    fn423242   0.254   2.209   3.933  0.3138  0.3490 -0.2770
 4142ntf    fn423243   0.226   2.094   3.759 -0.0338  0.1308  0.2640
 4142ntf    on523244   0.495   1.945   3.815 -0.4471 -0.2158 -0.2668
 4142ntf    on523245   0.503   2.194   3.808  0.0119 -0.1293 -0.1997
 4142ntf    on523246   0.511   1.832   4.097 -0.1587  0.0888  0.0346
 4142ntf    on523247   0.497   2.001   4.273  0.3783 -0.4004  0.1261
 4142ntf    fn423248   0.739   2.101   4.195  0.0198 -0.0104  0.3381
 4142ntf    fn423249   0.784   1.891   4.186  0.0269  0.1568  0.5328
 4142ntf    fn423250   0.749   1.998   4.011 -0.0844  0.3532 -0.0115
 4143ntf    cn123251   6.968   3.986   3.082 -0.1742  0.1861  0.2743
 4143ntf    sn223252   6.911   4.117   2.969  0.0308  0.0591  0.0202
 4143ntf    nn323253   6.847   4.215   3.074 -0.1032  0.0079 -0.0135
 4143ntf    sn223254   6.925   4.325   3.153  0.1529  0.0635 -0.3405
 4143ntf    cn123255   6.942   4.458   3.030 -0.3581  0.3740 -0.0775
 4143ntf    fn423256   6.879   3.983   3.180 -0.5323 -0.0622 -0.0559
 4143ntf    fn423257   6.977   3.864   3.031  0.1505  0.1899  0.3176
 4143ntf    fn423258   7.087   4.012   3.135  0.2485 -0.4772 -0.3248
 4143ntf    on523259   7.033   4.157   2.906 -0.0920 -0.3184 -0.4649
 4143ntf    on523260   6.808   4.063   2.884  0.5033  0.0671 -0.5602
 4143ntf    on523261   7.061   4.299   3.192 -0.0452  0.0451  0.3469
 4143ntf    on523262   6.846   4.391   3.254  0.2216  0.1389 -0.3362
 4143ntf    fn423263   7.007   4.423   2.921  0.4964  0.3092  0.4415
 4143ntf    fn423264   6.825   4.509   2.994 -0.6147 -0.2601 -0.1425
 4143ntf    fn423265   7.009   4.564   3.074  0.1029  0.2413 -0.4597
 4144ntf    cn123266   4.246   3.515   2.724  0.2743 -0.0477  0.0491
 4144ntf    sn223267   4.179   3.368   2.807 -0.0063  0.1374  0.1485
 4144ntf    nn323268   4.026   3.394   2.783 -0.1938 -0.5144  0.5980
 4144ntf    sn223269   3.931   3.338   2.671  0.3822 -0.3226  0.0087
 4144ntf    cn123270   3.855   3.197   2.758  0.1183 -0.2268 -0.0665
 4144ntf    fn423271   4.377   3.522   2.741  0.2997 -1.0629  0.3313
 4144ntf    fn423272   4.236   3.530   2.593  0.3318  0.0572  0.0567
 4144ntf    fn423273   4.190   3.625   2.771  0.2327 -0.0789  0.0722
 4144ntf    on523274   4.244   3.256   2.744  0.2554  0.0437  0.5800
 4144ntf    on523275   4.208   3.400   2.945  0.5381  0.5106 -0.0503
 4144ntf    on523276   3.999   3.279   2.558  0.5215 -0.0219 -0.0662
 4144ntf    on523277   3.824   3.429   2.641  0.5924 -0.0405  0.1064
 4144ntf    fn423278   3.811   3.112   2.667 -0.2548  0.3418 -0.4235
 4144ntf    fn423279   3.950   3.136   2.827  0.0807 -0.1563  0.0483
 4144ntf    fn423280   3.761   3.238   2.842  0.3604  0.0955  0.0518
 4145ntf    cn123281   1.320   0.080   3.188  0.4859  0.1798  0.0134
 4145ntf    sn223282   1.414   0.056   3.341  0.0864 -0.2861  0.1928
 4145ntf    nn323283   1.392  -0.096   3.370 -0.3386 -0.3511 -0.4653
 4145ntf    sn223284   1.384  -0.171   3.508  0.0685  0.1864 -0.1456
 4145ntf    cn123285   1.209  -0.138   3.546  0.1051 -0.1904  0.3517
 4145ntf    fn423286   1.192   0.050   3.209  0.4911  0.3635  0.3149
 4145ntf    fn423287   1.308   0.205   3.147  0.4292  0.1075 -0.1919
 4145ntf    fn423288   1.347   0.004   3.083  0.0693 -0.0689  0.0823
 4145ntf    on523289   1.552   0.095   3.320  0.0053  0.0377  0.2558
 4145ntf    on523290   1.349   0.143   3.436  0.3238  0.1256 -0.0163
 4145ntf    on523291   1.467  -0.107   3.607 -0.1643  0.0562  0.1359
 4145ntf    on523292   1.390  -0.315   3.492 -0.7457  0.1002  0.2912
 4145ntf    fn423293   1.189  -0.011   3.577  0.2629 -0.1237  0.1820
 4145ntf    fn423294   1.141  -0.165   3.436  0.0226 -0.0838  0.3767
 4145ntf    fn423295   1.155  -0.215   3.640  0.7228 -0.5607  0.4150
 4146ntf    cn123296   0.990   0.468   6.965 -0.0913  0.1358  0.0067
 4146ntf    sn223297   0.884   0.325   6.998  0.0366 -0.0102 -0.2057
 4146ntf    nn323298   0.997   0.217   6.999  0.2959  0.2595 -0.0533
 4146ntf    sn223299   0.965   0.063   6.998 -0.0205  0.3226  0.3910
 4146ntf    cn123300   0.997   0.022   6.824  0.0155  0.4221  0.3741
 4146ntf    fn423301   1.071   0.448   6.862 -0.5741 -0.4413 -0.2644
 4146ntf    fn423302   0.925   0.579   6.932 -0.4489 -0.0357  0.1351
 4146ntf    fn423303   1.057   0.499   7.075  0.3484 -0.3360 -0.1264
 4146ntf    on523304   0.834   0.354   7.130  0.0632 -0.5747 -0.0683
 4146ntf    on523305   0.791   0.327   6.888 -0.1780  0.0949 -0.0244
 4146ntf    on523306   0.828   0.021   7.012  0.1134 -0.2029  0.1381
 4146ntf    on523307   1.069  -0.014   7.061 -0.1203 -0.1976 -0.0753
 4146ntf    fn423308   1.121   0.062   6.804  0.1265 -0.0902  0.0310
 4146ntf    fn423309   0.992  -0.107   6.797  0.4673  0.3416  0.6702
 4146ntf    fn423310   0.926   0.088   6.734 -0.1807 -0.1260  0.1231
 4147ntf    cn123311   5.480   3.339   2.694 -0.2974 -0.0821  0.6578
 4147ntf    sn223312   5.407   3.489   2.622  0.3821  0.1453  0.4398
 4147ntf    nn323313   5.535   3.561   2.565  0.2244  0.0938  0.0179
 4147ntf    sn223314   5.576   3.585   2.415  0.2807  0.1671  0.0455
 4147ntf    cn123315   5.731   3.676   2.443  0.1737  0.2799  0.2729
 4147ntf    fn423316   5.532   3.259   2.602 -0.2066  0.6118  0.0980
 4147ntf    fn423317   5.575   3.372   2.780  0.2683 -0.6595  0.2652
 4147ntf    fn423318   5.395   3.260   2.758 -0.2794 -0.4026  0.2900
 4147ntf    on523319   5.307   3.438   2.532  0.2666 -0.2306  0.7796
 4147ntf    on523320   5.346   3.556   2.734 -0.0090 -0.1645  0.4135
 4147ntf    on523321   5.483   3.680   2.359 -0.4129 -0.3315  0.3415
 4147ntf    on523322   5.620   3.465   2.349  0.3162  0.0063  0.3602
 4147ntf    fn423323   5.802   3.695   2.333  0.0381  0.1678  0.1661
 4147ntf    fn423324   5.706   3.802   2.478  0.1784  0.2610  0.3435
 4147ntf    fn423325   5.811   3.625   2.535 -0.1401  0.2385  0.5249
 4148ntf    cn123326   6.029   1.821   2.546  0.0793 -0.1136  0.2518
 4148ntf    sn223327   6.205   1.856   2.571  0.0562  0.0590  0.1740
 4148ntf    nn323328   6.201   1.951   2.696 -0.1908  0.4351 -0.1206
 4148ntf    sn223329   6.271   2.090   2.717  0.2228  0.1589  0.3476
 4148ntf    cn123330   6.424   2.040   2.801  0.2604 -0.1746  0.0815
 4148ntf    fn423331   5.965   1.933   2.517  0.1715 -0.0457  0.3091
 4148ntf    fn423332   6.003   1.731   2.453  0.0086  0.0290  0.1338
 4148ntf    fn423333   5.974   1.774   2.657 -0.0929 -0.6218 -0.0419
 4148ntf    on523334   6.257   1.724   2.599  0.1232  0.1290  0.3839
 4148ntf    on523335   6.242   1.906   2.441 -0.1461  0.2375  0.1860
 4148ntf    on523336   6.208   2.164   2.824 -0.6054  0.0417 -0.0500
 4148ntf    on523337   6.313   2.153   2.595 -0.3497 -0.2071 -0.0437
 4148ntf    fn423338   6.403   1.987   2.920  0.2148 -0.0875  0.1129
 4148ntf    fn423339   6.491   1.952   2.729  0.0635 -0.7197  0.5571
 4148ntf    fn423340   6.497   2.150   2.814 -0.2631  0.2021 -0.1266
 4149ntf    cn123341   1.773   0.124   2.758  0.4797  0.1547 -0.1526
 4149ntf    sn223342   1.928   0.031   2.737  0.2962 -0.2013  0.0652
 4149ntf    nn323343   1.960   0.063   2.587 -0.0436 -0.2471 -0.0172
 4149ntf    sn223344   1.912   0.005   2.449  0.0660  0.0179 -0.1688
 4149ntf    cn123345   2.066  -0.083   2.408  0.1652  0.2732 -0.3481
 4149ntf    fn423346   1.686   0.091   2.665  0.1433 -0.0020  0.2119
 4149ntf    fn423347   1.712   0.098   2.873 -0.1039 -0.7993 -0.6643
 4149ntf    fn423348   1.796   0.254   2.754 -0.5617  0.3635  0.3064
 4149ntf    on523349   2.019   0.099   2.825  0.0579  0.1767  0.0212
 4149ntf    on523350   1.905  -0.108   2.768 -0.7273  0.0275  0.3657
 4149ntf    on523351   1.899   0.104   2.346  0.0521  0.0954 -0.0925
 4149ntf    on523352   1.808  -0.095   2.457  0.2402 -0.0896  0.9810
 4149ntf    fn423353   2.168  -0.012   2.453  0.2909  0.0598 -0.2918
 4149ntf    fn423354   2.069  -0.197   2.475 -0.3630  0.2562 -0.3509
 4149ntf    fn423355   2.081  -0.114   2.280 -0.2278 -0.0402 -0.3216
 4150ntf    cn123356   4.982   4.685   6.214  0.3086 -0.3346 -0.0831
 4150ntf    sn223357   5.070   4.759   6.073 -0.0233  0.0978 -0.0679
 4150ntf    nn323358   4.987   4.888   6.043 -0.3425  0.0591  0.6242
 4150ntf    sn223359   4.857   4.893   5.954 -0.0057  0.0675  0.1292
 4150ntf    cn123360   4.948   4.943   5.805 -0.1013  0.2864  0.1441
 4150ntf    fn423361   4.989   4.754   6.327 -0.5532 -0.4065  0.0281
 4150ntf    fn423362   4.851   4.680   6.196  0.2742 -0.0483  0.0709
 4150ntf    fn423363   5.007   4.561   6.251  0.4222 -0.1647  0.4149
 4150ntf    on523364   5.203   4.778   6.124  0.1233  0.1120 -0.4525
 4150ntf    on523365   5.056   4.652   5.977  0.0260 -0.3830  0.4510
 4150ntf    on523366   4.775   5.007   5.985 -0.0958  0.1739 -0.4951
 4150ntf    on523367   4.789   4.771   5.919  0.2009 -0.0793  0.2352
 4150ntf    fn423368   5.020   5.053   5.823 -0.1480  0.3910 -0.2975
 4150ntf    fn423369   5.038   4.853   5.770 -0.0628  0.4492 -0.1786
 4150ntf    fn423370   4.875   4.964   5.697  0.3920 -0.0199 -0.2562
 4151ntf    cn123371   0.600   4.083   5.660 -0.0411 -0.1342 -0.3434
 4151ntf    sn223372   0.537   4.145   5.819 -0.1985  0.0151 -0.4615
 4151ntf    nn323373   0.671   4.207   5.872 -0.5192  0.3410 -0.0264
 4151ntf    sn223374   0.703   4.346   5.938  0.1922  0.0240  0.3171
 4151ntf    cn123375   0.783   4.433   5.799 -0.5740 -0.0867 -0.2053
 4151ntf    fn423376   0.529   3.982   5.614  0.0170 -0.2357 -0.2100
 4151ntf    fn423377   0.609   4.180   5.570  0.0916  0.3614  0.1991
 4151ntf    fn423378   0.726   4.046   5.669  0.0401  0.1679 -0.2235
 4151ntf    on523379   0.424   4.226   5.782 -0.2108  0.3525  0.2970
 4151ntf    on523380   0.516   4.016   5.881 -0.0203  0.3009  0.1984
 4151ntf    on523381   0.805   4.343   6.039 -0.0569  0.0554  0.5686
 4151ntf    on523382   0.584   4.424   5.963 -0.2778 -0.5443 -0.1006
 4151ntf    fn423383   0.694   4.460   5.706 -0.5204  0.0406 -0.2202
 4151ntf    fn423384   0.844   4.545   5.834 -0.5262  0.0845 -0.8261
 4151ntf    fn423385   0.879   4.364   5.741 -0.4716 -0.0694 -0.0576
 4152ntf    cn123386   5.548   2.048   2.360 -0.5384 -0.3406 -0.0564
 4152ntf    sn223387   5.425   2.164   2.294 -0.2667 -0.0923 -0.1320
 4152ntf    nn323388   5.462   2.296   2.371  0.2720 -0.2435 -0.1337
 4152ntf    sn223389   5.535   2.427   2.323  0.1941 -0.1905 -0.1056
 4152ntf    cn123390   5.603   2.478   2.484  0.2179  0.2454 -0.2540
 4152ntf    fn423391   5.499   1.929   2.330 -0.1906 -0.5344  0.1440
 4152ntf    fn423392   5.660   2.065   2.292 -0.3914 -0.4055  0.1669
 4152ntf    fn423393   5.568   2.055   2.490 -0.6407 -0.1875 -0.0488
 4152ntf    on523394   5.450   2.160   2.152 -0.0024  0.2574 -0.0968
 4152ntf    on523395   5.301   2.107   2.341 -0.0915 -0.3474  0.0187
 4152ntf    on523396   5.449   2.538   2.292  0.2635 -0.0544  0.1877
 4152ntf    on523397   5.652   2.407   2.241  0.1679  0.2345 -0.2457
 4152ntf    fn423398   5.676   2.380   2.536 -0.5545 -0.0938  0.2035
 4152ntf    fn423399   5.693   2.574   2.472  0.0794  0.4251  0.1428
 4152ntf    fn423400   5.515   2.519   2.573  0.3821 -0.2145  0.1244
 4153ntf    cn123401   6.950   3.537   2.322  0.2895 -0.3456 -0.1670
 4153ntf    sn223402   7.033   3.626   2.458 -0.1035 -0.2174 -0.0082
 4153ntf    nn323403   6.934   3.577   2.569 -0.4137 -0.1463 -0.2508
 4153ntf    sn223404   6.811   3.645   2.639 -0.2747 -0.0277 -0.1214
 4153ntf    cn123405   6.900   3.722   2.778  0.2578  0.2680 -0.6225
 4153ntf    fn423406   6.822   3.573   2.319  0.2897 -0.3260  0.0119
 4153ntf    fn423407   7.003   3.554   2.202 -0.4321  0.6713 -0.3582
 4153ntf    fn423408   6.943   3.407   2.347  0.4028 -0.3474 -0.1456
 4153ntf    on523409   7.164   3.567   2.469  0.1005  0.3976  1.0066
 4153ntf    on523410   7.028   3.764   2.417  0.0654 -0.0663  0.4804
 4153ntf    on523411   6.721   3.546   2.693  0.0395 -0.6498 -0.7252
 4153ntf    on523412   6.755   3.754   2.564 -0.8116 -0.0393  0.2532
 4153ntf    fn423413   6.993   3.808   2.741  0.2918  0.6428  0.2944
 4153ntf    fn423414   6.818   3.789   2.857  0.1780 -0.5564  0.0157
 4153ntf    fn423415   6.956   3.629   2.854  0.0393  0.2709 -0.4578
 4154ntf    cn123416   5.369   1.129   4.280  0.0808  0.0471 -0.2433
 4154ntf    sn223417   5.512   1.096   4.173  0.1833  0.1536 -0.1410
 4154ntf    nn323418   5.504   1.214   4.070 -0.2637  0.4786  0.2641
 4154ntf    sn223419   5.439   1.200   3.928  0.1067  0.2594  0.1175
 4154ntf    cn123420   5.567   1.108   3.836  0.2716 -0.1383  0.7435
 4154ntf    fn423421   5.265   1.063   4.231 -0.1485  0.3650 -0.1899
 4154ntf    fn423422   5.390   1.080   4.401  0.0239 -0.1296 -0.3037
 4154ntf    fn423423   5.336   1.256   4.294  0.2914  0.0643  0.1154
 4154ntf    on523424   5.629   1.124   4.252 -0.0915 -0.4615  0.4903
 4154ntf    on523425   5.489   0.959   4.133 -0.2119  0.1180  0.2049
 4154ntf    on523426   5.441   1.328   3.863 -0.3455  0.4177  0.4166
 4154ntf    on523427   5.313   1.130   3.920  0.0720  0.3882 -0.5039
 4154ntf    fn423428   5.555   0.976   3.842 -0.0439 -0.1404  0.0925
 4154ntf    fn423429   5.575   1.141   3.708  0.0633 -0.2091  0.7126
 4154ntf    fn423430   5.682   1.139   3.893  0.1336  0.5621  0.6529
 4155ntf    cn123431   6.822   2.091   3.018  0.1210  0.6601 -0.1475
 4155ntf    sn223432   6.795   2.209   3.153 -0.0641  0.4792 -0.0267
 4155ntf    nn323433   6.677   2.137   3.228 -0.3231  0.2169 -0.6792
 4155ntf    sn223434   6.585   2.205   3.336 -0.0674  0.1745 -0.4326
 4155ntf    cn123435   6.445   2.255   3.231 -0.3366 -0.1127 -0.2119
 4155ntf    fn423436   6.907   2.129   2.925  0.5358 -0.4890 -0.2546
 4155ntf    fn423437   6.852   1.969   3.059  0.2539  0.7793  0.1141
 4155ntf    fn423438   6.711   2.069   2.949 -0.2065  0.3957  0.4612
 4155ntf    on523439   6.917   2.206   3.230 -0.2163  0.3218  0.2111
 4155ntf    on523440   6.746   2.327   3.087 -0.0522  0.8105  0.5499
 4155ntf    on523441   6.636   2.330   3.385 -0.1794  0.1127 -0.1600
 4155ntf    on523442   6.517   2.112   3.423  0.3432  0.2432 -0.0364
 4155ntf    fn423443   6.484   2.339   3.137 -0.1049 -0.2759 -0.2625
 4155ntf    fn423444   6.387   2.159   3.161  0.1741 -0.7856  0.2731
 4155ntf    fn423445   6.349   2.317   3.298 -0.3249  0.2249 -0.5089
 4156ntf    cn123446   2.066   4.725   2.680 -0.3428  0.4563  0.1417
 4156ntf    sn223447   2.030   4.792   2.515 -0.0267  0.0754 -0.0854
 4156ntf    nn323448   1.881   4.840   2.526  0.0052  0.3395 -0.7656
 4156ntf    sn223449   1.764   4.736   2.512  0.0763  0.1888 -0.2668
 4156ntf    cn123450   1.718   4.743   2.336  0.2292  0.2329 -0.3054
 4156ntf    fn423451   2.193   4.688   2.687 -0.4568  0.1120  0.4236
 4156ntf    fn423452   2.044   4.817   2.772  0.0281  0.4203  0.2668
 4156ntf    fn423453   1.995   4.617   2.710  0.1558  0.1724  0.3068
 4156ntf    on523454   2.107   4.913   2.503 -0.0118  0.0029 -0.7328
 4156ntf    on523455   2.068   4.685   2.426 -0.4857  0.0798 -0.2900
 4156ntf    on523456   1.646   4.799   2.566  0.4394  0.1460  0.5844
 4156ntf    on523457   1.787   4.597   2.542 -0.6828  0.2158  0.5058
 4156ntf    fn423458   1.820   4.716   2.257  0.0389 -0.3913 -0.3456
 4156ntf    fn423459   1.630   4.648   2.308  0.0716  0.2547  0.1037
 4156ntf    fn423460   1.669   4.856   2.286  0.0031  0.1604 -0.2501
 4157ntf    cn123461   0.361   2.875   1.483 -0.2352 -0.3632 -0.0750
 4157ntf    sn223462   0.425   2.916   1.318 -0.3034  0.3092  0.0613
 4157ntf    nn323463   0.573   2.867   1.334 -0.5303 -0.2561  0.4937
 4157ntf    sn223464   0.629   2.722   1.311 -0.1971 -0.0585  0.0386
 4157ntf    cn123465   0.748   2.768   1.181  0.1119 -0.6315  0.1164
 4157ntf    fn423466   0.325   2.750   1.505 -0.2492 -0.3376  0.0539
 4157ntf    fn423467   0.442   2.911   1.581  0.2790 -0.1809 -0.5664
 4157ntf    fn423468   0.250   2.944   1.509 -0.4384 -0.6416 -0.2042
 4157ntf    on523469   0.343   2.849   1.221  0.1258 -0.3541  0.1484
 4157ntf    on523470   0.422   3.060   1.318 -0.0489  0.3242  0.9359
 4157ntf    on523471   0.549   2.626   1.241 -0.2328 -0.0281  0.0374
 4157ntf    on523472   0.718   2.676   1.415  0.5008  0.0992 -0.4822
 4157ntf    fn423473   0.685   2.820   1.078  0.4327 -0.0708  0.1984
 4157ntf    fn423474   0.838   2.855   1.224  0.1004 -0.3547 -0.4196
 4157ntf    fn423475   0.814   2.658   1.148  0.7207 -0.1972 -0.1287
 4158ntf    cn123476   1.047   4.158   0.859  0.2399  0.0654 -0.0352
 4158ntf    sn223477   1.043   4.174   0.678 -0.1958 -0.2945 -0.0603
 4158ntf    nn323478   1.086   4.027   0.641  0.0353 -0.3172  0.2875
 4158ntf    sn223479   1.060   3.955   0.504  0.0773  0.0691  0.0730
 4158ntf    cn123480   0.938   3.827   0.549  0.0383  0.1026  0.0634
 4158ntf    fn423481   1.155   4.093   0.901  0.3564  0.3641  0.1263
 4158ntf    fn423482   1.042   4.280   0.910 -1.0971 -0.0550  0.1708
 4158ntf    fn423483   0.943   4.097   0.914  0.2335  0.4647  0.3961
 4158ntf    on523484   0.910   4.214   0.642 -0.0968 -0.1305 -0.2464
 4158ntf    on523485   1.145   4.272   0.648 -0.5451  0.0817 -0.0166
 4158ntf    on523486   1.177   3.885   0.458 -0.2588 -0.3140 -0.2181
 4158ntf    on523487   0.987   4.039   0.411 -0.2114 -0.2887 -0.0280
 4158ntf    fn423488   0.821   3.880   0.580  0.0933  0.1185  0.2439
 4158ntf    fn423489   0.924   3.750   0.443  0.2361 -0.0194  0.1254
 4158ntf    fn423490   0.970   3.746   0.649 -0.2216 -0.4229 -0.2770
 4159ntf    cn123491   0.150   2.791   3.675 -0.1135 -0.3434  0.0988
 4159ntf    sn223492   0.068   2.648   3.599 -0.0480 -0.2134 -0.2156
 4159ntf    nn323493  -0.061   2.712   3.536 -0.4536 -0.2504  0.5788
 4159ntf    sn223494  -0.208   2.724   3.590 -0.6025  0.1282  0.0886
 4159ntf    cn123495  -0.249   2.901   3.580  0.0032  0.2907  0.4349
 4159ntf    fn423496   0.233   2.768   3.776  0.2789  0.2103 -0.0877
 4159ntf    fn423497   0.222   2.864   3.590 -0.0441 -0.1576  0.3132
 4159ntf    fn423498   0.064   2.877   3.727 -0.0406  0.3201 -0.8557
 4159ntf    on523499   0.169   2.613   3.502  0.1687  0.4406 -0.2348
 4159ntf    on523500   0.043   2.547   3.698 -0.0161 -0.4350 -0.4311
 4159ntf    on523501  -0.217   2.698   3.731  0.2319 -0.1586  0.0923
 4159ntf    on523502  -0.311   2.662   3.510  0.1795 -0.0872 -0.7634
 4159ntf    fn423503  -0.197   2.967   3.477  0.0612 -0.2380  0.1227
 4159ntf    fn423504  -0.378   2.928   3.585 -0.1832 -0.4410 -0.1789
 4159ntf    fn423505  -0.207   2.958   3.691  0.2605 -0.2223  0.6031
 4160ntf    cn123506   4.085   5.095   1.249 -0.0247  0.1083  0.3042
 4160ntf    sn223507   3.960   4.989   1.327 -0.0100 -0.4430 -0.4114
 4160ntf    nn323508   3.855   4.976   1.211  0.4482  0.1533 -0.8980
 4160ntf    sn223509   3.705   4.938   1.233  0.5226  0.2899 -0.1085
 4160ntf    cn123510   3.723   4.761   1.195 -0.1927  0.1874  0.0162
 4160ntf    fn423511   4.028   5.210   1.218  0.0840 -0.0231 -0.3994
 4160ntf    fn423512   4.192   5.128   1.320  0.0247  0.1070  0.2313
 4160ntf    fn423513   4.125   5.040   1.136 -0.5107  0.0879  0.1435
 4160ntf    on523514   4.021   4.860   1.346 -0.2510 -0.5661 -0.4690
 4160ntf    on523515   3.912   5.067   1.439  0.0976 -0.5460 -0.2939
 4160ntf    on523516   3.623   4.987   1.124 -0.2146 -0.3010  0.1670
 4160ntf    on523517   3.657   4.944   1.369 -0.3877 -0.2980 -0.3921
 4160ntf    fn423518   3.777   4.737   1.076 -0.5277 -0.3362 -0.0353
 4160ntf    fn423519   3.798   4.708   1.290 -0.4621  0.4012  0.3521
 4160ntf    fn423520   3.601   4.708   1.200 -0.0804 -0.0673  0.0855
 4161ntf    cn123521   6.213   1.286   6.182 -0.1035 -0.1175  0.1129
 4161ntf    sn223522   6.034   1.298   6.213 -0.1182 -0.2101  0.0677
 4161ntf    nn323523   6.020   1.447   6.262 -0.7266 -0.2728  0.0921
 4161ntf    sn223524   6.019   1.574   6.169 -0.0765 -0.2741  0.0735
 4161ntf    cn123525   5.843   1.598   6.129  0.0435  0.2820 -0.1285
 4161ntf    fn423526   6.269   1.340   6.289 -0.2376 -0.3236  0.2888
 4161ntf    fn423527   6.243   1.157   6.190 -0.2751 -0.1885 -0.3527
 4161ntf    fn423528   6.261   1.341   6.072 -0.1319  0.2512  0.2837
 4161ntf    on523529   5.976   1.271   6.084 -0.0849  0.0818 -0.0096
 4161ntf    on523530   6.007   1.204   6.318 -0.1690 -0.4326 -0.1437
 4161ntf    on523531   6.092   1.560   6.046  0.3203  0.1906  0.2558
 4161ntf    on523532   6.054   1.692   6.244  0.4845 -0.4371  0.0692
 4161ntf    fn423533   5.801   1.491   6.063  0.4975  0.1706 -0.2393
 4161ntf    fn423534   5.773   1.610   6.241  0.0007 -0.8148 -0.0253
 4161ntf    fn423535   5.821   1.708   6.060  0.1085  0.2338 -0.2264
 4162ntf    cn123536   5.181   4.820   0.087  0.0263 -0.0843  0.0063
 4162ntf    sn223537   5.148   4.765   0.257 -0.1974  0.0911  0.0196
 4162ntf    nn323538   5.262   4.658   0.272  0.0836  0.4288  0.3091
 4162ntf    sn223539   5.413   4.681   0.311  0.1796  0.0423  0.1655
 4162ntf    cn123540   5.415   4.621   0.483  0.3801 -0.0647  0.1263
 4162ntf    fn423541   5.289   4.896   0.078 -0.2445  0.2994 -0.0016
 4162ntf    fn423542   5.198   4.718   0.003 -0.6497  0.1525 -0.4215
 4162ntf    fn423543   5.081   4.894   0.043  0.0362  0.1785  0.4261
 4162ntf    on523544   5.153   4.883   0.340 -0.2508 -0.2389  0.4970
 4162ntf    on523545   5.018   4.704   0.247 -0.0628 -0.2617  0.3933
 4162ntf    on523546   5.454   4.818   0.324 -0.2933  0.2047 -0.0138
 4162ntf    on523547   5.504   4.586   0.252  0.1506  0.3435 -0.3662
 4162ntf    fn423548   5.500   4.674   0.569  0.6141  0.0723 -0.1866
 4162ntf    fn423549   5.295   4.639   0.536  0.2520  0.5855 -0.3721
 4162ntf    fn423550   5.437   4.491   0.491 -0.5610 -0.2243  0.2315
 4163ntf    cn123551   0.831   1.368   6.926 -0.5396  0.0648  0.0058
 4163ntf    sn223552   0.723   1.438   6.797 -0.4379  0.0268 -0.1002
 4163ntf    nn323553   0.583   1.375   6.830 -0.3120 -0.2755 -0.1373
 4163ntf    sn223554   0.455   1.435   6.899 -0.2054  0.0534 -0.2200
 4163ntf    cn123555   0.380   1.279   6.957 -0.0772  0.2104  0.3770
 4163ntf    fn423556   0.925   1.457   6.955 -0.0410 -0.3080 -0.4323
 4163ntf    fn423557   0.759   1.366   7.036 -0.1766  0.3749  0.2516
 4163ntf    fn423558   0.884   1.249   6.904 -0.1153  0.3394 -0.5062
 4163ntf    on523559   0.739   1.579   6.820 -0.2180  0.0332 -0.2935
 4163ntf    on523560   0.784   1.391   6.675 -0.2530 -0.2489  0.0968
 4163ntf    on523561   0.357   1.494   6.812 -0.4252  0.2769  0.1766
 4163ntf    on523562   0.496   1.512   7.014  0.0518  0.0841 -0.3317
 4163ntf    fn423563   0.268   1.299   7.025 -0.2753  0.1301  0.0759
 4163ntf    fn423564   0.341   1.203   6.856  0.2100 -0.0080  0.4294
 4163ntf    fn423565   0.452   1.198   7.032  0.5310  0.7908  0.4234
 4164ntf    cn123566   4.862   4.852   3.215  0.3280  0.3781  0.0314
 4164ntf    sn223567   4.845   4.903   3.041  0.2320 -0.1170 -0.1088
 4164ntf    nn323568   4.989   4.871   2.986  0.2389 -0.2793  0.0013
 4164ntf    sn223569   5.028   4.810   2.847  0.0656  0.0298 -0.1835
 4164ntf    cn123570   5.180   4.903   2.811 -0.1201  0.3968 -0.0325
 4164ntf    fn423571   4.986   4.839   3.257  0.2431 -0.1344  0.1361
 4164ntf    fn423572   4.811   4.940   3.299 -0.4164 -0.3769  0.3896
 4164ntf    fn423573   4.803   4.735   3.234 -0.1545  0.5784 -0.2189
 4164ntf    on523574   4.738   4.831   2.978  0.0764 -0.1286  0.1665
 4164ntf    on523575   4.826   5.046   3.055  0.0330 -0.2000  0.5224
 4164ntf    on523576   4.943   4.848   2.736 -0.4935 -0.1509  0.1775
 4164ntf    on523577   5.085   4.678   2.844  0.4004  0.1802 -0.4271
 4164ntf    fn423578   5.210   4.903   2.683 -0.2819  0.1745 -0.0715
 4164ntf    fn423579   5.160   5.030   2.840 -0.3211  0.3313  0.1223
 4164ntf    fn423580   5.287   4.863   2.878 -0.6748 -0.2296  0.5058
 4165ntf    cn123581   5.606   1.503   1.833  0.0313 -0.0856  0.0339
 4165ntf    sn223582   5.506   1.470   1.685  0.0217 -0.1761  0.0605
 4165ntf    nn323583   5.582   1.561   1.582  0.1620  0.0079  0.3262
 4165ntf    sn223584   5.543   1.701   1.524 -0.2055 -0.0858  0.3418
 4165ntf    cn123585   5.423   1.660   1.393  0.0578 -0.0687  0.0931
 4165ntf    fn423586   5.604   1.408   1.925 -0.2927 -0.3275 -0.2214
 4165ntf    fn423587   5.729   1.506   1.785  0.0712 -0.6384  0.0908
 4165ntf    fn423588   5.588   1.619   1.895 -0.3733 -0.2518  0.2322
 4165ntf    on523589   5.535   1.330   1.665 -0.1222 -0.2402  0.2926
 4165ntf    on523590   5.373   1.506   1.729 -0.0692  0.0326 -0.3746
 4165ntf    on523591   5.659   1.753   1.455 -0.5193 -0.3296 -0.3797
 4165ntf    on523592   5.471   1.791   1.610 -0.1287 -0.0593  0.3780
 4165ntf    fn423593   5.471   1.560   1.320 -0.0933  0.0357 -0.1478
 4165ntf    fn423594   5.304   1.629   1.440  0.0035  0.2896  0.1896
 4165ntf    fn423595   5.395   1.761   1.314  0.2014  0.3288  0.5447
 4166ntf    cn123596   5.463   1.330   6.950  0.2519 -0.0871  0.2434
 4166ntf    sn223597   5.514   1.449   6.823 -0.2488 -0.1167  0.0097
 4166ntf    nn323598   5.459   1.383   6.692 -0.1401  0.0402 -0.1161
 4166ntf    sn223599   5.334   1.427   6.608 -0.4529 -0.1280  0.2574
 4166ntf    cn123600   5.409   1.565   6.516 -0.4530 -0.1667  0.1997
 4166ntf    fn423601   5.483   1.389   7.066  0.1291  0.4864 -0.0229
 4166ntf    fn423602   5.336   1.293   6.948  0.2371 -0.0280  0.1085
 4166ntf    fn423603   5.525   1.214   6.942  0.2799 -0.0176 -0.6328
 4166ntf    on523604   5.451   1.572   6.863  0.1295  0.1567 -0.2184
 4166ntf    on523605   5.658   1.443   6.828 -0.2308 -0.2215 -0.5232
 4166ntf    on523606   5.219   1.486   6.672 -0.2880  0.3636  0.1060
 4166ntf    on523607   5.306   1.326   6.509 -0.1644  0.3174 -0.2827
 4166ntf    fn423608   5.336   1.599   6.411 -0.7427 -0.2097  0.3840
 4166ntf    fn423609   5.422   1.675   6.587 -0.3883  0.2036 -0.3800
 4166ntf    fn423610   5.533   1.542   6.475 -0.4107 -0.0313  0.2532
 4167ntf    cn123611   2.937   4.363   0.113 -0.0984  0.1492 -0.0551
 4167ntf    sn223612   3.092   4.351   0.208 -0.1778  0.1880  0.0792
 4167ntf    nn323613   3.193   4.305   0.097 -0.0727  0.4970  0.0476
 4167ntf    sn223614   3.273   4.390  -0.008 -0.1746  0.1703 -0.2955
 4167ntf    cn123615   3.438   4.412   0.065 -0.2632 -0.0757 -0.0194
 4167ntf    fn423616   2.958   4.399  -0.012 -0.2557 -0.1509 -0.1689
 4167ntf    fn423617   2.864   4.252   0.115  0.2647 -0.0878  0.6036
 4167ntf    fn423618   2.857   4.455   0.162  0.3103  0.1852  0.5616
 4167ntf    on523619   3.110   4.482   0.264 -0.0047  0.1701  0.0658
 4167ntf    on523620   3.066   4.251   0.309  0.6865  0.0834  0.2023
 4167ntf    on523621   3.224   4.526  -0.015 -0.0729  0.2162 -0.1275
 4167ntf    on523622   3.297   4.322  -0.133 -0.1618 -0.1490 -0.1203
 4167ntf    fn423623   3.448   4.472   0.182  0.1895 -0.0205 -0.0851
 4167ntf    fn423624   3.495   4.293   0.070  0.0632  0.0926  0.2685
 4167ntf    fn423625   3.512   4.483  -0.019 -0.2972 -0.1331 -0.0973
 4168ntf    cn123626   6.794   4.097   1.408  0.1880 -0.3950  0.0299
 4168ntf    sn223627   6.707   4.165   1.553  0.0808 -0.1852 -0.1329
 4168ntf    nn323628   6.643   4.293   1.487 -0.2859 -0.4193 -0.2312
 4168ntf    sn223629   6.537   4.392   1.546  0.2814  0.0459  0.0129
 4168ntf    cn123630   6.384   4.309   1.495  0.1713  0.2572 -0.0003
 4168ntf    fn423631   6.847   3.979   1.438  0.0460 -0.5914 -0.4877
 4168ntf    fn423632   6.711   4.081   1.306 -0.0769 -0.0041  0.1822
 4168ntf    fn423633   6.890   4.179   1.369  0.5860 -0.8863 -0.0442
 4168ntf    on523634   6.615   4.063   1.596 -0.0766  0.1655  0.3659
 4168ntf    on523635   6.816   4.187   1.645 -0.0870 -0.2487  0.0822
 4168ntf    on523636   6.531   4.522   1.484 -0.2515 -0.0942 -0.2329
 4168ntf    on523637   6.529   4.389   1.690  0.4259 -0.1393  0.0176
 4168ntf    fn423638   6.395   4.265   1.370 -0.1301  0.1176  0.0226
 4168ntf    fn423639   6.357   4.201   1.566 -0.0299  0.2464 -0.0930
 4168ntf    fn423640   6.275   4.384   1.496  0.1122  0.1744 -0.1173
 4169ntf    cn123641   2.450   3.798   6.967  0.1733  0.3597 -0.3347
 4169ntf    sn223642   2.553   3.674   7.051 -0.2903  0.3290  0.1954
 4169ntf    nn323643   2.677   3.760   7.095 -0.4573  0.6883 -0.0374
 4169ntf    sn223644   2.764   3.739   7.224 -0.2379  0.0304 -0.2872
 4169ntf    cn123645   2.695   3.861   7.340 -0.0995 -0.1622 -0.0024
 4169ntf    fn423646   2.526   3.860   6.878  0.2268  0.0342 -0.5149
 4169ntf    fn423647   2.348   3.747   6.900  0.1970  0.0766 -0.1541
 4169ntf    fn423648   2.400   3.893   7.045 -0.3483  0.0949 -0.3426
 4169ntf    on523649   2.471   3.628   7.160  0.0786  0.0794  0.3700
 4169ntf    on523650   2.580   3.585   6.941 -0.1421  0.3518  0.2130
 4169ntf    on523651   2.899   3.790   7.212 -0.0374 -0.5281 -0.4235
 4169ntf    on523652   2.747   3.616   7.297 -0.5908  0.2031 -0.0753
 4169ntf    fn423653   2.565   3.849   7.359 -0.2521  1.0010 -0.2549
 4169ntf    fn423654   2.745   3.860   7.463  0.4294  0.0447 -0.2096
 4169ntf    fn423655   2.710   3.985   7.295 -0.0654 -0.1068  0.1615
 4170ntf    cn123656   5.431   6.191   6.385 -0.2597 -0.2259 -0.0962
 4170ntf    sn223657   5.430   6.029   6.303  0.0555 -0.3950  0.2333
 4170ntf    nn323658   5.348   5.943   6.406  0.1900 -0.5271  0.2306
 4170ntf    sn223659   5.233   5.841   6.376 -0.2146 -0.0202  0.0309
 4170ntf    cn123660   5.102   5.967   6.383 -0.2328 -0.0083 -0.5309
 4170ntf    fn423661   5.475   6.178   6.509  0.1577  0.1616 -0.2015
 4170ntf    fn423662   5.509   6.280   6.325 -0.2565  0.0379  0.2918
 4170ntf    fn423663   5.314   6.253   6.384 -0.2164 -0.1446 -0.2149
 4170ntf    on523664   5.365   6.069   6.181  0.1958  0.3960  0.4094
 4170ntf    on523665   5.572   6.003   6.302  0.2844  0.8228  0.0777
 4170ntf    on523666   5.200   5.764   6.494 -0.3714  0.3166  0.2082
 4170ntf    on523667   5.240   5.781   6.246  0.4662  0.3099 -0.0861
 4170ntf    fn423668   4.989   5.913   6.427 -0.0656  0.1483  0.0871
 4170ntf    fn423669   5.132   6.066   6.465 -0.3958 -0.3070 -0.1102
 4170ntf    fn423670   5.078   6.017   6.263  1.0711 -0.1187 -0.8488
 4171ntf    cn123671   4.180   0.481   5.939  0.0218  0.0807  0.0868
 4171ntf    sn223672   4.141   0.446   5.765  0.0166  0.0042  0.1026
 4171ntf    nn323673   4.248   0.343   5.716  0.2855  0.2042  0.2721
 4171ntf    sn223674   4.246   0.198   5.656  0.2715  0.3546 -0.0912
 4171ntf    cn123675   4.379   0.127   5.758 -0.0978 -0.5890 -0.2532
 4171ntf    fn423676   4.193   0.364   6.000 -0.4098  0.1993  0.4032
 4171ntf    fn423677   4.290   0.553   5.957  0.1448 -0.2261  0.5712
 4171ntf    fn423678   4.084   0.549   5.998 -0.1154 -0.3607  0.3773
 4171ntf    on523679   4.007   0.392   5.761  0.1696 -0.3350 -0.6177
 4171ntf    on523680   4.155   0.577   5.706 -0.1231 -0.0798 -0.1210
 4171ntf    on523681   4.291   0.208   5.519 -0.1423  0.3867 -0.2257
 4171ntf    on523682   4.124   0.126   5.684  0.1391  0.4262 -0.4725
 4171ntf    fn423683   4.488   0.201   5.764 -0.2645 -0.3603 -0.0139
 4171ntf    fn423684   4.346   0.109   5.885  0.2507 -0.0769 -0.0860
 4171ntf    fn423685   4.425   0.012   5.712  0.1533 -0.2886 -0.7601
 4172ntf    cn123686   6.402   1.074   1.283 -0.4905 -0.2405 -0.8132
 4172ntf    sn223687   6.449   0.900   1.305  0.1520 -0.0112 -0.3383
 4172ntf    nn323688   6.329   0.827   1.235 -0.3303  0.0486  0.4192
 4172ntf    sn223689   6.283   0.678   1.252 -0.0529 -0.0871  0.0060
 4172ntf    cn123690   6.183   0.686   1.404  0.5747  0.1689  0.4068
 4172ntf    fn423691   6.275   1.090   1.319 -0.2134 -0.2792  0.2250
 4172ntf    fn423692   6.475   1.153   1.360 -0.5332 -0.4873 -0.5139
 4172ntf    fn423693   6.415   1.118   1.159  0.0610  0.0828 -0.6425
 4172ntf    on523694   6.575   0.895   1.235  0.0608  0.0738 -0.5093
 4172ntf    on523695   6.452   0.887   1.448 -0.3351 -0.4521 -0.3661
 4172ntf    on523696   6.393   0.592   1.289 -0.3312 -0.4066  0.0971
 4172ntf    on523697   6.192   0.629   1.151 -0.0729 -0.0270 -0.0042
 4172ntf    fn423698   6.117   0.573   1.418 -0.1173  0.5353  0.1612
 4172ntf    fn423699   6.250   0.701   1.517  0.1330 -0.4554  0.7580
 4172ntf    fn423700   6.094   0.784   1.397 -0.1336 -0.4948  0.0026
 4173ntf    cn123701   0.281   2.247   5.567  0.3076 -0.1108  0.2610
 4173ntf    sn223702   0.111   2.294   5.524  0.3259 -0.1406  0.1545
 4173ntf    nn323703   0.023   2.189   5.601 -0.0773 -0.2142 -0.3966
 4173ntf    sn223704  -0.017   2.208   5.752  0.0207  0.2979 -0.4318
 4173ntf    cn123705  -0.182   2.283   5.746 -0.2717 -0.3030 -0.0339
 4173ntf    fn423706   0.296   2.116   5.552  0.6432 -0.0677  0.2243
 4173ntf    fn423707   0.362   2.313   5.486 -0.0195  0.3032  0.2679
 4173ntf    fn423708   0.325   2.281   5.687 -0.0993  0.2912  0.2986
 4173ntf    on523709   0.087   2.429   5.569  0.3621 -0.0082 -0.2260
 4173ntf    on523710   0.095   2.265   5.384 -0.1938  0.1720  0.1467
 4173ntf    on523711   0.065   2.298   5.829  0.0635  0.1700 -0.3262
 4173ntf    on523712  -0.048   2.079   5.810 -0.3598  0.6047  0.0535
 4173ntf    fn423713  -0.193   2.372   5.649 -0.4884  0.0549  0.3178
 4173ntf    fn423714  -0.274   2.193   5.713 -0.6973  0.0206  0.2677
 4173ntf    fn423715  -0.215   2.336   5.862 -0.0373  0.0869 -0.1429
 4174ntf    cn123716   3.375   2.963   4.843 -0.0593  0.4140 -0.0835
 4174ntf    sn223717   3.326   2.943   4.669  0.0778  0.3138 -0.1099
 4174ntf    nn323718   3.174   2.906   4.673  0.2160 -0.3262 -0.5237
 4174ntf    sn223719   3.051   2.939   4.581 -0.0059  0.2058 -0.0406
 4174ntf    cn123720   2.956   3.053   4.687  0.0185 -0.1185  0.3312
 4174ntf    fn423721   3.305   3.048   4.916  0.4748 -0.1627  1.1136
 4174ntf    fn423722   3.345   2.852   4.907 -0.1683  0.2791 -0.3642
 4174ntf    fn423723   3.503   2.990   4.862  0.0527  0.1539 -0.4704
 4174ntf    on523724   3.359   3.071   4.610  0.3430  0.4162  0.2591
 4174ntf    on523725   3.404   2.830   4.625 -0.1872 -0.0522  0.3485
 4174ntf    on523726   2.953   2.834   4.570  0.1928 -0.0576  0.6404
 4174ntf    on523727   3.081   3.015   4.462  0.0034 -0.4424 -0.4538
 4174ntf    fn423728   3.014   3.171   4.676 -0.1978 -0.0782 -0.4076
 4174ntf    fn423729   2.829   3.062   4.651  0.0245  0.3424  0.4183
 4174ntf    fn423730   2.965   3.019   4.815  0.7925 -0.1987  0.2566
 4175ntf    cn123731   4.088   3.188   0.651 -0.3745 -0.1486  0.2493
 4175ntf    sn223732   4.102   3.369   0.669 -0.3242 -0.1299  0.0366
 4175ntf    nn323733   3.998   3.422   0.564 -0.1918 -0.0827 -0.0699
 4175ntf    sn223734   4.022   3.454   0.412 -0.2825  0.1546 -0.0331
 4175ntf    cn123735   4.030   3.635   0.432  0.1057  0.1309  0.0308
 4175ntf    fn423736   4.100   3.157   0.523 -0.5231  0.2786  0.1283
 4175ntf    fn423737   4.190   3.129   0.711 -0.2292  0.1913  0.3393
 4175ntf    fn423738   3.976   3.135   0.698 -0.4170  0.0511  0.3736
 4175ntf    on523739   4.067   3.387   0.808  0.3631 -0.0293  0.2029
 4175ntf    on523740   4.241   3.393   0.641 -0.4638  0.5977 -0.0386
 4175ntf    on523741   3.901   3.455   0.334 -0.0105  0.1753 -0.4571
 4175ntf    on523742   4.146   3.426   0.345 -0.3746  0.3450 -0.2855
 4175ntf    fn423743   3.929   3.687   0.500  0.0587  0.2336 -0.1146
 4175ntf    fn423744   4.142   3.685   0.481  0.1917 -0.0883  0.0572
 4175ntf    fn423745   4.024   3.678   0.307 -0.3313 -0.2064 -0.0679
 4176ntf    cn123746   6.889   0.225   6.637  0.0209  0.3877 -0.1257
 4176ntf    sn223747   6.779   0.082   6.613 -0.1803  0.4780  0.2543
 4176ntf    nn323748   6.781   0.068   6.457 -0.5943 -0.1773  0.3052
 4176ntf    sn223749   6.866  -0.019   6.358 -0.0531  0.2428  0.3954
 4176ntf    cn123750   6.908   0.117   6.246  0.1281 -0.3219 -0.2313
 4176ntf    fn423751   6.923   0.246   6.763 -0.4848 -0.2065  0.1161
 4176ntf    fn423752   7.001   0.227   6.566  0.2316 -0.2145  0.1806
 4176ntf    fn423753   6.827   0.334   6.597 -0.0366  0.2523 -0.4064
 4176ntf    on523754   6.840  -0.024   6.690  0.1122  0.3789 -0.1084
 4176ntf    on523755   6.656   0.135   6.664 -0.4612  0.2142 -0.1467
 4176ntf    on523756   6.781  -0.104   6.278  0.7244  0.0945 -0.2740
 4176ntf    on523757   6.998  -0.060   6.401 -0.2074 -0.6565  0.0424
 4176ntf    fn423758   6.796   0.177   6.210  0.3509  0.1167 -0.2024
 4176ntf    fn423759   6.986   0.213   6.295  0.0543 -0.4710  0.1793
 4176ntf    fn423760   6.969   0.070   6.139  0.2446 -0.3601 -0.1481
 4177ntf    cn123761   1.097   5.397   4.473 -0.0167  0.2672  0.4094
 4177ntf    sn223762   1.161   5.254   4.382  0.1554  0.2492  0.5571
 4177ntf    nn323763   1.025   5.189   4.336  0.2773 -0.1731  0.7958
 4177ntf    sn223764   0.996   5.049   4.271  0.0511  0.2577 -0.0388
 4177ntf    cn123765   0.958   5.081   4.096 -0.0511  0.1453 -0.0375
 4177ntf    fn423766   1.049   5.498   4.401 -0.4113 -0.1171  0.1275
 4177ntf    fn423767   0.997   5.365   4.554 -0.8068  0.9365 -0.2752
 4177ntf    fn423768   1.196   5.446   4.545  0.1505  0.0683  0.3126
 4177ntf    on523769   1.231   5.312   4.270 -0.2092  0.2337  0.3167
 4177ntf    on523770   1.239   5.183   4.479  0.1162 -0.1552  0.2948
 4177ntf    on523771   0.872   4.991   4.316  0.4002 -0.3450  0.1587
 4177ntf    on523772   1.109   4.959   4.271  0.1319  0.3581  0.2541
 4177ntf    fn423773   1.040   5.168   4.040  0.3144 -0.1480  0.0385
 4177ntf    fn423774   0.963   4.972   4.021 -0.3330  0.1088 -0.0049
 4177ntf    fn423775   0.840   5.139   4.086 -0.1097 -0.0482 -0.4993
 4178ntf    cn123776   3.735   1.909   3.745  0.3527  0.1408  0.1154
 4178ntf    sn223777   3.787   1.753   3.825 -0.0401 -0.0156  0.0664
 4178ntf    nn323778   3.773   1.653   3.704  0.1838 -0.2785  0.2583
 4178ntf    sn223779   3.660   1.548   3.676  0.0566 -0.0324 -0.1567
 4178ntf    cn123780   3.736   1.395   3.739  0.0139  0.0011 -0.0262
 4178ntf    fn423781   3.607   1.914   3.715  0.2467 -0.9362  0.3449
 4178ntf    fn423782   3.769   2.016   3.814  0.2755  0.0598  0.2806
 4178ntf    fn423783   3.793   1.930   3.628  0.1093  0.1402 -0.0055
 4178ntf    on523784   3.927   1.776   3.849 -0.0586  0.2261 -0.0447
 4178ntf    on523785   3.697   1.736   3.936  0.0759  0.0194  0.1650
 4178ntf    on523786   3.653   1.507   3.537 -0.1729  0.5545 -0.3201
 4178ntf    on523787   3.535   1.561   3.746 -0.0880  0.8160 -0.5587
 4178ntf    fn423788   3.773   1.399   3.867  0.1366  0.5108 -0.0752
 4178ntf    fn423789   3.656   1.291   3.725 -0.0304  0.0849 -0.3971
 4178ntf    fn423790   3.844   1.362   3.671 -0.1268  0.1521 -0.3231
 4179ntf    cn123791   4.727   4.704   6.733  0.0943 -0.5393 -0.0293
 4179ntf    sn223792   4.903   4.718   6.779  0.1340  0.3062 -0.4110
 4179ntf    nn323793   4.978   4.679   6.646  0.4135  0.4488 -0.2954
 4179ntf    sn223794   5.085   4.568   6.623  0.0982  0.0953 -0.0722
 4179ntf    cn123795   4.994   4.425   6.557 -0.1481  0.1382  0.1741
 4179ntf    fn423796   4.697   4.594   6.667 -0.3838 -0.1972 -0.3890
 4179ntf    fn423797   4.648   4.707   6.840  0.2617  0.0727  0.0814
 4179ntf    fn423798   4.693   4.808   6.659 -0.0530 -0.5132  0.0738
 4179ntf    on523799   4.914   4.858   6.808  0.0381  0.1919  0.1927
 4179ntf    on523800   4.906   4.626   6.890 -0.3098  0.2659 -0.4287
 4179ntf    on523801   5.153   4.520   6.741  0.1890 -0.1383 -0.2183
 4179ntf    on523802   5.170   4.601   6.511 -0.1299 -0.3741 -0.3855
 4179ntf    fn423803   5.076   4.344   6.491  0.3136  0.6709  0.0915
 4179ntf    fn423804   4.941   4.350   6.652 -0.3596 -0.1296 -0.1543
 4179ntf    fn423805   4.892   4.457   6.480  0.0000 -0.0699 -0.1084
 4180ntf    cn123806   3.448   1.547   1.205  0.0519 -0.0623  0.1852
 4180ntf    sn223807   3.458   1.516   1.026 -0.1027  0.1115  0.1459
 4180ntf    nn323808   3.486   1.663   0.980  0.1485 -0.1650 -0.6104
 4180ntf    sn223809   3.388   1.781   0.944  0.0263 -0.0982 -0.0705
 4180ntf    cn123810   3.437   1.816   0.772 -0.2014 -0.3240 -0.1809
 4180ntf    fn423811   3.386   1.661   1.231  0.1714  0.0179  0.1200
 4180ntf    fn423812   3.387   1.449   1.270 -0.4053  0.2237  0.1877
 4180ntf    fn423813   3.569   1.563   1.255 -0.2250 -0.1742  0.8967
 4180ntf    on523814   3.575   1.432   1.012 -0.4316 -0.3291  0.0229
 4180ntf    on523815   3.329   1.458   0.995 -0.3087  0.8727 -0.4496
 4180ntf    on523816   3.410   1.902   1.020 -0.2877  0.1205 -0.3268
 4180ntf    on523817   3.251   1.741   0.932 -0.0496  0.2169 -0.2660
 4180ntf    fn423818   3.404   1.936   0.730 -0.1225 -0.1254  0.3137
 4180ntf    fn423819   3.567   1.811   0.750 -0.1261  0.3282  0.1059
 4180ntf    fn423820   3.379   1.726   0.695 -0.1518 -0.2450 -0.3103
 4181ntf    cn123821   1.593   6.266   3.703  0.2025 -0.1409  0.0853
 4181ntf    sn223822   1.688   6.272   3.858  0.1899  0.2804  0.0782
 4181ntf    nn323823   1.749   6.417   3.860  0.0555  0.3431 -0.2983
 4181ntf    sn223824   1.894   6.466   3.825  0.1388  0.1263 -0.2578
 4181ntf    cn123825   1.980   6.457   3.985 -0.1413 -0.0330 -0.1123
 4181ntf    fn423826   1.531   6.150   3.689 -0.4478  0.2177 -0.0167
 4181ntf    fn423827   1.499   6.360   3.704  0.2171 -0.1243 -0.1601
 4181ntf    fn423828   1.663   6.292   3.594  0.1328 -0.8144 -0.1220
 4181ntf    on523829   1.588   6.261   3.961  0.3839 -0.1272  0.2253
 4181ntf    on523830   1.784   6.164   3.855  0.3889  0.4595 -0.0276
 4181ntf    on523831   1.882   6.606   3.792 -0.0642  0.1436 -0.1155
 4181ntf    on523832   1.970   6.387   3.732  0.1213 -0.0242 -0.1438
 4181ntf    fn423833   2.112   6.454   3.974 -0.1387 -0.3080  0.0090
 4181ntf    fn423834   1.965   6.567   4.057  0.4300 -0.1508  0.1975
 4181ntf    fn423835   1.933   6.350   4.045  0.0680 -0.2560 -0.3456
 4182ntf    cn123836   1.303   5.752   0.136 -0.0241 -0.1526 -0.0307
 4182ntf    sn223837   1.351   5.588   0.075 -0.1530 -0.0868 -0.3136
 4182ntf    nn323838   1.325   5.594  -0.079 -0.5489 -0.4031 -0.2622
 4182ntf    sn223839   1.418   5.547  -0.196 -0.0797  0.0553 -0.0765
 4182ntf    cn123840   1.542   5.680  -0.193  0.1928 -0.1970 -0.1412
 4182ntf    fn423841   1.187   5.738   0.198 -0.2613 -0.0210 -0.4385
 4182ntf    fn423842   1.392   5.803   0.219  0.0890 -0.2711 -0.0792
 4182ntf    fn423843   1.285   5.842   0.040  0.5287  0.1554  0.1517
 4182ntf    on523844   1.487   5.568   0.120 -0.0981 -0.6844 -0.7314
 4182ntf    on523845   1.254   5.509   0.148  0.0335  0.3259  0.3970
 4182ntf    on523846   1.355   5.545  -0.326  0.1023  0.2476 -0.1690
 4182ntf    on523847   1.499   5.432  -0.167 -0.0870 -0.0528 -0.4818
 4182ntf    fn423848   1.616   5.684  -0.303 -0.0360  0.0563 -0.2859
 4182ntf    fn423849   1.484   5.799  -0.192  0.3907 -0.1010  0.6052
 4182ntf    fn423850   1.624   5.680  -0.089 -0.0472  0.0848  0.0498
 4183ntf    cn123851   0.186   6.721   2.619 -0.0248 -0.2400  0.0522
 4183ntf    sn223852   0.285   6.728   2.770  0.0114 -0.0673  0.0206
 4183ntf    nn323853   0.231   6.869   2.813  0.1145  0.1460 -0.5471
 4183ntf    sn223854   0.308   6.984   2.887  0.1505 -0.1782 -0.0812
 4183ntf    cn123855   0.380   7.086   2.755  0.1263  0.2449  0.2322
 4183ntf    fn423856   0.186   6.604   2.556  0.3032 -0.2072 -0.0096
 4183ntf    fn423857   0.059   6.741   2.653 -0.1044 -0.2967 -0.2037
 4183ntf    fn423858   0.220   6.819   2.537 -0.0271 -0.4553 -0.2070
 4183ntf    on523859   0.244   6.619   2.855 -0.5322  0.1928  0.0939
 4183ntf    on523860   0.417   6.726   2.712  0.0567 -0.1627  0.1252
 4183ntf    on523861   0.422   6.939   2.963  0.4538  0.3713 -0.2089
 4183ntf    on523862   0.222   7.077   2.955  0.4113 -0.0730  0.1091
 4183ntf    fn423863   0.482   7.028   2.693 -0.3555 -0.3112 -0.0495
 4183ntf    fn423864   0.285   7.114   2.667  0.0043 -0.1377  0.2401
 4183ntf    fn423865   0.425   7.203   2.797 -0.2308  0.5751 -0.3054
 4184ntf    cn123866   3.470   4.326   2.141 -0.2503  0.2904 -0.2723
 4184ntf    sn223867   3.411   4.167   2.206 -0.0161  0.2669 -0.1166
 4184ntf    nn323868   3.383   4.084   2.076  0.1396  0.1807 -0.0960
 4184ntf    sn223869   3.252   4.083   1.989  0.0609  0.1350  0.0225
 4184ntf    cn123870   3.199   3.912   2.019 -0.1013  0.2686  0.4991
 4184ntf    fn423871   3.384   4.388   2.063 -0.3982  0.0043 -0.3372
 4184ntf    fn423872   3.504   4.418   2.230  0.4818 -0.3640  0.1428
 4184ntf    fn423873   3.582   4.321   2.070 -0.3756  0.1158 -0.4592
 4184ntf    on523874   3.519   4.104   2.279 -0.0483 -0.3278 -0.5731
 4184ntf    on523875   3.292   4.207   2.277 -0.2447 -0.1687 -0.2487
 4184ntf    on523876   3.291   4.077   1.850  0.2404  0.0177  0.0770
 4184ntf    on523877   3.146   4.174   2.022  0.5655  0.9897 -0.6642
 4184ntf    fn423878   3.154   3.893   2.142 -0.3424 -0.1461  0.3491
 4184ntf    fn423879   3.097   3.876   1.942  0.1198  0.2599  0.2113
 4184ntf    fn423880   3.285   3.814   2.002  0.2252  0.6772 -0.2570
 4185ntf    cn123881   2.103   4.643   6.098  0.4891 -0.1958  0.4708
 4185ntf    sn223882   2.069   4.609   6.274  0.1762 -0.1690  0.4168
 4185ntf    nn323883   1.912   4.610   6.281  0.1742 -0.0841  0.3596
 4185ntf    sn223884   1.818   4.670   6.392 -0.1489  0.1343 -0.0292
 4185ntf    cn123885   1.798   4.838   6.326 -0.0231  0.2204  0.1525
 4185ntf    fn423886   2.059   4.764   6.068 -0.6062 -0.6118  0.3304
 4185ntf    fn423887   2.229   4.635   6.061  0.3047 -0.0892 -0.2008
 4185ntf    fn423888   2.039   4.560   6.016  0.5444  0.2591 -0.0372
 4185ntf    on523889   2.118   4.474   6.280  0.8273  0.0628  0.3859
 4185ntf    on523890   2.128   4.717   6.349 -0.3796  0.3705  0.0927
 4185ntf    on523891   1.871   4.669   6.526  0.1559 -1.0615 -0.1452
 4185ntf    on523892   1.683   4.623   6.378  0.1034 -0.5727 -0.1417
 4185ntf    fn423893   1.718   4.843   6.221  0.2305 -0.5710 -0.0790
 4185ntf    fn423894   1.741   4.914   6.418 -1.1404  0.0862 -0.4188
 4185ntf    fn423895   1.913   4.894   6.292  0.4211 -0.8064 -0.0849
 4186ntf    cn123896   6.313   6.712   2.836  0.0932  0.1052  0.0074
 4186ntf    sn223897   6.486   6.704   2.780  0.0227  0.0117 -0.1983
 4186ntf    nn323898   6.502   6.555   2.735  0.2979 -0.1004  0.2633
 4186ntf    sn223899   6.631   6.468   2.715  0.1157 -0.3670  0.2399
 4186ntf    cn123900   6.614   6.336   2.838  0.0426 -0.5609  0.0222
 4186ntf    fn423901   6.274   6.826   2.890 -0.1017 -0.0637  0.2230
 4186ntf    fn423902   6.230   6.675   2.740  0.0484  0.0152  0.0810
 4186ntf    fn423903   6.291   6.623   2.931  0.0779  0.4616  0.3371
 4186ntf    on523904   6.505   6.792   2.667  0.2444  0.2362  0.0129
 4186ntf    on523905   6.551   6.740   2.903 -0.1654  0.2438 -0.1648
 4186ntf    on523906   6.752   6.538   2.753 -0.0863 -0.1419  0.4670
 4186ntf    on523907   6.630   6.401   2.587  0.2555 -0.2785  0.1922
 4186ntf    fn423908   6.570   6.385   2.953 -0.4584 -0.3992 -0.2335
 4186ntf    fn423909   6.534   6.238   2.797 -0.0617 -0.6051  0.3244
 4186ntf    fn423910   6.733   6.285   2.865  0.4854  0.5847  0.2678
 4187ntf    cn123911   4.532   3.684   3.602 -0.1518 -0.0217 -0.1011
 4187ntf    sn223912   4.548   3.863   3.630  0.1167 -0.0845  0.1453
 4187ntf    nn323913   4.683   3.895   3.556 -0.0384  0.4366  0.0825
 4187ntf    sn223914   4.828   3.899   3.616  0.2131 -0.0752 -0.4730
 4187ntf    cn123915   4.831   4.057   3.705 -0.0423 -0.2438 -0.1617
 4187ntf    fn423916   4.627   3.619   3.667  0.1235  0.3384 -0.1350
 4187ntf    fn423917   4.412   3.641   3.637 -0.3519  0.5032 -0.1241
 4187ntf    fn423918   4.556   3.654   3.475  0.4642 -0.3336  0.0859
 4187ntf    on523919   4.434   3.923   3.566  0.5799  0.3926 -0.2406
 4187ntf    on523920   4.561   3.864   3.774  0.2650 -0.0120  0.1310
 4187ntf    on523921   4.912   3.916   3.501  0.5235  0.7934 -0.1283
 4187ntf    on523922   4.862   3.799   3.714 -0.1647  0.4718  0.2312
 4187ntf    fn423923   4.722   4.076   3.778  0.0095 -0.3669 -0.0513
 4187ntf    fn423924   4.935   4.080   3.784 -0.3240  0.2776  0.0684
 4187ntf    fn423925   4.835   4.160   3.622  0.3560 -0.4214 -0.3633
 4188ntf    cn123926   2.393   6.445   0.377 -0.3885 -0.2283 -0.0059
 4188ntf    sn223927   2.288   6.395   0.517  0.1372 -0.2346  0.3880
 4188ntf    nn323928   2.394   6.344   0.621  0.5403 -0.3810 -0.0936
 4188ntf    sn223929   2.415   6.194   0.664 -0.2926 -0.4645  0.0403
 4188ntf    cn123930   2.547   6.209   0.789 -0.0885  0.0554 -0.2335
 4188ntf    fn423931   2.465   6.554   0.396 -0.5104 -0.0447 -0.5913
 4188ntf    fn423932   2.470   6.344   0.340 -0.1769  0.0197 -0.2433
 4188ntf    fn423933   2.321   6.476   0.271 -0.1731 -0.1739 -0.1360
 4188ntf    on523934   2.235   6.523   0.556 -0.2101 -0.4184  0.5198
 4188ntf    on523935   2.207   6.298   0.448  0.2858 -0.1126  0.0388
 4188ntf    on523936   2.484   6.127   0.557 -0.4928  0.2264 -0.5322
 4188ntf    on523937   2.299   6.140   0.729 -0.1390 -0.2888  0.4654
 4188ntf    fn423938   2.594   6.087   0.807  0.0237  0.1300 -0.0199
 4188ntf    fn423939   2.647   6.285   0.747 -0.1578  0.2339 -0.0791
 4188ntf    fn423940   2.511   6.269   0.901  0.4942 -0.1234  0.0532
 4189ntf    cn123941   4.723   0.069   2.928 -0.3423  0.3281  0.2874
 4189ntf    sn223942   4.831   0.171   3.032  0.4122  0.0213 -0.1928
 4189ntf    nn323943   4.837   0.307   2.954 -0.1891  0.0230 -0.2393
 4189ntf    sn223944   4.737   0.427   2.959 -0.2159 -0.0114  0.0694
 4189ntf    cn123945   4.843   0.571   2.927 -0.0894 -0.1747 -0.2584
 4189ntf    fn423946   4.759  -0.058   2.934 -0.0880  0.3470 -0.6046
 4189ntf    fn423947   4.594   0.086   2.955 -0.5116 -0.2065 -0.1657
 4189ntf    fn423948   4.738   0.090   2.798  0.1046  0.0409  0.2898
 4189ntf    on523949   4.782   0.172   3.167  0.1840  0.0149 -0.2762
 4189ntf    on523950   4.959   0.106   3.011  0.2739 -0.0356 -0.8699
 4189ntf    on523951   4.689   0.460   3.091  0.3744 -0.0884  0.3040
 4189ntf    on523952   4.645   0.432   2.847 -0.6860 -0.0341  0.4520
 4189ntf    fn423953   4.923   0.599   3.029 -0.2133  0.5189 -0.3497
 4189ntf    fn423954   4.912   0.557   2.815  0.4664  0.2803  0.0182
 4189ntf    fn423955   4.776   0.684   2.912 -0.1235 -0.1829 -0.1657
 4190ntf    cn123956   0.763   4.975   2.811 -0.4110 -0.0943  0.1342
 4190ntf    sn223957   0.939   4.928   2.805 -0.3943 -0.0218  0.0307
 4190ntf    nn323958   0.933   4.793   2.725  0.0975 -0.0015 -0.0382
 4190ntf    sn223959   0.950   4.765   2.571  0.2515  0.0881 -0.0375
 4190ntf    cn123960   1.118   4.694   2.571  0.1093 -0.2457 -0.1044
 4190ntf    fn423961   0.688   4.885   2.871 -0.1679 -0.4465 -0.0860
 4190ntf    fn423962   0.748   5.094   2.868  0.3323  0.0013  0.1488
 4190ntf    fn423963   0.711   4.981   2.689  0.3504  0.3616 -0.1797
 4190ntf    on523964   1.008   5.033   2.734  0.0213 -0.3813 -0.1012
 4190ntf    on523965   0.974   4.904   2.943 -0.5942  0.1280  0.1080
 4190ntf    on523966   0.967   4.880   2.485  0.0038 -0.1855 -0.4509
 4190ntf    on523967   0.870   4.658   2.520  0.3189  0.1062 -0.1818
 4190ntf    fn423968   1.168   4.679   2.449 -0.4061 -0.0881 -0.3391
 4190ntf    fn423969   1.199   4.771   2.641  0.2727 -0.1403 -0.4092
 4190ntf    fn423970   1.120   4.576   2.631  0.2236 -0.0831  0.2059
 4191ntf    cn123971   0.400   2.521   6.044 -0.0201 -0.2644 -0.3167
 4191ntf    sn223972   0.558   2.607   6.070 -0.1809  0.0277 -0.3006
 4191ntf    nn323973   0.619   2.604   5.926  0.1339  0.1609 -0.1696
 4191ntf    sn223974   0.644   2.728   5.832 -0.2063  0.3456 -0.0178
 4191ntf    cn123975   0.801   2.778   5.908 -0.1050 -0.0916  0.0676
 4191ntf    fn423976   0.310   2.545   6.138  0.2267  0.0502 -0.1602
 4191ntf    fn423977   0.335   2.551   5.932  0.2773 -0.1151 -0.4505
 4191ntf    fn423978   0.411   2.390   6.039 -0.0577 -0.2829  0.0645
 4191ntf    on523979   0.520   2.731   6.133  0.0014  0.1645 -0.4579
 4191ntf    on523980   0.617   2.514   6.162 -0.0490  0.0036 -0.4092
 4191ntf    on523981   0.549   2.833   5.853 -0.3924  0.2946 -0.5974
 4191ntf    on523982   0.685   2.685   5.701 -0.5190 -0.7028  0.2115
 4191ntf    fn423983   0.836   2.897   5.860 -0.3050 -0.3004 -0.6045
 4191ntf    fn423984   0.793   2.796   6.039  0.2133  0.4633  0.0168
 4191ntf    fn423985   0.901   2.694   5.886 -0.1364 -0.0749 -0.1324
 4192ntf    cn123986   1.312   0.745   0.066 -0.1989  0.1280 -0.3762
 4192ntf    sn223987   1.248   0.882   0.166 -0.0511 -0.1692  0.1287
 4192ntf    nn323988   1.304   1.007   0.089  0.2019 -0.5358 -0.2833
 4192ntf    sn223989   1.429   1.091   0.132 -0.2820  0.0296  0.0337
 4192ntf    cn123990   1.471   1.168  -0.028  0.1911 -0.0090  0.1363
 4192ntf    fn423991   1.265   0.627   0.101  0.1571  0.0706 -0.0863
 4192ntf    fn423992   1.275   0.750  -0.061 -0.6140  0.3250 -0.2501
 4192ntf    fn423993   1.443   0.730   0.069 -0.2107  0.0788 -0.1144
 4192ntf    on523994   1.106   0.875   0.142 -0.0163  0.3446 -0.2450
 4192ntf    on523995   1.292   0.856   0.301  0.0608  0.0048  0.1260
 4192ntf    on523996   1.554   1.021   0.148  0.4020  1.2607  0.2380
 4192ntf    on523997   1.409   1.208   0.214  0.5168 -0.2453  0.6312
 4192ntf    fn423998   1.576   1.245  -0.006 -0.1227  0.4309  0.1032
 4192ntf    fn423999   1.514   1.085  -0.121  0.3053 -0.2037  0.3622
 4192ntf    fn424000   1.371   1.244  -0.070  0.2007 -0.0362  0.0638
 4193ntf    cn124001   6.048   6.874   4.295 -0.2253  0.1552  0.0720
 4193ntf    sn224002   6.032   6.700   4.244  0.0124  0.1350  0.0652
 4193ntf    nn324003   6.084   6.613   4.364  0.6152  0.6727  0.2016
 4193ntf    sn224004   6.211   6.522   4.374  0.2983  0.1944 -0.1220
 4193ntf    cn124005   6.332   6.649   4.422  0.4256  0.1615 -0.3556
 4193ntf    fn424006   5.975   6.901   4.401 -0.7268  0.0530 -0.2434
 4193ntf    fn424007   6.174   6.906   4.322 -0.1883 -0.5453  0.7508
 4193ntf    fn424008   6.005   6.958   4.202 -0.0322  0.4850  0.2801
 4193ntf    on524009   5.891   6.688   4.215  0.0002  0.1316  0.1256
 4193ntf    on524010   6.112   6.690   4.125  0.0463 -0.1208  0.1095
 4193ntf    on524011   6.266   6.462   4.254  0.2717 -0.5803  0.2451
 4193ntf    on524012   6.199   6.433   4.487  0.6693 -0.1994 -0.3876
 4193ntf    fn424013   6.447   6.591   4.450  0.3175  0.2199  0.2248
 4193ntf    fn424014   6.339   6.737   4.323  0.0079  0.3427 -0.2276
 4193ntf    fn424015   6.302   6.721   4.528  0.0697 -0.2107 -0.1984
 4194ntf    cn124016   5.796   4.538   4.123  0.1822  0.0784  0.1950
 4194ntf    sn224017   5.907   4.468   3.998 -0.3189  0.1474 -0.2955
 4194ntf    nn324018   5.811   4.356   3.944  0.1322 -0.3723 -0.0381
 4194ntf    sn224019   5.683   4.382   3.856  0.3932  0.0075 -0.3083
 4194ntf    cn124020   5.749   4.365   3.687 -0.0508  0.3769 -0.5205
 4194ntf    fn424021   5.706   4.615   4.063 -0.0912 -0.3529  0.0440
 4194ntf    fn424022   5.732   4.436   4.179 -0.2574 -0.0355 -0.5009
 4194ntf    fn424023   5.866   4.609   4.209  0.7440 -0.3686  0.1104
 4194ntf    on524024   5.935   4.577   3.907 -0.2597  0.0090 -0.4449
 4194ntf    on524025   6.017   4.418   4.078 -0.2470  0.0792 -0.4360
 4194ntf    on524026   5.632   4.516   3.864 -0.1634 -0.2244  0.1030
 4194ntf    on524027   5.598   4.269   3.886  0.5628  0.0458  0.3375
 4194ntf    fn424028   5.832   4.465   3.663 -0.2914  0.5625 -0.5760
 4194ntf    fn424029   5.814   4.251   3.666 -0.1110  0.1092  0.6783
 4194ntf    fn424030   5.656   4.365   3.594 -0.1779  0.4965 -0.3933
 4195ntf    cn124031   6.681   5.931   2.063  0.2163 -0.1247 -0.3476
 4195ntf    sn224032   6.573   5.875   1.929 -0.0011 -0.1396 -0.1658
 4195ntf    nn324033   6.464   5.787   2.001 -0.2613  0.4780  0.2043
 4195ntf    sn224034   6.493   5.652   2.075 -0.1646  0.2696 -0.2081
 4195ntf    cn124035   6.423   5.531   1.959  0.2928  0.0210 -0.2253
 4195ntf    fn424036   6.627   5.925   2.184  0.3865 -0.1541 -0.2723
 4195ntf    fn424037   6.792   5.859   2.070  0.2415 -0.0024  0.7349
 4195ntf    fn424038   6.714   6.058   2.042 -0.2652  0.0610 -0.0158
 4195ntf    on524039   6.513   6.000   1.888 -0.5955 -0.4434 -0.2278
 4195ntf    on524040   6.665   5.807   1.842 -0.1076  0.1726 -0.5260
 4195ntf    on524041   6.413   5.634   2.194  0.2107  0.2925  0.0485
 4195ntf    on524042   6.633   5.622   2.089 -0.0978  0.6082 -0.1205
 4195ntf    fn424043   6.464   5.407   1.981  0.1375  0.0777  0.3917
 4195ntf    fn424044   6.292   5.542   1.952  0.3222  0.3828 -0.2332
 4195ntf    fn424045   6.465   5.553   1.835  0.0130 -0.2716 -0.3724
 4196ntf    cn124046   4.408   3.230   3.669  0.2094  0.0239 -0.2013
 4196ntf    sn224047   4.589   3.226   3.688  0.1989  0.2145 -0.0504
 4196ntf    nn324048   4.620   3.215   3.535 -0.1005 -0.2707 -0.0812
 4196ntf    sn224049   4.762   3.195   3.471 -0.0371 -0.3305  0.0767
 4196ntf    cn124050   4.738   3.037   3.383  0.4330 -0.1441 -0.3900
 4196ntf    fn424051   4.368   3.335   3.600 -0.1338 -0.0327 -0.0929
 4196ntf    fn424052   4.364   3.118   3.613 -0.2010  0.0729  0.0220
 4196ntf    fn424053   4.357   3.230   3.791 -0.1677 -0.5698 -0.3536
 4196ntf    on524054   4.617   3.357   3.740  0.2919 -0.0511  0.5834
 4196ntf    on524055   4.619   3.110   3.770 -1.0222  0.5229  0.8662
 4196ntf    on524056   4.864   3.165   3.568 -0.0184 -0.0805  0.1348
 4196ntf    on524057   4.793   3.285   3.362  0.1164 -0.9319 -0.3842
 4196ntf    fn424058   4.637   3.039   3.298  0.2308 -0.0715 -0.1499
 4196ntf    fn424059   4.841   3.022   3.302  0.2565 -0.0900 -0.6247
 4196ntf    fn424060   4.722   2.926   3.453 -0.2530  0.5006  0.5066
 4197ntf    cn124061   2.100   1.200   0.865 -0.1253  0.5310 -0.1127
 4197ntf    sn224062   2.086   1.286   1.024 -0.2654  0.2076  0.0493
 4197ntf    nn324063   2.106   1.437   0.987  0.0652  0.0598 -0.3786
 4197ntf    sn224064   1.988   1.534   0.948  0.0523  0.0730 -0.3066
 4197ntf    cn124065   2.080   1.650   0.842  0.2966  0.3022  0.1567
 4197ntf    fn424066   2.023   1.240   0.764  0.2892  0.5049 -0.4441
 4197ntf    fn424067   2.222   1.202   0.814  0.1698  0.0807  0.5780
 4197ntf    fn424068   2.069   1.073   0.883  0.3033  0.4736  0.2296
 4197ntf    on524069   1.956   1.251   1.075 -0.3836 -0.1714 -0.5116
 4197ntf    on524070   2.201   1.236   1.095  0.0230 -0.0599 -0.6020
 4197ntf    on524071   1.957   1.621   1.059  0.7139  0.0153 -0.0708
 4197ntf    on524072   1.881   1.483   0.866  0.4413 -0.5900 -0.4084
 4197ntf    fn424073   2.169   1.589   0.765  0.1005 -0.3696  0.4529
 4197ntf    fn424074   1.993   1.714   0.766  0.0957 -0.3886 -0.2037
 4197ntf    fn424075   2.142   1.742   0.914 -0.4483  0.6148  0.4021
 4198ntf    cn124076   2.704   0.940   7.078 -0.1335 -0.3976 -0.0362
 4198ntf    sn224077   2.726   1.051   6.937  0.0902 -0.0572  0.2656
 4198ntf    nn324078   2.577   1.055   6.887  0.0673  0.0224  0.3394
 4198ntf    sn224079   2.488   1.181   6.918  0.2140  0.2935 -0.3220
 4198ntf    cn124080   2.551   1.284   6.782  0.1036  0.3501 -0.3301
 4198ntf    fn424081   2.620   0.992   7.167  0.0741  0.0987 -0.1284
 4198ntf    fn424082   2.650   0.825   7.041  0.0528 -0.2404 -0.8037
 4198ntf    fn424083   2.813   0.912   7.147 -0.1708  0.0667  0.2143
 4198ntf    on524084   2.779   1.174   6.991 -0.2219  0.2578 -0.1339
 4198ntf    on524085   2.816   0.983   6.846  0.2404  0.1825  0.2330
 4198ntf    on524086   2.505   1.250   7.043 -0.3619 -0.5464  0.2298
 4198ntf    on524087   2.352   1.149   6.883  0.1298  0.0632  0.2067
 4198ntf    fn424088   2.471   1.388   6.767  0.4189  0.7100  0.4747
 4198ntf    fn424089   2.671   1.331   6.809  0.0880  0.0489  0.2781
 4198ntf    fn424090   2.565   1.216   6.669 -0.1984  0.1044 -0.2212
 4199ntf    cn124091   3.225   5.744   2.223 -0.1038  0.2340 -0.2676
 4199ntf    sn224092   3.403   5.755   2.191 -0.0396 -0.0002  0.0109
 4199ntf    nn324093   3.445   5.624   2.266  0.0614 -0.0921 -0.2045
 4199ntf    sn224094   3.480   5.487   2.199  0.1669 -0.1152 -0.1033
 4199ntf    cn124095   3.660   5.509   2.187  0.1474  0.1603  0.1162
 4199ntf    fn424096   3.160   5.853   2.183 -0.0875  0.2263 -0.3149
 4199ntf    fn424097   3.173   5.640   2.161 -0.7485  0.4012 -0.0225
 4199ntf    fn424098   3.207   5.739   2.354 -0.4459 -0.3188 -0.3359
 4199ntf    on524099   3.428   5.752   2.049  0.4563  0.7255  0.0780
 4199ntf    on524100   3.446   5.873   2.263  0.2172 -0.2735  0.3081
 4199ntf    on524101   3.426   5.463   2.067 -0.5202 -0.1974  0.1923
 4199ntf    on524102   3.479   5.386   2.302  0.3775  0.3625  0.3704
 4199ntf    fn424103   3.717   5.412   2.117  0.0062  0.0379  0.1698
 4199ntf    fn424104   3.692   5.625   2.131 -0.1639  0.2331  0.0893
 4199ntf    fn424105   3.723   5.520   2.303 -0.2133  0.1206  0.3158
 4200ntf    cn124106   1.900   3.383   5.487  0.0045 -0.4020 -0.0593
 4200ntf    sn224107   2.008   3.300   5.607  0.2454  0.0638  0.0460
 4200ntf    nn324108   1.933   3.163   5.620  0.1455  0.0731 -0.4118
 4200ntf    sn224109   1.990   3.024   5.666 -0.1288  0.0514 -0.1383
 4200ntf    cn124110   1.990   2.950   5.499  0.4679  0.3310 -0.2625
 4200ntf    fn424111   1.776   3.409   5.525 -0.0246  0.1575 -0.5082
 4200ntf    fn424112   1.944   3.500   5.443  0.0769 -0.4845 -0.2070
 4200ntf    fn424113   1.883   3.311   5.377 -0.4845 -0.1913 -0.1238
 4200ntf    on524114   2.132   3.288   5.534  0.3374  0.0324  0.2070
 4200ntf    on524115   2.004   3.393   5.718 -0.4288  0.0322  0.0527
 4200ntf    on524116   1.887   2.951   5.736  0.3605 -0.3844  0.1260
 4200ntf    on524117   2.127   3.019   5.708 -0.2218 -0.1737  0.1405
 4200ntf    fn424118   2.016   2.821   5.513 -0.0829  0.2097 -0.3301
 4200ntf    fn424119   1.874   2.957   5.438  0.2467  0.4279  0.1623
 4200ntf    fn424120   2.080   2.999   5.416  0.4333  0.7799 -0.0414
 4201ntf    cn124121   0.902   1.351   5.787  0.0017 -0.0135 -0.4568
 4201ntf    sn224122   0.967   1.496   5.875 -0.3149 -0.1105 -0.0568
 4201ntf    nn324123   1.099   1.435   5.934 -0.0709 -0.2733 -0.7517
 4201ntf    sn224124   1.211   1.515   6.009 -0.3149 -0.5482 -0.0867
 4201ntf    cn124125   1.157   1.496   6.182 -0.2190 -0.4768 -0.0484
 4201ntf    fn424126   0.793   1.374   5.716  0.0438 -0.2577 -0.6039
 4201ntf    fn424127   0.990   1.296   5.705 -0.0312 -0.4564 -0.2022
 4201ntf    fn424128   0.869   1.254   5.871 -0.4685  0.3859 -0.1738
 4201ntf    on524129   0.989   1.595   5.772  0.4846  0.1925  0.3952
 4201ntf    on524130   0.866   1.521   5.974 -0.5469 -0.5243 -0.1854
 4201ntf    on524131   1.222   1.658   5.993  0.0212 -0.5574  0.0476
 4201ntf    on524132   1.338   1.446   6.019 -0.2104 -0.2871  0.4370
 4201ntf    fn424133   1.031   1.532   6.193 -0.0075  0.3182 -0.1389
 4201ntf    fn424134   1.173   1.376   6.235  0.2276 -0.4437 -0.0965
 4201ntf    fn424135   1.219   1.581   6.262  0.2782 -0.8120 -0.0732
 4202ntf    cn124136   7.103   4.996   6.701 -0.0864  0.0147  0.0051
 4202ntf    sn224137   7.209   4.856   6.747 -0.1416  0.0096  0.1189
 4202ntf    nn324138   7.261   4.907   6.885 -0.2233  0.1869  0.0831
 4202ntf    sn224139   7.191   4.869   7.021  0.2222  0.1160  0.2931
 4202ntf    cn124140   7.258   4.702   7.049  0.3624  0.0464 -0.4381
 4202ntf    fn424141   7.064   5.000   6.575 -0.2945 -0.2999  0.0579
 4202ntf    fn424142   6.992   4.990   6.774 -0.1950 -0.5986 -0.2017
 4202ntf    fn424143   7.158   5.111   6.736 -0.3313  0.1314  0.0139
 4202ntf    on524144   7.124   4.740   6.735 -0.0838 -0.0493  0.2855
 4202ntf    on524145   7.321   4.861   6.657 -0.1775 -0.5300  0.0358
 4202ntf    on524146   7.048   4.859   7.029  0.2313  0.0666  0.3978
 4202ntf    on524147   7.249   4.955   7.121  0.2537  0.6655 -0.1938
 4202ntf    fn424148   7.388   4.703   7.074  0.3622  0.5259 -0.4521
 4202ntf    fn424149   7.202   4.645   7.155  0.1509 -0.0342 -0.5899
 4202ntf    fn424150   7.230   4.621   6.947 -0.1211 -0.1042 -0.1899
 4203ntf    cn124151   4.739   0.913   2.585 -0.0572 -0.1822 -0.1695
 4203ntf    sn224152   4.561   0.939   2.561 -0.0628 -0.1171 -0.0542
 4203ntf    nn324153   4.506   0.998   2.696 -0.1494 -0.0476 -0.1189
 4203ntf    sn224154   4.423   0.930   2.811  0.1034 -0.1254  0.0192
 4203ntf    cn124155   4.544   0.941   2.947  0.0769 -0.1288  0.0430
 4203ntf    fn424156   4.793   1.000   2.668 -0.5158 -0.0692  0.0108
 4203ntf    fn424157   4.772   0.792   2.626 -0.2067 -0.2185 -0.1561
 4203ntf    fn424158   4.801   0.941   2.471 -0.2555 -0.0629 -0.2482
 4203ntf    on524159   4.565   1.035   2.453 -0.4477  0.2177  0.2283
 4203ntf    on524160   4.511   0.810   2.522  0.0503 -0.1064 -0.2344
 4203ntf    on524161   4.384   0.792   2.800 -0.3760 -0.0103  0.2690
 4203ntf    on524162   4.321   1.024   2.850 -0.0863 -0.4784  0.3757
 4203ntf    fn424163   4.555   1.071   2.971 -0.5884 -0.0410 -0.1034
 4203ntf    fn424164   4.499   0.877   3.054  0.1565 -0.1775  0.0471
 4203ntf    fn424165   4.666   0.895   2.925  0.2991  0.3454  0.2722
 4204ntf    cn124166   2.088   3.287   1.803 -0.2866 -0.0041  0.0136
 4204ntf    sn224167   2.070   3.130   1.893 -0.2007 -0.1697 -0.2557
 4204ntf    nn324168   2.049   3.024   1.779 -0.3067 -0.6627  0.2221
 4204ntf    sn224169   2.164   2.935   1.720 -0.0759  0.0814 -0.4681
 4204ntf    cn124170   2.078   2.781   1.675  0.2328 -0.1567 -0.2457
 4204ntf    fn424171   1.976   3.322   1.742 -0.1056 -0.3953 -0.5577
 4204ntf    fn424172   2.114   3.392   1.880  0.1791  0.1648 -0.3632
 4204ntf    fn424173   2.176   3.283   1.704  0.0528  0.4792  0.2928
 4204ntf    on524174   2.188   3.127   1.975 -0.1697 -0.1518 -0.2995
 4204ntf    on524175   1.943   3.145   1.959 -0.0790 -0.7162  0.1049
 4204ntf    on524176   2.270   2.896   1.809 -0.2030  0.4763 -0.1404
 4204ntf    on524177   2.209   2.977   1.590  0.2761  0.2427 -0.2933
 4204ntf    fn424178   2.005   2.791   1.565 -0.0654  0.7147  0.0233
 4204ntf    fn424179   2.165   2.683   1.654  0.3943  0.0264 -0.4353
 4204ntf    fn424180   1.995   2.743   1.771  0.1046 -0.1622 -0.3584
 4205ntf    cn124181   0.253   4.672   6.379  0.1609  0.2341 -0.4066
 4205ntf    sn224182   0.365   4.625   6.244  0.3370 -0.2433 -0.0987
 4205ntf    nn324183   0.380   4.766   6.177  0.5471 -0.1868  0.0663
 4205ntf    sn224184   0.486   4.874   6.220  0.2623  0.1201  0.0056
 4205ntf    cn124185   0.641   4.839   6.130  0.4232  0.4170  0.1668
 4205ntf    fn424186   0.319   4.737   6.473  0.3574 -0.1024 -0.3099
 4205ntf    fn424187   0.148   4.740   6.335  0.0139  0.0769 -0.3039
 4205ntf    fn424188   0.206   4.570   6.450  0.9547  0.0948 -0.0758
 4205ntf    on524189   0.481   4.566   6.305 -0.0933 -0.5281  0.4525
 4205ntf    on524190   0.269   4.540   6.177 -0.0639 -0.4755  0.7603
 4205ntf    on524191   0.537   4.863   6.354  0.1566 -0.0032  0.0357
 4205ntf    on524192   0.432   4.999   6.173 -0.1526  0.1514  0.5612
 4205ntf    fn424193   0.625   4.858   6.000 -0.2220 -0.5487  0.0903
 4205ntf    fn424194   0.735   4.925   6.165  0.4421  0.2304  0.5859
 4205ntf    fn424195   0.680   4.714   6.151 -0.8515 -0.0060  0.1432
 4206ntf    cn124196   2.619   4.357   3.395  0.0550 -0.1096 -0.0570
 4206ntf    sn224197   2.472   4.271   3.332 -0.0861  0.1912 -0.1419
 4206ntf    nn324198   2.479   4.299   3.178 -0.2513  0.0359 -0.1788
 4206ntf    sn224199   2.426   4.436   3.123 -0.0529  0.1806 -0.0110
 4206ntf    cn124200   2.267   4.379   3.056 -0.0158  0.0068  0.0491
 4206ntf    fn424201   2.603   4.486   3.371 -0.3861 -0.1935 -0.2146
 4206ntf    fn424202   2.632   4.348   3.527  0.3036  0.8351 -0.0087
 4206ntf    fn424203   2.733   4.318   3.342 -0.2945 -0.8186 -0.2951
 4206ntf    on524204   2.500   4.132   3.358  0.1237  0.3900  0.7502
 4206ntf    on524205   2.362   4.328   3.406  0.0390 -0.2111  0.3633
 4206ntf    on524206   2.496   4.485   3.006 -0.3810 -0.2099 -0.3743
 4206ntf    on524207   2.378   4.542   3.208 -0.3149 -0.0301  0.1040
 4206ntf    fn424208   2.180   4.349   3.151  0.1051  0.0982  0.1915
 4206ntf    fn424209   2.202   4.458   2.972  0.1549  0.2520  0.1470
 4206ntf    fn424210   2.292   4.268   2.989 -0.5676  0.1061 -0.3272
 4207ntf    cn124211   6.373   1.178   7.139 -0.0437  0.1051  0.0247
 4207ntf    sn224212   6.322   1.331   7.056  0.3827  0.1967 -0.0708
 4207ntf    nn324213   6.444   1.426   7.082  0.7289 -0.1591 -0.3840
 4207ntf    sn224214   6.444   1.583   7.096 -0.1647 -0.1776 -0.1487
 4207ntf    cn124215   6.379   1.620   7.262 -0.0213 -0.2748 -0.0712
 4207ntf    fn424216   6.466   1.120   7.065  0.2066  0.1682  0.2883
 4207ntf    fn424217   6.426   1.196   7.259  0.8887 -0.3533 -0.3087
 4207ntf    fn424218   6.276   1.090   7.157 -0.0798  0.0287 -0.5296
 4207ntf    on524219   6.306   1.279   6.923  0.4309 -0.0910  0.0359
 4207ntf    on524220   6.210   1.370   7.138  0.3268 -0.4709  0.1730
 4207ntf    on524221   6.364   1.660   7.003 -0.0989  0.7862  0.5813
 4207ntf    on524222   6.582   1.622   7.097 -0.3280  0.4170  0.4827
 4207ntf    fn424223   6.384   1.751   7.284 -0.4903 -0.2696  0.0119
 4207ntf    fn424224   6.251   1.592   7.276 -0.1877  0.5077  0.0607
 4207ntf    fn424225   6.440   1.557   7.361 -0.5140 -0.5726  0.0428
 4208ntf    cn124226   6.867   0.501   3.387  0.2240 -0.3485  0.1673
 4208ntf    sn224227   6.970   0.387   3.483  0.1902 -0.3377  0.2167
 4208ntf    nn324228   6.945   0.444   3.627  0.0313  0.4753 -0.1280
 4208ntf    sn224229   6.900   0.382   3.764 -0.3033  0.2074 -0.3577
 4208ntf    cn124230   7.059   0.311   3.817 -0.2382  0.4072 -0.2819
 4208ntf    fn424231   6.749   0.525   3.442 -0.0109 -0.5550 -0.2377
 4208ntf    fn424232   6.941   0.609   3.372  0.1275 -0.3513 -0.3511
 4208ntf    fn424233   6.845   0.463   3.262  0.3098  0.1505  0.0005
 4208ntf    on524234   6.912   0.261   3.442  0.6517 -0.4401 -0.1326
 4208ntf    on524235   7.102   0.410   3.429 -0.1707  0.5452 -0.3006
 4208ntf    on524236   6.813   0.267   3.752  0.1133 -0.1203 -0.2570
 4208ntf    on524237   6.869   0.473   3.872  0.0655  0.0700 -0.1322
 4208ntf    fn424238   7.136   0.396   3.881 -0.3491 -0.0153  0.4301
 4208ntf    fn424239   7.037   0.204   3.892  0.0863  0.1959 -0.4886
 4208ntf    fn424240   7.132   0.259   3.720  0.4014  0.1769  0.3142
 4209ntf    cn124241   4.128   4.516   4.675  0.1180 -0.3507 -0.1129
 4209ntf    sn224242   4.069   4.688   4.691  0.1781 -0.3385 -0.0204
 4209ntf    nn324243   4.059   4.736   4.542 -0.4075  0.6099  0.3203
 4209ntf    sn224244   3.961   4.680   4.433  0.2813 -0.0674  0.0457
 4209ntf    cn124245   3.955   4.822   4.320 -0.2161 -0.2122 -0.1145
 4209ntf    fn424246   4.049   4.457   4.587  0.0447 -0.2933 -0.0860
 4209ntf    fn424247   4.258   4.516   4.647  0.1525  0.3243  0.0199
 4209ntf    fn424248   4.111   4.453   4.790 -0.0314 -0.1340 -0.0138
 4209ntf    on524249   3.941   4.673   4.757  0.1991 -0.3554  0.0155
 4209ntf    on524250   4.175   4.756   4.761 -0.2904  0.2639  0.1111
 4209ntf    on524251   3.823   4.659   4.468  0.4051 -1.0569 -0.0174
 4209ntf    on524252   4.011   4.585   4.336 -0.0271 -0.2472  0.0608
 4209ntf    fn424253   3.861   4.813   4.228 -0.1306  0.1221 -0.2377
 4209ntf    fn424254   3.922   4.930   4.389  0.2002  0.2197 -0.5787
 4209ntf    fn424255   4.071   4.852   4.263 -0.1477  0.0050  0.1348
 4210ntf    cn124256   6.942   0.795   1.836  0.0313  0.0896  0.2043
 4210ntf    sn224257   6.994   0.968   1.816 -0.0537  0.0862 -0.0432
 4210ntf    nn324258   7.137   0.957   1.881  0.0713  0.0869 -0.3152
 4210ntf    sn224259   7.275   0.933   1.810 -0.0005 -0.1083 -0.3893
 4210ntf    cn124260   7.363   1.091   1.826  0.0412 -0.1787  0.0750
 4210ntf    fn424261   6.820   0.779   1.789  0.2280 -0.1051 -0.2356
 4210ntf    fn424262   7.020   0.712   1.770 -0.0024 -0.3741  0.7380
 4210ntf    fn424263   6.948   0.754   1.962 -0.2260 -0.1154  0.1484
 4210ntf    on524264   6.997   0.988   1.673  0.0778  0.2501 -0.0185
 4210ntf    on524265   6.905   1.046   1.898 -0.4242 -0.1738 -0.1966
 4210ntf    on524266   7.273   0.895   1.671 -0.0005  0.2441 -0.4882
 4210ntf    on524267   7.356   0.846   1.891 -0.6565  0.0007  0.3933
 4210ntf    fn424268   7.454   1.105   1.731 -0.2679  0.1151 -0.1792
 4210ntf    fn424269   7.277   1.190   1.808 -0.1732 -0.2753  0.5471
 4210ntf    fn424270   7.426   1.111   1.941 -0.1380 -0.0192  0.1466
 4211ntf    cn124271   5.297   5.497   2.759  0.1099 -0.6588  0.0100
 4211ntf    sn224272   5.479   5.494   2.754  0.1232  0.1027 -0.2031
 4211ntf    nn324273   5.519   5.372   2.845 -0.2700 -0.2001 -0.4294
 4211ntf    sn224274   5.602   5.244   2.809  0.0731 -0.1041  0.0048
 4211ntf    cn124275   5.462   5.129   2.789  0.0740 -0.1301  0.1373
 4211ntf    fn424276   5.256   5.507   2.885 -0.4328  0.4483 -0.2386
 4211ntf    fn424277   5.248   5.603   2.696 -0.2019 -0.8190 -0.0190
 4211ntf    fn424278   5.244   5.386   2.712 -0.2765 -0.4026 -0.1674
 4211ntf    on524279   5.516   5.482   2.615 -0.0262 -0.8699 -0.1682
 4211ntf    on524280   5.508   5.619   2.819 -0.1084  0.3193 -0.5130
 4211ntf    on524281   5.670   5.184   2.921 -0.2226  0.0501  0.2674
 4211ntf    on524282   5.677   5.243   2.686  0.0636  0.1137 -0.0015
 4211ntf    fn424283   5.427   5.096   2.912  0.0099 -0.3658  0.0549
 4211ntf    fn424284   5.363   5.176   2.714  0.0988 -0.1680  0.0810
 4211ntf    fn424285   5.480   5.013   2.729  0.2034 -0.0864  0.0912
 4212ntf    cn124286   3.335   0.110   0.028 -0.0603  0.0728 -0.0443
 4212ntf    sn224287   3.463   0.237   0.048  0.0776 -0.0400 -0.2020
 4212ntf    nn324288   3.515   0.225   0.196 -0.3332  0.2433 -0.0328
 4212ntf    sn224289   3.444   0.292   0.319 -0.5798  0.0385 -0.0637
 4212ntf    cn124290   3.502   0.180   0.451  0.0906  0.2790 -0.1542
 4212ntf    fn424291   3.385  -0.012   0.036 -0.1884 -0.0055 -0.4024
 4212ntf    fn424292   3.238   0.109   0.118 -0.0978 -0.0762 -0.0865
 4212ntf    fn424293   3.270   0.118  -0.087  0.3661  0.3293 -0.2700
 4212ntf    on524294   3.572   0.187  -0.032  0.1542  0.0789 -0.1727
 4212ntf    on524295   3.392   0.358   0.016 -1.0248 -0.5856  0.1443
 4212ntf    on524296   3.301   0.275   0.311 -0.6499  0.4008  0.3971
 4212ntf    on524297   3.497   0.420   0.355 -0.3685 -0.1758  0.4000
 4212ntf    fn424298   3.634   0.192   0.459  0.0983 -0.1876  0.4190
 4212ntf    fn424299   3.455   0.218   0.569 -0.0596  0.6205 -0.3199
 4212ntf    fn424300   3.475   0.054   0.425 -0.5687  0.4363 -0.2512
 4213ntf    cn124301   0.359   0.840   1.245  0.3188  0.1843  0.3436
 4213ntf    sn224302   0.231   0.799   1.123  0.7308 -0.0161 -0.0236
 4213ntf    nn324303   0.211   0.939   1.055  0.4157  0.1643  0.4404
 4213ntf    sn224304   0.272   0.992   0.921  0.0513  0.0096  0.2119
 4213ntf    cn124305   0.170   0.912   0.793  0.1820 -0.1996  0.2371
 4213ntf    fn424306   0.384   0.738   1.326 -0.7215 -0.4067 -0.0637
 4213ntf    fn424307   0.476   0.856   1.185  0.0627  0.2063 -0.1465
 4213ntf    fn424308   0.338   0.947   1.320 -0.0919  0.1603  0.2633
 4213ntf    on524309   0.286   0.692   1.042  0.3208 -0.4561  0.2742
 4213ntf    on524310   0.122   0.756   1.207  0.7216 -0.5487 -0.3056
 4213ntf    on524311   0.410   0.959   0.893 -0.0564 -0.4970  0.2596
 4213ntf    on524312   0.228   1.128   0.904  0.1814  0.0561  0.2472
 4213ntf    fn424313   0.176   0.781   0.810 -0.3328 -0.1959  0.4602
 4213ntf    fn424314   0.042   0.948   0.799  0.2475  0.1015 -0.1351
 4213ntf    fn424315   0.212   0.940   0.671 -0.4801 -0.2380 -0.0057
 4214ntf    cn124316   3.497   1.799   0.330  0.0236  0.2030 -0.1279
 4214ntf    sn224317   3.580   1.804   0.168 -0.1935  0.1301 -0.2411
 4214ntf    nn324318   3.725   1.836   0.218 -0.1249  0.0590 -0.3928
 4214ntf    sn224319   3.861   1.830   0.140  0.1177 -0.0973  0.0378
 4214ntf    cn124320   3.905   1.656   0.169  0.2179 -0.0697  0.0492
 4214ntf    fn424321   3.371   1.761   0.319  0.1603 -0.2795 -0.0794
 4214ntf    fn424322   3.562   1.714   0.409  0.0717  0.1556 -0.2178
 4214ntf    fn424323   3.501   1.918   0.387  0.4546  0.3060 -0.3626
 4214ntf    on524324   3.570   1.672   0.112  0.4238 -0.2017  0.4232
 4214ntf    on524325   3.508   1.911   0.103 -0.4959  0.3729  0.4803
 4214ntf    on524326   3.965   1.912   0.197  0.3127 -0.3674  0.0766
 4214ntf    on524327   3.843   1.840  -0.002 -0.1621 -0.0838  0.0743
 4214ntf    fn424328   4.006   1.620   0.090  0.0913  0.2820 -0.2759
 4214ntf    fn424329   3.956   1.646   0.290 -0.2214 -0.3781  0.2110
 4214ntf    fn424330   3.808   1.567   0.155  0.3981 -0.2787  0.1113
 4215ntf    cn124331   1.060   6.534   4.655  0.1882  0.4289 -0.2434
 4215ntf    sn224332   1.029   6.600   4.821 -0.0034  0.1483 -0.1671
 4215ntf    nn324333   1.114   6.513   4.921 -0.4223  0.2677  0.3014
 4215ntf    sn224334   1.056   6.381   4.982 -0.0503 -0.0656 -0.0630
 4215ntf    cn124335   1.216   6.294   4.986 -0.1084 -0.1782 -0.1986
 4215ntf    fn424336   1.075   6.403   4.660 -0.0776  0.4248  0.6064
 4215ntf    fn424337   0.958   6.560   4.575 -0.0658  0.1435 -0.0135
 4215ntf    fn424338   1.168   6.584   4.596  0.6003 -0.2121 -0.0428
 4215ntf    on524339   1.078   6.736   4.816  0.6954 -0.0925  0.1033
 4215ntf    on524340   0.887   6.580   4.838  0.1663 -0.6221  0.4130
 4215ntf    on524341   0.989   6.301   4.883  0.1341 -0.4137  0.0898
 4215ntf    on524342   1.012   6.380   5.119 -0.5293  0.5547 -0.2069
 4215ntf    fn424343   1.292   6.344   5.082 -0.4475 -0.5205  0.2546
 4215ntf    fn424344   1.208   6.163   5.008 -0.2115 -0.2354 -0.5642
 4215ntf    fn424345   1.283   6.313   4.873 -0.1152  0.4378 -0.0977
 4216ntf    cn124346   6.609   6.188   0.370  0.4125  0.3040 -0.0187
 4216ntf    sn224347   6.778   6.170   0.307  0.3259  0.3245 -0.2602
 4216ntf    nn324348   6.787   6.298   0.218  0.4737  0.1106 -0.5561
 4216ntf    sn224349   6.876   6.425   0.247  0.2065  0.2221 -0.2229
 4216ntf    cn124350   6.752   6.521   0.340 -0.0010 -0.1442 -0.1205
 4216ntf    fn424351   6.586   6.297   0.441  0.5011  0.2464  0.0975
 4216ntf    fn424352   6.526   6.190   0.267  0.1652 -0.0036  0.1743
 4216ntf    fn424353   6.571   6.082   0.439  0.1892  0.3771 -0.0276
 4216ntf    on524354   6.854   6.155   0.429  0.0312  0.0423 -0.1097
 4216ntf    on524355   6.771   6.048   0.231 -0.2585  0.1653  0.0481
 4216ntf    on524356   6.894   6.507   0.129  0.4389  0.4485 -0.0296
 4216ntf    on524357   6.988   6.408   0.335 -0.1418  0.4450  0.2680
 4216ntf    fn424358   6.637   6.520   0.275 -0.0778 -0.1567  0.0144
 4216ntf    fn424359   6.727   6.473   0.461  0.3996  0.1625  0.0869
 4216ntf    fn424360   6.795   6.644   0.359 -0.0719 -0.1106 -0.1796
 4217ntf    cn124361   0.155   6.217   4.141  0.3755 -0.0808 -0.1101
 4217ntf    sn224362   0.043   6.075   4.126  0.1740  0.0858 -0.1796
 4217ntf    nn324363  -0.078   6.149   4.058  0.3951  0.5263 -0.0983
 4217ntf    sn224364  -0.232   6.119   4.063  0.4550  0.2515  0.1204
 4217ntf    cn124365  -0.296   6.259   4.160 -0.1132  0.0115  0.0914
 4217ntf    fn424366   0.280   6.182   4.165  0.2091 -0.6570 -0.0725
 4217ntf    fn424367   0.151   6.283   4.027  0.2979  0.1102  0.0017
 4217ntf    fn424368   0.122   6.303   4.236 -0.7438 -0.4514 -0.1501
 4217ntf    on524369   0.115   5.974   4.052  0.1586 -0.2657  0.2838
 4217ntf    on524370   0.015   6.052   4.265  0.2353 -0.0452 -0.1891
 4217ntf    on524371  -0.278   6.003   4.136 -0.8860  0.3160 -0.5897
 4217ntf    on524372  -0.289   6.140   3.933  0.5387  0.5464  0.1320
 4217ntf    fn424373  -0.264   6.372   4.101  0.0253 -0.2360 -0.3112
 4217ntf    fn424374  -0.427   6.254   4.184 -0.0568 -0.5461  0.3052
 4217ntf    fn424375  -0.238   6.265   4.279 -0.0396  1.0591  0.0095
 4218ntf    cn124376   3.775   0.088   4.906 -0.4007  0.1461  0.0123
 4218ntf    sn224377   3.640  -0.031   4.881 -0.1867  0.0258 -0.5861
 4218ntf    nn324378   3.711  -0.163   4.926  0.0481  0.2675 -0.2464
 4218ntf    sn224379   3.772  -0.282   4.844 -0.0899 -0.0047  0.0434
 4218ntf    cn124380   3.812  -0.385   4.988 -0.0483 -0.1621 -0.0803
 4218ntf    fn424381   3.861   0.089   4.805 -0.1008  0.1155  0.2658
 4218ntf    fn424382   3.736   0.214   4.909 -0.1646  0.2213 -0.0523
 4218ntf    fn424383   3.849   0.067   5.013  0.1065  0.2342 -0.3170
 4218ntf    on524384   3.541   0.022   4.972  0.2036  0.1063 -0.2102
 4218ntf    on524385   3.611  -0.025   4.739 -0.2043  0.1142 -0.5788
 4218ntf    on524386   3.895  -0.245   4.779 -0.2178  0.2928 -0.0321
 4218ntf    on524387   3.685  -0.369   4.769 -0.0054 -0.4419  0.4488
 4218ntf    fn424388   3.856  -0.505   4.953 -0.2003 -0.3006  0.1996
 4218ntf    fn424389   3.909  -0.335   5.063  0.0625 -0.5966  0.0682
 4218ntf    fn424390   3.711  -0.406   5.070 -0.2089  0.0598 -0.2217
 4219ntf    cn124391   0.165   1.258   5.194  0.4447 -0.2418 -0.2399
 4219ntf    sn224392   0.344   1.275   5.163  0.4767 -0.1632 -0.0091
 4219ntf    nn324393   0.391   1.330   5.303 -0.0202 -0.1232  0.1463
 4219ntf    sn224394   0.491   1.436   5.363 -0.0030 -0.0819  0.0456
 4219ntf    cn124395   0.578   1.326   5.479  0.2423  0.0708  0.0060
 4219ntf    fn424396   0.092   1.288   5.088 -0.0497  0.6566  0.3400
 4219ntf    fn424397   0.144   1.130   5.220 -0.2465 -0.1367 -0.2665
 4219ntf    fn424398   0.118   1.324   5.298  0.9896  0.4638 -0.4369
 4219ntf    on524399   0.386   1.139   5.142  0.0711 -0.2885 -0.0181
 4219ntf    on524400   0.361   1.358   5.047 -0.1789  0.0408  0.0367
 4219ntf    on524401   0.420   1.528   5.448  0.6706  0.2539  0.2508
 4219ntf    on524402   0.599   1.479   5.278  0.2823 -0.2889  0.3015
 4219ntf    fn424403   0.626   1.220   5.417  0.4809  0.3384 -0.2732
 4219ntf    fn424404   0.680   1.382   5.542  0.1917  0.8051 -0.5406
 4219ntf    fn424405   0.501   1.276   5.573 -0.0116  0.4779  0.0166
 4220ntf    cn124406   2.141   2.601   2.080 -0.1346 -0.2199 -0.4641
 4220ntf    sn224407   2.113   2.548   2.251  0.4476 -0.0134 -0.3030
 4220ntf    nn324408   2.260   2.517   2.297  0.2663 -0.4903 -0.0386
 4220ntf    sn224409   2.376   2.615   2.337 -0.1896  0.1024 -0.1544
 4220ntf    cn124410   2.509   2.545   2.234  0.0581  0.0520  0.1988
 4220ntf    fn424411   2.212   2.517   2.006  0.0944 -0.2566 -0.2061
 4220ntf    fn424412   2.028   2.608   2.011 -0.5207  0.0863  0.1981
 4220ntf    fn424413   2.197   2.720   2.066 -0.0514 -0.3034 -0.8511
 4220ntf    on524414   2.066   2.662   2.326  0.5893 -0.5007  0.5442
 4220ntf    on524415   2.024   2.435   2.241  0.2739  0.1391 -0.4912
 4220ntf    on524416   2.407   2.597   2.476  0.0464  0.3738 -0.1696
 4220ntf    on524417   2.361   2.751   2.291 -0.1284  0.2399  0.2332
 4220ntf    fn424418   2.627   2.603   2.251  0.2462 -0.1972 -0.2395
 4220ntf    fn424419   2.546   2.423   2.272 -0.2043 -0.2095 -0.3731
 4220ntf    fn424420   2.484   2.553   2.104  0.1117  0.1609  0.1959
 4221ntf    cn124421   4.148   5.911   4.611 -0.1453 -0.0380 -0.1527
 4221ntf    sn224422   3.970   5.886   4.641 -0.0702 -0.1117  0.2336
 4221ntf    nn324423   3.987   5.804   4.775  0.1231 -0.2403  0.1318
 4221ntf    sn224424   3.930   5.662   4.807 -0.1286 -0.1811 -0.0480
 4221ntf    cn124425   3.792   5.703   4.919 -0.2221 -0.1657 -0.1692
 4221ntf    fn424426   4.173   5.976   4.499 -0.5512  0.4456  0.0277
 4221ntf    fn424427   4.208   5.982   4.706 -0.0785 -0.2099 -0.0672
 4221ntf    fn424428   4.212   5.796   4.614 -0.0914  0.0041  0.4372
 4221ntf    on524429   3.920   6.019   4.662 -0.2410 -0.0794 -0.3933
 4221ntf    on524430   3.936   5.824   4.516  0.4084  0.4284 -0.1673
 4221ntf    on524431   4.009   5.580   4.896  0.2107  0.0553 -0.1347
 4221ntf    on524432   3.866   5.589   4.700 -0.1558 -0.1678 -0.0407
 4221ntf    fn424433   3.701   5.770   4.849 -0.1867 -0.0168 -0.0720
 4221ntf    fn424434   3.733   5.596   4.971 -0.0138 -0.1686  0.0598
 4221ntf    fn424435   3.824   5.771   5.027 -0.2401 -0.1789 -0.1552
 4222ntf    cn124436   1.002   4.650   4.891 -0.1793 -0.0717  0.0878
 4222ntf    sn224437   1.025   4.769   4.756 -0.0711 -0.3739 -0.1594
 4222ntf    nn324438   1.037   4.904   4.836 -0.7164 -0.3422 -0.1115
 4222ntf    sn224439   0.927   5.002   4.890  0.0771  0.3214  0.3157
 4222ntf    cn124440   0.937   5.134   4.765 -0.0554 -0.0476 -0.0895
 4222ntf    fn424441   1.114   4.625   4.957  0.0177  0.5604 -0.0016
 4222ntf    fn424442   0.913   4.683   4.984 -0.2804  0.0911 -0.0665
 4222ntf    fn424443   0.961   4.533   4.846  0.2346 -0.0880 -0.2557
 4222ntf    on524444   1.148   4.719   4.700 -0.1420 -0.0069 -0.6600
 4222ntf    on524445   0.908   4.760   4.672  0.0246 -0.3654 -0.2955
 4222ntf    on524446   0.971   5.070   5.009  0.2440  0.4201  0.1980
 4222ntf    on524447   0.790   4.960   4.876  0.3049 -0.5030  0.5187
 4222ntf    fn424448   0.852   5.235   4.777  0.2730  0.1621  0.5475
 4222ntf    fn424449   1.054   5.196   4.767  0.1065 -0.3495 -0.1890
 4222ntf    fn424450   0.930   5.085   4.643  0.3827  0.5100 -0.3452
 4223ntf    cn124451   3.993   6.437   0.541  0.0456 -0.3304  0.4664
 4223ntf    sn224452   3.912   6.274   0.538 -0.1363 -0.2339 -0.0097
 4223ntf    nn324453   4.033   6.197   0.473 -0.0939 -0.2661  0.1064
 4223ntf    sn224454   4.056   6.042   0.465 -0.1115 -0.2645  0.0289
 4223ntf    cn124455   4.176   6.023   0.600 -0.1659  0.1777  0.1392
 4223ntf    fn424456   4.071   6.448   0.647 -0.0344  0.2230  0.4671
 4223ntf    fn424457   4.071   6.459   0.437 -0.0470  0.6136  0.5850
 4223ntf    fn424458   3.903   6.534   0.541  0.3030 -0.0922  0.2600
 4223ntf    on524459   3.886   6.237   0.675  0.1812  0.3005  0.1984
 4223ntf    on524460   3.796   6.294   0.455  0.1024 -0.3323 -0.3703
 4223ntf    on524461   4.132   6.000   0.349  0.3308 -0.0328  0.2325
 4223ntf    on524462   3.946   5.959   0.508 -0.5174  0.0884 -0.3205
 4223ntf    fn424463   4.134   6.090   0.706 -0.2035  0.0828  0.1850
 4223ntf    fn424464   4.199   5.898   0.635 -0.3012  0.0953 -0.0681
 4223ntf    fn424465   4.291   6.080   0.567  0.0804 -0.4592 -0.1216
 4224ntf    cn124466   3.431   4.730   5.747  0.1980  0.2680  0.6118
 4224ntf    sn224467   3.280   4.675   5.832  0.0270 -0.2341 -0.0117
 4224ntf    nn324468   3.187   4.646   5.709 -0.6238  0.1593  0.3829
 4224ntf    sn224469   3.068   4.736   5.659 -0.1770  0.2378 -0.5701
 4224ntf    cn124470   2.999   4.637   5.523  0.0593 -0.2233 -0.3569
 4224ntf    fn424471   3.489   4.626   5.689 -0.4853 -0.0971  0.5694
 4224ntf    fn424472   3.416   4.826   5.656  0.1550 -0.1092  0.2187
 4224ntf    fn424473   3.522   4.780   5.829 -0.1640  0.2838  1.0022
 4224ntf    on524474   3.318   4.546   5.884 -0.1297 -0.1755  0.2447
 4224ntf    on524475   3.239   4.782   5.918  0.8719  0.1191 -0.0359
 4224ntf    on524476   3.111   4.856   5.592  0.5063  0.4915  0.3007
 4224ntf    on524477   2.954   4.740   5.747 -0.1619 -0.2529 -0.5202
 4224ntf    fn424478   2.894   4.697   5.471 -0.3517 -0.1994  0.4785
 4224ntf    fn424479   3.089   4.619   5.428  0.6893  0.2636  0.1374
 4224ntf    fn424480   2.954   4.518   5.560 -0.3831  0.0865  0.1043
 4225ntf    cn124481   2.175   2.880   0.085  0.3594  0.2965  0.2706
 4225ntf    sn224482   2.142   2.907   0.262  0.0033  0.2083  0.2172
 4225ntf    nn324483   2.063   3.042   0.251 -0.1727  0.0537 -0.4450
 4225ntf    sn224484   2.129   3.183   0.264  0.2380 -0.1803  0.0308
 4225ntf    cn124485   2.134   3.190   0.446 -0.1795 -0.5121  0.0558
 4225ntf    fn424486   2.229   2.763   0.055  0.1639  0.3128 -0.1574
 4225ntf    fn424487   2.060   2.883   0.020  0.2949 -0.0400  0.3703
 4225ntf    fn424488   2.260   2.970   0.037  0.4424 -0.0644 -0.2684
 4225ntf    on524489   2.063   2.791   0.297  0.3533 -0.2027 -0.3308
 4225ntf    on524490   2.269   2.915   0.330  0.0222  0.2828  0.1736
 4225ntf    on524491   2.041   3.288   0.217  0.2469 -0.0202  0.3699
 4225ntf    on524492   2.267   3.192   0.225  0.3027 -0.3392  0.2234
 4225ntf    fn424493   2.152   3.309   0.499 -0.0874 -0.4387 -0.1379
 4225ntf    fn424494   2.022   3.138   0.494 -0.2451 -0.1399  0.3028
 4225ntf    fn424495   2.228   3.111   0.496  0.0362 -0.1383  0.2360
 4226ntf    cn124496   7.114   2.781   2.344 -0.2417 -0.1557 -0.2107
 4226ntf    sn224497   7.006   2.916   2.288 -0.1170 -0.0739 -0.2552
 4226ntf    nn324498   7.092   2.986   2.176 -0.3310  0.5768 -0.0156
 4226ntf    sn224499   7.199   3.101   2.190  0.2800 -0.0063  0.1198
 4226ntf    cn124500   7.099   3.225   2.102  0.0759 -0.3376 -0.1207
 4226ntf    fn424501   7.169   2.715   2.243  0.0503 -0.0747 -0.1050
 4226ntf    fn424502   7.214   2.829   2.417 -0.0257 -1.1253  0.1396
 4226ntf    fn424503   7.058   2.690   2.422 -0.1088 -0.2750 -0.2543
 4226ntf    on524504   6.896   2.844   2.229 -0.2861  0.3910 -0.5171
 4226ntf    on524505   6.973   2.991   2.407 -0.4585 -0.1236 -0.3159
 4226ntf    on524506   7.312   3.074   2.106  0.2043 -0.2657  0.0997
 4226ntf    on524507   7.227   3.142   2.325 -0.1944  0.0788  0.1971
 4226ntf    fn424508   7.074   3.188   1.977  0.2453 -0.0410 -0.2427
 4226ntf    fn424509   6.984   3.237   2.165  0.1635  0.5327 -0.1115
 4226ntf    fn424510   7.163   3.340   2.094  0.4464 -0.5108  0.3153
 4227ntf    cn124511   1.171   0.840   4.588  0.1595  0.1218 -0.2090
 4227ntf    sn224512   1.011   0.826   4.674  0.3202  0.1600  0.0986
 4227ntf    nn324513   0.914   0.856   4.554 -0.0803  0.1538  0.4196
 4227ntf    sn224514   0.853   0.991   4.502  0.0824  0.1769  0.2885
 4227ntf    cn124515   0.891   0.972   4.325 -0.2955  0.2040  0.2030
 4227ntf    fn424516   1.186   0.960   4.536 -0.3375  0.3909  0.2553
 4227ntf    fn424517   1.271   0.817   4.672  0.1569 -0.3022 -0.3206
 4227ntf    fn424518   1.182   0.751   4.491 -0.0100  0.3303 -0.4192
 4227ntf    on524519   1.014   0.692   4.729 -0.2567  0.3288  0.5526
 4227ntf    on524520   1.025   0.926   4.777  0.1434  0.2472  0.0374
 4227ntf    on524521   0.927   1.112   4.527 -0.2393  0.4061  0.1376
 4227ntf    on524522   0.709   0.987   4.510  0.0714 -0.5187 -0.1840
 4227ntf    fn424523   1.020   0.997   4.311 -0.3587  0.2943 -0.2207
 4227ntf    fn424524   0.858   0.857   4.268  0.3208  0.0032  0.2481
 4227ntf    fn424525   0.837   1.068   4.251 -0.3803  0.0724  0.0930
 4228ntf    cn124526   5.376   0.268   3.140 -0.1620 -0.2358  0.2495
 4228ntf    sn224527   5.324   0.442   3.132 -0.2119 -0.2561  0.1286
 4228ntf    nn324528   5.444   0.497   3.218 -0.2154 -0.1933  0.0940
 4228ntf    sn224529   5.449   0.612   3.324  0.0791  0.1332 -0.2710
 4228ntf    cn124530   5.417   0.528   3.482 -0.1133 -0.0876 -0.4263
 4228ntf    fn424531   5.373   0.223   3.265  0.3012 -0.0572  0.3262
 4228ntf    fn424532   5.301   0.191   3.063  0.0661  0.0571 -0.2719
 4228ntf    fn424533   5.501   0.253   3.100 -0.1984  0.0981  0.0111
 4228ntf    on524534   5.346   0.473   2.993  0.4116 -0.2576  0.2214
 4228ntf    on524535   5.190   0.443   3.185 -0.1715  0.0229  0.2272
 4228ntf    on524536   5.335   0.700   3.311  0.1469  0.1836 -0.5227
 4228ntf    on524537   5.576   0.673   3.353  0.3795 -0.5660 -0.1065
 4228ntf    fn424538   5.432   0.614   3.582 -0.3656 -0.2926 -0.2094
 4228ntf    fn424539   5.296   0.476   3.494 -0.4108  0.6746 -0.0558
 4228ntf    fn424540   5.507   0.434   3.504  0.4620  0.3974 -0.6770
 4229ntf    cn124541   1.830   5.346   0.712 -0.1153 -0.0109  0.0656
 4229ntf    sn224542   1.832   5.502   0.619 -0.3062 -0.0003  0.0784
 4229ntf    nn324543   1.679   5.524   0.592 -0.3296 -0.4928 -0.2119
 4229ntf    sn224544   1.613   5.666   0.572  0.2544 -0.1349  0.3644
 4229ntf    cn124545   1.437   5.624   0.564  0.1614  0.3055  0.1055
 4229ntf    fn424546   1.763   5.355   0.826  0.1673  0.1365  0.2207
 4229ntf    fn424547   1.772   5.245   0.649  0.5547 -0.1988 -0.2576
 4229ntf    fn424548   1.949   5.306   0.755 -0.0974 -0.0394 -0.0109
 4229ntf    on524549   1.897   5.591   0.712 -0.3295  0.0373  0.0585
 4229ntf    on524550   1.905   5.475   0.497 -0.2988  0.0627  0.0686
 4229ntf    on524551   1.641   5.730   0.447 -0.0930 -0.8019 -0.0623
 4229ntf    on524552   1.618   5.746   0.692  0.0173  0.8345 -0.2715
 4229ntf    fn424553   1.427   5.523   0.478  0.0737  0.3904  0.0153
 4229ntf    fn424554   1.387   5.577   0.677  0.0683 -0.0252 -0.0700
 4229ntf    fn424555   1.358   5.719   0.517  0.4138  0.3340 -0.2695
 4230ntf    cn124556   1.794   4.234   1.273  0.2946  0.2324 -0.2530
 4230ntf    sn224557   1.752   4.072   1.200 -0.0148  0.1401  0.1229
 4230ntf    nn324558   1.725   3.980   1.323 -0.0622 -0.6868 -0.4971
 4230ntf    sn224559   1.816   3.883   1.407  0.1167 -0.0271  0.0805
 4230ntf    cn124560   1.741   3.722   1.367  0.0702  0.0036  0.0441
 4230ntf    fn424561   1.693   4.295   1.333  0.3193  0.4156 -0.3989
 4230ntf    fn424562   1.887   4.231   1.367 -0.1690 -0.1340  0.1976
 4230ntf    fn424563   1.832   4.320   1.180  0.1053  0.2299 -0.3343
 4230ntf    on524564   1.627   4.094   1.132 -0.0421  0.0785  0.1535
 4230ntf    on524565   1.869   4.045   1.119  0.1143  0.0463  0.3426
 4230ntf    on524566   1.803   3.886   1.551  0.3770  0.0290  0.1035
 4230ntf    on524567   1.950   3.862   1.360  0.0820 -0.0670 -0.0011
 4230ntf    fn424568   1.622   3.702   1.421  0.0643  0.1220  0.0768
 4230ntf    fn424569   1.734   3.711   1.235 -0.3058  0.3250  0.0355
 4230ntf    fn424570   1.816   3.620   1.406 -0.0789  0.1455  0.7219
 4231ntf    cn124571   3.660   5.488   5.366 -0.2561  0.3290  0.2161
 4231ntf    sn224572   3.786   5.456   5.493 -0.0024 -0.2253 -0.1739
 4231ntf    nn324573   3.803   5.301   5.472  0.4039 -0.1568 -0.3668
 4231ntf    sn224574   3.841   5.198   5.583 -0.2194 -0.1181 -0.1125
 4231ntf    cn124575   3.958   5.090   5.494 -0.0595 -0.2037  0.1995
 4231ntf    fn424576   3.644   5.614   5.329 -0.1296  0.0355 -0.8713
 4231ntf    fn424577   3.679   5.424   5.252 -0.7740  0.1727  0.2140
 4231ntf    fn424578   3.543   5.441   5.409 -0.2433  0.3731  0.2991
 4231ntf    on524579   3.901   5.530   5.446 -0.1372  0.1186  0.0346
 4231ntf    on524580   3.736   5.494   5.622 -0.2813 -0.4913 -0.2042
 4231ntf    on524581   3.730   5.112   5.615 -0.1253 -0.2496 -0.1375
 4231ntf    on524582   3.919   5.242   5.696  0.6369 -0.5777 -0.5118
 4231ntf    fn424583   4.047   5.170   5.438  0.2663 -0.5169  0.2679
 4231ntf    fn424584   4.019   5.008   5.578  0.6579  0.2796  0.1589
 4231ntf    fn424585   3.911   5.016   5.396  0.3605  0.1050 -0.2366
 4232ntf    cn124586   6.480   6.621   1.647 -0.1420 -0.2233 -0.3226
 4232ntf    sn224587   6.610   6.524   1.728 -0.0351  0.1865 -0.0001
 4232ntf    nn324588   6.666   6.463   1.595  0.5239 -0.4272  0.5152
 4232ntf    sn224589   6.625   6.332   1.519 -0.1842 -0.0617  0.2716
 4232ntf    cn124590   6.758   6.225   1.580 -0.0819 -0.0236  0.1163
 4232ntf    fn424591   6.420   6.690   1.742  0.1446 -0.0678 -0.2529
 4232ntf    fn424592   6.542   6.706   1.566  0.4971 -0.0731  0.3114
 4232ntf    fn424593   6.383   6.553   1.587 -0.4455 -0.3512  0.3078
 4232ntf    on524594   6.707   6.619   1.777  0.2204 -0.1456  0.1409
 4232ntf    on524595   6.536   6.443   1.821 -0.3450 -0.3026 -0.6668
 4232ntf    on524596   6.664   6.353   1.382 -0.0219 -0.2345  0.2924
 4232ntf    on524597   6.500   6.268   1.554 -0.1327 -0.5147 -0.3557
 4232ntf    fn424598   6.876   6.242   1.521  0.0572 -0.0525  0.3846
 4232ntf    fn424599   6.781   6.235   1.710  0.4195 -0.6344  0.0773
 4232ntf    fn424600   6.729   6.097   1.562  0.2603 -0.0485 -0.2878
 4233ntf    cn124601   2.608   5.854   4.181 -0.1963  0.1751 -0.1594
 4233ntf    sn224602   2.588   6.001   4.075 -0.3671  0.3503  0.1143
 4233ntf    nn324603   2.447   6.033   4.135 -0.6494 -0.3537 -0.1558
 4233ntf    sn224604   2.398   6.156   4.220  0.1368 -0.0801 -0.0949
 4233ntf    cn124605   2.315   6.240   4.082 -0.1877 -0.0485  0.1167
 4233ntf    fn424606   2.516   5.763   4.156  0.1476 -0.1393 -0.2939
 4233ntf    fn424607   2.724   5.795   4.160 -0.1247  0.2552  0.0066
 4233ntf    fn424608   2.600   5.873   4.312  0.1421 -0.2538 -0.0726
 4233ntf    on524609   2.702   6.082   4.109  0.1616 -0.1526 -0.4452
 4233ntf    on524610   2.583   5.950   3.940 -0.6544 -0.7776  0.5374
 4233ntf    on524611   2.499   6.252   4.260 -0.0496  0.1461 -0.1663
 4233ntf    on524612   2.298   6.129   4.321 -0.0475  0.5764 -0.0954
 4233ntf    fn424613   2.282   6.365   4.109 -0.2033  0.0644 -0.4225
 4233ntf    fn424614   2.394   6.250   3.976  0.5917  0.0059  0.6944
 4233ntf    fn424615   2.208   6.179   4.034  0.1540 -0.5029 -0.0786
 4234ntf    cn124616   3.276   5.910   3.088 -0.3340 -0.1671  0.3619
 4234ntf    sn224617   3.356   5.758   3.148  0.0548 -0.0780  0.0736
 4234ntf    nn324618   3.270   5.660   3.062 -0.0425 -0.1448  0.2457
 4234ntf    sn224619   3.128   5.598   3.090 -0.1144 -0.0113  0.1796
 4234ntf    cn124620   3.175   5.427   3.131  0.2063  0.1405  0.4457
 4234ntf    fn424621   3.327   6.014   3.152  0.1503 -0.2849  0.1734
 4234ntf    fn424622   3.292   5.926   2.958  0.0438 -0.2974  0.3927
 4234ntf    fn424623   3.146   5.901   3.111 -0.4166  0.2368  0.0587
 4234ntf    on524624   3.494   5.763   3.106 -0.0574 -0.2362 -0.3093
 4234ntf    on524625   3.338   5.745   3.291  0.0084  0.1166  0.0851
 4234ntf    on524626   3.046   5.576   2.973  0.0899  0.2498 -0.0132
 4234ntf    on524627   3.061   5.648   3.207  0.3195  0.2295  0.3280
 4234ntf    fn424628   3.231   5.427   3.251  0.3512 -0.5740  0.3850
 4234ntf    fn424629   3.072   5.345   3.143  0.1886  0.1397  0.2876
 4234ntf    fn424630   3.266   5.369   3.055  0.2632  0.3221  0.3750
 4235ntf    cn124631   1.281   2.684   0.513  0.1809  0.1539  0.0731
 4235ntf    sn224632   1.321   2.860   0.535  0.1091  0.1841 -0.0335
 4235ntf    nn324633   1.193   2.917   0.605 -0.1681 -0.3408 -0.1100
 4235ntf    sn224634   1.179   3.054   0.680 -0.1203 -0.1384 -0.4695
 4235ntf    cn124635   1.171   2.993   0.851 -0.2953  0.2521 -0.3355
 4235ntf    fn424636   1.248   2.648   0.635  0.4921  0.7145  0.3293
 4235ntf    fn424637   1.184   2.663   0.425  0.1532  0.4892  0.0215
 4235ntf    fn424638   1.383   2.605   0.483 -0.4101 -0.6960  0.2650
 4235ntf    on524639   1.432   2.853   0.628 -0.0790 -0.1156  0.1683
 4235ntf    on524640   1.350   2.924   0.409 -0.1651  0.0589 -0.1595
 4235ntf    on524641   1.050   3.116   0.661 -0.0893  0.0868  0.0340
 4235ntf    on524642   1.295   3.139   0.683 -0.1119 -0.1723  0.3236
 4235ntf    fn424643   1.079   2.899   0.861 -0.1491  0.1697  0.3080
 4235ntf    fn424644   1.289   2.942   0.886 -0.3564  0.1030 -0.3461
 4235ntf    fn424645   1.142   3.083   0.943 -0.3081 -0.0234 -0.0694
 4236ntf    cn124646   4.530   3.276   5.794  0.2515  0.1301 -0.1416
 4236ntf    sn224647   4.475   3.449   5.808  0.1968  0.1364 -0.4270
 4236ntf    nn324648   4.356   3.444   5.706 -0.2582  0.1635  0.0969
 4236ntf    sn224649   4.274   3.557   5.635 -0.2797  0.1585  0.1136
 4236ntf    cn124650   4.351   3.559   5.470 -0.1824  0.0879  0.1586
 4236ntf    fn424651   4.571   3.255   5.671  0.3647 -0.1738 -0.0531
 4236ntf    fn424652   4.634   3.254   5.873  0.2485 -0.3498 -0.2686
 4236ntf    fn424653   4.435   3.187   5.821  0.2399  0.0856 -0.3293
 4236ntf    on524654   4.426   3.459   5.943 -0.2857  0.3970 -0.6200
 4236ntf    on524655   4.594   3.524   5.774  0.5034 -0.2887 -0.3056
 4236ntf    on524656   4.299   3.691   5.683  0.6206 -0.1682  0.5999
 4236ntf    on524657   4.138   3.516   5.611 -0.3012  0.0644  0.3895
 4236ntf    fn424658   4.326   3.446   5.405  0.3656  0.4076 -0.6227
 4236ntf    fn424659   4.309   3.661   5.398 -0.4612 -0.3670 -0.3320
 4236ntf    fn424660   4.483   3.571   5.469 -0.1844  0.1458  0.4846
 4237ntf    cn124661   3.979   1.289   5.576  0.1468 -0.1128  0.1644
 4237ntf    sn224662   3.972   1.107   5.582 -0.0803 -0.1170 -0.1799
 4237ntf    nn324663   3.906   1.086   5.722  0.1923 -0.3231 -0.0820
 4237ntf    sn224664   3.968   1.016   5.849  0.0550  0.0823  0.2108
 4237ntf    cn124665   4.074   1.155   5.898 -0.1404  0.1652  0.3986
 4237ntf    fn424666   4.065   1.317   5.480 -0.0585 -0.1053 -0.0191
 4237ntf    fn424667   3.869   1.349   5.532  0.3937  0.4098  0.2541
 4237ntf    fn424668   4.019   1.341   5.690  0.0321  0.2283  0.0501
 4237ntf    on524669   3.888   1.068   5.471 -0.5548  0.0349  0.1249
 4237ntf    on524670   4.111   1.067   5.589 -0.0443  0.0930  0.3906
 4237ntf    on524671   4.047   0.896   5.842  0.3095  0.2411  0.3308
 4237ntf    on524672   3.869   1.014   5.954  0.1270  0.2398  0.2814
 4237ntf    fn424673   4.160   1.127   5.995  0.3789  0.5028  0.0381
 4237ntf    fn424674   4.146   1.205   5.799 -0.2917 -0.0470  0.1799
 4237ntf    fn424675   3.996   1.255   5.937 -0.6022 -0.0172 -0.0508
 4238ntf    cn124676   5.767   2.061   6.000  0.2916 -0.2110  0.2546
 4238ntf    sn224677   5.939   2.093   5.952  0.1516  0.2441  0.0431
 4238ntf    nn324678   5.940   2.246   5.987 -0.4432  0.3049 -0.2029
 4238ntf    sn224679   5.993   2.315   6.117 -0.0840 -0.1872 -0.0819
 4238ntf    cn124680   6.163   2.357   6.067 -0.0732 -0.0748  0.0463
 4238ntf    fn424681   5.741   1.934   5.973 -0.0006 -0.0504 -0.2395
 4238ntf    fn424682   5.733   2.092   6.124  0.3113 -0.2926  0.2801
 4238ntf    fn424683   5.682   2.132   5.927  0.4268 -0.0362  0.2677
 4238ntf    on524684   6.021   2.013   6.040 -0.0396  0.1690  0.1513
 4238ntf    on524685   5.943   2.066   5.811 -0.3339 -0.1186  0.0937
 4238ntf    on524686   6.020   2.234   6.233 -1.0090 -0.1078  0.1994
 4238ntf    on524687   5.937   2.447   6.139  0.5090  0.0105  0.2682
 4238ntf    fn424688   6.241   2.410   6.159 -0.2269  0.0520  0.1054
 4238ntf    fn424689   6.224   2.248   6.022  0.0792  0.1160 -0.2111
 4238ntf    fn424690   6.167   2.446   5.969 -0.1335 -0.0161  0.0971
 4239ntf    cn124691   3.898   4.692   3.707 -0.4029 -0.3938  0.3740
 4239ntf    sn224692   3.775   4.755   3.589  0.1617  0.1801  0.0882
 4239ntf    nn324693   3.847   4.719   3.454  0.2643 -0.6779  0.3658
 4239ntf    sn224694   3.790   4.623   3.343 -0.1894 -0.1934  0.1744
 4239ntf    cn124695   3.828   4.722   3.196 -0.1437  0.1916  0.4436
 4239ntf    fn424696   3.940   4.570   3.679 -0.5311 -0.4672  0.5000
 4239ntf    fn424697   3.992   4.781   3.732 -0.2092 -0.3201 -0.5974
 4239ntf    fn424698   3.837   4.683   3.825  0.5861  0.2244  0.9493
 4239ntf    on524699   3.652   4.686   3.621  0.0663  0.2062 -0.2196
 4239ntf    on524700   3.770   4.897   3.611  0.1411  0.2117 -0.1229
 4239ntf    on524701   3.649   4.595   3.337 -0.2686  0.1316  0.5164
 4239ntf    on524702   3.879   4.511   3.321 -0.6251 -0.5535  0.2217
 4239ntf    fn424703   3.854   4.643   3.093  0.0795  0.1172  0.5579
 4239ntf    fn424704   3.720   4.793   3.165 -0.2345 -0.0632  0.1690
 4239ntf    fn424705   3.928   4.805   3.217  0.3993 -0.2939 -0.1762
 4240ntf    cn124706   1.409   1.352   3.311 -0.2980  0.1394  0.1077
 4240ntf    sn224707   1.522   1.237   3.394 -0.0097  0.3291 -0.0210
 4240ntf    nn324708   1.534   1.297   3.539  0.1712  0.3072 -0.0269
 4240ntf    sn224709   1.576   1.220   3.669 -0.1784  0.2419  0.0462
 4240ntf    cn124710   1.418   1.232   3.758 -0.1667 -0.1527  0.1218
 4240ntf    fn424711   1.285   1.329   3.351  0.0588 -0.6007  0.7963
 4240ntf    fn424712   1.441   1.474   3.350  0.6105  0.0807 -0.4178
 4240ntf    fn424713   1.427   1.355   3.180 -0.4073 -0.3623  0.0801
 4240ntf    on524714   1.444   1.117   3.380  0.7673 -0.2014  0.1532
 4240ntf    on524715   1.648   1.236   3.323 -0.1045 -0.8828 -0.1897
 4240ntf    on524716   1.667   1.291   3.755  0.1945 -0.5498  0.3144
 4240ntf    on524717   1.596   1.077   3.662  0.0990  0.2826  0.0042
 4240ntf    fn424718   1.311   1.196   3.689  0.0353 -0.0693 -0.2379
 4240ntf    fn424719   1.422   1.170   3.875  0.3334 -0.1099  0.1298
 4240ntf    fn424720   1.394   1.359   3.786  0.0856 -0.0847  0.0285
 4241ntf    cn124721   0.214   4.599   0.204  0.2142 -0.2882 -0.1955
 4241ntf    sn224722   0.091   4.528   0.317  0.2520 -0.0642 -0.0137
 4241ntf    nn324723  -0.032   4.619   0.278  0.1258 -0.0904  0.3194
 4241ntf    sn224724  -0.182   4.575   0.273  0.1775 -0.2267 -0.0513
 4241ntf    cn124725  -0.260   4.685   0.395 -0.2692 -0.0983 -0.4507
 4241ntf    fn424726   0.213   4.731   0.199  0.0957 -0.2835 -0.0328
 4241ntf    fn424727   0.336   4.574   0.248  0.1902  0.4393  0.3089
 4241ntf    fn424728   0.202   4.560   0.078  0.0341 -0.0680 -0.2467
 4241ntf    on524729   0.081   4.392   0.271  0.3490 -0.0738 -0.0052
 4241ntf    on524730   0.132   4.555   0.452  0.6039 -0.1929 -0.0952
 4241ntf    on524731  -0.213   4.446   0.330 -0.1535 -0.1213  0.0101
 4241ntf    on524732  -0.246   4.610   0.149  0.1746 -0.2109 -0.0454
 4241ntf    fn424733  -0.227   4.810   0.367 -0.5872  0.1353  0.1958
 4241ntf    fn424734  -0.392   4.675   0.388 -0.2929  0.2237 -0.4831
 4241ntf    fn424735  -0.213   4.666   0.517 -0.2220 -0.1274 -0.4733
 4242ntf    cn124736   5.407   5.934   2.394 -0.0795 -0.0616  0.0631
 4242ntf    sn224737   5.278   5.935   2.265  0.0192 -0.2660 -0.0375
 4242ntf    nn324738   5.159   5.866   2.340 -0.3056 -0.1612 -0.4541
 4242ntf    sn224739   5.106   5.719   2.347  0.1449 -0.3106 -0.0829
 4242ntf    cn124740   4.998   5.711   2.493  0.1539  0.1048 -0.0537
 4242ntf    fn424741   5.366   5.995   2.504  0.1426  0.4304 -0.1279
 4242ntf    fn424742   5.433   5.812   2.438  0.1714 -0.0210  0.0244
 4242ntf    fn424743   5.518   5.993   2.354 -0.2225  0.1715  0.0058
 4242ntf    on524744   5.253   6.074   2.239  0.0978 -0.4219 -0.9878
 4242ntf    on524745   5.334   5.852   2.161  0.7157  0.4257 -0.2265
 4242ntf    on524746   5.212   5.623   2.365  0.4307  0.0612  0.2271
 4242ntf    on524747   5.012   5.695   2.240 -0.6423 -0.5712  0.6532
 4242ntf    fn424748   5.058   5.741   2.608 -0.0615 -0.4321  0.2015
 4242ntf    fn424749   4.900   5.797   2.473  0.0919  0.0226 -0.1056
 4242ntf    fn424750   4.942   5.592   2.507  0.1133  0.1590  0.2561
 4243ntf    cn124751   4.971   6.493   5.416  0.1006 -0.3670 -0.2267
 4243ntf    sn224752   5.040   6.595   5.283  0.1903 -0.3395 -0.1598
 4243ntf    nn324753   5.030   6.490   5.166 -0.2344 -0.2119 -0.2363
 4243ntf    sn224754   5.146   6.412   5.096  0.1524  0.0480  0.1126
 4243ntf    cn124755   5.091   6.247   5.149  0.6084 -0.1066  0.1064
 4243ntf    fn424756   4.841   6.509   5.430  0.1431 -0.4543  0.3006
 4243ntf    fn424757   4.983   6.365   5.382 -0.0913 -0.3830 -0.2351
 4243ntf    fn424758   5.020   6.503   5.539 -0.0694  0.4446 -0.2207
 4243ntf    on524759   4.949   6.706   5.272  0.5399 -0.0551 -0.2112
 4243ntf    on524760   5.175   6.627   5.325  0.2117 -0.4487 -0.1449
 4243ntf    on524761   5.280   6.428   5.147  0.2543  0.1612 -0.1905
 4243ntf    on524762   5.132   6.401   4.953  0.0432  0.0567  0.1230
 4243ntf    fn424763   5.115   6.155   5.057 -0.2605 -0.1450 -0.0862
 4243ntf    fn424764   5.155   6.212   5.260  0.2138  0.4782  0.5257
 4243ntf    fn424765   4.964   6.237   5.183  0.5705 -0.0818 -0.0304
 4244ntf    cn124766   5.508   1.335   4.582 -0.1426  0.1883  0.0714
 4244ntf    sn224767   5.553   1.482   4.678 -0.0471  0.2192 -0.0197
 4244ntf    nn324768   5.419   1.562   4.692  0.3077  0.7528  0.3810
 4244ntf    sn224769   5.319   1.572   4.813 -0.0190  0.3693  0.1437
 4244ntf    cn124770   5.187   1.460   4.754  0.2195  0.0251  0.2599
 4244ntf    fn424771   5.608   1.257   4.543  0.2524  0.3638  0.7203
 4244ntf    fn424772   5.423   1.254   4.643  0.1489 -0.3026 -0.1600
 4244ntf    fn424773   5.440   1.380   4.478  0.0442  0.5371  0.1003
 4244ntf    on524774   5.606   1.426   4.800 -0.2644  0.3764  0.1468
 4244ntf    on524775   5.647   1.538   4.585 -0.3341  0.0344 -0.4245
 4244ntf    on524776   5.251   1.699   4.809 -0.4496  0.1575  0.6309
 4244ntf    on524777   5.361   1.521   4.941 -0.1066 -0.3249 -0.0971
 4244ntf    fn424778   5.210   1.330   4.751  0.5636  0.0730  0.6642
 4244ntf    fn424779   5.081   1.462   4.833 -0.1879  0.2971 -0.2869
 4244ntf    fn424780   5.140   1.495   4.635  0.3944  0.2954  0.2664
 4245ntf    cn124781   3.690   4.927   2.883 -0.1282  0.0896 -0.0280
 4245ntf    sn224782   3.585   5.075   2.888 -0.2728 -0.0061 -0.2260
 4245ntf    nn324783   3.516   5.046   3.026 -0.4149  0.2809 -0.2361
 4245ntf    sn224784   3.397   4.947   3.053 -0.1498  0.0348  0.0269
 4245ntf    cn124785   3.252   5.056   3.044  0.0058  0.2348 -0.0636
 4245ntf    fn424786   3.627   4.812   2.900 -0.0203  0.0063 -0.1845
 4245ntf    fn424787   3.744   4.917   2.762  0.0110 -0.1901  0.0580
 4245ntf    fn424788   3.790   4.926   2.970  0.0239 -0.8453 -0.2112
 4245ntf    on524789   3.688   5.175   2.900 -0.6516  0.2976  0.5919
 4245ntf    on524790   3.509   5.073   2.765 -0.5173 -0.3366 -0.0697
 4245ntf    on524791   3.397   4.900   3.189  0.0460 -0.0186  0.0093
 4245ntf    on524792   3.385   4.842   2.955 -0.3129 -0.1525  0.2481
 4245ntf    fn424793   3.243   5.129   2.934 -0.1325  0.1336 -0.1191
 4245ntf    fn424794   3.139   4.990   3.061 -0.0463  0.2477 -0.3596
 4245ntf    fn424795   3.260   5.142   3.145  0.2811  0.0713  0.0576
 4246ntf    cn124796   0.297   1.158   0.386  0.3360  0.2920  0.1094
 4246ntf    sn224797   0.471   1.121   0.426  0.1860 -0.0732  0.4264
 4246ntf    nn324798   0.540   1.167   0.293  0.1630  0.1622  0.4962
 4246ntf    sn224799   0.655   1.270   0.261  0.2509 -0.0920 -0.0144
 4246ntf    cn124800   0.614   1.323   0.092 -0.0402 -0.1232  0.0460
 4246ntf    fn424801   0.212   1.123   0.481  0.1742 -0.3528 -0.2640
 4246ntf    fn424802   0.284   1.289   0.378  0.3248  0.2452 -0.7926
 4246ntf    fn424803   0.265   1.103   0.269  1.1412 -0.1726  0.0972
 4246ntf    on524804   0.499   1.200   0.544  0.4701  0.4651  0.0025
 4246ntf    on524805   0.472   0.978   0.444 -0.3132 -0.1879 -0.3964
 4246ntf    on524806   0.783   1.205   0.263  0.4053  0.2231  0.5451
 4246ntf    on524807   0.647   1.393   0.336  0.0109  0.0969 -0.3469
 4246ntf    fn424808   0.639   1.231   0.001 -0.2109  0.6838 -0.8369
 4246ntf    fn424809   0.483   1.341   0.080  0.0709  0.5703 -0.1670
 4246ntf    fn424810   0.675   1.435   0.056  0.1730 -0.3225 -0.2176
 4247ntf    cn124811   5.738   1.643   2.562  0.0686 -0.3128 -0.3096
 4247ntf    sn224812   5.565   1.595   2.534 -0.1404  0.2109  0.0688
 4247ntf    nn324813   5.547   1.646   2.386  0.8903  0.1119 -0.0959
 4247ntf    sn224814   5.573   1.567   2.252 -0.1258  0.1421 -0.3162
 4247ntf    cn124815   5.669   1.689   2.158  0.2601  0.2141  0.1647
 4247ntf    fn424816   5.793   1.599   2.673 -0.3607 -0.3501 -0.1110
 4247ntf    fn424817   5.827   1.604   2.472  0.8764  0.2898  0.2151
 4247ntf    fn424818   5.748   1.775   2.567 -0.9230 -0.2427  0.0159
 4247ntf    on524819   5.555   1.454   2.561 -0.4262  0.0054 -1.0568
 4247ntf    on524820   5.495   1.685   2.622 -0.4669  0.1819 -0.1599
 4247ntf    on524821   5.455   1.542   2.174 -0.3341 -0.6821  0.2461
 4247ntf    on524822   5.663   1.455   2.265  0.0116  0.2425 -0.4059
 4247ntf    fn424823   5.750   1.754   2.240  0.1063 -0.0518  0.5312
 4247ntf    fn424824   5.752   1.649   2.063 -0.0316  0.2819 -0.1195
 4247ntf    fn424825   5.587   1.778   2.105 -0.3962 -0.3252  0.2600
 4248ntf    cn124826   3.741   1.872   4.934 -0.1194 -0.5739 -0.0905
 4248ntf    sn224827   3.922   1.889   4.925 -0.1543 -0.1532 -0.0331
 4248ntf    nn324828   3.960   1.925   5.073 -0.4700  0.4951 -0.1069
 4248ntf    sn224829   4.003   2.066   5.129 -0.2619  0.3765  0.0323
 4248ntf    cn124830   3.935   2.067   5.297  0.3349  0.1100  0.2780
 4248ntf    fn424831   3.687   1.848   4.816 -0.3105 -0.0576 -0.1135
 4248ntf    fn424832   3.712   1.779   5.024  0.3069 -0.5152  0.1104
 4248ntf    fn424833   3.679   1.984   4.969  0.1964 -0.3627 -0.2023
 4248ntf    on524834   3.973   1.759   4.889 -0.4811 -0.3716  0.2733
 4248ntf    on524835   3.942   2.000   4.835 -0.4268 -0.2133 -0.1697
 4248ntf    on524836   3.931   2.180   5.078 -0.6571  0.2780  0.3692
 4248ntf    on524837   4.144   2.086   5.151 -0.2338  0.3816 -0.1474
 4248ntf    fn424838   3.959   2.180   5.362  0.3617  0.1679  0.1676
 4248ntf    fn424839   3.804   2.065   5.284  0.3534 -0.0299  0.1123
 4248ntf    fn424840   3.973   1.965   5.372 -0.3876  0.0634  0.5897
 4249ntf    cn124841   3.836   3.767   0.931 -0.1097 -0.1282  0.1117
 4249ntf    sn224842   3.705   3.766   1.057 -0.2054 -0.1073  0.0117
 4249ntf    nn324843   3.760   3.888   1.140  0.3352 -0.2626 -0.1146
 4249ntf    sn224844   3.854   3.884   1.265 -0.0897 -0.0618  0.2138
 4249ntf    cn124845   3.732   3.868   1.399 -0.4066  0.0730 -0.0562
 4249ntf    fn424846   3.951   3.729   0.986 -0.5129  0.0535  1.1088
 4249ntf    fn424847   3.815   3.681   0.832 -0.0232  0.4744 -0.4350
 4249ntf    fn424848   3.865   3.885   0.880 -0.0393 -0.1876  0.0135
 4249ntf    on524849   3.591   3.798   0.975  0.1974  0.4977 -0.3253
 4249ntf    on524850   3.715   3.638   1.121 -0.7222 -0.3749 -0.4316
 4249ntf    on524851   3.920   4.009   1.290 -0.4223  0.2843 -0.6050
 4249ntf    on524852   3.944   3.772   1.276 -0.1543 -0.1674 -0.3205
 4249ntf    fn424853   3.665   3.755   1.401 -0.0583 -0.1310  0.5738
 4249ntf    fn424854   3.797   3.870   1.515  0.0868 -0.5116 -0.3173
 4249ntf    fn424855   3.656   3.976   1.395 -0.0806  0.3268  0.3601
 4250ntf    cn124856   4.502   2.261   0.757  0.0091 -0.2172 -0.0662
 4250ntf    sn224857   4.378   2.199   0.874  0.1466  0.0522  0.2233
 4250ntf    nn324858   4.351   2.057   0.812  0.9147  0.1207 -0.2847
 4250ntf    sn224859   4.360   1.916   0.880 -0.2319  0.2698  0.2118
 4250ntf    cn124860   4.210   1.851   0.800 -0.0057 -0.2302  0.1924
 4250ntf    fn424861   4.623   2.212   0.782 -0.0285 -0.3300 -0.1035
 4250ntf    fn424862   4.472   2.236   0.630 -0.4254  0.2479 -0.0586
 4250ntf    fn424863   4.520   2.391   0.771 -0.2470 -0.2761  0.8411
 4250ntf    on524864   4.447   2.202   1.000  0.6610 -0.1051 -0.0531
 4250ntf    on524865   4.271   2.294   0.853  0.4180  0.3240  0.0485
 4250ntf    on524866   4.336   1.905   1.021 -0.0541  0.4045  0.2528
 4250ntf    on524867   4.467   1.833   0.830  0.1826  0.7888  0.2285
 4250ntf    fn424868   4.231   1.823   0.672  0.2745  0.0545  0.1751
 4250ntf    fn424869   4.168   1.736   0.850  0.2884 -0.2572  0.3797
 4250ntf    fn424870   4.109   1.936   0.807  0.3536  0.2185 -0.0211
 4251ntf    cn124871   2.909   0.672   5.508 -0.2809 -0.1332 -0.1762
 4251ntf    sn224872   2.752   0.753   5.469 -0.1380  0.0373 -0.4015
 4251ntf    nn324873   2.686   0.768   5.611  0.2057 -0.3099 -0.2066
 4251ntf    sn224874   2.621   0.898   5.669  0.1896 -0.1762 -0.5231
 4251ntf    cn124875   2.446   0.876   5.625 -0.0636 -0.4447  0.5838
 4251ntf    fn424876   2.998   0.675   5.409 -0.0552  0.1215  0.0348
 4251ntf    fn424877   2.971   0.732   5.608  0.1972 -0.3921 -0.3124
 4251ntf    fn424878   2.892   0.547   5.549 -0.4394 -0.0128  0.1249
 4251ntf    on524879   2.789   0.877   5.405  0.2245 -0.0821 -0.4257
 4251ntf    on524880   2.684   0.655   5.388 -0.3193 -0.2586  0.1044
 4251ntf    on524881   2.660   1.029   5.622  0.3746 -0.1584 -0.3260
 4251ntf    on524882   2.617   0.884   5.812 -0.1802  0.0936 -0.5081
 4251ntf    fn424883   2.377   0.978   5.670 -0.1662 -0.1635 -0.1892
 4251ntf    fn424884   2.428   0.864   5.494  0.7961 -0.2556  0.4407
 4251ntf    fn424885   2.399   0.765   5.679 -1.0543 -0.2955  0.0451
 4252ntf    cn124886   1.911   3.751   7.159  0.0277 -0.3396 -0.3832
 4252ntf    sn224887   1.754   3.841   7.171 -0.0061 -0.4584  0.0783
 4252ntf    nn324888   1.664   3.726   7.112 -0.1202 -0.2395 -0.1735
 4252ntf    sn224889   1.613   3.712   6.964  0.1781 -0.2221 -0.2797
 4252ntf    cn124890   1.446   3.784   6.970  0.0529 -0.5336  0.0394
 4252ntf    fn424891   1.906   3.663   7.258 -0.9777  0.0538 -0.0746
 4252ntf    fn424892   1.926   3.685   7.045 -0.0568 -0.4731 -0.3181
 4252ntf    fn424893   2.022   3.820   7.181 -0.2394 -0.1242  0.3189
 4252ntf    on524894   1.735   3.859   7.313 -0.1222 -0.4278  0.0593
 4252ntf    on524895   1.769   3.957   7.087 -0.1177 -0.2158  0.3869
 4252ntf    on524896   1.576   3.576   6.933  0.3144 -0.3776  0.2358
 4252ntf    on524897   1.685   3.780   6.859 -0.1652  0.2197 -0.2309
 4252ntf    fn424898   1.453   3.910   7.010 -0.2181 -0.3791 -0.3914
 4252ntf    fn424899   1.383   3.787   6.854 -0.0463  0.1736  0.1052
 4252ntf    fn424900   1.369   3.720   7.056 -0.2739 -0.3048 -0.0796
 4253ntf    cn124901   0.541   5.209   0.629 -0.5169  0.0731  0.5028
 4253ntf    sn224902   0.447   5.360   0.666 -0.3238  0.2600  0.2346
 4253ntf    nn324903   0.357   5.307   0.783 -0.3158 -0.1091  0.0744
 4253ntf    sn224904   0.371   5.317   0.939  0.2157 -0.0478  0.0258
 4253ntf    cn124905   0.365   5.138   0.972  0.5673 -0.1094 -0.2462
 4253ntf    fn424906   0.465   5.101   0.625 -0.0610 -0.2375  0.1098
 4253ntf    fn424907   0.594   5.220   0.508 -0.7604  0.3376  0.4202
 4253ntf    fn424908   0.639   5.184   0.715 -0.0730 -0.3369 -0.1056
 4253ntf    on524909   0.556   5.448   0.703  0.1701 -0.1124 -0.3176
 4253ntf    on524910   0.366   5.385   0.550 -0.5384  0.2264  0.3760
 4253ntf    on524911   0.251   5.366   1.003  0.2562 -0.4441  0.4143
 4253ntf    on524912   0.491   5.380   0.988  0.2816 -0.3498  0.2588
 4253ntf    fn424913   0.261   5.076   0.918  0.0302  0.7481 -0.2086
 4253ntf    fn424914   0.465   5.068   0.920  0.4658 -0.2709 -0.2245
 4253ntf    fn424915   0.365   5.110   1.101  0.3807  0.3452 -0.1469
 4254ntf    cn124916   6.291   3.428   5.991  0.1664 -0.0810  0.0349
 4254ntf    sn224917   6.245   3.573   6.091 -0.1957 -0.3650  0.2822
 4254ntf    nn324918   6.320   3.691   6.021 -0.0971  0.1136  1.1832
 4254ntf    sn224919   6.462   3.754   6.048  0.0718  0.1664  0.1827
 4254ntf    cn124920   6.524   3.774   5.878  0.0212 -0.0837  0.1340
 4254ntf    fn424921   6.252   3.318   6.053 -0.0771 -0.0152 -0.0002
 4254ntf    fn424922   6.234   3.427   5.872 -0.3595  0.0370  0.2817
 4254ntf    fn424923   6.422   3.419   5.980  0.1151 -0.4101 -0.2813
 4254ntf    on524924   6.104   3.581   6.059 -0.2366 -0.8261  0.3394
 4254ntf    on524925   6.285   3.541   6.226 -0.0590  0.8290  0.5320
 4254ntf    on524926   6.559   3.668   6.112  0.5644  0.2584 -0.4269
 4254ntf    on524927   6.449   3.889   6.096 -0.5968  0.0158  0.4282
 4254ntf    fn424928   6.563   3.662   5.820  0.0533  0.0304 -0.0668
 4254ntf    fn424929   6.434   3.830   5.799  0.3410  0.2714  0.0195
 4254ntf    fn424930   6.625   3.858   5.883 -0.4523  0.4743  0.4565
 4255ntf    cn124931   6.858   6.800   5.741  0.2041 -0.2581 -0.0723
 4255ntf    sn224932   6.777   6.639   5.724 -0.2421 -0.0594  0.1477
 4255ntf    nn324933   6.651   6.677   5.638 -0.2492 -0.4916 -0.0373
 4255ntf    sn224934   6.498   6.695   5.671 -0.1680  0.2508 -0.0682
 4255ntf    cn124935   6.452   6.768   5.510  0.5287  0.0694 -0.3539
 4255ntf    fn424936   6.843   6.882   5.638  0.1035 -0.4333 -0.1987
 4255ntf    fn424937   6.800   6.867   5.839  0.5789 -0.4968  0.3115
 4255ntf    fn424938   6.989   6.797   5.762  0.1521  0.2718  0.3686
 4255ntf    on524939   6.877   6.551   5.669 -0.4790 -0.0179 -0.3581
 4255ntf    on524940   6.737   6.612   5.859 -0.0483 -0.5276  0.1152
 4255ntf    on524941   6.474   6.797   5.770  0.7829 -0.0770  0.5174
 4255ntf    on524942   6.425   6.572   5.681 -0.5217  0.4618 -0.0261
 4255ntf    fn424943   6.515   6.883   5.494 -0.1043  0.4977  0.1605
 4255ntf    fn424944   6.487   6.689   5.410  0.1964 -0.2992 -0.1790
 4255ntf    fn424945   6.321   6.778   5.495  0.4541  0.0367  0.2279
 4256ntf    cn124946   1.972   0.455   5.410 -0.2701 -0.1579  0.3984
 4256ntf    sn224947   1.944   0.280   5.368  0.0189 -0.0814 -0.1221
 4256ntf    nn324948   1.919   0.220   5.511 -0.0256  0.1030 -0.0521
 4256ntf    sn224949   1.855   0.082   5.550  0.3409 -0.0739 -0.0740
 4256ntf    cn124950   1.685   0.133   5.591  0.3945  0.0828 -0.0462
 4256ntf    fn424951   2.073   0.473   5.493 -0.1959  0.1202  0.2470
 4256ntf    fn424952   1.989   0.527   5.301 -0.1649 -0.5890  0.1259
 4256ntf    fn424953   1.868   0.512   5.468 -0.2067  0.2290  0.1366
 4256ntf    on524954   1.821   0.290   5.294 -0.7396 -0.6958  1.0177
 4256ntf    on524955   2.066   0.233   5.307 -0.1497 -0.1803 -0.3879
 4256ntf    on524956   1.907   0.028   5.674 -0.3052 -0.3466  0.0817
 4256ntf    on524957   1.835  -0.014   5.445  0.2715  0.2490 -0.3556
 4256ntf    fn424958   1.618   0.036   5.650  0.2060  0.2106 -0.0530
 4256ntf    fn424959   1.681   0.231   5.680 -0.1102 -0.2131  0.2599
 4256ntf    fn424960   1.629   0.183   5.482  0.3671 -0.4551 -0.2840
 4257ntf    cn124961   0.105   1.040   6.899 -0.4929  0.3353 -0.3070
 4257ntf    sn224962  -0.062   1.108   6.924 -0.6514 -0.0504 -0.3073
 4257ntf    nn324963  -0.120   1.023   7.042  0.2491 -0.0392  0.1553
 4257ntf    sn224964  -0.255   1.050   7.119 -0.0456 -0.2987 -0.2633
 4257ntf    cn124965  -0.333   0.887   7.095 -0.2831 -0.1663 -0.3896
 4257ntf    fn424966   0.169   1.082   6.791  0.1486 -0.0385 -0.0741
 4257ntf    fn424967   0.185   1.070   6.999 -0.1003  0.0155 -0.5252
 4257ntf    fn424968   0.099   0.908   6.896 -0.1048  0.3155 -0.1841
 4257ntf    on524969  -0.032   1.244   6.962 -0.3229 -0.2749  0.2520
 4257ntf    on524970  -0.124   1.072   6.799  0.0055  0.5863 -0.8222
 4257ntf    on524971  -0.336   1.150   7.054 -0.0911 -0.1185  0.0717
 4257ntf    on524972  -0.237   1.065   7.261  0.1670  0.5344 -0.3759
 4257ntf    fn424973  -0.458   0.883   7.138 -0.3548 -0.0169 -0.5786
 4257ntf    fn424974  -0.326   0.846   6.969  0.8318 -0.0550 -0.3758
 4257ntf    fn424975  -0.266   0.797   7.165 -0.0766  0.6124  0.4459
 4258ntf    cn124976   2.443   6.455   2.391 -0.1419  0.2529  0.0345
 4258ntf    sn224977   2.282   6.489   2.313 -0.0621  0.2971 -0.1110
 4258ntf    nn324978   2.334   6.534   2.172 -0.1009 -0.1224 -0.2605
 4258ntf    sn224979   2.241   6.560   2.048 -0.3185 -0.0865 -0.0907
 4258ntf    cn124980   2.261   6.739   2.021  0.0894 -0.0402  0.5070
 4258ntf    fn424981   2.429   6.365   2.487  0.3960  0.0776 -0.0489
 4258ntf    fn424982   2.528   6.401   2.306 -0.1483  0.1138  0.1163
 4258ntf    fn424983   2.509   6.557   2.442  0.2022 -0.0410  0.1795
 4258ntf    on524984   2.218   6.360   2.310  0.6738 -0.0757 -0.0330
 4258ntf    on524985   2.226   6.600   2.385 -0.6369 -0.0294 -0.0476
 4258ntf    on524986   2.099   6.554   2.071 -0.2301 -0.6757  0.3353
 4258ntf    on524987   2.297   6.500   1.930 -0.1593  0.4802 -0.3083
 4258ntf    fn424988   2.168   6.780   1.937  0.0188 -0.0898  0.5614
 4258ntf    fn424989   2.240   6.804   2.134  0.3812  0.4230  0.2943
 4258ntf    fn424990   2.377   6.769   1.966 -0.3074  0.2456 -0.1791
 4259ntf    cn124991   2.617   2.064   0.754 -0.2010 -0.0820  0.0606
 4259ntf    sn224992   2.541   2.219   0.697  0.0073 -0.0343 -0.0906
 4259ntf    nn324993   2.656   2.316   0.742  0.1025 -0.4073  0.4732
 4259ntf    sn224994   2.652   2.463   0.797  0.1434 -0.1059 -0.3250
 4259ntf    cn124995   2.729   2.555   0.660  0.0824 -0.2988 -0.4894
 4259ntf    fn424996   2.636   2.064   0.885  0.1978 -0.0333  0.0035
 4259ntf    fn424997   2.542   1.959   0.726  0.0473 -0.2538  0.0410
 4259ntf    fn424998   2.733   2.041   0.695 -0.3913 -0.1089 -0.3068
 4259ntf    on524999   2.544   2.211   0.553 -0.5119 -0.3026 -0.0867
 4259ntf    on525000   2.411   2.219   0.760 -0.0215 -0.1951 -0.1503
 4259ntf    on525001   2.750   2.478   0.901  0.3074  0.1117 -0.5088
 4259ntf    on525002   2.521   2.523   0.809  0.2543  0.0699  0.0013
 4259ntf    fn425003   2.665   2.525   0.548 -0.2352 -0.0787 -0.3697
 4259ntf    fn425004   2.720   2.686   0.677 -0.2396 -0.4012  0.1804
 4259ntf    fn425005   2.858   2.530   0.644  0.2818  0.7194 -0.5307
 4260ntf    cn125006   2.163   3.150   2.634  0.1352 -0.1482  0.2500
 4260ntf    sn225007   2.135   3.225   2.797  0.0327 -0.0448  0.1856
 4260ntf    nn325008   2.016   3.323   2.769  0.0427  0.1388  0.7608
 4260ntf    sn225009   1.862   3.313   2.794 -0.0560  0.1799  0.1978
 4260ntf    cn125010   1.853   3.399   2.954 -0.0137  0.2251  0.1756
 4260ntf    fn425011   2.184   3.244   2.542 -0.5202  0.1474  0.3948
 4260ntf    fn425012   2.269   3.071   2.634 -0.0551 -0.4050 -0.2151
 4260ntf    fn425013   2.055   3.084   2.596 -0.0458  0.0238  0.4664
 4260ntf    on525014   2.104   3.112   2.882  0.1594 -0.2685 -0.0653
 4260ntf    on525015   2.258   3.294   2.824 -0.0305  0.0559  0.2149
 4260ntf    on525016   1.811   3.179   2.813  0.1836  0.0515 -0.0542
 4260ntf    on525017   1.791   3.403   2.707  0.7052  0.4187 -0.1772
 4260ntf    fn425018   1.732   3.408   3.006  0.0123  0.1014  0.2555
 4260ntf    fn425019   1.928   3.331   3.039 -0.4350 -0.5730 -0.0835
 4260ntf    fn425020   1.901   3.522   2.943  0.2789  0.0877 -0.0785
 4261ntf    cn125021   5.758   0.931   0.490 -0.2664  0.4437  0.3903
 4261ntf    sn225022   5.694   0.957   0.322  0.3524  0.0157  0.0806
 4261ntf    nn325023   5.805   0.884   0.240 -0.1913 -0.4468 -0.2544
 4261ntf    sn225024   5.877   0.919   0.105  0.0372  0.2258  0.0365
 4261ntf    cn125025   5.786   0.808  -0.007  0.2674 -0.2070  0.2782
 4261ntf    fn425026   5.780   0.802   0.512  0.4792  0.5127  0.0742
 4261ntf    fn425027   5.870   0.997   0.516 -0.2518  0.6563 -0.2085
 4261ntf    fn425028   5.673   0.968   0.584 -0.5531 -0.0914  0.3446
 4261ntf    on525029   5.566   0.891   0.311  0.1055  0.5263 -0.1827
 4261ntf    on525030   5.683   1.100   0.307  0.2564  0.0490  0.4567
 4261ntf    on525031   6.004   0.852   0.099 -0.0891 -0.0149  0.0374
 4261ntf    on525032   5.862   1.053   0.053 -0.3527  0.1661 -0.0094
 4261ntf    fn425033   5.802   0.681   0.028 -0.0939 -0.3313  0.0026
 4261ntf    fn425034   5.658   0.840  -0.010  0.4343  0.4401 -0.1393
 4261ntf    fn425035   5.834   0.828  -0.128  0.1353 -0.0579  0.2498
 4262ntf    cn125036   0.182   4.877   2.986 -0.2113 -0.1778 -0.0297
 4262ntf    sn225037   0.325   4.899   3.096 -0.1461  0.1254 -0.1729
 4262ntf    nn325038   0.277   5.034   3.161  0.6921  0.1123  0.4878
 4262ntf    sn225039   0.161   5.039   3.266 -0.0328  0.0835 -0.3023
 4262ntf    cn125040   0.257   5.064   3.418  0.1001  0.0350 -0.3784
 4262ntf    fn425041   0.147   4.989   2.924  0.0312 -0.2038 -0.2154
 4262ntf    fn425042   0.191   4.777   2.899 -0.0563  0.2293 -0.4886
 4262ntf    fn425043   0.072   4.837   3.047 -0.1800 -0.0935  0.0807
 4262ntf    on525044   0.339   4.789   3.188 -0.3199  0.4216  0.2101
 4262ntf    on525045   0.440   4.920   3.011  0.5837 -0.4240  0.6631
 4262ntf    on525046   0.095   4.913   3.290  0.0173  0.1544  0.2166
 4262ntf    on525047   0.071   5.150   3.247 -0.6027 -0.3625 -0.2396
 4262ntf    fn425048   0.364   4.986   3.421  0.2425  0.2232 -0.4644
 4262ntf    fn425049   0.304   5.188   3.419 -0.6166  0.3094 -0.3343
 4262ntf    fn425050   0.185   5.045   3.527  0.2989  0.3311 -0.1928
 4263ntf    cn125051   2.684   6.019   1.442  0.0388 -0.1859 -0.2906
 4263ntf    sn225052   2.723   5.988   1.617 -0.3632  0.2655 -0.1178
 4263ntf    nn325053   2.734   5.832   1.610 -0.0832  0.2908 -0.2892
 4263ntf    sn225054   2.635   5.735   1.684  0.1716  0.2393 -0.0132
 4263ntf    cn125055   2.690   5.718   1.856  0.5230 -0.0719 -0.1562
 4263ntf    fn425056   2.737   5.936   1.353  0.1082 -0.1917 -0.2441
 4263ntf    fn425057   2.554   5.998   1.431  0.0452 -0.5736  0.3348
 4263ntf    fn425058   2.717   6.145   1.416  0.2712 -0.2731 -0.4253
 4263ntf    on525059   2.857   6.038   1.636 -0.1951 -0.2847  0.1676
 4263ntf    on525060   2.615   6.045   1.693  0.1033  0.4591  0.4054
 4263ntf    on525061   2.646   5.601   1.633  0.6130  0.2930 -0.0629
 4263ntf    on525062   2.501   5.785   1.703  0.1967  0.2710  0.0781
 4263ntf    fn425063   2.803   5.650   1.869  0.4754  0.0018  0.7287
 4263ntf    fn425064   2.704   5.835   1.917 -0.3062  0.0402 -0.1733
 4263ntf    fn425065   2.612   5.646   1.935 -0.3608  0.0223 -0.9375
 4264ntf    cn125066   4.086   4.330   2.684  0.2647 -0.6625 -0.2214
 4264ntf    sn225067   4.051   4.337   2.506 -0.0987  0.0060 -0.1239
 4264ntf    nn325068   4.138   4.465   2.479 -0.0330  0.1294  0.6604
 4264ntf    sn225069   4.291   4.501   2.485  0.0563 -0.1199 -0.0525
 4264ntf    cn125070   4.313   4.576   2.321 -0.1211  0.0899  0.0210
 4264ntf    fn425071   4.205   4.281   2.716  0.3219 -0.3250  0.0895
 4264ntf    fn425072   4.078   4.447   2.744 -0.1985 -0.5333 -0.5358
 4264ntf    fn425073   4.000   4.246   2.739  0.0791 -0.1377  0.2964
 4264ntf    on525074   4.104   4.212   2.457  0.2678  0.1528 -0.1089
 4264ntf    on525075   3.910   4.365   2.501 -0.0116  0.4932  0.0828
 4264ntf    on525076   4.385   4.391   2.487 -0.0659 -0.2172  0.6044
 4264ntf    on525077   4.310   4.609   2.578 -0.1298 -0.2199  0.1022
 4264ntf    fn425078   4.236   4.683   2.305 -0.4451 -0.0257  0.7678
 4264ntf    fn425079   4.435   4.620   2.296 -0.0491 -0.0568  0.1131
 4264ntf    fn425080   4.294   4.492   2.221 -0.5127  0.3186 -0.1010
 4265ntf    cn125081   0.655   7.006   6.028  0.2329 -0.1078 -0.2913
 4265ntf    sn225082   0.690   7.156   5.932 -0.2200  0.0127 -0.2709
 4265ntf    nn325083   0.712   7.094   5.789  0.5678 -0.1956 -0.0629
 4265ntf    sn225084   0.626   7.096   5.658  0.1163  0.1113  0.2361
 4265ntf    cn125085   0.716   7.226   5.569 -0.0034  0.2896  0.3746
 4265ntf    fn425086   0.745   6.909   6.030 -0.1269 -0.4397 -0.1144
 4265ntf    fn425087   0.629   7.038   6.154 -0.1662  0.2457 -0.4606
 4265ntf    fn425088   0.550   6.947   5.975 -0.3480  0.5339  0.1235
 4265ntf    on525089   0.581   7.249   5.948 -0.7050 -0.5380 -0.3602
 4265ntf    on525090   0.818   7.194   5.986 -0.2294 -0.7034  0.2708
 4265ntf    on525091   0.489   7.140   5.666 -0.0360 -0.2933 -0.0994
 4265ntf    on525092   0.651   6.980   5.576 -0.5565  0.3406 -0.3049
 4265ntf    fn425093   0.647   7.274   5.467  0.3203 -0.0996 -0.0304
 4265ntf    fn425094   0.735   7.334   5.644  0.1765 -0.0087  0.7560
 4265ntf    fn425095   0.837   7.197   5.523 -0.1379  0.0867  0.1516
 4266ntf    cn125096   3.089   6.894   0.340  0.3037 -0.3393  0.3266
 4266ntf    sn225097   3.054   6.804   0.495 -0.0579 -0.1263  0.3680
 4266ntf    nn325098   2.916   6.740   0.455  0.0485 -0.2013  0.1189
 4266ntf    sn225099   2.782   6.750   0.536 -0.0014 -0.2910  0.0484
 4266ntf    cn125100   2.791   6.605   0.645 -0.0430 -0.0711  0.3461
 4266ntf    fn425101   3.091   6.811   0.237 -0.1722 -0.1663  0.1767
 4266ntf    fn425102   2.997   6.986   0.322  0.5702 -0.1114  0.1278
 4266ntf    fn425103   3.205   6.956   0.356 -0.0861  0.4242  0.1827
 4266ntf    on525104   3.157   6.704   0.503  0.1785  0.0453 -0.4136
 4266ntf    on525105   3.052   6.913   0.589 -0.1641 -0.0317  0.2571
 4266ntf    on525106   2.664   6.731   0.457 -0.1948  0.2794  0.1924
 4266ntf    on525107   2.765   6.858   0.631 -0.2153  0.3277 -0.6845
 4266ntf    fn425108   2.899   6.610   0.722  0.1621 -0.0086  0.0534
 4266ntf    fn425109   2.685   6.607   0.725 -0.0665 -0.5803  0.3314
 4266ntf    fn425110   2.799   6.490   0.580  0.1059  0.0351  0.1758
 4267ntf    cn125111   5.594   6.593   3.650  0.4825 -0.4510 -0.2101
 4267ntf    sn225112   5.490   6.490   3.757 -0.0369  0.3219  0.0366
 4267ntf    nn325113   5.413   6.397   3.656  0.1555  0.5911 -0.3606
 4267ntf    sn225114   5.273   6.422   3.591 -0.0731  0.0591 -0.0779
 4267ntf    cn125115   5.177   6.329   3.714 -0.2793  0.3728 -0.0008
 4267ntf    fn425116   5.523   6.657   3.559 -0.6329 -0.7542  0.4312
 4267ntf    fn425117   5.651   6.687   3.723  0.2485 -0.1174 -0.4534
 4267ntf    fn425118   5.689   6.523   3.589  0.9278 -0.5283  0.5536
 4267ntf    on525119   5.590   6.424   3.838  0.0838 -0.3250 -0.6300
 4267ntf    on525120   5.405   6.581   3.829 -0.0087  0.1845  0.2443
 4267ntf    on525121   5.245   6.346   3.471 -0.2839 -0.2665  0.1765
 4267ntf    on525122   5.220   6.556   3.595 -0.3980 -0.0126 -1.3416
 4267ntf    fn425123   5.208   6.200   3.713 -0.6635  0.2807 -0.3372
 4267ntf    fn425124   5.199   6.372   3.837  0.1051  0.4397 -0.0928
 4267ntf    fn425125   5.046   6.340   3.700 -0.2934  0.4750  0.2114
 4268ntf    cn125126   7.082   2.277   7.117  0.4893 -0.5685 -0.0439
 4268ntf    sn225127   7.183   2.223   6.975  0.0675  0.0244 -0.5754
 4268ntf    nn325128   7.116   2.309   6.862 -0.2344  0.1322 -0.3166
 4268ntf    sn225129   7.169   2.329   6.716  0.1066 -0.0262 -0.2166
 4268ntf    cn125130   7.289   2.462   6.746  0.2583 -0.2381  0.1216
 4268ntf    fn425131   7.096   2.409   7.123 -0.1345 -0.5061  0.0623
 4268ntf    fn425132   6.955   2.244   7.098  0.1637  0.7255 -0.2101
 4268ntf    fn425133   7.122   2.228   7.233 -0.1899 -0.5332  0.2081
 4268ntf    on525134   7.316   2.268   7.009 -0.0722  0.1096 -0.1336
 4268ntf    on525135   7.154   2.082   6.976  0.0790  0.0220 -0.2669
 4268ntf    on525136   7.070   2.385   6.627  0.0866 -0.1506 -0.2731
 4268ntf    on525137   7.253   2.220   6.671  0.2708 -0.1767  0.4547
 4268ntf    fn425138   7.238   2.541   6.839  0.2215 -0.2555  0.1161
 4268ntf    fn425139   7.401   2.416   6.798  0.3763  0.2090  0.2671
 4268ntf    fn425140   7.324   2.532   6.639 -0.0306 -0.4682 -0.1247
 4269ntf    cn125141   2.552   3.037   2.917 -0.2649 -0.1613  0.3253
 4269ntf    sn225142   2.527   2.875   2.996 -0.5191 -0.1900  0.1844
 4269ntf    nn325143   2.395   2.907   3.075 -0.5653 -0.2686  0.1399
 4269ntf    sn225144   2.370   2.929   3.228  0.1600  0.1751  0.2030
 4269ntf    cn125145   2.316   2.758   3.261 -0.1341  0.1608 -0.3373
 4269ntf    fn425146   2.520   3.135   3.000  0.4827  0.2628  0.1311
 4269ntf    fn425147   2.677   3.049   2.873 -0.3341  0.0571  0.1854
 4269ntf    fn425148   2.467   3.044   2.817  0.1737 -0.0226 -0.0400
 4269ntf    on525149   2.497   2.796   2.879  0.4774 -0.2117 -0.0620
 4269ntf    on525150   2.646   2.844   3.071 -0.5148 -0.7514 -0.0519
 4269ntf    on525151   2.253   3.010   3.254  0.2302  0.2853  0.1755
 4269ntf    on525152   2.488   2.942   3.310  0.5855  0.1147 -0.4025
 4269ntf    fn425153   2.210   2.723   3.191 -0.2341 -0.4061  0.0852
 4269ntf    fn425154   2.413   2.674   3.230 -0.3386 -0.4713  0.6687
 4269ntf    fn425155   2.289   2.736   3.389 -0.0418 -0.0506 -0.3538
 4270ntf    cn125156   0.763   4.513   1.455 -0.0964 -0.0446 -0.1248
 4270ntf    sn225157   0.743   4.682   1.391 -0.0008  0.1021  0.2301
 4270ntf    nn325158   0.864   4.685   1.291 -0.2823 -0.0940 -0.1178
 4270ntf    sn225159   0.886   4.623   1.149 -0.2681 -0.2144 -0.0625
 4270ntf    cn125160   0.861   4.771   1.047 -0.4475 -0.2631 -0.0891
 4270ntf    fn425161   0.762   4.425   1.356 -0.3827 -0.5158  0.2934
 4270ntf    fn425162   0.877   4.496   1.521 -0.1360  0.5372  0.1032
 4270ntf    fn425163   0.662   4.485   1.535  0.2312 -0.1265  0.2682
 4270ntf    on525164   0.618   4.685   1.319  0.3942  0.9665 -0.4417
 4270ntf    on525165   0.752   4.763   1.511  0.1571 -0.2898  0.4832
 4270ntf    on525166   0.783   4.536   1.097 -0.1906 -0.3812  0.0628
 4270ntf    on525167   1.022   4.578   1.135 -0.0809  0.2529  0.2572
 4270ntf    fn425168   0.873   4.752   0.916 -0.1172  0.1694 -0.1220
 4270ntf    fn425169   0.736   4.811   1.062 -0.3233  0.0346  0.1530
 4270ntf    fn425170   0.941   4.866   1.090 -0.4358 -0.1644 -0.3270
 4271ntf    cn125171   0.718   4.848   0.280  0.1575  0.0832  0.1383
 4271ntf    sn225172   0.835   4.832   0.143 -0.1034 -0.3524 -0.0357
 4271ntf    nn325173   0.969   4.853   0.222  0.2427 -0.1920 -0.6592
 4271ntf    sn225174   1.066   4.743   0.277  0.1310  0.0551  0.0396
 4271ntf    cn125175   1.188   4.727   0.143  0.2333 -0.5131  0.1933
 4271ntf    fn425176   0.732   4.960   0.350  0.0754  0.1848 -0.0050
 4271ntf    fn425177   0.590   4.843   0.247  0.1341 -0.6576  0.3267
 4271ntf    fn425178   0.732   4.744   0.361  0.1829  0.2107  0.2987
 4271ntf    on525179   0.806   4.700   0.092 -0.2714 -0.3359  0.0173
 4271ntf    on525180   0.812   4.942   0.053  0.4153 -0.0279  0.2219
 4271ntf    on525181   1.003   4.616   0.303  1.3250 -0.4980  0.3161
 4271ntf    on525182   1.142   4.791   0.390 -0.2085 -0.4626  0.4950
 4271ntf    fn425183   1.224   4.846   0.098 -0.2221 -0.3299  0.3064
 4271ntf    fn425184   1.297   4.668   0.187  0.5993  0.1752  0.2279
 4271ntf    fn425185   1.137   4.669   0.035  0.1134  0.1933 -0.1410
 4272ntf    cn125186   7.113   2.142   4.712  0.1349  0.0542 -0.2465
 4272ntf    sn225187   7.224   2.173   4.571  0.1870  0.0422 -0.2079
 4272ntf    nn325188   7.232   2.025   4.519  0.4587  0.2298 -0.7001
 4272ntf    sn225189   7.167   1.960   4.392  0.0788 -0.0304 -0.3757
 4272ntf    cn125190   7.291   1.987   4.261  0.0598  0.4584 -0.2929
 4272ntf    fn425191   6.988   2.173   4.683 -0.0720 -0.1607  0.3848
 4272ntf    fn425192   7.126   2.021   4.763 -0.0628  0.1734  0.0947
 4272ntf    fn425193   7.146   2.221   4.813 -0.2919  0.1572 -0.1879
 4272ntf    on525194   7.169   2.277   4.488  0.3568  0.1841 -0.1438
 4272ntf    on525195   7.344   2.208   4.643  0.0519 -0.0304  0.0540
 4272ntf    on525196   7.049   2.025   4.340  0.0085 -0.4457 -0.7427
 4272ntf    on525197   7.158   1.817   4.406 -0.0875  0.0174  0.0189
 4272ntf    fn425198   7.327   2.113   4.242  0.2811  0.3187 -0.7995
 4272ntf    fn425199   7.405   1.929   4.292 -0.3367 -0.4513 -0.5148
 4272ntf    fn425200   7.254   1.940   4.143  0.0895 -0.1337 -0.0683
 4273ntf    cn125201   4.534   5.577   2.660 -0.2304 -0.1590 -0.1099
 4273ntf    sn225202   4.390   5.623   2.558 -0.2815  0.4214  0.2203
 4273ntf    nn325203   4.340   5.483   2.506 -0.0731  0.2568  0.4603
 4273ntf    sn225204   4.216   5.400   2.554 -0.2573  0.2542 -0.0146
 4273ntf    cn125205   4.286   5.334   2.708 -0.3001 -0.0600 -0.1302
 4273ntf    fn425206   4.639   5.529   2.595 -0.2309  0.3946 -0.5368
 4273ntf    fn425207   4.572   5.683   2.729  0.3872 -0.3895 -0.0959
 4273ntf    fn425208   4.496   5.486   2.748 -0.0657 -0.3218 -0.2061
 4273ntf    on525209   4.300   5.689   2.650 -0.5245 -0.2571  0.4779
 4273ntf    on525210   4.451   5.704   2.456  0.4966 -0.2228  0.1666
 4273ntf    on525211   4.197   5.294   2.459  0.4457 -0.1993  0.3448
 4273ntf    on525212   4.097   5.468   2.598 -0.3074  0.1344  0.0337
 4273ntf    fn425213   4.212   5.229   2.742 -0.1519 -0.2281 -0.3254
 4273ntf    fn425214   4.407   5.281   2.695 -0.2775  0.0372 -0.3129
 4273ntf    fn425215   4.281   5.421   2.808 -0.1265  0.5343 -0.6366
 4274ntf    cn125216   0.337   3.960   4.342 -0.8205 -0.4208 -0.0887
 4274ntf    sn225217   0.184   4.058   4.327 -0.4198  0.2481  0.1362
 4274ntf    nn325218   0.080   3.942   4.350  0.1659 -0.2637  0.2499
 4274ntf    sn225219   0.017   3.836   4.254 -0.0246 -0.0041  0.0881
 4274ntf    cn125220  -0.148   3.911   4.238 -0.1399 -0.2856 -0.0535
 4274ntf    fn425221   0.449   4.030   4.335 -0.6303 -0.7684 -0.5237
 4274ntf    fn425222   0.336   3.910   4.465  0.5367 -0.1848  0.0334
 4274ntf    fn425223   0.356   3.854   4.265 -0.3834 -0.2904 -0.1610
 4274ntf    on525224   0.203   4.153   4.433 -0.1372  0.2579  0.0771
 4274ntf    on525225   0.183   4.101   4.190  0.1046  0.0585  0.0704
 4274ntf    on525226  -0.021   3.712   4.317 -0.0080 -0.0075  0.0917
 4274ntf    on525227   0.066   3.831   4.118 -0.4987 -0.3110 -0.0736
 4274ntf    fn425228  -0.141   4.027   4.174 -0.8412 -0.4315 -0.4086
 4274ntf    fn425229  -0.233   3.832   4.173 -0.2625 -0.3624  0.1986
 4274ntf    fn425230  -0.195   3.941   4.358  0.0080  0.6097 -0.2134
 4275ntf    cn125231   4.837   6.514   0.122 -0.1929 -0.1460  0.0781
 4275ntf    sn225232   4.783   6.682   0.165  0.0234 -0.0692  0.0533
 4275ntf    nn325233   4.738   6.669   0.315  0.1839 -0.2501  0.0858
 4275ntf    sn225234   4.820   6.692   0.446 -0.2078 -0.2588  0.3324
 4275ntf    cn125235   4.702   6.753   0.571 -0.1289  0.0438  0.2594
 4275ntf    fn425236   4.952   6.488   0.183 -0.2266 -0.2095  0.1153
 4275ntf    fn425237   4.754   6.423   0.170  0.1457 -0.6288 -0.2369
 4275ntf    fn425238   4.858   6.488  -0.006  0.5931 -0.5491  0.2814
 4275ntf    on525239   4.896   6.762   0.125  0.0036 -0.0948 -0.0559
 4275ntf    on525240   4.674   6.687   0.070 -0.1548 -0.7083  0.2156
 4275ntf    on525241   4.906   6.806   0.428 -0.5396 -0.1348 -0.5062
 4275ntf    on525242   4.880   6.574   0.504 -0.2385 -0.4974 -0.1224
 4275ntf    fn425243   4.754   6.803   0.682  0.1140  0.0409  0.1493
 4275ntf    fn425244   4.632   6.850   0.515  0.2025 -0.0918 -0.4085
 4275ntf    fn425245   4.628   6.652   0.613 -0.1636 -0.3240 -0.6768
 4276ntf    cn125246   2.491   5.969   5.638 -0.2580  0.0654 -0.3965
 4276ntf    sn225247   2.492   6.150   5.624  0.1223  0.1281  0.3857
 4276ntf    nn325248   2.378   6.185   5.522  0.1602 -0.3913  0.1640
 4276ntf    sn225249   2.382   6.233   5.373  0.0737 -0.1547  0.2370
 4276ntf    cn125250   2.367   6.413   5.389 -0.6388 -0.1599 -0.3029
 4276ntf    fn425251   2.566   5.920   5.541 -0.0987 -0.5632  0.0373
 4276ntf    fn425252   2.540   5.919   5.750 -0.2983  0.1359 -0.3474
 4276ntf    fn425253   2.375   5.911   5.610 -0.1088 -0.4596  0.0475
 4276ntf    on525254   2.451   6.186   5.757 -0.9020  0.2243  0.0480
 4276ntf    on525255   2.627   6.181   5.582 -0.0061  0.1119 -0.0447
 4276ntf    on525256   2.266   6.191   5.298 -0.0466  0.3275  0.1504
 4276ntf    on525257   2.501   6.205   5.297 -0.0497  0.5665 -0.2233
 4276ntf    fn425258   2.243   6.454   5.409 -0.6606 -0.1550 -0.4437
 4276ntf    fn425259   2.439   6.458   5.490 -0.1527 -0.2821 -0.5888
 4276ntf    fn425260   2.407   6.475   5.278  0.2369  0.1397  0.1707
 4277ntf    cn125261   2.439   0.570   6.561  0.0356 -0.0552 -0.4637
 4277ntf    sn225262   2.302   0.680   6.515  0.0068  0.0636 -0.0981
 4277ntf    nn325263   2.373   0.785   6.422  0.2308  0.2343  0.2637
 4277ntf    sn225264   2.330   0.934   6.399  0.0940  0.1512 -0.0241
 4277ntf    cn125265   2.427   1.018   6.528 -0.1405  0.2965  0.0588
 4277ntf    fn425266   2.537   0.637   6.618 -0.2931  0.3146 -0.3318
 4277ntf    fn425267   2.408   0.466   6.637  0.3608  0.2293  0.0652
 4277ntf    fn425268   2.492   0.508   6.456  0.1471 -0.3262 -0.2506
 4277ntf    on525269   2.215   0.595   6.437 -0.1054  0.4057 -0.3494
 4277ntf    on525270   2.246   0.726   6.639 -0.4744  0.1951 -0.3619
 4277ntf    on525271   2.193   0.958   6.438  0.0284  0.5734 -0.5100
 4277ntf    on525272   2.368   0.994   6.274 -0.4662  0.2920 -0.1326
 4277ntf    fn425273   2.373   1.010   6.648  0.1658 -0.5388  0.1469
 4277ntf    fn425274   2.552   0.975   6.537 -0.1606  0.2361  0.0525
 4277ntf    fn425275   2.439   1.147   6.504  0.0449  0.2796  0.0589
 4278ntf    cn125276   0.760   4.342   2.021 -0.5115  0.1035  0.5746
 4278ntf    sn225277   0.763   4.296   1.845 -0.0048 -0.0760  0.6276
 4278ntf    nn325278   0.624   4.224   1.838 -0.0660  0.0930  0.0256
 4278ntf    sn225279   0.476   4.275   1.827  0.1177  0.6179 -0.0171
 4278ntf    cn125280   0.436   4.203   1.665  0.2475  0.2193  0.1271
 4278ntf    fn425281   0.660   4.425   2.044 -0.0606  0.7966  0.0858
 4278ntf    fn425282   0.757   4.236   2.100 -0.5952 -0.1292  0.2652
 4278ntf    fn425283   0.869   4.410   2.053 -0.2079  0.1755 -0.5576
 4278ntf    on525284   0.779   4.423   1.778  0.1230 -0.0388  0.7298
 4278ntf    on525285   0.871   4.202   1.829 -0.1008 -0.0038 -0.5097
 4278ntf    on525286   0.461   4.416   1.798  0.2444  0.5944 -0.2003
 4278ntf    on525287   0.385   4.215   1.921  0.1600 -0.0647 -0.4095
 4278ntf    fn425288   0.448   4.071   1.669  0.4042  0.2298 -0.0122
 4278ntf    fn425289   0.310   4.228   1.634 -0.0165 -0.6697  0.4638
 4278ntf    fn425290   0.506   4.239   1.558 -0.2855  0.0861 -0.2725
 4279ntf    cn125291   6.255   2.375   6.849  0.0675  0.0126  0.1489
 4279ntf    sn225292   6.367   2.315   6.719 -0.1059  0.0548 -0.0214
 4279ntf    nn325293   6.457   2.220   6.806 -0.3388  0.3031  0.4980
 4279ntf    sn225294   6.441   2.067   6.841 -0.0184  0.1987  0.1865
 4279ntf    cn125295   6.480   2.082   7.018 -0.0586 -0.0383  0.2150
 4279ntf    fn425296   6.326   2.447   6.935  0.1089  0.4751 -0.2652
 4279ntf    fn425297   6.165   2.460   6.802 -0.0077  0.0260  0.3165
 4279ntf    fn425298   6.186   2.285   6.917 -0.5168  0.4082  0.0954
 4279ntf    on525299   6.280   2.245   6.627 -0.0398  0.1878 -0.1851
 4279ntf    on525300   6.435   2.434   6.675  0.0775  0.1650  0.5451
 4279ntf    on525301   6.540   1.976   6.789  0.0863  0.0430  0.6564
 4279ntf    on525302   6.308   2.012   6.848 -0.1740  0.5052 -0.2589
 4279ntf    fn425303   6.482   1.965   7.080  0.7134  0.0649  0.3987
 4279ntf    fn425304   6.597   2.138   7.039  0.1207 -0.6043  0.7793
 4279ntf    fn425305   6.393   2.155   7.085  0.4028  0.3733  0.3687
 4280ntf    cn125306   1.980   5.656   3.426  0.0968  0.1203 -0.0300
 4280ntf    sn225307   2.095   5.523   3.379 -0.0522 -0.0701  0.1446
 4280ntf    nn325308   2.070   5.406   3.481  0.4886 -0.1967  0.1318
 4280ntf    sn225309   1.974   5.283   3.478 -0.0798  0.2396  0.3069
 4280ntf    cn125310   1.919   5.284   3.652 -0.6263  0.1600  0.1386
 4280ntf    fn425311   1.994   5.768   3.357  0.3772  0.0064 -0.1598
 4280ntf    fn425312   1.853   5.625   3.407  0.0257  0.2165  0.2881
 4280ntf    fn425313   1.979   5.698   3.551 -0.1805  0.0601 -0.0126
 4280ntf    on525314   2.049   5.485   3.247 -0.0918  0.1928  0.0823
 4280ntf    on525315   2.229   5.574   3.393 -0.0183 -0.0332 -0.2951
 4280ntf    on525316   2.046   5.158   3.472 -0.7432 -0.1293 -0.1604
 4280ntf    on525317   1.847   5.290   3.409 -0.1651 -0.4406  0.3869
 4280ntf    fn425318   1.864   5.400   3.685 -0.0915  0.2802  0.6219
 4280ntf    fn425319   1.840   5.180   3.673  0.2425 -0.3934  0.7167
 4280ntf    fn425320   2.023   5.266   3.732 -0.3259 -0.0464 -0.2972
 4281ntf    cn125321   0.649   5.849   3.324 -0.0491  0.1417  0.1870
 4281ntf    sn225322   0.503   5.898   3.421  0.0126 -0.1087  0.4091
 4281ntf    nn325323   0.392   5.808   3.354 -0.1941  0.5166 -0.1077
 4281ntf    sn225324   0.250   5.845   3.298 -0.3705  0.1276  0.0826
 4281ntf    cn125325   0.234   5.728   3.160 -0.6449 -0.0210  0.2402
 4281ntf    fn425326   0.620   5.834   3.196  0.2941  0.1843  0.1048
 4281ntf    fn425327   0.745   5.939   3.331  0.0383  0.0278  0.4612
 4281ntf    fn425328   0.695   5.731   3.362 -0.4093 -0.2969 -0.7049
 4281ntf    on525329   0.545   5.846   3.548 -0.0955 -0.3340  0.3520
 4281ntf    on525330   0.492   6.040   3.398 -0.2238 -0.2352 -0.3068
 4281ntf    on525331   0.236   5.974   3.236  0.0016 -0.0555 -0.3946
 4281ntf    on525332   0.151   5.808   3.396 -0.3039  0.0759  0.1314
 4281ntf    fn425333   0.320   5.628   3.170 -0.5373 -0.0282 -0.6434
 4281ntf    fn425334   0.116   5.667   3.160 -0.4874 -0.3345 -0.1937
 4281ntf    fn425335   0.258   5.777   3.040  0.0812  0.0698  0.4189
 4282ntf    cn125336   5.028   2.355   4.090 -0.0291 -0.6366 -0.2343
 4282ntf    sn225337   4.873   2.384   4.181  0.0490 -0.1127 -0.2627
 4282ntf    nn325338   4.775   2.302   4.091 -0.1046 -0.2109 -0.0059
 4282ntf    sn225339   4.694   2.345   3.964 -0.1318 -0.2431  0.0002
 4282ntf    cn125340   4.551   2.414   4.053 -0.1390 -0.3084  0.0397
 4282ntf    fn425341   5.058   2.227   4.102  0.1911 -0.5421  0.2580
 4282ntf    fn425342   5.020   2.372   3.959 -0.0670  0.5457 -0.0891
 4282ntf    fn425343   5.130   2.425   4.137 -0.4217  0.0051 -0.3196
 4282ntf    on525344   4.893   2.325   4.311 -0.0219  0.6511  0.0989
 4282ntf    on525345   4.865   2.528   4.177 -0.3027 -0.1266 -0.0732
 4282ntf    on525346   4.640   2.233   3.890 -0.0216 -0.2474 -0.0747
 4282ntf    on525347   4.754   2.453   3.889  0.4331 -0.2193  0.4857
 4282ntf    fn425348   4.577   2.520   4.128  0.3959 -0.1788 -0.3153
 4282ntf    fn425349   4.449   2.450   3.976  0.2672 -0.0502 -0.3907
 4282ntf    fn425350   4.494   2.325   4.131 -0.0096 -0.2221  0.2329
 4283ntf    cn125351   0.606   3.042   7.108 -0.2961  0.0066 -0.1001
 4283ntf    sn225352   0.774   2.992   7.155 -0.3063  0.2132  0.1585
 4283ntf    nn325353   0.785   2.867   7.060  0.4860 -0.1805  0.7592
 4283ntf    sn225354   0.766   2.713   7.088 -0.5092 -0.1782  0.1292
 4283ntf    cn125355   0.909   2.654   7.183 -0.1567  0.0223 -0.2735
 4283ntf    fn425356   0.515   2.952   7.144 -0.1487 -0.2382 -0.3361
 4283ntf    fn425357   0.578   3.157   7.167 -0.3600 -0.2690  0.4064
 4283ntf    fn425358   0.596   3.057   6.977  0.0058 -0.5384 -0.1909
 4283ntf    on525359   0.858   3.103   7.118  0.4428 -0.2340  0.5032
 4283ntf    on525360   0.771   2.972   7.298 -0.3285 -0.0545  0.1225
 4283ntf    on525361   0.785   2.640   6.966 -0.2134 -0.1851  0.1797
 4283ntf    on525362   0.649   2.674   7.163 -0.5133  0.1379  0.2932
 4283ntf    fn425363   1.014   2.634   7.106 -0.2045 -0.2185 -0.2778
 4283ntf    fn425364   0.952   2.736   7.277 -0.3402 -0.1450 -0.0421
 4283ntf    fn425365   0.889   2.534   7.236  0.0282 -0.0632 -0.3962
 4284ntf    cn125366   6.902   1.761   6.488  0.2148 -0.2073 -0.0132
 4284ntf    sn225367   6.932   1.755   6.309  0.0535 -0.6175 -0.0277
 4284ntf    nn325368   7.051   1.854   6.283 -0.1562 -0.0503  1.1152
 4284ntf    sn225369   7.203   1.816   6.273 -0.1577  0.1832  0.1227
 4284ntf    cn125370   7.226   1.785   6.095 -0.0239 -0.2535  0.2142
 4284ntf    fn425371   6.796   1.689   6.521 -0.0239  0.2105  0.1407
 4284ntf    fn425372   7.004   1.718   6.562  0.0160 -0.9817 -0.1767
 4284ntf    fn425373   6.887   1.886   6.527 -0.0604 -0.3276  0.2696
 4284ntf    on525374   6.948   1.617   6.271 -0.2829 -0.6690  0.0091
 4284ntf    on525375   6.813   1.824   6.264  0.5159  0.2652  0.0804
 4284ntf    on525376   7.248   1.687   6.321 -0.0672  0.1377 -0.0841
 4284ntf    on525377   7.291   1.924   6.308 -0.2311  0.1709  0.3495
 4284ntf    fn425378   7.221   1.890   6.015  0.6037 -0.1494  0.3042
 4284ntf    fn425379   7.345   1.734   6.066 -0.0969 -0.3475  0.0839
 4284ntf    fn425380   7.137   1.694   6.060 -0.1087  0.0430 -0.3461
 4285ntf    cn125381   5.138   5.305   4.877  0.2470  0.0915 -0.0111
 4285ntf    sn225382   5.205   5.316   4.709 -0.1547 -0.2084 -0.1914
 4285ntf    nn325383   5.306   5.196   4.706  0.1059  0.0111 -0.3440
 4285ntf    sn225384   5.448   5.193   4.772 -0.0077 -0.3961 -0.1114
 4285ntf    cn125385   5.562   5.284   4.663 -0.4934  0.2183 -0.1097
 4285ntf    fn425386   5.220   5.324   4.980 -0.2705  0.3611  0.3580
 4285ntf    fn425387   5.043   5.393   4.902  0.4948  0.3825 -0.0941
 4285ntf    fn425388   5.086   5.185   4.898  0.5191 -0.0135  0.0725
 4285ntf    on525389   5.092   5.292   4.622 -0.3231  0.0991 -0.0602
 4285ntf    on525390   5.267   5.446   4.706 -0.2667 -0.1544 -0.1339
 4285ntf    on525391   5.491   5.055   4.765  0.4795 -0.2825  0.6093
 4285ntf    on525392   5.466   5.249   4.903  0.5791  0.3730 -0.5119
 4285ntf    fn425393   5.572   5.244   4.537 -0.0169  0.1111 -0.0404
 4285ntf    fn425394   5.533   5.413   4.666  0.5186  0.4611 -0.3763
 4285ntf    fn425395   5.685   5.274   4.711 -0.5712 -0.6721 -0.0650
 4286ntf    cn125396   2.884   5.516   6.090 -0.3265  0.5759 -0.0034
 4286ntf    sn225397   2.868   5.478   6.267  0.0009 -0.5425 -0.2079
 4286ntf    nn325398   2.982   5.570   6.324 -0.4948 -0.0542  0.0017
 4286ntf    sn225399   3.114   5.523   6.394 -0.4376  0.1099  0.0050
 4286ntf    cn125400   3.057   5.501   6.566 -0.3693  0.0903  0.0252
 4286ntf    fn425401   3.011   5.534   6.058 -0.2665  0.1821  0.0103
 4286ntf    fn425402   2.829   5.417   6.021 -0.4443  0.3113  0.4656
 4286ntf    fn425403   2.823   5.627   6.053 -0.5055  0.3759 -0.3109
 4286ntf    on525404   2.738   5.524   6.309  0.4013  0.0603  0.3991
 4286ntf    on525405   2.896   5.337   6.276  0.2279 -0.4839  0.0265
 4286ntf    on525406   3.204   5.635   6.406 -0.1116 -0.0822 -0.6290
 4286ntf    on525407   3.180   5.402   6.353  0.0103  0.2085  0.4154
 4286ntf    fn425408   3.028   5.611   6.632  0.0531  0.3149 -0.1622
 4286ntf    fn425409   2.943   5.434   6.557 -0.2694 -0.0789  0.0050
 4286ntf    fn425410   3.138   5.425   6.638 -0.1939  0.2288 -0.0239
 4287ntf    cn125411   1.263   5.888   1.545  0.0028  0.2974 -0.4022
 4287ntf    sn225412   1.406   5.872   1.434  0.0211  0.1275 -0.3539
 4287ntf    nn325413   1.353   5.950   1.309 -0.3566  0.0439 -0.2458
 4287ntf    sn225414   1.282   5.879   1.188 -0.4318 -0.0702 -0.1347
 4287ntf    cn125415   1.158   6.011   1.164  0.1428  0.5095  0.0645
 4287ntf    fn425416   1.157   5.818   1.507  0.2601 -0.2010 -0.2140
 4287ntf    fn425417   1.291   5.856   1.670 -0.2830 -0.1660 -0.4557
 4287ntf    fn425418   1.227   6.015   1.553 -0.3228  0.1876 -0.0978
 4287ntf    on525419   1.514   5.945   1.497  0.1318 -0.1173 -0.2558
 4287ntf    on525420   1.418   5.729   1.422 -0.2162  0.0683  0.0919
 4287ntf    on525421   1.197   5.766   1.219 -0.3370 -0.2039 -0.3666
 4287ntf    on525422   1.348   5.889   1.061 -0.4116  0.0675 -0.1139
 4287ntf    fn425423   1.091   6.049   1.272  0.1054 -0.1184  0.2682
 4287ntf    fn425424   1.216   6.123   1.126  0.3599  0.3564 -0.0579
 4287ntf    fn425425   1.071   5.975   1.071  0.1690  0.4916  0.0466
 4288ntf    cn125426   5.191   0.308   4.403  0.1076 -0.2507 -0.1467
 4288ntf    sn225427   5.120   0.469   4.449  0.2777 -0.2001 -0.0594
 4288ntf    nn325428   5.183   0.490   4.591  0.0596  0.0442  0.0026
 4288ntf    sn225429   5.315   0.567   4.626 -0.0637  0.2138  0.0931
 4288ntf    cn125430   5.239   0.733   4.629 -0.3736  0.0736  0.0196
 4288ntf    fn425431   5.124   0.270   4.295 -0.5396  0.0029  0.1605
 4288ntf    fn425432   5.319   0.326   4.375  0.2397 -0.2864  0.4280
 4288ntf    fn425433   5.167   0.215   4.494 -0.3413 -0.2216 -0.2337
 4288ntf    on525434   5.169   0.559   4.348 -0.0740  0.0348 -0.0202
 4288ntf    on525435   4.978   0.446   4.458  0.1983  0.2467 -0.1420
 4288ntf    on525436   5.419   0.579   4.526 -0.2520  0.2059 -0.1054
 4288ntf    on525437   5.359   0.545   4.761 -0.1924  0.0272  0.1049
 4288ntf    fn425438   5.199   0.773   4.509 -0.1814  0.0179 -0.0638
 4288ntf    fn425439   5.137   0.733   4.713 -0.2667 -0.1556  0.1512
 4288ntf    fn425440   5.329   0.822   4.667 -0.1490 -0.2452  0.2393
 4289ntf    cn125441   3.978   0.403   2.656 -0.0701  0.0331 -0.5556
 4289ntf    sn225442   3.857   0.527   2.710  0.0880 -0.0767  0.0625
 4289ntf    nn325443   3.943   0.595   2.823 -0.1817 -0.2237  0.3583
 4289ntf    sn225444   3.909   0.737   2.880  0.4538  0.0607  0.0381
 4289ntf    cn125445   3.996   0.734   3.040  0.2045  0.1927  0.1756
 4289ntf    fn425446   4.095   0.457   2.626  0.1426 -0.0199  0.1637
 4289ntf    fn425447   4.006   0.318   2.753  0.3762  0.0949 -0.6291
 4289ntf    fn425448   3.935   0.330   2.554 -0.0524 -0.1642 -0.4222
 4289ntf    on525449   3.830   0.612   2.596  0.6177  0.0259  0.0129
 4289ntf    on525450   3.753   0.445   2.768  0.0101 -0.1049 -0.1162
 4289ntf    on525451   3.771   0.742   2.922  0.4444 -0.2652  0.0486
 4289ntf    on525452   3.962   0.850   2.809  0.5390 -0.3079 -0.4906
 4289ntf    fn425453   4.127   0.724   3.032  0.1399 -0.3349 -0.2546
 4289ntf    fn425454   3.961   0.844   3.105 -0.2406  0.2592 -0.1671
 4289ntf    fn425455   3.956   0.642   3.126  0.0366 -0.2088 -0.3248
 4290ntf    cn125456   2.101   4.668   0.092  0.1352 -0.0566  0.3899
 4290ntf    sn225457   1.972   4.772   0.016  0.0298  0.0082  0.6585
 4290ntf    nn325458   2.028   4.830  -0.119 -0.3669  0.0778  0.5231
 4290ntf    sn225459   1.988   4.964  -0.189  0.1567  0.0503  0.1636
 4290ntf    cn125460   2.111   5.084  -0.131 -0.0041  0.1282  0.3443
 4290ntf    fn425461   2.187   4.742   0.160  0.3386 -0.1450  0.2310
 4290ntf    fn425462   2.058   4.579   0.179 -0.2762  0.0729  0.3244
 4290ntf    fn425463   2.176   4.606   0.003 -0.1953 -0.4785  0.4022
 4290ntf    on525464   1.857   4.689  -0.010  0.3649 -0.1214 -0.4584
 4290ntf    on525465   1.953   4.886   0.103  0.2053  0.2273  0.4138
 4290ntf    on525466   1.863   5.022  -0.145  0.2044  0.1535  0.1629
 4290ntf    on525467   2.017   4.963  -0.330 -0.4524  0.3966  0.0322
 4290ntf    fn425468   2.110   5.093   0.001 -0.2872 -0.1216  0.3593
 4290ntf    fn425469   2.236   5.059  -0.167 -0.2399 -0.8725  0.2082
 4290ntf    fn425470   2.082   5.199  -0.190 -0.1019 -0.2914 -0.4285
 4291ntf    cn125471   0.631   5.737   1.945  0.0414 -0.4165  0.2650
 4291ntf    sn225472   0.469   5.719   1.864 -0.0028 -0.1275  0.2861
 4291ntf    nn325473   0.480   5.829   1.752  0.1264  0.0912  0.5138
 4291ntf    sn225474   0.408   5.967   1.727  0.2868  0.0892  0.0314
 4291ntf    cn125475   0.545   6.087   1.730  0.2091  0.1857 -0.3253
 4291ntf    fn425476   0.660   5.864   1.968  0.2349 -0.2369 -0.9221
 4291ntf    fn425477   0.640   5.682   2.065  0.1836 -0.7530  0.1007
 4291ntf    fn425478   0.728   5.695   1.866 -0.0999 -0.1007 -0.0841
 4291ntf    on525479   0.472   5.583   1.814  0.6233  0.0136 -0.0716
 4291ntf    on525480   0.375   5.746   1.969 -0.2913 -0.2957  0.0734
 4291ntf    on525481   0.313   6.005   1.828  0.5792  0.0447  0.3249
 4291ntf    on525482   0.355   5.977   1.594 -0.1518 -0.5554  0.1541
 4291ntf    fn425483   0.635   6.067   1.635 -0.1791  0.2733 -0.7154
 4291ntf    fn425484   0.501   6.211   1.714 -0.3155 -0.0124 -0.4567
 4291ntf    fn425485   0.612   6.087   1.844 -0.4540  0.2688  0.0711
 4292ntf    cn125486   2.038   0.947   5.252  0.0013 -0.2098  0.0548
 4292ntf    sn225487   1.969   1.057   5.124  0.3989  0.0386  0.0548
 4292ntf    nn325488   1.990   0.979   4.990  0.1547 -0.0603  0.0733
 4292ntf    sn225489   1.961   1.038   4.847  0.2351 -0.0679  0.0536
 4292ntf    cn125490   1.832   0.926   4.784  0.0743  0.0994  0.0862
 4292ntf    fn425491   2.013   0.988   5.375 -0.3309 -0.0965 -0.0510
 4292ntf    fn425492   1.981   0.829   5.234 -0.1519 -0.1322  0.0296
 4292ntf    fn425493   2.168   0.923   5.241 -0.0329 -0.2772 -0.2145
 4292ntf    on525494   1.831   1.077   5.160  0.3523  0.1337 -0.1769
 4292ntf    on525495   2.050   1.176   5.134 -0.0498  0.3207  0.3501
 4292ntf    on525496   2.070   1.018   4.755  0.4543  0.0421  0.2851
 4292ntf    on525497   1.887   1.162   4.845 -0.1826 -0.3261 -0.7404
 4292ntf    fn425498   1.733   0.906   4.869  0.1856 -0.3166  0.1167
 4292ntf    fn425499   1.771   0.980   4.680  0.1790  0.0367 -0.0069
 4292ntf    fn425500   1.876   0.806   4.752 -0.3188 -0.0593  0.1438
 4293ntf    cn125501   4.635   4.266   5.577  0.1411 -0.5164 -0.0707
 4293ntf    sn225502   4.500   4.277   5.455  0.3014  0.3732 -0.1739
 4293ntf    nn325503   4.494   4.433   5.438  0.1448  0.4221  0.3035
 4293ntf    sn225504   4.380   4.532   5.479 -0.1854  0.0138  0.3663
 4293ntf    cn125505   4.410   4.656   5.350 -0.2450  0.0040  0.3433
 4293ntf    fn425506   4.733   4.350   5.546 -0.5622  0.0984 -0.6711
 4293ntf    fn425507   4.595   4.282   5.702  0.0570 -0.0594 -0.1538
 4293ntf    fn425508   4.680   4.142   5.566  0.4401 -0.3994 -0.1956
 4293ntf    on525509   4.557   4.207   5.343 -0.5811  0.3326 -0.5984
 4293ntf    on525510   4.392   4.210   5.523  0.0851  0.5830 -0.3108
 4293ntf    on525511   4.409   4.598   5.604  0.1498  0.4150  0.0796
 4293ntf    on525512   4.244   4.487   5.459  0.1078 -0.6292 -0.2330
 4293ntf    fn425513   4.538   4.689   5.343 -0.3359  0.3361  0.1990
 4293ntf    fn425514   4.364   4.619   5.231 -0.5828  0.3877  0.3547
 4293ntf    fn425515   4.357   4.774   5.378  0.0624  0.3346 -0.4249
 4294ntf    cn125516   3.318   0.858   6.241 -0.0796 -0.0249 -0.0691
 4294ntf    sn225517   3.439   0.994   6.243 -0.0927 -0.0140  0.0132
 4294ntf    nn325518   3.570   0.917   6.282 -0.0437  0.0304 -0.0634
 4294ntf    sn225519   3.676   0.942   6.394 -0.0465  0.2441 -0.1092
 4294ntf    cn125520   3.601   0.856   6.535  0.1383  0.0414 -0.1344
 4294ntf    fn425521   3.288   0.818   6.364 -0.0211  0.7364  0.1974
 4294ntf    fn425522   3.202   0.900   6.192 -0.1398 -0.0185  0.0774
 4294ntf    fn425523   3.366   0.754   6.175 -0.0932 -0.3290  0.3909
 4294ntf    on525524   3.445   1.035   6.105 -0.0626  0.4820  0.1601
 4294ntf    on525525   3.388   1.079   6.347 -0.3720 -0.4674  0.2504
 4294ntf    on525526   3.692   1.076   6.446 -0.1167 -0.1238  0.8825
 4294ntf    on525527   3.795   0.867   6.365  0.0134  0.2081  0.2265
 4294ntf    fn425528   3.586   0.726   6.514  0.0702  0.0263  0.0038
 4294ntf    fn425529   3.658   0.875   6.653  0.2932 -0.1140 -0.1839
 4294ntf    fn425530   3.479   0.904   6.556  0.0625 -0.1041 -0.2329
 4295ntf    cn125531   6.283   6.500   0.788  0.1100 -0.2637 -0.0958
 4295ntf    sn225532   6.274   6.680   0.765 -0.1665 -0.1978  0.5215
 4295ntf    nn325533   6.252   6.695   0.610  0.7706  0.0608  0.4081
 4295ntf    sn225534   6.357   6.673   0.496  0.2819  0.0262 -0.0380
 4295ntf    cn125535   6.345   6.821   0.391  0.0546  0.0403  0.0063
 4295ntf    fn425536   6.178   6.450   0.726 -0.0182 -0.0798 -0.0245
 4295ntf    fn425537   6.393   6.450   0.733  0.2202  0.6306 -0.7121
 4295ntf    fn425538   6.281   6.463   0.915  0.3423  0.4651  0.1209
 4295ntf    on525539   6.157   6.722   0.838  0.2170  0.3240  0.8398
 4295ntf    on525540   6.397   6.736   0.815 -0.2113 -0.0218  0.4315
 4295ntf    on525541   6.328   6.559   0.413 -0.2134  0.2875 -0.2295
 4295ntf    on525542   6.493   6.688   0.540  0.1426  0.1437  0.3601
 4295ntf    fn425543   6.434   6.817   0.293  0.2334 -0.2647  0.1798
 4295ntf    fn425544   6.223   6.838   0.344 -0.0546 -0.1779  0.2072
 4295ntf    fn425545   6.377   6.932   0.457 -0.3728  0.2308 -0.1052
 4296ntf    cn125546   4.097   2.979   5.063  0.3204  0.2154 -0.0802
 4296ntf    sn225547   4.088   2.804   5.014  0.1835  0.0616  0.4904
 4296ntf    nn325548   3.942   2.771   5.062  0.1126  0.0521  0.2706
 4296ntf    sn225549   3.808   2.794   4.985  0.1524  0.0528  0.2027
 4296ntf    cn125550   3.695   2.850   5.116 -0.4706 -0.0271 -0.2925
 4296ntf    fn425551   4.068   3.005   5.189 -0.1277 -0.6924  0.0083
 4296ntf    fn425552   4.222   3.020   5.046  0.4719 -0.3131 -0.2645
 4296ntf    fn425553   4.012   3.056   4.997  0.1899  0.2387  0.1176
 4296ntf    on525554   4.104   2.801   4.871 -0.0351 -0.0339  0.4674
 4296ntf    on525555   4.190   2.737   5.092  0.4630 -0.2402 -0.1253
 4296ntf    on525556   3.750   2.674   4.930  0.5467 -0.2100  0.3564
 4296ntf    on525557   3.815   2.908   4.896  0.3874 -0.2309 -0.1497
 4296ntf    fn425558   3.753   2.945   5.187 -0.0612 -0.4429 -0.0634
 4296ntf    fn425559   3.575   2.888   5.078 -0.5633 -0.0215  0.0068
 4296ntf    fn425560   3.684   2.753   5.206 -0.3077  0.1025 -0.1304
 4297ntf    cn125561   4.056   7.002   3.915 -0.7639  0.0895 -0.3195
 4297ntf    sn225562   4.073   6.822   3.894 -0.2924  0.0920  0.0253
 4297ntf    nn325563   4.064   6.809   3.737 -0.0095  0.1024  0.0078
 4297ntf    sn225564   4.175   6.831   3.629 -0.0816  0.2210 -0.0419
 4297ntf    cn125565   4.233   6.660   3.604  0.0298  0.3084 -0.3898
 4297ntf    fn425566   4.072   7.045   4.039 -0.3715  0.0308 -0.3492
 4297ntf    fn425567   4.147   7.064   3.841 -0.0676 -0.5876 -0.0315
 4297ntf    fn425568   3.938   7.039   3.865 -0.7965  0.0533 -0.2684
 4297ntf    on525569   4.197   6.787   3.958 -0.2224  0.1490 -0.0777
 4297ntf    on525570   3.946   6.786   3.952 -0.4017  0.0219 -0.2504
 4297ntf    on525571   4.296   6.897   3.671  0.2172 -0.1715 -0.2767
 4297ntf    on525572   4.111   6.869   3.506 -0.4214 -0.1925  0.0054
 4297ntf    fn425573   4.275   6.616   3.721 -0.0452  0.3175 -0.3590
 4297ntf    fn425574   4.131   6.589   3.560  0.1841 -0.0955 -0.0953
 4297ntf    fn425575   4.337   6.658   3.522  0.4059  0.3252  0.0812
 4298ntf    cn125576   4.746   0.915   6.193  0.3524  0.3973 -0.1444
 4298ntf    sn225577   4.662   1.043   6.291  0.0259  0.2444 -0.2252
 4298ntf    nn325578   4.567   1.104   6.181 -0.3835 -0.2733 -0.1604
 4298ntf    sn225579   4.604   1.206   6.068  0.0769 -0.3959 -0.1228
 4298ntf    cn125580   4.492   1.147   5.937 -0.2289 -0.3295  0.1074
 4298ntf    fn425581   4.827   0.971   6.105  0.4059 -0.1147 -0.4201
 4298ntf    fn425582   4.814   0.837   6.277  0.0536 -0.1634 -0.4188
 4298ntf    fn425583   4.660   0.835   6.132  0.1803  0.2484  0.2899
 4298ntf    on525584   4.595   0.972   6.397  0.1414  0.6616  0.1321
 4298ntf    on525585   4.767   1.132   6.332  0.4025 -0.1185 -0.3992
 4298ntf    on525586   4.739   1.198   6.020  0.3712  0.4612  0.5268
 4298ntf    on525587   4.550   1.336   6.100  0.0149 -0.4458 -0.0262
 4298ntf    fn425588   4.367   1.160   5.977 -0.2472 -0.3223  0.0496
 4298ntf    fn425589   4.512   1.223   5.830 -0.2934 -0.2558  0.1472
 4298ntf    fn425590   4.521   1.025   5.896  0.2685 -0.1824  0.0097
 4299ntf    cn125591   5.767   0.318   5.868 -0.0575 -0.0724  0.0976
 4299ntf    sn225592   5.934   0.308   5.796 -0.1251 -0.1308 -0.0523
 4299ntf    nn325593   5.905   0.188   5.699  0.1010  0.1029 -0.4075
 4299ntf    sn225594   5.852   0.181   5.551 -0.0828  0.0098 -0.3372
 4299ntf    cn125595   6.000   0.212   5.450  0.2101  0.0331  0.0916
 4299ntf    fn425596   5.673   0.327   5.776 -0.1498  0.3749  0.2352
 4299ntf    fn425597   5.730   0.216   5.945 -0.5338 -0.1020 -0.1630
 4299ntf    fn425598   5.759   0.426   5.943 -0.2887  0.0281 -0.0706
 4299ntf    on525599   5.948   0.436   5.733 -0.5653 -0.0698 -0.0289
 4299ntf    on525600   6.019   0.280   5.909 -0.0305 -0.2891 -0.1616
 4299ntf    on525601   5.760   0.284   5.512  0.0789  0.2269 -0.1514
 4299ntf    on525602   5.816   0.047   5.513  0.7074 -0.2798 -0.0974
 4299ntf    fn425603   6.054   0.328   5.484  0.2345 -0.1057  0.5253
 4299ntf    fn425604   6.097   0.123   5.453  0.0822 -0.1015  0.2149
 4299ntf    fn425605   5.965   0.226   5.322 -0.1916 -0.1137  0.1818
 4300ntf    cn125606   3.107   6.539   4.482 -0.0060 -0.1032 -0.0086
 4300ntf    sn225607   3.218   6.400   4.519  0.3471  0.1481 -0.1243
 4300ntf    nn325608   3.155   6.304   4.413  0.1627  0.2705 -0.1268
 4300ntf    sn225609   3.190   6.280   4.261  0.1117 -0.0059 -0.0962
 4300ntf    cn125610   3.022   6.268   4.192  0.0200  0.0075  0.1237
 4300ntf    fn425611   3.066   6.551   4.357  0.5623  0.0237 -0.1844
 4300ntf    fn425612   3.004   6.540   4.565  0.1509 -0.3231  0.1884
 4300ntf    fn425613   3.170   6.651   4.513 -0.0255 -0.1133  0.0691
 4300ntf    on525614   3.349   6.456   4.493  0.4347 -0.1933 -0.4278
 4300ntf    on525615   3.190   6.364   4.656  0.3108  0.3386 -0.0798
 4300ntf    on525616   3.241   6.148   4.236 -0.0894 -0.0502 -0.2741
 4300ntf    on525617   3.253   6.388   4.190  0.1461  0.0578  0.0300
 4300ntf    fn425618   2.958   6.159   4.231  0.0886 -0.0714  0.0156
 4300ntf    fn425619   2.951   6.368   4.243 -0.2851 -0.1856  0.0810
 4300ntf    fn425620   3.022   6.267   4.060  0.3172  0.0213  0.1231
 4301ntf    cn125621   0.738   5.289   6.054  0.2674 -0.1365 -0.1829
 4301ntf    sn225622   0.868   5.414   6.035  0.1678  0.0068  0.0903
 4301ntf    nn325623   0.942   5.358   5.909 -0.1325  0.1867 -0.1657
 4301ntf    sn225624   1.083   5.290   5.904 -0.3236 -0.2064 -0.1865
 4301ntf    cn125625   1.039   5.128   5.976  0.0704  0.0897  0.7461
 4301ntf    fn425626   0.673   5.263   5.941 -0.2240 -0.0734  0.0843
 4301ntf    fn425627   0.787   5.174   6.098  1.0167  0.1950 -0.1347
 4301ntf    fn425628   0.649   5.318   6.147  0.6184 -0.0334  0.1203
 4301ntf    on525629   0.799   5.533   5.990  0.1169  0.3986  1.1501
 4301ntf    on525630   0.931   5.423   6.165  0.6632 -0.4363 -0.1202
 4301ntf    on525631   1.188   5.340   5.989 -0.5953 -0.5714  0.3758
 4301ntf    on525632   1.116   5.261   5.767 -0.8117 -0.0163 -0.3464
 4301ntf    fn425633   1.137   5.043   5.950 -0.2407 -0.1981  0.4988
 4301ntf    fn425634   1.019   5.132   6.106  0.6725 -0.0958  0.8487
 4301ntf    fn425635   0.927   5.076   5.929 -0.0490  0.5271  0.5397
 4302ntf    cn125636   2.760   1.093   0.259 -0.6516  0.2127 -0.3443
 4302ntf    sn225637   2.855   1.231   0.330  0.0858 -0.4147 -0.1033
 4302ntf    nn325638   2.831   1.202   0.483  0.1128  0.4085  0.0639
 4302ntf    sn225639   2.824   1.295   0.609 -0.0265  0.2684  0.1600
 4302ntf    cn125640   2.660   1.243   0.669  0.2611 -0.0351  0.6785
 4302ntf    fn425641   2.787   0.973   0.307 -0.3663  0.5087  0.2423
 4302ntf    fn425642   2.631   1.110   0.280 -0.6645  0.0880 -0.3241
 4302ntf    fn425643   2.779   1.094   0.128  0.4334 -0.1392 -0.1982
 4302ntf    on525644   2.989   1.193   0.291  0.3212  0.3181 -0.0319
 4302ntf    on525645   2.793   1.347   0.272  0.0435 -0.1194  0.5221
 4302ntf    on525646   2.808   1.437   0.592  0.3978  0.2698 -0.2330
 4302ntf    on525647   2.909   1.251   0.716 -0.5037 -0.2292  0.3414
 4302ntf    fn425648   2.674   1.128   0.734 -0.0723 -0.1502  0.5489
 4302ntf    fn425649   2.605   1.335   0.746  0.0163  0.0680  0.3801
 4302ntf    fn425650   2.575   1.223   0.570  0.5669  0.6389  0.2702
 4303ntf    cn125651   0.194   1.185   5.686 -0.0784  0.1294  0.0241
 4303ntf    sn225652   0.158   1.082   5.831 -0.2179  0.3308  0.1336
 4303ntf    nn325653   0.056   1.180   5.899 -0.3429 -0.0648  0.5170
 4303ntf    sn225654  -0.054   1.150   6.007 -0.6868  0.0014  0.1867
 4303ntf    cn125655  -0.204   1.111   5.912 -0.5557  0.0871 -0.0557
 4303ntf    fn425656   0.081   1.206   5.620 -0.4310 -0.7017  0.3518
 4303ntf    fn425657   0.242   1.302   5.725  0.0815  0.0249  0.1357
 4303ntf    fn425658   0.284   1.126   5.609 -0.1502  0.1345 -0.0646
 4303ntf    on525659   0.100   0.961   5.779  0.5398  0.2583 -0.5610
 4303ntf    on525660   0.281   1.067   5.905 -0.0427  0.5476 -0.1119
 4303ntf    on525661  -0.083   1.273   6.076 -0.1209  0.4098 -0.3009
 4303ntf    on525662  -0.044   1.030   6.088  0.4572 -0.1034 -0.0941
 4303ntf    fn425663  -0.315   1.102   5.984 -0.0799 -0.4518  0.6252
 4303ntf    fn425664  -0.221   1.206   5.821  0.3191 -0.2232 -0.5515
 4303ntf    fn425665  -0.194   0.999   5.842  0.0093  0.0394  0.0972
 4304ntf    cn125666   1.259   6.072   2.059  0.7073 -0.5278  0.3364
 4304ntf    sn225667   1.292   6.164   2.212 -0.1540  0.2236  0.0772
 4304ntf    nn325668   1.369   6.061   2.302  0.0358 -0.0407 -0.3822
 4304ntf    sn225669   1.309   5.942   2.385  0.0571  0.2009 -0.0198
 4304ntf    cn125670   1.348   6.000   2.553  0.1443  0.0629  0.0081
 4304ntf    fn425671   1.194   5.958   2.074  0.0608 -0.1847  0.1939
 4304ntf    fn425672   1.195   6.145   1.969  1.3542  0.2056  0.4605
 4304ntf    fn425673   1.375   6.037   2.006  0.5299 -0.5470 -0.0428
 4304ntf    on525674   1.379   6.263   2.154 -0.0734 -0.1482 -0.4450
 4304ntf    on525675   1.163   6.200   2.267 -0.1299 -0.2139  0.4177
 4304ntf    on525676   1.376   5.817   2.363 -0.1271  0.1241 -0.1449
 4304ntf    on525677   1.165   5.933   2.386  0.1069 -0.6275 -0.1663
 4304ntf    fn425678   1.295   5.911   2.635  0.0850  0.3243  0.2565
 4304ntf    fn425679   1.478   6.017   2.573  0.0636  0.0414  0.5702
 4304ntf    fn425680   1.292   6.118   2.578  0.3293  0.1410  0.0599
 4305ntf    cn125681   3.922   0.440   6.629  0.0647  0.2100 -0.3996
 4305ntf    sn225682   3.843   0.360   6.487 -0.2131  0.0574 -0.1603
 4305ntf    nn325683   3.856   0.210   6.529 -0.1011  0.2635  0.5495
 4305ntf    sn225684   3.750   0.106   6.581 -0.0466  0.0121  0.1570
 4305ntf    cn125685   3.835  -0.048   6.535 -0.2202  0.0097 -0.1587
 4305ntf    fn425686   3.969   0.560   6.600  0.2615  0.0544 -0.7329
 4305ntf    fn425687   3.834   0.459   6.726  0.0288  0.1708 -0.4253
 4305ntf    fn425688   4.018   0.364   6.680  0.0243  0.2048 -0.3307
 4305ntf    on525689   3.707   0.408   6.480 -0.1882  0.1844  0.2233
 4305ntf    on525690   3.926   0.396   6.375  0.3993  0.0125  0.2781
 4305ntf    on525691   3.625   0.103   6.509 -0.2209  0.5901  0.4355
 4305ntf    on525692   3.733   0.099   6.724 -0.7686 -0.1312  0.0702
 4305ntf    fn425693   3.895  -0.046   6.417 -0.1222 -0.0434 -0.1099
 4305ntf    fn425694   3.921  -0.080   6.630  0.3847  0.4350 -0.5555
 4305ntf    fn425695   3.751  -0.150   6.526 -0.5360  0.2044  0.5394
 4306ntf    cn125696   0.687   1.291   1.191  0.2705 -0.0382 -0.0832
 4306ntf    sn225697   0.678   1.396   1.340 -0.4026  0.0662 -0.1937
 4306ntf    nn325698   0.709   1.536   1.276 -0.0830  0.1196  0.0747
 4306ntf    sn225699   0.767   1.662   1.349 -0.1372  0.0296  0.2730
 4306ntf    cn125700   0.938   1.648   1.290 -0.1883 -0.0280  0.1390
 4306ntf    fn425701   0.642   1.168   1.209  0.2345 -0.0001  0.0940
 4306ntf    fn425702   0.623   1.341   1.086 -0.2496 -0.5567 -0.0169
 4306ntf    fn425703   0.811   1.284   1.147  0.1663  0.1596 -0.4167
 4306ntf    on525704   0.540   1.386   1.380 -0.3667  0.2202 -0.0313
 4306ntf    on525705   0.787   1.346   1.420 -0.0272  0.0882 -0.6854
 4306ntf    on525706   0.787   1.653   1.491  0.5557  0.2481  0.1903
 4306ntf    on525707   0.722   1.787   1.292  0.2410  0.0063 -0.0785
 4306ntf    fn425708   1.003   1.760   1.317 -0.4399  0.1565 -0.0097
 4306ntf    fn425709   1.006   1.547   1.341 -0.5972 -0.5858 -0.3980
 4306ntf    fn425710   0.949   1.639   1.158  0.0284 -0.3944  0.1813
 4307ntf    cn125711   5.162   1.152   4.929 -0.1296 -0.2687 -0.2766
 4307ntf    sn225712   5.063   1.115   5.077 -0.1964  0.2354 -0.1906
 4307ntf    nn325713   5.040   1.261   5.128  0.0406  0.3025 -0.2749
 4307ntf    sn225714   5.142   1.333   5.224 -0.1279 -0.0580  0.1789
 4307ntf    cn125715   5.076   1.299   5.390 -0.0644 -0.1226  0.1912
 4307ntf    fn425716   5.092   1.206   4.831 -0.4662 -0.2569 -0.0329
 4307ntf    fn425717   5.256   1.243   4.954  0.0130 -0.4200 -0.2591
 4307ntf    fn425718   5.223   1.046   4.880 -0.1589 -0.4035 -0.0246
 4307ntf    on525719   4.947   1.047   5.023  0.3859 -0.3445 -0.7395
 4307ntf    on525720   5.145   1.030   5.159  0.3200  0.6751 -0.2469
 4307ntf    on525721   5.132   1.476   5.209  0.0339 -0.0824 -0.1674
 4307ntf    on525722   5.271   1.269   5.227 -0.1882 -0.1644  0.5593
 4307ntf    fn425723   4.945   1.310   5.405 -0.1452 -0.2158 -0.4103
 4307ntf    fn425724   5.108   1.177   5.430 -0.4293 -0.0976  0.5650
 4307ntf    fn425725   5.133   1.381   5.476  0.1914  0.2638 -0.3398
 4308ntf    cn125726   6.415   3.852   4.332  0.4746  0.0783 -0.0492
 4308ntf    sn225727   6.288   3.769   4.431  0.4018  0.1014 -0.1237
 4308ntf    nn325728   6.337   3.799   4.577 -0.2367  0.2083  0.0695
 4308ntf    sn225729   6.299   3.911   4.681  0.0459 -0.0609  0.4660
 4308ntf    cn125730   6.272   3.806   4.827 -0.4937 -0.2012  0.2668
 4308ntf    fn425731   6.424   3.982   4.358 -0.0978  0.1038  0.0359
 4308ntf    fn425732   6.534   3.801   4.360  0.5389  0.0358 -0.3885
 4308ntf    fn425733   6.399   3.840   4.201 -0.0390 -0.4594  0.0622
 4308ntf    on525734   6.169   3.841   4.394  0.0707 -0.0399  0.6579
 4308ntf    on525735   6.296   3.629   4.395 -0.3330  0.0906 -0.2610
 4308ntf    on525736   6.168   3.968   4.659  0.1213 -0.0877 -0.0586
 4308ntf    on525737   6.410   3.997   4.712  0.0489  0.1496 -0.1118
 4308ntf    fn425738   6.376   3.761   4.894  0.1091  0.0355 -0.4943
 4308ntf    fn425739   6.206   3.870   4.922  0.3592  0.1251  0.6482
 4308ntf    fn425740   6.197   3.701   4.795 -0.2967 -0.3044  0.1424
 4309ntf    cn125741   0.985   3.896   4.263  0.2167  0.2649  0.1712
 4309ntf    sn225742   0.830   3.802   4.279  0.0944  0.4395  0.0377
 4309ntf    nn325743   0.893   3.662   4.315  0.3723  0.4744 -0.3048
 4309ntf    sn225744   0.940   3.541   4.228  0.0656 -0.0017  0.1866
 4309ntf    cn125745   0.784   3.451   4.202 -0.1706  0.3545  0.3641
 4309ntf    fn425746   0.956   4.024   4.244  1.2100  0.4108 -0.3997
 4309ntf    fn425747   1.050   3.889   4.378 -0.0166 -0.2384  0.2744
 4309ntf    fn425748   1.060   3.865   4.158 -0.5041  0.2917 -0.3653
 4309ntf    on525749   0.759   3.864   4.388 -0.9321 -0.3864 -0.1418
 4309ntf    on525750   0.777   3.811   4.146  0.0885 -0.2886 -0.0137
 4309ntf    on525751   1.029   3.453   4.301  0.1746  0.0356  0.0986
 4309ntf    on525752   0.987   3.577   4.097 -0.7056  0.0575 -0.0801
 4309ntf    fn425753   0.733   3.404   4.315 -0.2021  0.0167  0.2110
 4309ntf    fn425754   0.689   3.521   4.144 -0.3138  0.1402  0.3385
 4309ntf    fn425755   0.806   3.352   4.117  0.0693  0.2664  0.5271
 4310ntf    cn125756   7.060   5.695   6.380  0.0261  0.3540 -0.2459
 4310ntf    sn225757   6.883   5.685   6.420  0.1032  0.0472  0.0258
 4310ntf    nn325758   6.884   5.749   6.563  0.2414 -0.5467  0.2975
 4310ntf    sn225759   6.767   5.760   6.668 -0.0086 -0.1019 -0.0219
 4310ntf    cn125760   6.667   5.896   6.599  0.4874  0.2212 -0.1096
 4310ntf    fn425761   7.131   5.622   6.466  0.3707  0.3915 -0.4958
 4310ntf    fn425762   7.083   5.632   6.266 -0.8307  0.1316 -0.3006
 4310ntf    fn425763   7.104   5.819   6.376  0.5419  0.1900  0.1950
 4310ntf    on525764   6.814   5.752   6.312 -0.1923 -0.1224  0.1094
 4310ntf    on525765   6.868   5.541   6.420  0.4203  0.0121 -0.3895
 4310ntf    on525766   6.808   5.822   6.791 -0.0384 -0.0722 -0.0266
 4310ntf    on525767   6.685   5.643   6.688 -0.5631  0.3725  0.5335
 4310ntf    fn425768   6.727   6.012   6.582 -0.2127  0.5861 -0.1154
 4310ntf    fn425769   6.610   5.860   6.485  0.1738  0.0519  0.0984
 4310ntf    fn425770   6.573   5.919   6.688  0.5905 -0.1541  0.1002
 4311ntf    cn125771   4.001   2.610   1.401  0.1090 -0.4531  0.0972
 4311ntf    sn225772   3.931   2.673   1.246  0.0500 -0.1934  0.2278
 4311ntf    nn325773   4.005   2.811   1.236  0.6094 -0.5109 -0.0748
 4311ntf    sn225774   3.994   2.904   1.110  0.0269 -0.1486  0.2412
 4311ntf    cn125775   4.141   2.854   1.016 -0.1562 -0.1485 -0.0452
 4311ntf    fn425776   3.958   2.675   1.509 -0.8471 -0.8245 -0.0482
 4311ntf    fn425777   3.969   2.483   1.418  0.2896 -0.4640  0.3596
 4311ntf    fn425778   4.133   2.618   1.405  0.0857  0.0032  0.0862
 4311ntf    on525779   3.963   2.569   1.151 -0.2853 -0.2846  0.2139
 4311ntf    on525780   3.789   2.689   1.262  0.1576  0.1897  0.8165
 4311ntf    on525781   4.037   3.040   1.134  0.2299 -0.1352 -0.1865
 4311ntf    on525782   3.885   2.888   1.018 -0.0311 -0.1450  0.3092
 4311ntf    fn425783   4.254   2.843   1.084 -0.0364  0.6444 -0.1007
 4311ntf    fn425784   4.118   2.744   0.947 -0.1123 -0.3500  0.2608
 4311ntf    fn425785   4.167   2.951   0.930  0.0289  0.0499  0.2331
 4312ntf    cn125786   5.079   4.443   4.748  0.0825 -0.2395  0.0092
 4312ntf    sn225787   5.068   4.270   4.693 -0.3323 -0.2202  0.0278
 4312ntf    nn325788   5.144   4.194   4.807  0.2195 -0.1197 -0.2709
 4312ntf    sn225789   5.114   4.055   4.874 -0.0446  0.1904  0.2519
 4312ntf    cn125790   5.270   3.996   4.945  0.0769 -0.3196 -0.4383
 4312ntf    fn425791   5.202   4.459   4.794  0.2827 -0.4905 -0.4373
 4312ntf    fn425792   5.057   4.531   4.652  0.4490 -0.7224 -0.5193
 4312ntf    fn425793   5.002   4.475   4.851 -0.3438 -0.7005 -0.1624
 4312ntf    on525794   4.925   4.251   4.682 -0.3753 -0.2251  0.5672
 4312ntf    on525795   5.139   4.277   4.568 -0.5988 -0.4140 -0.1355
 4312ntf    on525796   5.086   3.950   4.779 -0.4518  0.5469 -0.0295
 4312ntf    on525797   5.026   4.061   4.989 -0.0914  0.3872  0.2065
 4312ntf    fn425798   5.362   3.989   4.850  0.4461  0.3636 -0.1399
 4312ntf    fn425799   5.320   4.070   5.042 -0.3498  0.2407 -0.6416
 4312ntf    fn425800   5.259   3.875   4.999  0.0351 -0.2789 -0.3563
 4313ntf    cn125801   3.238   4.234   4.379  0.0601  0.1815 -0.0670
 4313ntf    sn225802   3.308   4.145   4.237 -0.0973 -0.1537  0.0636
 4313ntf    nn325803   3.275   4.257   4.131  0.6962 -0.2235 -0.2665
 4313ntf    sn225804   3.220   4.234   3.986 -0.2244 -0.0879  0.0525
 4313ntf    cn125805   3.041   4.250   4.016 -0.2619 -0.4124  0.0099
 4313ntf    fn425806   3.240   4.150   4.481  0.2563 -0.0471 -0.2588
 4313ntf    fn425807   3.305   4.343   4.412  0.2103  0.2059 -0.4458
 4313ntf    fn425808   3.110   4.264   4.361 -0.1059 -0.1207  0.5646
 4313ntf    on525809   3.448   4.133   4.267 -0.0891 -0.4645 -0.0994
 4313ntf    on525810   3.229   4.024   4.231 -0.0955 -0.1558  0.0749
 4313ntf    on525811   3.228   4.101   3.931 -0.1273  0.1610 -0.5400
 4313ntf    on525812   3.260   4.338   3.895  0.1742 -0.1836  0.1159
 4313ntf    fn425813   2.976   4.238   3.901  0.1272 -0.4573 -0.2112
 4313ntf    fn425814   2.999   4.154   4.097 -0.1636 -0.4368  0.0324
 4313ntf    fn425815   3.002   4.362   4.074  0.3206  0.0752 -0.5163
 4314ntf    cn125816   3.134   0.183   3.809  0.1158  0.1876  0.2820
 4314ntf    sn225817   3.134   0.259   3.643  0.4049  0.2123  0.2926
 4314ntf    nn325818   3.015   0.360   3.661 -0.0019 -0.1740 -0.2087
 4314ntf    sn225819   2.862   0.335   3.639 -0.0340 -0.1090 -0.0547
 4314ntf    cn125820   2.853   0.412   3.475  0.0933 -0.0537 -0.0356
 4314ntf    fn425821   3.014   0.132   3.831  0.2346 -0.3384 -0.2613
 4314ntf    fn425822   3.222   0.084   3.822 -0.1289 -0.0953 -0.1934
 4314ntf    fn425823   3.163   0.263   3.910  0.5288 -0.2254  0.4963
 4314ntf    on525824   3.262   0.324   3.635  0.5509 -0.1274 -0.1696
 4314ntf    on525825   3.115   0.148   3.553 -0.0584  0.4519  0.0934
 4314ntf    on525826   2.768   0.418   3.711 -0.1418 -0.2404 -0.0441
 4314ntf    on525827   2.823   0.197   3.621 -0.9710  0.0950  0.3232
 4314ntf    fn425828   2.731   0.399   3.425 -0.0140 -0.3733  0.3043
 4314ntf    fn425829   2.865   0.544   3.471 -0.9371  0.0260 -0.7527
 4314ntf    fn425830   2.937   0.363   3.386  0.4759 -0.2269  0.4159
 4315ntf    cn125831   2.027   0.009   7.112 -0.1181  0.2752  0.0022
 4315ntf    sn225832   2.025  -0.168   7.071  0.1062  0.3527 -0.3500
 4315ntf    nn325833   2.075  -0.172   6.922  0.4825  0.9407 -0.2436
 4315ntf    sn225834   2.206  -0.248   6.880 -0.0003 -0.0127 -0.0570
 4315ntf    cn125835   2.153  -0.422   6.882 -0.1796  0.0409 -0.1223
 4315ntf    fn425836   1.937   0.079   7.046 -0.0054  0.2283 -0.2034
 4315ntf    fn425837   2.010   0.040   7.239  0.1799  0.4374  0.0058
 4315ntf    fn425838   2.149   0.052   7.081 -0.0829  0.5368  0.4887
 4315ntf    on525839   2.112  -0.233   7.165  0.0353 -0.0295 -0.5442
 4315ntf    on525840   1.889  -0.213   7.088  0.1344  0.1943 -0.5456
 4315ntf    on525841   2.329  -0.231   6.952  0.0235 -0.1925 -0.0538
 4315ntf    on525842   2.221  -0.218   6.739  0.6144 -0.3786 -0.0712
 4315ntf    fn425843   2.064  -0.444   6.787 -0.0397 -0.1292 -0.2150
 4315ntf    fn425844   2.254  -0.507   6.871 -0.0182  0.2620 -0.3907
 4315ntf    fn425845   2.096  -0.459   6.995  0.3244 -0.3064  0.0220
 4316ntf    cn125846   5.077   0.563   0.853 -0.2613 -0.2594 -0.0771
 4316ntf    sn225847   5.242   0.488   0.838 -0.0762  0.1344 -0.0276
 4316ntf    nn325848   5.208   0.337   0.810 -0.1587  0.1883 -0.2244
 4316ntf    sn225849   5.185   0.259   0.677  0.2087  0.0445 -0.2052
 4316ntf    cn125850   5.007   0.223   0.685  0.2443 -0.0710  0.0488
 4316ntf    fn425851   5.016   0.565   0.735 -0.0379  0.5215 -0.1841
 4316ntf    fn425852   4.994   0.493   0.928 -0.4995  0.1458  0.0425
 4316ntf    fn425853   5.081   0.687   0.898 -0.3185 -0.2179 -0.1863
 4316ntf    on525854   5.310   0.551   0.727 -0.3389  0.4990  0.0157
 4316ntf    on525855   5.300   0.500   0.969 -0.4399  0.7069  0.0813
 4316ntf    on525856   5.253   0.132   0.688  0.2134  0.1178  0.6500
 4316ntf    on525857   5.213   0.336   0.558  0.4201  0.4298  0.0940
 4316ntf    fn425858   4.956   0.224   0.808  0.0572  0.5603 -0.0304
 4316ntf    fn425859   4.937   0.318   0.626  0.1653 -0.0187  0.2247
 4316ntf    fn425860   4.971   0.109   0.629 -0.1371 -0.0893  0.3278
 4317ntf    cn125861   3.254   0.522   4.268 -0.1908 -0.0089  0.2744
 4317ntf    sn225862   3.335   0.635   4.151 -0.3338 -0.3068 -0.1150
 4317ntf    nn325863   3.214   0.733   4.129  0.1155  0.4103  0.5382
 4317ntf    sn225864   3.216   0.884   4.085 -0.1518  0.2665  0.0225
 4317ntf    cn125865   3.190   0.962   4.247  0.4378  0.5926 -0.0383
 4317ntf    fn425866   3.327   0.416   4.299  0.1894  0.1497 -0.0522
 4317ntf    fn425867   3.233   0.588   4.380 -0.0862  0.0873  0.2383
 4317ntf    fn425868   3.135   0.475   4.235 -0.3096 -0.1340  0.8835
 4317ntf    on525869   3.446   0.691   4.224 -0.5221 -0.1348  0.0388
 4317ntf    on525870   3.357   0.556   4.032 -0.4013 -0.5878  0.0611
 4317ntf    on525871   3.100   0.921   4.007 -0.3347  0.0692  0.1985
 4317ntf    on525872   3.344   0.936   4.043 -0.3244  0.4057 -0.3338
 4317ntf    fn425873   3.281   0.930   4.337  0.6500  0.6986 -0.2131
 4317ntf    fn425874   3.180   1.094   4.246 -0.0014  0.5708  0.8112
 4317ntf    fn425875   3.072   0.925   4.294  0.4970  0.1923 -0.2035
 4318ntf    cn125876   5.978   6.982   2.711 -0.0064  0.1037  0.1504
 4318ntf    sn225877   5.912   6.886   2.571  0.1574  0.2007  0.0067
 4318ntf    nn325878   6.037   6.893   2.477  0.0777 -0.1867 -0.1296
 4318ntf    sn225879   6.064   6.995   2.361 -0.1347  0.2966  0.2429
 4318ntf    cn125880   6.023   6.893   2.216  0.0716  0.1931  0.2576
 4318ntf    fn425881   6.098   6.933   2.738  0.0318  0.1127 -0.0046
 4318ntf    fn425882   5.988   7.110   2.680  0.5718  0.0003 -0.0955
 4318ntf    fn425883   5.908   6.978   2.823 -0.5963  0.6304 -0.1890
 4318ntf    on525884   5.890   6.753   2.620  0.2438  0.1088 -0.2049
 4318ntf    on525885   5.797   6.967   2.536 -0.5131 -0.5765  0.4029
 4318ntf    on525886   6.208   7.006   2.354 -0.1105 -0.2173 -0.1383
 4318ntf    on525887   5.986   7.117   2.361 -0.6601 -0.0392  0.1170
 4318ntf    fn425888   6.078   6.773   2.222  0.1626  0.1804 -0.7059
 4318ntf    fn425889   5.892   6.874   2.212  0.1534 -0.1657 -1.0619
 4318ntf    fn425890   6.066   6.942   2.101 -0.3429 -0.0614 -0.0079
 4319ntf    cn125891   0.755   6.360   1.733 -0.0174  0.1078 -0.4529
 4319ntf    sn225892   0.775   6.536   1.773 -0.1357 -0.0358  0.2532
 4319ntf    nn325893   0.844   6.534   1.913 -0.0402 -0.1723  0.2043
 4319ntf    sn225894   0.954   6.623   1.982 -0.2645  0.5643 -0.3731
 4319ntf    cn125895   0.910   6.600   2.157  0.1174  0.0937 -0.3366
 4319ntf    fn425896   0.698   6.339   1.615 -0.1483 -0.0187 -0.3674
 4319ntf    fn425897   0.873   6.300   1.728 -0.0823 -0.0650  0.0329
 4319ntf    fn425898   0.684   6.299   1.826  0.6953  0.0131  0.0303
 4319ntf    on525899   0.859   6.581   1.665 -0.5443  0.1666  0.0139
 4319ntf    on525900   0.643   6.594   1.779  0.0183  0.3007  0.3987
 4319ntf    on525901   0.942   6.767   1.978 -0.4506  0.5496 -0.3476
 4319ntf    on525902   1.091   6.578   1.978 -0.2280  0.6733 -0.3560
 4319ntf    fn425903   0.959   6.695   2.234 -0.3075 -0.4239  0.5888
 4319ntf    fn425904   0.779   6.593   2.171  0.1383 -0.2161 -0.2873
 4319ntf    fn425905   0.959   6.489   2.209 -0.7487  0.1272  0.5771
 4320ntf    cn125906   0.304   1.749   2.230 -0.7453 -0.0042 -0.2789
 4320ntf    sn225907   0.268   1.909   2.309  0.0049  0.0969 -0.1396
 4320ntf    nn325908   0.127   1.875   2.370 -0.0492  0.7695  0.1162
 4320ntf    sn225909   0.099   1.838   2.520  0.1115 -0.0640 -0.0563
 4320ntf    cn125910  -0.082   1.848   2.536  0.1470  0.0746  0.2641
 4320ntf    fn425911   0.266   1.642   2.298 -0.4072  0.1614  0.1722
 4320ntf    fn425912   0.257   1.734   2.107  0.4310  0.1952 -0.7573
 4320ntf    fn425913   0.434   1.733   2.216 -0.7541 -0.2082 -0.1394
 4320ntf    on525914   0.369   1.925   2.411 -0.1353 -1.0090  0.1918
 4320ntf    on525915   0.254   1.998   2.197 -0.0145 -0.1723 -0.3511
 4320ntf    on525916   0.144   1.947   2.603  0.1907  0.0052 -0.1878
 4320ntf    on525917   0.135   1.705   2.562 -0.6189 -0.3196 -0.2324
 4320ntf    fn425918  -0.124   1.963   2.488 -0.2638 -0.3493 -0.4048
 4320ntf    fn425919  -0.155   1.760   2.470  0.3311 -0.2681  0.5080
 4320ntf    fn425920  -0.115   1.852   2.664 -0.0274  0.1733  0.2150
   7.18473   7.18473   7.18473
